unknown system                          
   1.0000000000000000     
     0.000000    2.746120    2.746120
     2.746120   -0.000000    2.746120
     2.746120    2.746120    0.000000
   Si
     2
Direct
  0.000000  0.000000  0.000000
  0.250000  0.250000  0.250000

   48   48   48
 -7.4318     -6.6496     -4.4223     -1.0818      2.8950      6.9798      10.688      13.652      15.665      16.686    
  16.816      16.263      15.284      14.134      12.952      11.803      10.733      9.7731      8.9427      8.2487    
  7.6910      7.2654      6.9665      6.7893      6.7306      6.7893      6.9665      7.2654      7.6910      8.2487    
  8.9427      9.7731      10.733      11.803      12.952      14.134      15.284      16.263      16.816      16.686    
  15.665      13.652      10.688      6.9798      2.8950     -1.0818     -4.4223     -6.6496     -6.6496     -5.0634    
 -2.1382      1.6861      5.8699      9.8791      13.276      15.776      17.269      17.800      17.540      16.730    
  15.636      14.461      13.287      12.166      11.136      10.225      9.4436      8.7988      8.2896      7.9126    
  7.6639      7.5404      7.5404      7.6639      7.9126      8.2896      8.7988      9.4436      10.225      11.136    
  12.166      13.287      14.461      15.636      16.730      17.540      17.800      17.269      15.776      13.276    
  9.8791      5.8699      1.6861     -2.1382     -5.0634     -6.6496     -4.4223     -2.1382      1.2635      5.2723    
  9.3367      12.968      15.814      17.694      18.594      18.637      18.037      17.049      15.913      14.746    
  13.605      12.532      11.559      10.704      9.9801      9.3896      8.9331      8.6089      8.4153      8.3509    
  8.4153      8.6089      8.9331      9.3896      9.9801      10.704      11.559      12.532      13.605      14.746    
  15.913      17.049      18.037      18.637      18.594      17.694      15.814      12.968      9.3367      5.2723    
  1.2635     -2.1382     -4.4223     -5.2273     -1.0818      1.6861      5.2723      9.1461      12.797      15.821    
  17.974      19.180      19.509      19.138      18.301      17.242      16.118      14.991      13.906      12.898    
  11.992      11.203      10.540      10.007      9.6058      9.3381      9.2041      9.2041      9.3381      9.6058    
  10.007      10.540      11.203      11.992      12.898      13.906      14.991      16.118      17.242      18.301    
  19.138      19.509      19.180      17.974      15.821      12.797      9.1461      5.2723      1.6861     -1.0818    
 -2.5910     -2.5910      2.8950      5.8699      9.3367      12.797      15.820      18.113      19.539      20.116    
  19.974      19.317      18.375      17.331      16.255      15.196      14.187      13.257      12.425      11.705    
  11.104      10.630      10.287      10.079      10.009      10.079      10.287      10.630      11.104      11.705    
  12.425      13.257      14.187      15.196      16.255      17.331      18.375      19.317      19.974      20.116    
  19.539      18.113      15.820      12.797      9.3367      5.8699      2.8950     0.88289     0.17123     0.88289    
  6.9798      9.8791      12.968      15.821      18.113      19.661      20.427      20.496      20.034      19.245    
  18.316      17.331      16.334      15.362      14.443      13.597      12.842      12.190      11.651      11.235    
  10.951      10.807      10.807      10.951      11.235      11.651      12.190      12.842      13.597      14.443    
  15.362      16.334      17.331      18.316      19.245      20.034      20.496      20.427      19.661      18.113    
  15.821      12.968      9.8791      6.9798      4.7214      3.4835      3.4835      4.7214      10.688      13.276    
  15.814      17.974      19.539      20.427      20.674      20.405      19.792      19.012      18.153      17.257    
  16.360      15.488      14.663      13.903      13.221      12.633      12.153      11.795      11.574      11.499    
  11.574      11.795      12.153      12.633      13.221      13.903      14.663      15.488      16.360      17.257    
  18.153      19.012      19.792      20.405      20.674      20.427      19.539      17.974      15.814      13.276    
  10.688      8.4411      6.9107      6.3676      6.9107      8.4411      13.652      15.776      17.694      19.180    
  20.116      20.496      20.405      19.979      19.373      18.669      17.908      17.121      16.334      15.566    
  14.835      14.153      13.539      13.009      12.584      12.286      12.131      12.131      12.286      12.584    
  13.009      13.539      14.153      14.835      15.566      16.334      17.121      17.908      18.669      19.373    
  19.979      20.405      20.496      20.116      19.180      17.694      15.776      13.652      11.629      10.038    
  9.1619      9.1619      10.038      11.629      15.665      17.269      18.594      19.509      19.974      20.034    
  19.792      19.373      18.845      18.244      17.599      16.930      16.255      15.588      14.940      14.328    
  13.771      13.293      12.923      12.687      12.606      12.687      12.923      13.293      13.771      14.328    
  14.940      15.588      16.255      16.930      17.599      18.244      18.845      19.373      19.792      20.034    
  19.974      19.509      18.594      17.269      15.665      14.000      12.537      11.534      11.177      11.534    
  12.537      14.000      16.686      17.800      18.637      19.138      19.317      19.245      19.012      18.669    
  18.244      17.762      17.239      16.687      16.118      15.539      14.962      14.406      13.897      13.465    
  13.147      12.977      12.977      13.147      13.465      13.897      14.406      14.962      15.539      16.118    
  16.687      17.239      17.762      18.244      18.669      19.012      19.245      19.317      19.138      18.637    
  17.800      16.686      15.426      14.209      13.245      12.711      12.711      13.245      14.209      15.426    
  16.816      17.540      18.037      18.301      18.375      18.316      18.153      17.908      17.599      17.239    
  16.835      16.392      15.913      15.406      14.885      14.370      13.892      13.497      13.235      13.143    
  13.235      13.497      13.892      14.370      14.885      15.406      15.913      16.392      16.835      17.239    
  17.599      17.908      18.153      18.316      18.375      18.301      18.037      17.540      16.816      15.931    
  15.002      14.180      13.613      13.410      13.613      14.180      15.002      15.931      16.263      16.730    
  17.049      17.242      17.331      17.331      17.257      17.121      16.930      16.687      16.392      16.041    
  15.636      15.183      14.694      14.197      13.742      13.392      13.200      13.200      13.392      13.742    
  14.197      14.694      15.183      15.636      16.041      16.392      16.687      16.930      17.121      17.257    
  17.331      17.331      17.242      17.049      16.730      16.263      15.665      14.998      14.354      13.843    
  13.560      13.560      13.843      14.354      14.998      15.665      15.284      15.636      15.913      16.118    
  16.255      16.334      16.360      16.334      16.255      16.118      15.913      15.636      15.284      14.858    
  14.379      13.894      13.472      13.183      13.080      13.183      13.472      13.894      14.379      14.858    
  15.284      15.636      15.913      16.118      16.255      16.334      16.360      16.334      16.255      16.118    
  15.913      15.636      15.284      14.858      14.379      13.894      13.472      13.183      13.080      13.183    
  13.472      13.894      14.379      14.858      14.134      14.461      14.746      14.991      15.196      15.362    
  15.488      15.566      15.588      15.539      15.406      15.183      14.858      14.439      13.966      13.505    
  13.137      12.932      12.932      13.137      13.505      13.966      14.439      14.858      15.183      15.406    
  15.539      15.588      15.566      15.488      15.362      15.196      14.991      14.746      14.461      14.134    
  13.770      13.386      13.004      12.658      12.392      12.247      12.247      12.392      12.658      13.004    
  13.386      13.770      12.952      13.287      13.605      13.906      14.187      14.443      14.663      14.835    
  14.940      14.962      14.885      14.694      14.379      13.966      13.513      13.102      12.814      12.711    
  12.814      13.102      13.513      13.966      14.379      14.694      14.885      14.962      14.940      14.835    
  14.663      14.443      14.187      13.906      13.605      13.287      12.952      12.605      12.254      11.912    
  11.603      11.354      11.191      11.135      11.191      11.354      11.603      11.912      12.254      12.605    
  11.803      12.166      12.532      12.898      13.257      13.597      13.903      14.153      14.328      14.406    
  14.370      14.197      13.894      13.505      13.102      12.770      12.582      12.582      12.770      13.102    
  13.505      13.894      14.197      14.370      14.406      14.328      14.153      13.903      13.597      13.257    
  12.898      12.532      12.166      11.803      11.447      11.103      10.778      10.485      10.241      10.064    
  9.9705      9.9705      10.064      10.241      10.485      10.778      11.103      11.447      10.733      11.136    
  11.559      11.992      12.425      12.842      13.221      13.539      13.771      13.897      13.892      13.742    
  13.472      13.137      12.814      12.582      12.497      12.582      12.814      13.137      13.472      13.742    
  13.892      13.897      13.771      13.539      13.221      12.842      12.425      11.992      11.559      11.136    
  10.733      10.351      9.9954      9.6690      9.3784      9.1333      8.9456      8.8270      8.7863      8.8270    
  8.9456      9.1333      9.3784      9.6690      9.9954      10.351      9.7731      10.225      10.704      11.203    
  11.705      12.190      12.633      13.009      13.293      13.465      13.497      13.392      13.183      12.932    
  12.711      12.582      12.582      12.711      12.932      13.183      13.392      13.497      13.465      13.293    
  13.009      12.633      12.190      11.705      11.203      10.704      10.225      9.7731      9.3558      8.9756    
  8.6345      8.3352      8.0821      7.8821      7.7427      7.6710      7.6710      7.7427      7.8821      8.0821    
  8.3352      8.6345      8.9756      9.3558      8.9427      9.4436      9.9801      10.540      11.104      11.651    
  12.153      12.584      12.923      13.147      13.235      13.200      13.080      12.932      12.814      12.770    
  12.814      12.932      13.080      13.200      13.235      13.147      12.923      12.584      12.153      11.651    
  11.104      10.540      9.9801      9.4436      8.9427      8.4846      8.0728      7.7083      7.3918      7.1244    
  6.9092      6.7503      6.6525      6.6194      6.6525      6.7503      6.9092      7.1244      7.3918      7.7083    
  8.0728      8.4846      8.2487      8.7988      9.3896      10.007      10.630      11.235      11.795      12.286    
  12.687      12.977      13.143      13.200      13.183      13.137      13.102      13.102      13.137      13.183    
  13.200      13.143      12.977      12.687      12.286      11.795      11.235      10.630      10.007      9.3896    
  8.7988      8.2487      7.7480      7.3010      6.9084      6.5694      6.2833      6.0502      5.8717      5.7504    
  5.6889      5.6889      5.7504      5.8717      6.0502      6.2833      6.5694      6.9084      7.3010      7.7480    
  7.6910      8.2896      8.9331      9.6058      10.287      10.951      11.574      12.131      12.606      12.977    
  13.235      13.392      13.472      13.505      13.513      13.505      13.472      13.392      13.235      12.977    
  12.606      12.131      11.574      10.951      10.287      9.6058      8.9331      8.2896      7.6910      7.1474    
  6.6635      6.2401      5.8757      5.5680      5.3153      5.1169      4.9736      4.8868      4.8577      4.8868    
  4.9736      5.1169      5.3153      5.5680      5.8757      6.2401      6.6635      7.1474      7.2654      7.9126    
  8.6089      9.3381      10.079      10.807      11.499      12.131      12.687      13.147      13.497      13.742    
  13.894      13.966      13.966      13.894      13.742      13.497      13.147      12.687      12.131      11.499    
  10.807      10.079      9.3381      8.6089      7.9126      7.2654      6.6783      6.1564      5.7006      5.3088    
  4.9778      4.7042      4.4858      4.3215      4.2115      4.1562      4.1562      4.2115      4.3215      4.4858    
  4.7042      4.9778      5.3088      5.7006      6.1564      6.6783      6.9665      7.6639      8.4153      9.2041    
  10.009      10.807      11.574      12.286      12.923      13.465      13.892      14.197      14.379      14.439    
  14.379      14.197      13.892      13.465      12.923      12.286      11.574      10.807      10.009      9.2041    
  8.4153      7.6639      6.9665      6.3342      5.7726      5.2826      4.8616      4.5055      4.2100      3.9712    
  3.7867      3.6551      3.5761      3.5497      3.5761      3.6551      3.7867      3.9712      4.2100      4.5055    
  4.8616      5.2826      5.7726      6.3342      6.7893      7.5404      8.3509      9.2041      10.079      10.951    
  11.795      12.584      13.293      13.897      14.370      14.694      14.858      14.858      14.694      14.370    
  13.897      13.293      12.584      11.795      10.951      10.079      9.2041      8.3509      7.5404      6.7893    
  6.1089      5.5047      4.9777      4.5251      4.1419      3.8228      3.5629      3.3581      3.2060      3.1051    
  3.0547      3.0547      3.1051      3.2060      3.3581      3.5629      3.8228      4.1419      4.5251      4.9777    
  5.5047      6.1089      6.7306      7.5404      8.4153      9.3381      10.287      11.235      12.153      13.009    
  13.771      14.406      14.885      15.183      15.284      15.183      14.885      14.406      13.771      13.009    
  12.153      11.235      10.287      9.3381      8.4153      7.5404      6.7306      5.9975      5.3466      4.7788    
  4.2910      3.8778      3.5328      3.2500      3.0244      2.8520      2.7303      2.6578      2.6337      2.6578    
  2.7303      2.8520      3.0244      3.2500      3.5328      3.8778      4.2910      4.7788      5.3466      5.9975    
  6.7893      7.6639      8.6089      9.6058      10.630      11.651      12.633      13.539      14.328      14.962    
  15.406      15.636      15.636      15.406      14.962      14.328      13.539      12.633      11.651      10.630    
  9.6058      8.6089      7.6639      6.7893      5.9975      5.2943      4.6807      4.1532      3.7058      3.3316    
  3.0235      2.7753      2.5819      2.4398      2.3463      2.2999      2.2999      2.3463      2.4398      2.5819    
  2.7753      3.0235      3.3316      3.7058      4.1532      4.6807      5.2943      5.9975      6.9665      7.9126    
  8.9331      10.007      11.104      12.190      13.221      14.153      14.940      15.539      15.913      16.041    
  15.913      15.539      14.940      14.153      13.221      12.190      11.104      10.007      8.9331      7.9126    
  6.9665      6.1089      5.3466      4.6807      4.1076      3.6211      3.2132      2.8762      2.6028      2.3868    
  2.2236      2.1094      2.0418      2.0194      2.0418      2.1094      2.2236      2.3868      2.6028      2.8762    
  3.2132      3.6211      4.1076      4.6807      5.3466      6.1089      7.2654      8.2896      9.3896      10.540    
  11.705      12.842      13.903      14.835      15.588      16.118      16.392      16.392      16.118      15.588    
  14.835      13.903      12.842      11.705      10.540      9.3896      8.2896      7.2654      6.3342      5.5047    
  4.7788      4.1532      3.6211      3.1741      2.8037      2.5014      2.2602      2.0742      1.9386      1.8502    
  1.8065      1.8065      1.8502      1.9386      2.0742      2.2602      2.5014      2.8037      3.1741      3.6211    
  4.1532      4.7788      5.5047      6.3342      7.6910      8.7988      9.9801      11.203      12.425      13.597    
  14.663      15.566      16.255      16.687      16.835      16.687      16.255      15.566      14.663      13.597    
  12.425      11.203      9.9801      8.7988      7.6910      6.6783      5.7726      4.9777      4.2910      3.7058    
  3.2132      2.8037      2.4679      2.1979      1.9865      1.8280      1.7181      1.6534      1.6321      1.6534    
  1.7181      1.8280      1.9865      2.1979      2.4679      2.8037      3.2132      3.7058      4.2910      4.9777    
  5.7726      6.6783      8.2487      9.4436      10.704      11.992      13.257      14.443      15.488      16.334    
  16.930      17.239      17.239      16.930      16.334      15.488      14.443      13.257      11.992      10.704    
  9.4436      8.2487      7.1474      6.1564      5.2826      4.5251      3.8778      3.3316      2.8762      2.5014    
  2.1979      1.9576      1.7737      1.6407      1.5545      1.5121      1.5121      1.5545      1.6407      1.7737    
  1.9576      2.1979      2.5014      2.8762      3.3316      3.8778      4.5251      5.2826      6.1564      7.1474    
  8.9427      10.225      11.559      12.898      14.187      15.362      16.360      17.121      17.599      17.762    
  17.599      17.121      16.360      15.362      14.187      12.898      11.559      10.225      8.9427      7.7480    
  6.6635      5.7006      4.8616      4.1419      3.5328      3.0235      2.6028      2.2602      1.9865      1.7737    
  1.6152      1.5059      1.4419      1.4209      1.4419      1.5059      1.6152      1.7737      1.9865      2.2602    
  2.6028      3.0235      3.5328      4.1419      4.8616      5.7006      6.6635      7.7480      9.7731      11.136    
  12.532      13.906      15.196      16.334      17.257      17.908      18.244      18.244      17.908      17.257    
  16.334      15.196      13.906      12.532      11.136      9.7731      8.4846      7.3010      6.2401      5.3088    
  4.5055      3.8228      3.2500      2.7753      2.3868      2.0742      1.8280      1.6407      1.5059      1.4189    
  1.3762      1.3762      1.4189      1.5059      1.6407      1.8280      2.0742      2.3868      2.7753      3.2500    
  3.8228      4.5055      5.3088      6.2401      7.3010      8.4846      10.733      12.166      13.605      14.991    
  16.255      17.331      18.153      18.669      18.845      18.669      18.153      17.331      16.255      14.991    
  13.605      12.166      10.733      9.3558      8.0728      6.9084      5.8757      4.9778      4.2100      3.5629    
  3.0244      2.5819      2.2236      1.9386      1.7181      1.5545      1.4419      1.3762      1.3545      1.3762    
  1.4419      1.5545      1.7181      1.9386      2.2236      2.5819      3.0244      3.5629      4.2100      4.9778    
  5.8757      6.9084      8.0728      9.3558      11.803      13.287      14.746      16.118      17.331      18.316    
  19.012      19.373      19.373      19.012      18.316      17.331      16.118      14.746      13.287      11.803    
  10.351      8.9756      7.7083      6.5694      5.5680      4.7042      3.9712      3.3581      2.8520      2.4398    
  2.1094      1.8502      1.6534      1.5121      1.4209      1.3762      1.3762      1.4209      1.5121      1.6534    
  1.8502      2.1094      2.4398      2.8520      3.3581      3.9712      4.7042      5.5680      6.5694      7.7083    
  8.9756      10.351      12.952      14.461      15.913      17.242      18.375      19.245      19.792      19.979    
  19.792      19.245      18.375      17.242      15.913      14.461      12.952      11.447      9.9954      8.6345    
  7.3918      6.2833      5.3153      4.4858      3.7867      3.2060      2.7303      2.3463      2.0418      1.8065    
  1.6321      1.5121      1.4419      1.4189      1.4419      1.5121      1.6321      1.8065      2.0418      2.3463    
  2.7303      3.2060      3.7867      4.4858      5.3153      6.2833      7.3918      8.6345      9.9954      11.447    
  14.134      15.636      17.049      18.301      19.317      20.034      20.405      20.405      20.034      19.317    
  18.301      17.049      15.636      14.134      12.605      11.103      9.6690      8.3352      7.1244      6.0502    
  5.1169      4.3215      3.6551      3.1051      2.6578      2.2999      2.0194      1.8065      1.6534      1.5545    
  1.5059      1.5059      1.5545      1.6534      1.8065      2.0194      2.2999      2.6578      3.1051      3.6551    
  4.3215      5.1169      6.0502      7.1244      8.3352      9.6690      11.103      12.605      15.284      16.730    
  18.037      19.138      19.974      20.496      20.674      20.496      19.974      19.138      18.037      16.730    
  15.284      13.770      12.254      10.778      9.3784      8.0821      6.9092      5.8717      4.9736      4.2115    
  3.5761      3.0547      2.6337      2.2999      2.0418      1.8502      1.7181      1.6407      1.6152      1.6407    
  1.7181      1.8502      2.0418      2.2999      2.6337      3.0547      3.5761      4.2115      4.9736      5.8717    
  6.9092      8.0821      9.3784      10.778      12.254      13.770      16.263      17.540      18.637      19.509    
  20.116      20.427      20.427      20.116      19.509      18.637      17.540      16.263      14.858      13.386    
  11.912      10.485      9.1333      7.8821      6.7503      5.7504      4.8868      4.1562      3.5497      3.0547    
  2.6578      2.3463      2.1094      1.9386      1.8280      1.7737      1.7737      1.8280      1.9386      2.1094    
  2.3463      2.6578      3.0547      3.5497      4.1562      4.8868      5.7504      6.7503      7.8821      9.1333    
  10.485      11.912      13.386      14.858      16.816      17.800      18.594      19.180      19.539      19.661    
  19.539      19.180      18.594      17.800      16.816      15.665      14.379      13.004      11.603      10.241    
  8.9456      7.7427      6.6525      5.6889      4.8577      4.1562      3.5761      3.1051      2.7303      2.4398    
  2.2236      2.0742      1.9865      1.9576      1.9865      2.0742      2.2236      2.4398      2.7303      3.1051    
  3.5761      4.1562      4.8577      5.6889      6.6525      7.7427      8.9456      10.241      11.603      13.004    
  14.379      15.665      16.686      17.269      17.694      17.974      18.113      18.113      17.974      17.694    
  17.269      16.686      15.931      14.998      13.894      12.658      11.354      10.064      8.8270      7.6710    
  6.6194      5.6889      4.8868      4.2115      3.6551      3.2060      2.8520      2.5819      2.3868      2.2602    
  2.1979      2.1979      2.2602      2.3868      2.5819      2.8520      3.2060      3.6551      4.2115      4.8868    
  5.6889      6.6194      7.6710      8.8270      10.064      11.354      12.658      13.894      14.998      15.931    
  15.665      15.776      15.814      15.821      15.820      15.821      15.814      15.776      15.665      15.426    
  15.002      14.354      13.472      12.392      11.191      9.9705      8.7863      7.6710      6.6525      5.7504    
  4.9736      4.3215      3.7867      3.3581      3.0244      2.7753      2.6028      2.5014      2.4679      2.5014    
  2.6028      2.7753      3.0244      3.3581      3.7867      4.3215      4.9736      5.7504      6.6525      7.6710    
  8.7863      9.9705      11.191      12.392      13.472      14.354      15.002      15.426      13.652      13.276    
  12.968      12.797      12.797      12.968      13.276      13.652      14.000      14.209      14.180      13.843    
  13.183      12.247      11.135      9.9705      8.8270      7.7427      6.7503      5.8717      5.1169      4.4858    
  3.9712      3.5629      3.2500      3.0235      2.8762      2.8037      2.8037      2.8762      3.0235      3.2500    
  3.5629      3.9712      4.4858      5.1169      5.8717      6.7503      7.7427      8.8270      9.9705      11.135    
  12.247      13.183      13.843      14.180      14.209      14.000      10.688      9.8791      9.3367      9.1461    
  9.3367      9.8791      10.688      11.629      12.537      13.245      13.613      13.560      13.080      12.247    
  11.191      10.064      8.9456      7.8821      6.9092      6.0502      5.3153      4.7042      4.2100      3.8228    
  3.5328      3.3316      3.2132      3.1741      3.2132      3.3316      3.5328      3.8228      4.2100      4.7042    
  5.3153      6.0502      6.9092      7.8821      8.9456      10.064      11.191      12.247      13.080      13.560    
  13.613      13.245      12.537      11.629      6.9798      5.8699      5.2723      5.2723      5.8699      6.9798    
  8.4411      10.038      11.534      12.711      13.410      13.560      13.183      12.392      11.354      10.241    
  9.1333      8.0821      7.1244      6.2833      5.5680      4.9778      4.5055      4.1419      3.8778      3.7058    
  3.6211      3.6211      3.7058      3.8778      4.1419      4.5055      4.9778      5.5680      6.2833      7.1244    
  8.0821      9.1333      10.241      11.354      12.392      13.183      13.560      13.410      12.711      11.534    
  10.038      8.4411      2.8950      1.6861      1.2635      1.6861      2.8950      4.7214      6.9107      9.1619    
  11.177      12.711      13.613      13.843      13.472      12.658      11.603      10.485      9.3784      8.3352    
  7.3918      6.5694      5.8757      5.3088      4.8616      4.5251      4.2910      4.1532      4.1076      4.1532    
  4.2910      4.5251      4.8616      5.3088      5.8757      6.5694      7.3918      8.3352      9.3784      10.485    
  11.603      12.658      13.472      13.843      13.613      12.711      11.177      9.1619      6.9107      4.7214    
 -1.0818     -2.1382     -2.1382     -1.0818     0.88289      3.4835      6.3676      9.1619      11.534      13.245    
  14.180      14.354      13.894      13.004      11.912      10.778      9.6690      8.6345      7.7083      6.9084    
  6.2401      5.7006      5.2826      4.9777      4.7788      4.6807      4.6807      4.7788      4.9777      5.2826    
  5.7006      6.2401      6.9084      7.7083      8.6345      9.6690      10.778      11.912      13.004      13.894    
  14.354      14.180      13.245      11.534      9.1619      6.3676      3.4835     0.88289     -4.4223     -5.0634    
 -4.4223     -2.5910     0.17123      3.4835      6.9107      10.038      12.537      14.209      15.002      14.998    
  14.379      13.386      12.254      11.103      9.9954      8.9756      8.0728      7.3010      6.6635      6.1564    
  5.7726      5.5047      5.3466      5.2943      5.3466      5.5047      5.7726      6.1564      6.6635      7.3010    
  8.0728      8.9756      9.9954      11.103      12.254      13.386      14.379      14.998      15.002      14.209    
  12.537      10.038      6.9107      3.4835     0.17123     -2.5910     -6.6496     -6.6496     -5.2273     -2.5910    
 0.88289      4.7214      8.4411      11.629      14.000      15.426      15.931      15.665      14.858      13.770    
  12.605      11.447      10.351      9.3558      8.4846      7.7480      7.1474      6.6783      6.3342      6.1089    
  5.9975      5.9975      6.1089      6.3342      6.6783      7.1474      7.7480      8.4846      9.3558      10.351    
  11.447      12.605      13.770      14.858      15.665      15.931      15.426      14.000      11.629      8.4411    
  4.7214     0.88289     -2.5910     -5.2273     -6.6496     -5.0634     -2.1382      1.6861      5.8699      9.8791    
  13.276      15.776      17.269      17.800      17.540      16.730      15.636      14.461      13.287      12.166    
  11.136      10.225      9.4436      8.7988      8.2896      7.9126      7.6639      7.5404      7.5404      7.6639    
  7.9126      8.2896      8.7988      9.4436      10.225      11.136      12.166      13.287      14.461      15.636    
  16.730      17.540      17.800      17.269      15.776      13.276      9.8791      5.8699      1.6861     -2.1382    
 -5.0634     -6.6496     -5.0634     -2.7167     0.77870      4.8994      9.0806      12.822      15.763      17.718    
  18.672      18.749      18.166      17.182      16.041      14.867      13.718      12.637      11.656      10.794    
  10.063      9.4665      9.0056      8.6783      8.4828      8.4177      8.4828      8.6783      9.0056      9.4665    
  10.063      10.794      11.656      12.637      13.718      14.867      16.041      17.182      18.166      18.749    
  18.672      17.718      15.763      12.822      9.0806      4.8994     0.77870     -2.7167     -5.0634     -5.8904    
 -2.1382     0.77870      4.5597      8.6483      12.509      15.721      18.027      19.347      19.751      19.421    
  18.596      17.529      16.392      15.249      14.147      13.122      12.199      11.394      10.717      10.173    
  9.7643      9.4911      9.3543      9.3543      9.4911      9.7643      10.173      10.717      11.394      12.199    
  13.122      14.147      15.249      16.392      17.529      18.596      19.421      19.751      19.347      18.027    
  15.721      12.509      8.6483      4.5597     0.77870     -2.1382     -3.7282     -3.7282      1.6861      4.8994    