unknown system                          
   1.0000000000000000     
    -0.000000    2.733807    2.733807
     2.733807   -0.000000    2.733807
     2.733807    2.733807   -0.000000
   Si
     2
Direct
  0.000000  0.000000  0.000000
  0.250000  0.250000  0.250000

   48   48   48
 -.75189548349E+01 -.67158416638E+01 -.44303290955E+01 -.10076314958E+01 0.30573400282E+01
 0.72179041564E+01 0.10974684342E+02 0.13953095190E+02 0.15945809812E+02 0.16918409051E+02
 0.16985154373E+02 0.16365294882E+02 0.15329927121E+02 0.14138750003E+02 0.12925947234E+02
 0.11753918577E+02 0.10669022173E+02 0.97017517952E+01 0.88685075250E+01 0.81748034741E+01
 0.76189994035E+01 0.71957900878E+01 0.68989530331E+01 0.67231619184E+01 0.66649599584E+01
 0.67231622009E+01 0.68989533876E+01 0.71957902244E+01 0.76189991471E+01 0.81748029164E+01
 0.88685070446E+01 0.97017519134E+01 0.10669023293E+02 0.11753920714E+02 0.12925949874E+02
 0.14138752162E+02 0.15329927629E+02 0.16365292792E+02 0.16985149348E+02 0.16918401573E+02
 0.15945801108E+02 0.13953086889E+02 0.10974677965E+02 0.72179006258E+01 0.30573393815E+01
 -.10076300826E+01 -.44303269728E+01 -.67158401844E+01 -.67158416638E+01 -.50890888891E+01
 -.20923426332E+01 0.18180884099E+01 0.60837355109E+01 0.10153849094E+02 0.13579602810E+02
 0.16073461396E+02 0.17528036822E+02 0.18000247129E+02 0.17672105927E+02 0.16799472756E+02
 0.15657503180E+02 0.14446972628E+02 0.13246055106E+02 0.12107095509E+02 0.11067653852E+02
 0.10151345292E+02 0.93701084299E+01 0.87273066354E+01 0.82210129858E+01 0.78469146052E+01
 0.76004612510E+01 0.74781567617E+01 0.74781568740E+01 0.76004614925E+01 0.78469147510E+01
 0.82210128329E+01 0.87273061645E+01 0.93701078839E+01 0.10151345115E+02 0.11067654500E+02
 0.12107097190E+02 0.13246057589E+02 0.14446975196E+02 0.15657504788E+02 0.16799472357E+02
 0.17672102851E+02 0.18000241371E+02 0.17528029119E+02 0.16073453048E+02 0.13579595295E+02
 0.10153843606E+02 0.60837325913E+01 0.18180878149E+01 -.20923417863E+01 -.50890877444E+01
 -.67158411618E+01 -.44303290955E+01 -.20923426332E+01 0.13844240782E+01 0.54718631686E+01
 0.96011440855E+01 0.13270242149E+02 0.16120754654E+02 0.17972607387E+02 0.18819447755E+02
 0.18795932318E+02 0.18129627759E+02 0.17087823565E+02 0.15912465630E+02 0.14715590209E+02
 0.13553137633E+02 0.12467528149E+02 0.11488181529E+02 0.10633019005E+02 0.99108138968E+01
 0.93239917845E+01 0.88713922696E+01 0.85505238555E+01 0.83590275256E+01 0.82953680666E+01
 0.83590277066E+01 0.85505240771E+01 0.88713923398E+01 0.93239915913E+01 0.99108135126E+01
 0.10633018702E+02 0.11488181684E+02 0.12467529065E+02 0.13553139353E+02 0.14715592405E+02
 0.15912467635E+02 0.17087824547E+02 0.18129626995E+02 0.18795929458E+02 0.18819442985E+02
 0.17972601407E+02 0.16120748483E+02 0.13270236814E+02 0.96011403058E+01 0.54718611556E+01
 0.13844235211E+01 -.20923423893E+01 -.44303287513E+01 -.52548469077E+01 -.10076314958E+01
 0.18180884099E+01 0.54718631686E+01 0.94066192491E+01 0.13097080404E+02 0.16131577888E+02
 0.18263908033E+02 0.19422913957E+02 0.19689050235E+02 0.19251274258E+02 0.18356020876E+02
 0.17253787910E+02 0.16097016712E+02 0.14946385529E+02 0.13846962612E+02 0.12832048854E+02
 0.11924306042E+02 0.11137498820E+02 0.10478733062E+02 0.99508819741E+01 0.95547393192E+01
 0.92904768765E+01 0.91582619224E+01 0.91582620604E+01 0.92904772261E+01 0.95547397202E+01
 0.99508822547E+01 0.10478733134E+02 0.11137498740E+02 0.11924305999E+02 0.12832049097E+02
 0.13846963328E+02 0.14946386730E+02 0.16097018187E+02 0.17253789259E+02 0.18356021624E+02
 0.19251274015E+02 0.19689048835E+02 0.19422911531E+02 0.18263904969E+02 0.16131574718E+02
 0.13097077632E+02 0.94066172063E+01 0.54718619354E+01 0.18180878386E+01 -.10076316732E+01
 -.25500005470E+01 -.25500005201E+01 0.30573400282E+01 0.60837355109E+01 0.96011440855E+01
 0.13097080404E+02 0.16132313482E+02 0.18408435853E+02 0.19793483142E+02 0.20310753709E+02
 0.20103219879E+02 0.19386301302E+02 0.18398501940E+02 0.17319613660E+02 0.16219091387E+02
 0.15142821430E+02 0.14125990632E+02 0.13194254125E+02 0.12365184951E+02 0.11650089919E+02
 0.11056088367E+02 0.10588073320E+02 0.10250044365E+02 0.10045495164E+02 0.99769920456E+01
 0.10045495604E+02 0.10250045117E+02 0.10588074176E+02 0.11056089113E+02 0.11650090406E+02
 0.12365185148E+02 0.13194254126E+02 0.14125990613E+02 0.15142821583E+02 0.16219091848E+02
 0.17319614454E+02 0.18398502976E+02 0.19386302394E+02 0.20103220810E+02 0.20310754294E+02
 0.19793483279E+02 0.18408435544E+02 0.16132312821E+02 0.13097079541E+02 0.96011431862E+01
 0.60837347199E+01 0.30573394500E+01 0.10070687964E+01 0.28136642116E+00 0.10070690994E+01
 0.72179041564E+01 0.10153849094E+02 0.13270242149E+02 0.16131577888E+02 0.18408435853E+02
 0.19918576901E+02 0.20630106890E+02 0.20636155770E+02 0.20113641540E+02 0.19276941611E+02
 0.18313237606E+02 0.17301749970E+02 0.16287810494E+02 0.15306749019E+02 0.14385329338E+02
 0.13543230942E+02 0.12794712951E+02 0.12150511061E+02 0.11619686899E+02 0.11210862803E+02
 0.10932336591E+02 0.10791054308E+02 0.10791054665E+02 0.10932337579E+02 0.11210864191E+02
 0.11619688372E+02 0.12150512308E+02 0.12794713747E+02 0.13543231204E+02 0.14385329150E+02
 0.15306748603E+02 0.16287810144E+02 0.17301749973E+02 0.18313238162E+02 0.19276942779E+02
 0.20113643220E+02 0.20636157732E+02 0.20630108831E+02 0.19918578525E+02 0.18408436939E+02
 0.16131578350E+02 0.13270242043E+02 0.10153848602E+02 0.72179035331E+01 0.49255977171E+01
 0.36675149779E+01 0.36675151672E+01 0.49255982167E+01 0.10974684342E+02 0.13579602810E+02
 0.16120754654E+02 0.18263908033E+02 0.19793483142E+02 0.20630106890E+02 0.20817598684E+02
 0.20490096873E+02 0.19830386774E+02 0.19015502787E+02 0.18129600579E+02 0.17216374306E+02
 0.16309905303E+02 0.15436343864E+02 0.14615593009E+02 0.13863077940E+02 0.13191715191E+02
 0.12613876100E+02 0.12142726228E+02 0.11792218812E+02 0.11575464979E+02 0.11502037396E+02
 0.11575465946E+02 0.11792220526E+02 0.12142728306E+02 0.12613878101E+02 0.13191716735E+02
 0.13863078803E+02 0.14615593176E+02 0.15436343518E+02 0.16309904765E+02 0.17216373941E+02
 0.18129600691E+02 0.19015503540E+02 0.19830388154E+02 0.20490098700E+02 0.20817600667E+02
 0.20630108706E+02 0.19793484520E+02 0.18263908817E+02 0.16120754833E+02 0.13579602510E+02
 0.10974683786E+02 0.87059296447E+01 0.71574259644E+01 0.66073705473E+01 0.71574263057E+01
 0.87059302024E+01 0.13953095190E+02 0.16073461396E+02 0.17972607387E+02 0.19422913957E+02
 0.20310753709E+02 0.20636155770E+02 0.20490096873E+02 0.20019454832E+02 0.19379327712E+02
 0.18649644570E+02 0.17871297461E+02 0.17075978561E+02 0.16287810494E+02 0.15525169793E+02
 0.14802674410E+02 0.14133434380E+02 0.13531400048E+02 0.13013133731E+02 0.12598037786E+02
 0.12306394887E+02 0.12155533540E+02 0.12155534157E+02 0.12306396592E+02 0.12598040185E+02
 0.13013136299E+02 0.13531402285E+02 0.14133435946E+02 0.14802675207E+02 0.15525169961E+02
 0.16287810341E+02 0.17075978438E+02 0.17871297647E+02 0.18649645184E+02 0.19379328696E+02
 0.20019455987E+02 0.20490097938E+02 0.20636156511E+02 0.20310753988E+02 0.19422913757E+02
 0.17972606802E+02 0.16073460587E+02 0.13953094343E+02 0.11923727929E+02 0.10323522477E+02
 0.94404687252E+01 0.94404688929E+01 0.10323522957E+02 0.11923728653E+02 0.15945809812E+02
 0.17528036822E+02 0.18819447755E+02 0.19689050235E+02 0.20103219879E+02 0.20113641540E+02
 0.19830386774E+02 0.19379327712E+02 0.18827044897E+02 0.18210091102E+02 0.17556714892E+02
 0.16887902925E+02 0.16219091387E+02 0.15562286765E+02 0.14928651751E+02 0.14331420878E+02
 0.13788433242E+02 0.13323071185E+02 0.12962461890E+02 0.12732710883E+02 0.12653616966E+02
 0.12732712206E+02 0.12962464217E+02 0.13323073983E+02 0.13788435939E+02 0.14331423036E+02
 0.14928653189E+02 0.15562287574E+02 0.16219091852E+02 0.16887903382E+02 0.17556715580E+02
 0.18210092062E+02 0.18827045962E+02 0.19379328576E+02 0.19830387117E+02 0.20113641155E+02
 0.20103218746E+02 0.19689048525E+02 0.18819445770E+02 0.17528034884E+02 0.15945808176E+02
 0.14290521858E+02 0.12830190397E+02 0.11825805948E+02 0.11467750011E+02 0.11825806301E+02
 0.12830191150E+02 0.14290523060E+02 0.16918409051E+02 0.18000247129E+02 0.18795932318E+02
 0.19251274258E+02 0.19386301302E+02 0.19276941611E+02 0.19015502787E+02 0.18649644570E+02
 0.18210091102E+02 0.17720611292E+02 0.17198189536E+02 0.16654317672E+02 0.16097016712E+02
 0.15533624690E+02 0.14974275464E+02 0.14435378424E+02 0.13941326121E+02 0.13522183618E+02
 0.13213652553E+02 0.13049251778E+02 0.13049252455E+02 0.13213654416E+02 0.13522186223E+02
 0.13941328905E+02 0.14435380894E+02 0.14974277349E+02 0.15533626004E+02 0.16097017694E+02
 0.16654318648E+02 0.17198190747E+02 0.17720612768E+02 0.18210092626E+02 0.18649645753E+02
 0.19015503211E+02 0.19276940995E+02 0.19386299611E+02 0.19251271727E+02 0.18795929373E+02
 0.18000244252E+02 0.16918406629E+02 0.15681387780E+02 0.14478892194E+02 0.13521342766E+02
 0.12990053351E+02 0.12990053520E+02 0.13521343334E+02 0.14478893299E+02 0.15681389546E+02
 0.16985154373E+02 0.17672105927E+02 0.18129627759E+02 0.18356020876E+02 0.18398501940E+02
 0.18313237606E+02 0.18129600579E+02 0.17871297461E+02 0.17556714892E+02 0.17198189536E+02
 0.16802664963E+02 0.16373353242E+02 0.15912465630E+02 0.15425049940E+02 0.14923322400E+02
 0.14427019856E+02 0.13966006779E+02 0.13584681617E+02 0.13330992479E+02 0.13241818821E+02
 0.13330993636E+02 0.13584683648E+02 0.13966009220E+02 0.14427022232E+02 0.14923324385E+02
 0.15425051455E+02 0.15912466833E+02 0.16373354420E+02 0.16802666377E+02 0.17198191274E+02
 0.17556716803E+02 0.17871299185E+02 0.18129601673E+02 0.18313237709E+02 0.18398500914E+02
 0.18356018862E+02 0.18129625137E+02 0.17672103189E+02 0.16985151966E+02 0.16130090961E+02
 0.15223426871E+02 0.14415613744E+02 0.13856484452E+02 0.13656543971E+02 0.13856484679E+02
 0.14415614331E+02 0.15223428004E+02 0.16130092760E+02 0.16365294882E+02 0.16799472756E+02
 0.17087823565E+02 0.17253787910E+02 0.17319613660E+02 0.17301749970E+02 0.17216374306E+02
 0.17075978561E+02 0.16887902925E+02 0.16654317672E+02 0.16373353242E+02 0.16041505257E+02
 0.15657503180E+02 0.15226911434E+02 0.14760563617E+02 0.14284373668E+02 0.13846847965E+02
 0.13507971629E+02 0.13322306964E+02 0.13322307424E+02 0.13507972892E+02 0.13846849724E+02
 0.14284375540E+02 0.14760565287E+02 0.15226912763E+02 0.15657504232E+02 0.16041506254E+02
 0.16373354438E+02 0.16654319227E+02 0.16887904809E+02 0.17075980547E+02 0.17216376039E+02
 0.17301751099E+02 0.17319613966E+02 0.17253787394E+02 0.17087822447E+02 0.16799471393E+02
 0.16365293645E+02 0.15798571922E+02 0.15156620198E+02 0.14532448285E+02 0.14034176698E+02
 0.13757128714E+02 0.13757128657E+02 0.14034176602E+02 0.14532448336E+02 0.15156620599E+02
 0.15798572778E+02 0.15329927121E+02 0.15657503180E+02 0.15912465630E+02 0.16097016712E+02
 0.16219091387E+02 0.16287810494E+02 0.16309905303E+02 0.16287810494E+02 0.16219091387E+02
 0.16097016712E+02 0.15912465630E+02 0.15657503180E+02 0.15329927121E+02 0.14930092818E+02
 0.14474890552E+02 0.14010572738E+02 0.13603764174E+02 0.13324158809E+02 0.13224425037E+02
 0.13324159371E+02 0.13603765139E+02 0.14010573856E+02 0.14474891577E+02 0.14930093607E+02
 0.15329927685E+02 0.15657503673E+02 0.15912466277E+02 0.16097017707E+02 0.16219092808E+02
 0.16287812259E+02 0.16309907199E+02 0.16287812259E+02 0.16219092808E+02 0.16097017707E+02
 0.15912466277E+02 0.15657503673E+02 0.15329927685E+02 0.14930093607E+02 0.14474891577E+02
 0.14010573856E+02 0.13603765139E+02 0.13324159371E+02 0.13224425037E+02 0.13324158809E+02
 0.13603764174E+02 0.14010572738E+02 0.14474890552E+02 0.14930092818E+02 0.14138750003E+02
 0.14446972628E+02 0.14715590209E+02 0.14946385529E+02 0.15142821430E+02 0.15306749019E+02
 0.15436343864E+02 0.15525169793E+02 0.15562286765E+02 0.15533624690E+02 0.15425049940E+02
 0.15226911434E+02 0.14930092818E+02 0.14538199135E+02 0.14088367864E+02 0.13646372101E+02
 0.13290988987E+02 0.13092578162E+02 0.13092578285E+02 0.13290989305E+02 0.13646372479E+02
 0.14088368150E+02 0.14538199228E+02 0.14930092720E+02 0.15226911263E+02 0.15425049887E+02
 0.15533624955E+02 0.15562287478E+02 0.15525170970E+02 0.15436345408E+02 0.15306750764E+02
 0.15142823213E+02 0.14946387260E+02 0.14715591904E+02 0.14446974388E+02 0.14138751953E+02
 0.13794985226E+02 0.13429377483E+02 0.13064374000E+02 0.12733006425E+02 0.12477799021E+02
 0.12338311290E+02 0.12338310784E+02 0.12477797601E+02 0.12733004349E+02 0.13064371604E+02
 0.13429375080E+02 0.13794983021E+02 0.12925947234E+02 0.13246055106E+02 0.13553137633E+02
 0.13846962612E+02 0.14125990632E+02 0.14385329338E+02 0.14615593009E+02 0.14802674410E+02
 0.14928651751E+02 0.14974275464E+02 0.14923322400E+02 0.14760563617E+02 0.14474890552E+02
 0.14088367864E+02 0.13657811834E+02 0.13262621202E+02 0.12984389162E+02 0.12884118237E+02
 0.12984389124E+02 0.13262621075E+02 0.13657811549E+02 0.14088367376E+02 0.14474889883E+02
 0.14760562871E+02 0.14923321742E+02 0.14974275075E+02 0.14928651771E+02 0.14802674894E+02
 0.14615593918E+02 0.14385330566E+02 0.14125992061E+02 0.13846964164E+02 0.13553139309E+02
 0.13246056978E+02 0.12925949401E+02 0.12594610438E+02 0.12258580427E+02 0.11931593319E+02
 0.11634980626E+02 0.11395129857E+02 0.11238138717E+02 0.11183376062E+02 0.11238137587E+02
 0.11395127791E+02 0.11634977957E+02 0.11931590422E+02 0.12258577622E+02 0.12594607923E+02
 0.11753918577E+02 0.12107095509E+02 0.12467528149E+02 0.12832048854E+02 0.13194254125E+02
 0.13543230942E+02 0.13863077940E+02 0.14133434380E+02 0.14331420878E+02 0.14435378424E+02
 0.14427019856E+02 0.14284373668E+02 0.14010572738E+02 0.13646372101E+02 0.13262621202E+02
 0.12943007248E+02 0.12761537219E+02 0.12761537106E+02 0.12943006909E+02 0.13262620636E+02
 0.13646371326E+02 0.14010571810E+02 0.14284372683E+02 0.14427018943E+02 0.14435377716E+02
 0.14331420477E+02 0.14133434332E+02 0.13863078223E+02 0.13543231486E+02 0.13194254842E+02
 0.12832049681E+02 0.12467529078E+02 0.12107096588E+02 0.11753919887E+02 0.11409906604E+02
 0.11078161128E+02 0.10765355710E+02 0.10483128972E+02 0.10247647079E+02 0.10077001761E+02
 0.99870356701E+01 0.99870352438E+01 0.10077000558E+02 0.10247645304E+02 0.10483126902E+02
 0.10765353620E+02 0.11078159227E+02 0.11409904997E+02 0.10669022173E+02 0.11067653852E+02
 0.11488181529E+02 0.11924306042E+02 0.12365184951E+02 0.12794712951E+02 0.13191715191E+02
 0.13531400048E+02 0.13788433242E+02 0.13941326121E+02 0.13966006779E+02 0.13846847965E+02
 0.13603764174E+02 0.13290988987E+02 0.12984389162E+02 0.12761537219E+02 0.12680150963E+02
 0.12761536877E+02 0.12984388535E+02 0.13290988172E+02 0.13603763291E+02 0.13846847129E+02
 0.13966006077E+02 0.13941325601E+02 0.13788432910E+02 0.13531399874E+02 0.13191715128E+02
 0.12794712949E+02 0.12365184973E+02 0.11924306073E+02 0.11488181574E+02 0.11067653931E+02
 0.10669022309E+02 0.10295454488E+02 0.99489080408E+01 0.96322376387E+01 0.93509297726E+01
 0.91137872075E+01 0.89320851239E+01 0.88172675144E+01 0.87779293033E+01 0.88172673802E+01
 0.89320848766E+01 0.91137868848E+01 0.93509294214E+01 0.96322373049E+01 0.99489077603E+01
 0.10295454280E+02 0.97017517952E+01 0.10151345292E+02 0.10633019005E+02 0.11137498820E+02
 0.11650089919E+02 0.12150511061E+02 0.12613876100E+02 0.13013133731E+02 0.13323071185E+02
 0.13522183618E+02 0.13584681617E+02 0.13507971629E+02 0.13324158809E+02 0.13092578162E+02
 0.12884118237E+02 0.12761537106E+02 0.12761536877E+02 0.12884117622E+02 0.13092577347E+02
 0.13324158033E+02 0.13507971091E+02 0.13584681415E+02 0.13522183721E+02 0.13323071455E+02
 0.13013133988E+02 0.12613876187E+02 0.12150510903E+02 0.11650089535E+02 0.11137498294E+02
 0.10633018429E+02 0.10151344714E+02 0.97017511857E+01 0.92890895717E+01 0.89153609719E+01
 0.85815886217E+01 0.82896100366E+01 0.80432950875E+01 0.78487379680E+01 0.77132596478E+01
 0.76435274544E+01 0.76435278267E+01 0.77132606835E+01 0.78487394502E+01 0.80432967339E+01
 0.82896115868E+01 0.85815899088E+01 0.89153619530E+01 0.92890903102E+01 0.88685075250E+01
 0.93701084299E+01 0.99108138968E+01 0.10478733062E+02 0.11056088367E+02 0.11619686899E+02
 0.12142726228E+02 0.12598037786E+02 0.12962461890E+02 0.13213652553E+02 0.13330992479E+02
 0.13322306964E+02 0.13224425037E+02 0.13092578285E+02 0.12984389124E+02 0.12943006909E+02
 0.12984388535E+02 0.13092577347E+02 0.13224424135E+02 0.13322306473E+02 0.13330992623E+02
 0.13213653315E+02 0.12962463027E+02 0.12598038926E+02 0.12142727019E+02 0.11619687136E+02
 0.11056088053E+02 0.10478732374E+02 0.99108130822E+01 0.93701076696E+01 0.88685068360E+01
 0.84125926723E+01 0.80049405280E+01 0.76458262971E+01 0.73350011249E+01 0.70731494416E+01
 0.68626525684E+01 0.67074282409E+01 0.66119173294E+01 0.65796353979E+01 0.66119187273E+01
 0.67074307110E+01 0.68626555685E+01 0.70731523901E+01 0.73350035788E+01 0.76458280650E+01
 0.80049416811E+01 0.84125934559E+01 0.81748034741E+01 0.87273066354E+01 0.93239917845E+01
 0.99508819741E+01 0.10588073320E+02 0.11210862803E+02 0.11792218812E+02 0.12306394887E+02
 0.12732710883E+02 0.13049251778E+02 0.13241818821E+02 0.13322307424E+02 0.13324159371E+02
 0.13290989305E+02 0.13262621075E+02 0.13262620636E+02 0.13290988172E+02 0.13324158033E+02
 0.13322306473E+02 0.13241818725E+02 0.13049252694E+02 0.12732712604E+02 0.12306396930E+02
 0.11792220610E+02 0.11210863920E+02 0.10588073606E+02 0.99508815895E+01 0.93239910910E+01
 0.87273060074E+01 0.81748031096E+01 0.76746263285E+01 0.72300984263E+01 0.68412834797E+01
 0.65067329334E+01 0.62250598240E+01 0.59960164454E+01 0.58208478387E+01 0.57018877513E+01
 0.56416177335E+01 0.56416185701E+01 0.57018900383E+01 0.58208509869E+01 0.59960197051E+01
 0.62250625389E+01 0.65067347427E+01 0.68412843955E+01 0.72300987610E+01 0.76746265118E+01
 0.76189994035E+01 0.82210129858E+01 0.88713922696E+01 0.95547393192E+01 0.10250044365E+02
 0.10932336591E+02 0.11575464979E+02 0.12155533540E+02 0.12653616966E+02 0.13049252455E+02
 0.13330993636E+02 0.13507972892E+02 0.13603765139E+02 0.13646372479E+02 0.13657811549E+02
 0.13646371326E+02 0.13603763291E+02 0.13507971091E+02 0.13330992623E+02 0.13049252694E+02
 0.12653618478E+02 0.12155535913E+02 0.11575467543E+02 0.10932338685E+02 0.10250045580E+02
 0.95547396306E+01 0.88713920008E+01 0.82210126292E+01 0.76189993790E+01 0.70747378798E+01
 0.65922712180E+01 0.61716850099E+01 0.58108050044E+01 0.55068319513E+01 0.52576019211E+01
 0.50622567637E+01 0.49212536960E+01 0.48358269940E+01 0.48071872098E+01 0.48358283070E+01
 0.49212559031E+01 0.50622591872E+01 0.52576038786E+01 0.55068330028E+01 0.58108050915E+01
 0.61716844353E+01 0.65922704781E+01 0.70747374246E+01 0.71957900878E+01 0.78469146052E+01
 0.85505238555E+01 0.92904768765E+01 0.10045495164E+02 0.10791054308E+02 0.11502037396E+02
 0.12155534157E+02 0.12732712206E+02 0.13213654416E+02 0.13584683648E+02 0.13846849724E+02
 0.14010573856E+02 0.14088368150E+02 0.14088367376E+02 0.14010571810E+02 0.13846847129E+02
 0.13584681415E+02 0.13213653315E+02 0.12732712604E+02 0.12155535913E+02 0.11502039947E+02
 0.10791056907E+02 0.10045497173E+02 0.92904779879E+01 0.85505241761E+01 0.78469145613E+01
 0.71957902095E+01 0.66073674876E+01 0.60862599239E+01 0.56326426689E+01 0.52438619392E+01
 0.49160885679E+01 0.46456891070E+01 0.44300987633E+01 0.42681119293E+01 0.41596499512E+01
 0.41051996130E+01 0.41051999595E+01 0.41596508238E+01 0.42681128998E+01 0.44300993277E+01
 0.46456889039E+01 0.49160875352E+01 0.52438603407E+01 0.56326409776E+01 0.60862586114E+01
 0.66073668105E+01 0.68989530331E+01 0.76004612510E+01 0.83590275256E+01 0.91582619224E+01
 0.99769920456E+01 0.10791054665E+02 0.11575465946E+02 0.12306396592E+02 0.12962464217E+02
 0.13522186223E+02 0.13966009220E+02 0.14284375540E+02 0.14474891577E+02 0.14538199228E+02
 0.14474889883E+02 0.14284372683E+02 0.13966006077E+02 0.13522183721E+02 0.12962463027E+02
 0.12306396930E+02 0.11575467543E+02 0.10791056907E+02 0.99769942280E+01 0.91582635126E+01
 0.83590283378E+01 0.76004614728E+01 0.68989531064E+01 0.62651567773E+01 0.57040487529E+01
 0.52158695105E+01 0.47976094790E+01 0.44446398715E+01 0.41521445349E+01 0.39161249374E+01
 0.37338842395E+01 0.36040240019E+01 0.35260932746E+01 0.35000981825E+01 0.35260931950E+01
 0.36040236845E+01 0.37338834579E+01 0.39161235344E+01 0.41521425394E+01 0.44446375353E+01
 0.47976072082E+01 0.52158677139E+01 0.57040476700E+01 0.62651563637E+01 0.67231619184E+01
 0.74781567617E+01 0.82953680666E+01 0.91582620604E+01 0.10045495604E+02 0.10932337579E+02
 0.11792220526E+02 0.12598040185E+02 0.13323073983E+02 0.13941328905E+02 0.14427022232E+02
 0.14760565287E+02 0.14930093607E+02 0.14930092720E+02 0.14760562871E+02 0.14427018943E+02
 0.13941325601E+02 0.13323071455E+02 0.12598038926E+02 0.11792220610E+02 0.10932338685E+02
 0.10045497173E+02 0.91582635126E+01 0.82953690048E+01 0.74781570878E+01 0.67231618311E+01
 0.60412474550E+01 0.54375746933E+01 0.49123880444E+01 0.44623794126E+01 0.40822681612E+01
 0.37662545139E+01 0.35091072450E+01 0.33067810002E+01 0.31565820922E+01 0.30569928995E+01
 0.30073167398E+01 0.30073164387E+01 0.30569919920E+01 0.31565805853E+01 0.33067789603E+01
 0.35091048422E+01 0.37662520287E+01 0.40822659354E+01 0.44623777522E+01 0.49123871092E+01
 0.54375744229E+01 0.60412475688E+01 0.66649599584E+01 0.74781568740E+01 0.83590277066E+01
 0.92904772261E+01 0.10250045117E+02 0.11210864191E+02 0.12142728306E+02 0.13013136299E+02
 0.13788435939E+02 0.14435380894E+02 0.14923324385E+02 0.15226912763E+02 0.15329927685E+02
 0.15226911263E+02 0.14923321742E+02 0.14435377716E+02 0.13788432910E+02 0.13013133988E+02
 0.12142727019E+02 0.11210863920E+02 0.10250045580E+02 0.92904779879E+01 0.83590283378E+01
 0.74781570878E+01 0.66649596877E+01 0.59306014798E+01 0.52803894789E+01 0.47145381512E+01
 0.42294696527E+01 0.38193496915E+01 0.34775416163E+01 0.31977418178E+01 0.29746857948E+01
 0.28044351951E+01 0.26843406575E+01 0.26128149334E+01 0.25890531118E+01 0.26128141434E+01
 0.26843391871E+01 0.28044332539E+01 0.29746836691E+01 0.31977398282E+01 0.34775400584E+01
 0.38193487684E+01 0.42294694180E+01 0.47145384861E+01 0.52803901170E+01 0.59306020838E+01
 0.67231622009E+01 0.76004614925E+01 0.85505240771E+01 0.95547397202E+01 0.10588074176E+02
 0.11619688372E+02 0.12613878101E+02 0.13531402285E+02 0.14331423036E+02 0.14974277349E+02
 0.15425051455E+02 0.15657504232E+02 0.15657503673E+02 0.15425049887E+02 0.14974275075E+02
 0.14331420477E+02 0.13531399874E+02 0.12613876187E+02 0.11619687136E+02 0.10588073606E+02
 0.95547396306E+01 0.85505241761E+01 0.76004614728E+01 0.67231618311E+01 0.59306014798E+01
 0.52284496027E+01 0.46169664337E+01 0.40923492081E+01 0.36482785967E+01 0.32773859500E+01
 0.29724221491E+01 0.27270220832E+01 0.25360742467E+01 0.23957853186E+01 0.23035614452E+01
 0.22578202387E+01 0.22578198901E+01 0.23035604858E+01 0.23957839861E+01 0.25360728691E+01
 0.27270209967E+01 0.29724216131E+01 0.32773860838E+01 0.36482793532E+01 0.40923503921E+01
 0.46169677600E+01 0.52284507785E+01 0.59306022899E+01 0.68989533876E+01 0.78469147510E+01
 0.88713923398E+01 0.99508822547E+01 0.11056089113E+02 0.12150512308E+02 0.13191716735E+02
 0.14133435946E+02 0.14928653189E+02 0.15533626004E+02 0.15912466833E+02 0.16041506254E+02
 0.15912466277E+02 0.15533624955E+02 0.14928651771E+02 0.14133434332E+02 0.13191715128E+02
 0.12150510903E+02 0.11056088053E+02 0.99508815895E+01 0.88713920008E+01 0.78469145613E+01
 0.68989531064E+01 0.60412474550E+01 0.52803894789E+01 0.46169664337E+01 0.40470776767E+01
 0.35639885120E+01 0.31596664793E+01 0.28260026188E+01 0.25556258833E+01 0.23423290026E+01
 0.21812009964E+01 0.20685881177E+01 0.20019883320E+01 0.19799471809E+01 0.20019879301E+01
 0.20685874912E+01 0.21812004398E+01 0.23423288269E+01 0.25556263112E+01 0.28260037104E+01
 0.31596681127E+01 0.35639904239E+01 0.40470795471E+01 0.46169679849E+01 0.52803905555E+01
 0.60412480603E+01 0.71957902244E+01 0.82210128329E+01 0.93239915913E+01 0.10478733134E+02
 0.11650090406E+02 0.12794713747E+02 0.13863078803E+02 0.14802675207E+02 0.15562287574E+02
 0.16097017694E+02 0.16373354420E+02 0.16373354438E+02 0.16097017707E+02 0.15562287478E+02
 0.14802674894E+02 0.13863078223E+02 0.12794712949E+02 0.11650089535E+02 0.10478732374E+02
 0.93239910910E+01 0.82210126292E+01 0.71957902095E+01 0.62651567773E+01 0.54375746933E+01
 0.47145381512E+01 0.40923492081E+01 0.35639885120E+01 0.31208143456E+01 0.27538973161E+01
 0.24549105707E+01 0.22166082104E+01 0.20330021196E+01 0.18993717008E+01 0.18122172055E+01
 0.17692188949E+01 0.17692188233E+01 0.18122170729E+01 0.18993717192E+01 0.20330025399E+01
 0.22166092121E+01 0.24549121758E+01 0.27538993628E+01 0.31208165315E+01 0.35639904916E+01
 0.40923507065E+01 0.47145390511E+01 0.54375750633E+01 0.62651568329E+01 0.76189991471E+01
 0.87273061645E+01 0.99108135126E+01 0.11137498740E+02 0.12365185148E+02 0.13543231204E+02
 0.14615593176E+02 0.15525169961E+02 0.16219091852E+02 0.16654318648E+02 0.16802666377E+02
 0.16654319227E+02 0.16219092808E+02 0.15525170970E+02 0.14615593918E+02 0.13543231486E+02
 0.12365184973E+02 0.11137498294E+02 0.99108130822E+01 0.87273060074E+01 0.76189993790E+01
 0.66073674876E+01 0.57040487529E+01 0.49123880444E+01 0.42294696527E+01 0.36482785967E+01
 0.31596664793E+01 0.27538973161E+01 0.24216828279E+01 0.21547463187E+01 0.19460434861E+01
 0.17897980672E+01 0.16814837462E+01 0.16178248549E+01 0.15968286039E+01 0.16178249306E+01
 0.16814840124E+01 0.17897986912E+01 0.19460445921E+01 0.21547479009E+01 0.24216847143E+01
 0.27538992027E+01 0.31596680244E+01 0.36482795398E+01 0.42294699093E+01 0.49123877371E+01
 0.57040481638E+01 0.66073669494E+01 0.81748029164E+01 0.93701078839E+01 0.10633018702E+02
 0.11924305999E+02 0.13194254126E+02 0.14385329150E+02 0.15436343518E+02 0.16287810341E+02
 0.16887903382E+02 0.17198190747E+02 0.17198191274E+02 0.16887904809E+02 0.16287812259E+02
 0.15436345408E+02 0.14385330566E+02 0.13194254842E+02 0.11924306073E+02 0.10633018429E+02
 0.93701076696E+01 0.81748031096E+01 0.70747378798E+01 0.60862599239E+01 0.52158695105E+01
 0.44623794126E+01 0.38193496915E+01 0.32773859500E+01 0.28260026188E+01 0.24549105707E+01
 0.21547463187E+01 0.19173763962E+01 0.17359601327E+01 0.16049358101E+01 0.15200311049E+01
 0.14783237199E+01 0.14783238065E+01 0.15200313983E+01 0.16049363853E+01 0.17359610417E+01
 0.19173775978E+01 0.21547476431E+01 0.24549117421E+01 0.28260033355E+01 0.32773859941E+01
 0.38193490224E+01 0.44623782010E+01 0.52158680929E+01 0.60862586879E+01 0.70747371210E+01
 0.88685070446E+01 0.10151345115E+02 0.11488181684E+02 0.12832049097E+02 0.14125990613E+02
 0.15306748603E+02 0.16309904765E+02 0.17075978438E+02 0.17556715580E+02 0.17720612768E+02
 0.17556716803E+02 0.17075980547E+02 0.16309907199E+02 0.15306750764E+02 0.14125992061E+02
 0.12832049681E+02 0.11488181574E+02 0.10151344714E+02 0.88685068360E+01 0.76746263285E+01
 0.65922712180E+01 0.56326426689E+01 0.47976094790E+01 0.40822681612E+01 0.34775416163E+01
 0.29724221491E+01 0.25556258833E+01 0.22166082104E+01 0.19460434861E+01 0.17359601327E+01
 0.15797317391E+01 0.14720695757E+01 0.14090769499E+01 0.13883507828E+01 0.14090771823E+01
 0.14720700373E+01 0.15797323973E+01 0.17359608912E+01 0.19460441675E+01 0.22166085781E+01
 0.25556257040E+01 0.29724212798E+01 0.34775400792E+01 0.40822661712E+01 0.47976074020E+01
 0.56326409151E+01 0.65922701041E+01 0.76746259573E+01 0.97017519134E+01 0.11067654500E+02
 0.12467529065E+02 0.13846963328E+02 0.15142821583E+02 0.16287810144E+02 0.17216373941E+02
 0.17871297647E+02 0.18210092062E+02 0.18210092626E+02 0.17871299185E+02 0.17216376039E+02
 0.16287812259E+02 0.15142823213E+02 0.13846964164E+02 0.12467529078E+02 0.11067653931E+02
 0.97017511857E+01 0.84125926723E+01 0.72300984263E+01 0.61716850099E+01 0.52438619392E+01
 0.44446398715E+01 0.37662545139E+01 0.31977418178E+01 0.27270220832E+01 0.23423290026E+01
 0.20330021196E+01 0.17897980672E+01 0.16049358101E+01 0.14720695757E+01 0.13863048722E+01
 0.13442813269E+01 0.13442814626E+01 0.13863052435E+01 0.14720700772E+01 0.16049362751E+01
 0.17897982890E+01 0.20330018907E+01 0.23423281692E+01 0.27270206019E+01 0.31977397950E+01
 0.37662522073E+01 0.44446376424E+01 0.52438601618E+01 0.61716839607E+01 0.72300981894E+01
 0.84125930963E+01 0.10669023293E+02 0.12107097190E+02 0.13553139353E+02 0.14946386730E+02
 0.16219091848E+02 0.17301749973E+02 0.18129600691E+02 0.18649645184E+02 0.18827045962E+02
 0.18649645753E+02 0.18129601673E+02 0.17301751099E+02 0.16219092808E+02 0.14946387260E+02
 0.13553139309E+02 0.12107096588E+02 0.10669022309E+02 0.92890895717E+01 0.80049405280E+01
 0.68412834797E+01 0.58108050044E+01 0.49160885679E+01 0.41521445349E+01 0.35091072450E+01
 0.29746857948E+01 0.25360742467E+01 0.21812009964E+01 0.18993717008E+01 0.16814837462E+01
 0.15200311049E+01 0.14090769499E+01 0.13442813269E+01 0.13229825453E+01 0.13442816061E+01
 0.14090773773E+01 0.15200314569E+01 0.16814837729E+01 0.18993712017E+01 0.21811998850E+01
 0.25360725859E+01 0.29746837917E+01 0.35091052064E+01 0.41521427949E+01 0.49160874048E+01
 0.58108045707E+01 0.68412837627E+01 0.80049413524E+01 0.92890906442E+01 0.11753920714E+02
 0.13246057589E+02 0.14715592405E+02 0.16097018187E+02 0.17319614454E+02 0.18313238162E+02
 0.19015503540E+02 0.19379328696E+02 0.19379328576E+02 0.19015503211E+02 0.18313237709E+02
 0.17319613966E+02 0.16097017707E+02 0.14715591904E+02 0.13246056978E+02 0.11753919887E+02
 0.10295454488E+02 0.89153609719E+01 0.76458262971E+01 0.65067329334E+01 0.55068319513E+01
 0.46456891070E+01 0.39161249374E+01 0.33067810002E+01 0.28044351951E+01 0.23957853186E+01
 0.20685881177E+01 0.18122172055E+01 0.16178248549E+01 0.14783237199E+01 0.13883507828E+01
 0.13442814626E+01 0.13442816061E+01 0.13883511254E+01 0.14783240331E+01 0.16178248631E+01
 0.18122167007E+01 0.20685870511E+01 0.23957838350E+01 0.28044335951E+01 0.33067796471E+01
 0.39161241416E+01 0.46456890312E+01 0.55068325698E+01 0.65067340567E+01 0.76458276488E+01