    2    2   10    1
  0.2002965E+02  0.3840662E-09  0.3840662E-09  0.3840662E-09  0.5000000E-15
   1.0000000000000000E-004
  CAR 
 unknown system                          
      8     35     16

  0.3742002E-15  0.3742002E-15  0.3742002E-15  0.1371742E-02
    1       -6.196208   1.000000
    2        5.623641   1.000000
    3        5.623642   1.000000
    4        5.623642   1.000000
    5        8.181013   0.000000
    6        8.181013   0.000000
    7        8.181013   0.000000
    8        8.763421   0.000000
    9       13.336483   0.000000
   10       13.336483   0.000000
   11       13.503038   0.000000
   12       16.810298   0.000000
   13       16.810298   0.000000
   14       16.810298   0.000000
   15       20.901233   0.000000
   16       28.513049   0.000000

  0.1111111E+00  0.3747003E-15  0.3747003E-15  0.1097394E-01
    1       -6.037524   1.000000
    2        4.284355   1.000000
    3        5.391273   1.000000
    4        5.391274   1.000000
    5        8.115308   0.000000
    6        8.524142   0.000000
    7        8.524142   0.000000
    8        9.920226   0.000000
    9       12.933432   0.000000
   10       12.933432   0.000000
   11       14.141191   0.000000
   12       16.326729   0.000000
   13       17.747286   0.000000
   14       17.747286   0.000000
   15       21.895698   0.000000
   16       26.858308   0.000000

  0.2222222E+00  0.3747003E-15  0.3747003E-15  0.1097394E-01
    1       -5.571487   1.000000
    2        2.233559   1.000000
    3        4.974049   1.000000
    4        4.974049   1.000000
    5        7.690954   0.000000
    6        9.048836   0.000000
    7        9.048837   0.000000
    8       11.901575   0.000000
    9       12.708909   0.000000
   10       12.708909   0.000000
   11       14.655923   0.000000
   12       16.819812   0.000000
   13       19.678754   0.000000
   14       19.678754   0.000000
   15       23.524028   0.000000
   16       23.944334   0.000000

  0.3333333E+00  0.3608225E-15  0.3608225E-15  0.1097394E-01
    1       -4.845347   1.000000
    2        0.351611   1.000000
    3        4.640163   1.000000
    4        4.640164   1.000000
    5        7.318556   0.000000
    6        9.128883   0.000000
    7        9.128883   0.000000
    8       13.410248   0.000000
    9       13.583691   0.000000
   10       13.583691   0.000000
   11       14.609026   0.000000
   12       19.057675   0.000000
   13       20.101695   0.000000
   14       20.101695   0.000000
   15       22.225863   0.000000
   16       23.144342   0.000000

  0.4444444E+00  0.3608225E-15  0.3608225E-15  0.1097394E-01
    1       -4.073562   1.000000
    2       -1.015869   1.000000
    3        4.466021   1.000000
    4        4.466021   1.000000
    5        7.118416   0.000000
    6        8.998538   0.000000
    7        8.998538   0.000000
    8       13.363640   0.000000
    9       15.334551   0.000000
   10       15.334551   0.000000
   11       16.266989   0.000000
   12       17.737577   0.000000
   13       17.737577   0.000000
   14       18.876274   0.000000
   15       23.434260   0.000000
   16       25.742185   0.000000

  0.1111111E+00  0.1111111E+00  0.3742002E-15  0.8230453E-02
    1       -5.984168   1.000000
    2        4.495366   1.000000
    3        4.962495   1.000000
    4        4.962495   1.000000
    5        7.735982   0.000000
    6        9.103299   0.000000
    7        9.103299   0.000000
    8        9.733966   0.000000
    9       12.237195   0.000000
   10       13.575243   0.000000
   11       14.367990   0.000000
   12       17.180421   0.000000
   13       17.180422   0.000000
   14       17.614914   0.000000
   15       22.348805   0.000000
   16       26.383515   0.000000

  0.2222222E+00  0.1111111E+00  0.3747003E-15  0.3292181E-01
    1       -5.618547   1.000000
    2        2.838750   1.000000
    3        4.497267   1.000000
    4        4.623168   1.000000
    5        7.821684   0.000000
    6        9.090290   0.000000
    7        9.807656   0.000000
    8       10.497347   0.000000
    9       12.563926   0.000000
   10       13.624272   0.000000
   11       15.336762   0.000000
   12       16.856657   0.000000
   13       18.351353   0.000000
   14       19.462420   0.000000
   15       23.769677   0.000000
   16       23.876664   0.000000

  0.3333333E+00  0.1111111E+00  0.3747003E-15  0.3292181E-01
    1       -4.970090   1.000000
    2        0.962986   1.000000
    3        4.123770   1.000000
    4        4.195987   1.000000
    5        7.924544   0.000000
    6        9.080646   0.000000
    7        9.984948   0.000000
    8       10.946327   0.000000
    9       14.296884   0.000000
   10       14.356543   0.000000
   11       15.141594   0.000000
   12       18.435259   0.000000
   13       19.537905   0.000000
   14       20.916581   0.000000
   15       21.815775   0.000000
   16       22.698019   0.000000

  0.4444444E+00  0.1111111E+00  0.3885781E-15  0.3292181E-01
    1       -4.161950   1.000000
    2       -0.597127   1.000000
    3        3.694896   1.000000
    4        4.113387   1.000000
    5        7.793423   0.000000
    6        9.006733   0.000000
    7        9.718097   0.000000
    8       12.361610   0.000000
    9       14.563970   0.000000
   10       15.880406   0.000000
   11       16.537101   0.000000
   12       17.470109   0.000000
   13       18.254745   0.000000
   14       20.930371   0.000000
   15       22.664604   0.000000
   16       23.906534   0.000000

 -0.4444444E+00  0.1111111E+00  0.3885781E-15  0.3292181E-01
    1       -3.794127   1.000000
    2       -1.155382   1.000000
    3        3.441795   1.000000
    4        4.249290   1.000000
    5        7.790403   0.000000
    6        9.036893   0.000000
    7        9.460885   0.000000
    8       13.740241   0.000000
    9       14.611467   0.000000
   10       14.986997   0.000000
   11       16.450661   0.000000
   12       18.185224   0.000000
   13       18.591178   0.000000
   14       19.251383   0.000000
   15       24.068731   0.000000
   16       25.449688   0.000000

 -0.3333333E+00  0.1111111E+00  0.3608225E-15  0.3292181E-01
    1       -4.433789   1.000000
    2       -0.130416   1.000000
    3        3.411440   1.000000
    4        4.572892   1.000000
    5        7.969150   0.000000
    6        9.261327   0.000000
    7        9.336278   0.000000
    8       12.947551   0.000000
    9       13.076507   0.000000
   10       14.905042   0.000000
   11       16.731450   0.000000
   12       17.567821   0.000000
   13       20.100047   0.000000
   14       20.618932   0.000000
   15       21.921753   0.000000
   16       23.053785   0.000000

 -0.2222222E+00  0.1111111E+00  0.3885781E-15  0.3292181E-01
    1       -5.216285   1.000000
    2        1.567807   1.000000
    3        3.644852   1.000000
    4        5.014434   1.000000
    5        8.289498   0.000000
    6        9.117582   0.000000
    7        9.393350   0.000000
    8       11.634478   0.000000
    9       12.001212   0.000000
   10       14.730729   0.000000
   11       15.385942   0.000000
   12       17.539159   0.000000
   13       19.317974   0.000000
   14       21.262729   0.000000
   15       21.466411   0.000000
   16       23.818321   0.000000

 -0.1111111E+00  0.1111111E+00  0.3747003E-15  0.1646091E-01
    1       -5.775524   1.000000
    2        3.306371   1.000000
    3        4.289963   1.000000
    4        5.401472   1.000000
    5        8.566082   0.000000
    6        8.618515   0.000000
    7        8.818453   0.000000
    8       10.882401   0.000000
    9       12.119833   0.000000
   10       13.356898   0.000000
   11       15.000344   0.000000
   12       16.686545   0.000000
   13       17.652647   0.000000
   14       19.483534   0.000000
   15       23.194600   0.000000
   16       23.906621   0.000000

  0.2222222E+00  0.2222222E+00  0.3742002E-15  0.8230453E-02
    1       -5.354019   1.000000
    2        2.597218   1.000000
    3        3.985846   1.000000
    4        3.985847   1.000000
    5        6.949693   0.000000
    6        9.168259   0.000000
    7       10.841007   0.000000
    8       10.841007   0.000000
    9       12.958307   0.000000
   10       14.282710   0.000000
   11       16.357285   0.000000
   12       18.229004   0.000000
   13       18.229004   0.000000
   14       18.879187   0.000000
   15       23.489809   0.000000
   16       23.489809   0.000000

  0.3333333E+00  0.2222222E+00  0.3747003E-15  0.3292181E-01
    1       -4.794861   1.000000
    2        1.287477   1.000000
    3        3.368898   1.000000
    4        3.648835   1.000000
    5        7.102861   0.000000
    6        8.798079   0.000000
    7       11.072627   0.000000
    8       11.414514   0.000000
    9       14.722115   0.000000
   10       14.964522   0.000000
   11       16.920346   0.000000
   12       18.614739   0.000000
   13       19.054659   0.000000
   14       20.493113   0.000000
   15       21.441973   0.000000
   16       22.237872   0.000000

  0.4444444E+00  0.2222222E+00  0.3747003E-15  0.3292181E-01
    1       -4.011725   1.000000
    2       -0.154057   1.000000
    3        2.638840   1.000000
    4        3.551468   1.000000
    5        7.288302   0.000000
    6        9.804078   0.000000
    7       10.822867   0.000000
    8       11.238179   0.000000
    9       16.126843   0.000000
   10       16.473098   0.000000
   11       17.005048   0.000000
   12       17.385356   0.000000
   13       18.645732   0.000000
   14       21.248155   0.000000
   15       22.575948   0.000000
   16       24.214912   0.000000

 -0.4444444E+00  0.2222222E+00  0.3885781E-15  0.3292181E-01
    1       -3.373832   1.000000
    2       -1.072696   1.000000
    3        2.128032   1.000000
    4        3.702811   1.000000
    5        7.434355   0.000000
    6       10.591421   0.000000
    7       10.863345   0.000000
    8       11.753071   0.000000
    9       14.683651   0.000000
   10       14.894447   0.000000
   11       17.619874   0.000000
   12       18.698754   0.000000
   13       19.285350   0.000000
   14       22.107267   0.000000
   15       23.800883   0.000000
   16       24.140326   0.000000

 -0.3333333E+00  0.2222222E+00  0.3330669E-15  0.3292181E-01
    1       -3.775624   1.000000
    2       -0.508977   1.000000
    3        1.953936   1.000000
    4        4.076023   1.000000
    5        7.808989   0.000000
    6       10.524176   0.000000
    7       10.535706   0.000000
    8       12.742040   0.000000
    9       12.887264   0.000000
   10       14.029730   0.000000
   11       17.639726   0.000000
   12       19.781253   0.000000
   13       20.438331   0.000000
   14       21.128448   0.000000
   15       21.726723   0.000000
   16       23.844968   0.000000

 -0.2222222E+00  0.2222222E+00  0.3608225E-15  0.1646091E-01
    1       -4.580804   1.000000
    2        0.714010   1.000000
    3        2.337569   1.000000
    4        4.587492   1.000000
    5        8.318549   0.000000
    6        9.919019   0.000000
    7       10.239673   0.000000
    8       11.411091   0.000000
    9       11.859761   0.000000
   10       15.987502   0.000000
   11       17.218030   0.000000
   12       17.813992   0.000000
   13       18.964353   0.000000
   14       21.098460   0.000000
   15       22.663964   0.000000
   16       23.352179   0.000000

  0.3333333E+00  0.3333333E+00  0.3742002E-15  0.8230453E-02
    1       -4.325314   1.000000
    2        0.632337   1.000000
    3        3.254624   1.000000
    4        3.254625   1.000000
    5        6.382159   0.000000
    6        7.646085   0.000000
    7       12.802094   0.000000
    8       12.802095   0.000000
    9       15.244388   0.000000
   10       15.455820   0.000000
   11       18.551501   0.000000
   12       18.994592   0.000000
   13       18.994592   0.000000
   14       20.644491   0.000000
   15       21.690416   0.000000
   16       21.882187   0.000000

  0.4444444E+00  0.3333333E+00  0.3747003E-15  0.3292181E-01
    1       -3.600163   1.000000
    2       -0.401632   1.000000
    3        2.546884   1.000000
    4        3.099561   1.000000
    5        6.624665   0.000000
    6        7.685658   0.000000
    7       13.092152   0.000000
    8       13.156364   0.000000
    9       16.798233   0.000000
   10       16.957089   0.000000
   11       17.379715   0.000000
   12       17.463673   0.000000
   13       20.251186   0.000000
   14       20.593509   0.000000
   15       21.210480   0.000000
   16       23.091649   0.000000

 -0.4444444E+00  0.3333333E+00  0.3330669E-15  0.3292181E-01
    1       -2.824070   1.000000
    2       -1.281951   1.000000
    3        1.664170   1.000000
    4        3.204418   1.000000
    5        6.821174   0.000000
    6        9.261097   0.000000
    7       12.789113   0.000000
    8       12.882935   0.000000
    9       14.989225   0.000000
   10       15.065778   0.000000
   11       19.020134   0.000000
   12       19.373475   0.000000
   13       20.096367   0.000000
   14       21.631650   0.000000
   15       22.122674   0.000000
   16       23.376774   0.000000

 -0.3333333E+00  0.3333333E+00  0.3885781E-15  0.1646091E-01
    1       -2.997424   1.000000
    2       -1.092105   1.000000
    3        1.309481   1.000000
    4        3.552878   1.000000
    5        7.211958   0.000000
    6       11.404632   0.000000
    7       12.035556   0.000000
    8       12.599603   0.000000
    9       12.924070   0.000000
   10       13.281463   0.000000
   11       19.871923   0.000000
   12       20.444368   0.000000
   13       21.098335   0.000000
   14       21.212770   0.000000
   15       22.063565   0.000000
   16       23.000045   0.000000

  0.4444444E+00  0.4444444E+00  0.3742002E-15  0.8230453E-02
    1       -2.936172   1.000000
    2       -1.251291   1.000000
    3        2.875019   1.000000
    4        2.875020   1.000000
    5        6.246753   0.000000
    6        6.647406   0.000000
    7       14.848439   0.000000
    8       14.848439   0.000000
    9       17.094680   0.000000
   10       17.275322   0.000000
   11       17.275322   0.000000
   12       17.483547   0.000000
   13       19.101929   0.000000
   14       19.178013   0.000000
   15       23.067281   0.000000
   16       23.842400   0.000000

 -0.4444444E+00  0.4444444E+00  0.2775558E-15  0.1646091E-01
    1       -2.179836   1.000000
    2       -2.010018   1.000000
    3        2.277369   1.000000
    4        2.911720   1.000000
    5        6.472557   0.000000
    6        7.287559   0.000000
    7       14.723034   0.000000
    8       15.025192   0.000000
    9       15.431896   0.000000
   10       15.671228   0.000000
   11       18.924314   0.000000
   12       18.955651   0.000000
   13       18.993392   0.000000
   14       19.713999   0.000000
   15       23.062184   0.000000
   16       23.433856   0.000000

  0.3333333E+00  0.2222222E+00  0.1111111E+00  0.3292181E-01
    1       -5.157219   1.000000
    2        1.849386   1.000000
    3        3.305979   1.000000
    4        4.477339   1.000000
    5        8.000632   0.000000
    6        9.373147   0.000000
    7       10.028120   0.000000
    8       10.601557   0.000000
    9       13.029331   0.000000
   10       14.929467   0.000000
   11       16.342835   0.000000
   12       17.384442   0.000000
   13       18.967840   0.000000
   14       21.011294   0.000000
   15       21.166771   0.000000
   16       23.813451   0.000000

  0.4444444E+00  0.2222222E+00  0.1111111E+00  0.6584362E-01
    1       -4.436019   1.000000
    2        0.386923   1.000000
    3        2.703340   1.000000
    4        4.050678   1.000000
    5        8.379369   0.000000
    6        9.200300   0.000000
    7       10.385430   0.000000
    8       11.046796   0.000000
    9       13.899477   0.000000
   10       15.884707   0.000000
   11       17.115532   0.000000
   12       17.745932   0.000000
   13       19.621129   0.000000
   14       20.733578   0.000000
   15       21.799066   0.000000
   16       23.976889   0.000000

 -0.4444444E+00  0.2222222E+00  0.1111111E+00  0.6584362E-01
    1       -3.658335   1.000000
    2       -0.872791   1.000000
    3        2.508074   1.000000
    4        3.735735   1.000000
    5        8.462459   0.000000
    6        8.823229   0.000000
    7       10.985665   0.000000
    8       12.107452   0.000000
    9       14.186603   0.000000
   10       15.506779   0.000000
   11       16.943212   0.000000
   12       18.397809   0.000000
   13       19.407225   0.000000
   14       21.528229   0.000000
   15       22.699938   0.000000
   16       24.682493   0.000000

  0.4444444E+00  0.3333333E+00  0.1111111E+00  0.3292181E-01
    1       -4.155023   1.000000
    2        0.335718   1.000000
    3        2.607312   1.000000
    4        3.284052   1.000000
    5        7.458078   0.000000
    6        8.465510   0.000000
    7       11.011799   0.000000
    8       12.714468   0.000000
    9       14.978288   0.000000
   10       16.700230   0.000000
   11       17.172896   0.000000
   12       18.729524   0.000000
   13       19.483161   0.000000
   14       20.275700   0.000000
   15       21.438075   0.000000
   16       22.963285   0.000000

 -0.4444444E+00  0.3333333E+00  0.1111111E+00  0.6584362E-01
    1       -3.345460   1.000000
    2       -0.728253   1.000000
    3        1.955527   1.000000
    4        2.985954   1.000000
    5        7.860770   0.000000
    6        9.545048   0.000000
    7       10.577651   0.000000
    8       13.109943   0.000000
    9       14.447174   0.000000
   10       16.326781   0.000000
   11       17.754804   0.000000
   12       19.250269   0.000000
   13       19.755650   0.000000
   14       21.031443   0.000000
   15       22.824040   0.000000
   16       23.593440   0.000000

 -0.3333333E+00  0.3333333E+00  0.1111111E+00  0.6584362E-01
    1       -2.990509   1.000000
    2       -1.142526   1.000000
    3        1.577427   1.000000
    4        3.095460   1.000000
    5        8.147106   0.000000
    6       10.117260   0.000000
    7       11.643924   0.000000
    8       12.172963   0.000000
    9       13.032603   0.000000
   10       15.564719   0.000000
   11       18.485001   0.000000
   12       19.176038   0.000000
   13       21.637609   0.000000
   14       21.818885   0.000000
   15       22.677546   0.000000
   16       22.964324   0.000000

 -0.2222222E+00  0.3333333E+00  0.1111111E+00  0.3292181E-01
    1       -3.675273   1.000000
    2       -0.357278   1.000000
    3        1.723761   1.000000
    4        3.522346   1.000000
    5        8.646259   0.000000
    6        9.624692   0.000000
    7       10.472341   0.000000
    8       12.481258   0.000000
    9       14.032044   0.000000
   10       14.115602   0.000000
   11       18.920610   0.000000
   12       19.540020   0.000000
   13       19.820195   0.000000
   14       20.686473   0.000000
   15       22.544525   0.000000
   16       23.715366   0.000000

 -0.4444444E+00  0.4444444E+00  0.1111111E+00  0.3292181E-01
    1       -2.823613   1.000000
    2       -1.268968   1.000000
    3        2.326143   1.000000
    4        2.532962   1.000000
    5        7.290573   0.000000
    6        7.603161   0.000000
    7       12.769236   0.000000
    8       14.605002   0.000000
    9       15.140852   0.000000
   10       16.846521   0.000000
   11       17.642283   0.000000
   12       19.248738   0.000000
   13       19.569705   0.000000
   14       21.540001   0.000000
   15       21.615301   0.000000
   16       23.134264   0.000000

 -0.3333333E+00  0.4444444E+00  0.1111111E+00  0.3292181E-01
    1       -2.315219   1.000000
    2       -1.720462   1.000000
    3        1.622696   1.000000
    4        2.618858   1.000000
    5        7.658015   0.000000
    6        9.278226   0.000000
    7       12.228492   0.000000
    8       12.484806   0.000000
    9       14.989595   0.000000
   10       15.833135   0.000000
   11       18.559869   0.000000
   12       19.599869   0.000000
   13       21.286495   0.000000
   14       22.176755   0.000000
   15       22.258925   0.000000
   16       22.554403   0.000000

 -0.3333333E+00  0.4444444E+00  0.2222222E+00  0.3292181E-01
    1       -2.555898   1.000000
    2       -1.413882   1.000000
    3        1.659574   1.000000
    4        2.289264   1.000000
    5        9.462749   0.000000
    6        9.573951   0.000000
    7       10.198959   0.000000
    8       11.938932   0.000000
    9       14.950803   0.000000
   10       16.377370   0.000000
   11       18.162902   0.000000
   12       19.524257   0.000000
   13       20.870480   0.000000
   14       22.219701   0.000000
   15       22.627120   0.000000
   16       23.896685   0.000000
