       N       E                     dE             d eps       ncg     rms          rms(c)
DAV:   1    -0.108428105056E+02   -0.10843E+02   -0.13625E-01  1248   0.241E+00    0.358E-01
DAV:   2    -0.108418518613E+02    0.95864E-03   -0.21174E-03  1360   0.207E-01    0.183E-01
DAV:   3    -0.108413640477E+02    0.48781E-03   -0.12287E-03  1696   0.946E-02    0.375E-02
DAV:   4    -0.108413677951E+02   -0.37474E-05   -0.15513E-05  1584   0.189E-02    0.213E-02
DAV:   5    -0.108413685754E+02   -0.78030E-06   -0.22448E-06  1760   0.584E-03    0.217E-03
DAV:   6    -0.108413684750E+02    0.10036E-06   -0.19934E-08  1680   0.655E-04    0.346E-04
DAV:   7    -0.108413684813E+02   -0.62881E-08   -0.24548E-08  1744   0.610E-04
   1 F= -.10841368E+02 E0= -.10841368E+02  d E =-.108414E+02
       N       E                     dE             d eps       ncg     rms          rms(c)
DAV:   1    -0.108500796780E+02   -0.87112E-02   -0.23879E-01  1312   0.137E+00    0.474E-01
DAV:   2    -0.108459726500E+02    0.41070E-02   -0.28145E-03  1264   0.180E-01    0.273E-01
DAV:   3    -0.108438617804E+02    0.21109E-02   -0.44077E-03  1376   0.169E-01    0.100E-01
DAV:   4    -0.108438615957E+02    0.18475E-06   -0.24268E-05  1568   0.242E-02    0.905E-02
DAV:   5    -0.108438507888E+02    0.10807E-04   -0.76712E-06  1536   0.100E-02    0.110E-02
DAV:   6    -0.108438493693E+02    0.14196E-05   -0.78969E-07  1616   0.328E-03    0.126E-02
DAV:   7    -0.108438495972E+02   -0.22795E-06   -0.22124E-07  1456   0.183E-03    0.458E-03
DAV:   8    -0.108438496257E+02   -0.28469E-07   -0.47723E-09  1232   0.264E-04
   2 F= -.10843850E+02 E0= -.10843850E+02  d E =-.248114E-02
       N       E                     dE             d eps       ncg     rms          rms(c)
DAV:   1    -0.108468804043E+02   -0.30308E-02   -0.38271E-02  1312   0.552E-01    0.190E-01
DAV:   2    -0.108462342073E+02    0.64620E-03   -0.44343E-04  1248   0.711E-02    0.108E-01
DAV:   3    -0.108459105169E+02    0.32369E-03   -0.69668E-04  1344   0.672E-02    0.411E-02
DAV:   4    -0.108459111499E+02   -0.63301E-06   -0.37578E-06  1552   0.962E-03    0.378E-02
DAV:   5    -0.108459127055E+02   -0.15556E-05   -0.10825E-06  1440   0.382E-03    0.541E-03
DAV:   6    -0.108459135603E+02   -0.85488E-06   -0.15646E-07  1568   0.146E-03    0.599E-03
DAV:   7    -0.108459135708E+02   -0.10491E-07   -0.31126E-08  1296   0.698E-04
   3 F= -.10845914E+02 E0= -.10845914E+02  d E =-.206395E-02
       N       E                     dE             d eps       ncg     rms          rms(c)
DAV:   1    -0.108459147092E+02   -0.11488E-05   -0.15001E-05  1360   0.109E-02    0.276E-03
DAV:   2    -0.108459145372E+02    0.17193E-06   -0.17441E-07  1280   0.141E-03    0.156E-03
DAV:   3    -0.108459145635E+02   -0.26209E-07   -0.26933E-07  1344   0.132E-03
   4 F= -.10845915E+02 E0= -.10845915E+02  d E =-.992622E-06
