 vasp.5.4.1 24Jun15 (build Jan 30 2017 21:57:38) complex                         
 executed on           IFC91_ompi date 2018.07.26  12:10:02
 running on   16 total cores
 distrk:  each k-point on   16 cores,    1 groups
 distr:  one band on NCORES_PER_BAND=   1 cores,   16 groups


--------------------------------------------------------------------------------------------------------


 INCAR:
 POTCAR:    PAW_PBE Si 05Jan2001                  

 ----------------------------------------------------------------------------- 
|                                                                             |
|           W    W    AA    RRRRR   N    N  II  N    N   GGGG   !!!           |
|           W    W   A  A   R    R  NN   N  II  NN   N  G    G  !!!           |
|           W    W  A    A  R    R  N N  N  II  N N  N  G       !!!           |
|           W WW W  AAAAAA  RRRRR   N  N N  II  N  N N  G  GGG   !            |
|           WW  WW  A    A  R   R   N   NN  II  N   NN  G    G                |
|           W    W  A    A  R    R  N    N  II  N    N   GGGG   !!!           |
|                                                                             |
|      For optimal performance we recommend to set                            |
|        NCORE= 4 - approx SQRT( number of cores)                             |
|      NCORE specifies how many cores store one orbital (NPAR=cpu/NCORE).     |
|      This setting can  greatly improve the performance of VASP for DFT.     |
|      The default, NPAR=number of cores might be grossly inefficient         |
|      on modern multi-core architectures or massively parallel machines.     |
|      Do your own testing !!!!                                               |
|      Unfortunately you need to use the default for GW and RPA calculations. |
|      (for HF NCORE is supported but not extensively tested yet)             |
|                                                                             |
 ----------------------------------------------------------------------------- 

 POTCAR:    PAW_PBE Si 05Jan2001                  
   VRHFIN =Si: s2p2                                                             
   LEXCH  = PE                                                                  
   EATOM  =   103.0669 eV,    7.5752 Ry                                         
                                                                                
   TITEL  = PAW_PBE Si 05Jan2001                                                
   LULTRA =        F    use ultrasoft PP ?                                      
   IUNSCR =        1    unscreen: 0-lin 1-nonlin 2-no                           
   RPACOR =    1.500    partial core radius                                     
   POMASS =   28.085; ZVAL   =    4.000    mass and valenz                      
   RCORE  =    1.900    outmost cutoff radius                                   
   RWIGS  =    2.480; RWIGS  =    1.312    wigner-seitz radius (au A)           
   ENMAX  =  245.345; ENMIN  =  184.009 eV                                      
   ICORE  =        2    local potential                                         
   LCOR   =        T    correct aug charges                                     
   LPAW   =        T    paw PP                                                  
   EAUG   =  322.069                                                            
   DEXC   =    0.000                                                            
   RMAX   =    1.950    core radius for proj-oper                               
   RAUG   =    1.300    factor for augmentation sphere                          
   RDEP   =    1.993    radius for radial grids                                 
   RDEPT  =    1.837    core radius for aug-charge                              
                                                                                
   Atomic configuration                                                         
    6 entries                                                                   
     n  l   j            E        occ.                                          
     1  0  0.50     -1785.8828   2.0000                                         
     2  0  0.50      -139.4969   2.0000                                         
     2  1  1.50       -95.5546   6.0000                                         
     3  0  0.50       -10.8127   2.0000                                         
     3  1  0.50        -4.0811   2.0000                                         
     3  2  1.50        -4.0817   0.0000                                         
   Description                                                                  
     l       E           TYP  RCUT    TYP  RCUT                                 
     0    -10.8127223     23  1.900                                             
     0     -7.6451159     23  1.900                                             
     1     -4.0811372     23  1.900                                             
     1      2.4879257     23  1.900                                             
     2     -4.0817478      7  1.900                                             
  local pseudopotential read in
  partial core-charges read in
  partial kinetic energy density read in
  atomic valenz-charges read in
  non local Contribution for L=           0  read in
    real space projection operators read in
  non local Contribution for L=           0  read in
    real space projection operators read in
  non local Contribution for L=           1  read in
    real space projection operators read in
  non local Contribution for L=           1  read in
    real space projection operators read in
    PAW grid and wavefunctions read in

   number of l-projection  operators is LMAX  =           4
   number of lm-projection operators is LMMAX =           8

  PAW_PBE Si 05Jan2001                  :
 energy of atom  1       EATOM= -103.0669
 kinetic energy error for atom=    0.0013 (will be added to EATOM!!)


 POSCAR: high sym                                
  positions in direct lattice
  No initial velocities read in
 exchange correlation table for  LEXCH =        8
   RHO(1)=    0.500       N(1)  =     2000
   RHO(2)=  100.500       N(2)  =     4000



--------------------------------------------------------------------------------------------------------


 ion  position               nearest neighbor table
   1  0.000  0.000  0.000-   2 2.35   2 2.35   2 2.35   2 2.35
   2  0.250  0.250  0.250-   1 2.35   1 2.35   1 2.35   1 2.35

  LATTYP: Found a face centered cubic cell.
 ALAT       =     5.4315168741
  
  Lattice vectors:
  
 A1 = (  -0.0000000000,   2.7157584370,   2.7157584370)
 A2 = (   2.7157584370,  -0.0000000000,   2.7157584370)
 A3 = (   2.7157584370,   2.7157584370,  -0.0000000000)


Analysis of symmetry for initial positions (statically):
=====================================================================
 Subroutine PRICEL returns:
 Original cell was already a primitive cell.
 

 Routine SETGRP: Setting up the symmetry group for a 
 face centered cubic supercell.


 Subroutine GETGRP returns: Found 48 space group operations
 (whereof 24 operations were pure point group operations)
 out of a pool of 48 trial point group operations.


The static configuration has the point symmetry T_d .
 The point group associated with its full space group is O_h .


Analysis of symmetry for dynamics (positions and initial velocities):
=====================================================================
 Subroutine PRICEL returns:
 Original cell was already a primitive cell.
 

 Routine SETGRP: Setting up the symmetry group for a 
 face centered cubic supercell.


 Subroutine GETGRP returns: Found 48 space group operations
 (whereof 24 operations were pure point group operations)
 out of a pool of 48 trial point group operations.


The dynamic configuration has the point symmetry T_d .
 The point group associated with its full space group is O_h .


 KPOINTS: Automatic kpoint scheme                 

Automatic generation of k-mesh.
Space group operators:
 irot       det(A)        alpha          n_x          n_y          n_z        tau_x        tau_y        tau_z
    1     1.000000     0.000000     1.000000     0.000000     0.000000     0.000000     0.000000     0.000000
    2     1.000000   120.000000    -0.577350    -0.577350    -0.577350     0.000000     0.000000     0.000000
    3     1.000000   120.000000     0.577350     0.577350     0.577350     0.000000     0.000000     0.000000
    4    -1.000000    90.000000     0.000000     0.000000    -1.000000     0.000000     0.000000     0.000000
    5    -1.000000   180.000000     0.000000     0.707107     0.707107     0.000000     0.000000     0.000000
    6    -1.000000    90.000000     0.000000     1.000000     0.000000     0.000000     0.000000     0.000000
    7     1.000000   180.000000     0.000000     0.000000     1.000000     0.000000     0.000000     0.000000
    8     1.000000   120.000000    -0.577350     0.577350     0.577350     0.000000     0.000000     0.000000
    9     1.000000   120.000000    -0.577350     0.577350    -0.577350     0.000000     0.000000     0.000000
   10    -1.000000    90.000000     0.000000     0.000000     1.000000     0.000000     0.000000     0.000000
   11    -1.000000    90.000000    -1.000000     0.000000     0.000000     0.000000     0.000000     0.000000
   12    -1.000000   180.000000     0.707107     0.000000     0.707107     0.000000     0.000000     0.000000
   13     1.000000   120.000000     0.577350    -0.577350     0.577350     0.000000     0.000000     0.000000
   14     1.000000   120.000000    -0.577350    -0.577350     0.577350     0.000000     0.000000     0.000000
   15     1.000000   180.000000     1.000000     0.000000     0.000000     0.000000     0.000000     0.000000
   16    -1.000000    90.000000     0.000000    -1.000000     0.000000     0.000000     0.000000     0.000000
   17    -1.000000   180.000000     0.707107     0.707107     0.000000     0.000000     0.000000     0.000000
   18    -1.000000    90.000000     1.000000     0.000000     0.000000     0.000000     0.000000     0.000000
   19     1.000000   120.000000     0.577350    -0.577350    -0.577350     0.000000     0.000000     0.000000
   20     1.000000   180.000000     0.000000     1.000000     0.000000     0.000000     0.000000     0.000000
   21     1.000000   120.000000     0.577350     0.577350    -0.577350     0.000000     0.000000     0.000000
   22    -1.000000   180.000000     0.000000    -0.707107     0.707107     0.000000     0.000000     0.000000
   23    -1.000000   180.000000     0.707107    -0.707107     0.000000     0.000000     0.000000     0.000000
   24    -1.000000   180.000000     0.707107     0.000000    -0.707107     0.000000     0.000000     0.000000
   25    -1.000000     0.000000     1.000000     0.000000     0.000000     0.250000     0.250000     0.250000
   26    -1.000000   120.000000    -0.577350    -0.577350    -0.577350     0.250000     0.250000     0.250000
   27    -1.000000   120.000000     0.577350     0.577350     0.577350     0.250000     0.250000     0.250000
   28     1.000000    90.000000     0.000000     0.000000    -1.000000     0.250000     0.250000     0.250000
   29     1.000000   180.000000     0.000000     0.707107     0.707107     0.250000     0.250000     0.250000
   30     1.000000    90.000000     0.000000     1.000000     0.000000     0.250000     0.250000     0.250000
   31    -1.000000   180.000000     0.000000     0.000000     1.000000     0.250000     0.250000     0.250000
   32    -1.000000   120.000000    -0.577350     0.577350     0.577350     0.250000     0.250000     0.250000
   33    -1.000000   120.000000    -0.577350     0.577350    -0.577350     0.250000     0.250000     0.250000
   34     1.000000    90.000000     0.000000     0.000000     1.000000     0.250000     0.250000     0.250000
   35     1.000000    90.000000    -1.000000     0.000000     0.000000     0.250000     0.250000     0.250000
   36     1.000000   180.000000     0.707107     0.000000     0.707107     0.250000     0.250000     0.250000
   37    -1.000000   120.000000     0.577350    -0.577350     0.577350     0.250000     0.250000     0.250000
   38    -1.000000   120.000000    -0.577350    -0.577350     0.577350     0.250000     0.250000     0.250000
   39    -1.000000   180.000000     1.000000     0.000000     0.000000     0.250000     0.250000     0.250000
   40     1.000000    90.000000     0.000000    -1.000000     0.000000     0.250000     0.250000     0.250000
   41     1.000000   180.000000     0.707107     0.707107     0.000000     0.250000     0.250000     0.250000
   42     1.000000    90.000000     1.000000     0.000000     0.000000     0.250000     0.250000     0.250000
   43    -1.000000   120.000000     0.577350    -0.577350    -0.577350     0.250000     0.250000     0.250000
   44    -1.000000   180.000000     0.000000     1.000000     0.000000     0.250000     0.250000     0.250000
   45    -1.000000   120.000000     0.577350     0.577350    -0.577350     0.250000     0.250000     0.250000
   46     1.000000   180.000000     0.000000    -0.707107     0.707107     0.250000     0.250000     0.250000
   47     1.000000   180.000000     0.707107    -0.707107     0.000000     0.250000     0.250000     0.250000
   48     1.000000   180.000000     0.707107     0.000000    -0.707107     0.250000     0.250000     0.250000
 
 Subroutine IBZKPT returns following result:
 ===========================================
 
 Found     35 irreducible k-points:
 
 Following reciprocal coordinates:
            Coordinates               Weight
  0.000000  0.000000  0.000000      1.000000
  0.111111  0.000000  0.000000      8.000000
  0.222222  0.000000  0.000000      8.000000
  0.333333  0.000000  0.000000      8.000000
  0.444444  0.000000  0.000000      8.000000
  0.111111  0.111111  0.000000      6.000000
  0.222222  0.111111  0.000000     24.000000
  0.333333  0.111111  0.000000     24.000000
  0.444444  0.111111  0.000000     24.000000
 -0.444444  0.111111  0.000000     24.000000
 -0.333333  0.111111  0.000000     24.000000
 -0.222222  0.111111  0.000000     24.000000
 -0.111111  0.111111  0.000000     12.000000
  0.222222  0.222222  0.000000      6.000000
  0.333333  0.222222  0.000000     24.000000
  0.444444  0.222222  0.000000     24.000000
 -0.444444  0.222222  0.000000     24.000000
 -0.333333  0.222222  0.000000     24.000000
 -0.222222  0.222222  0.000000     12.000000
  0.333333  0.333333  0.000000      6.000000
  0.444444  0.333333  0.000000     24.000000
 -0.444444  0.333333  0.000000     24.000000
 -0.333333  0.333333  0.000000     12.000000
  0.444444  0.444444  0.000000      6.000000
 -0.444444  0.444444  0.000000     12.000000
  0.333333  0.222222  0.111111     24.000000
  0.444444  0.222222  0.111111     48.000000
 -0.444444  0.222222  0.111111     48.000000
  0.444444  0.333333  0.111111     24.000000
 -0.444444  0.333333  0.111111     48.000000
 -0.333333  0.333333  0.111111     48.000000
 -0.222222  0.333333  0.111111     24.000000
 -0.444444  0.444444  0.111111     24.000000
 -0.333333  0.444444  0.111111     24.000000
 -0.333333  0.444444  0.222222     24.000000
 
 Following cartesian coordinates:
            Coordinates               Weight
  0.000000  0.000000  0.000000      1.000000
 -0.020457  0.020457  0.020457      8.000000
 -0.040913  0.040913  0.040913      8.000000
 -0.061370  0.061370  0.061370      8.000000
 -0.081827  0.081827  0.081827      8.000000
  0.000000  0.000000  0.040913      6.000000
 -0.020457  0.020457  0.061370     24.000000
 -0.040913  0.040913  0.081827     24.000000
 -0.061370  0.061370  0.102284     24.000000
  0.102284 -0.102284 -0.061370     24.000000
  0.081827 -0.081827 -0.040913     24.000000
  0.061370 -0.061370 -0.020457     24.000000
  0.040913 -0.040913  0.000000     12.000000
  0.000000  0.000000  0.081827      6.000000
 -0.020457  0.020457  0.102284     24.000000
 -0.040913  0.040913  0.122740     24.000000
  0.122740 -0.122740 -0.040913     24.000000
  0.102284 -0.102284 -0.020457     24.000000
  0.081827 -0.081827  0.000000     12.000000
  0.000000  0.000000  0.122740      6.000000
 -0.020457  0.020457  0.143197     24.000000
  0.143197 -0.143197 -0.020457     24.000000
  0.122740 -0.122740  0.000000     12.000000
  0.000000  0.000000  0.163654      6.000000
  0.163654 -0.163654  0.000000     12.000000
  0.000000  0.040913  0.081827     24.000000
 -0.020457  0.061370  0.102284     48.000000
  0.143197 -0.102284 -0.061370     48.000000
  0.000000  0.040913  0.122740     24.000000
  0.163654 -0.122740 -0.040913     48.000000
  0.143197 -0.102284 -0.020457     48.000000
  0.122740 -0.081827 -0.000000     24.000000
  0.184111 -0.143197 -0.020457     24.000000
  0.163654 -0.122740  0.000000     24.000000
  0.184111 -0.102284 -0.020457     24.000000
 


--------------------------------------------------------------------------------------------------------




 Dimension of arrays:
   k-points           NKPTS =       35   k-points in BZ     NKDIM =       35   number of bands    NBANDS=     16
   number of dos      NEDOS =    301   number of ions     NIONS =      2
   non local maximal  LDIM  =      4   non local SUM 2l+1 LMDIM =      8
   total plane-waves  NPLWV =  13824
   max r-space proj   IRMAX =      1   max aug-charges    IRDMAX=  11736
   dimension x,y,z NGX =    24 NGY =   24 NGZ =   24
   dimension x,y,z NGXF=    48 NGYF=   48 NGZF=   48
   support grid    NGXF=    48 NGYF=   48 NGZF=   48
   ions per type =               2
 NGX,Y,Z   is equivalent  to a cutoff of  10.39, 10.39, 10.39 a.u.
 NGXF,Y,Z  is equivalent  to a cutoff of  20.78, 20.78, 20.78 a.u.


 I would recommend the setting:
   dimension x,y,z NGX =    23 NGY =   23 NGZ =   23
 SYSTEM =  unknown system                          
 POSCAR =  high sym                                

 Startparameter for this run:
   NWRITE =      2    write-flag & timer
   PREC   = accura    normal or accurate (medium, high low for compatibility)
   ISTART =      1    job   : 0-new  1-cont  2-samecut
   ICHARG =      0    charge: 1-file 2-atom 10-const
   ISPIN  =      1    spin polarized calculation?
   LNONCOLLINEAR =      F non collinear calculations
   LSORBIT =      F    spin-orbit coupling
   INIWAV =      1    electr: 0-lowe 1-rand  2-diag
   LASPH  =      F    aspherical Exc in radial PAW
   METAGGA=      F    non-selfconsistent MetaGGA calc.

 Electronic Relaxation 1
   ENCUT  =  350.0 eV  25.72 Ry    5.07 a.u.   5.86  5.86  5.86*2*pi/ulx,y,z
   ENINI  =  350.0     initial cutoff
   ENAUG  =  322.1 eV  augmentation charge cutoff
   NELM   =     60;   NELMIN=  2; NELMDL=  0     # of ELM steps 
   EDIFF  = 0.1E-06   stopping-criterion for ELM
   LREAL  =      F    real-space projection
   NLSPLINE    = F    spline interpolate recip. space projectors
   LCOMPAT=      F    compatible to vasp.4.4
   GGA_COMPAT  = T    GGA compatible to vasp.4.4-vasp.4.6
   LMAXPAW     = -100 max onsite density
   LMAXMIX     =    2 max onsite mixed and CHGCAR
   VOSKOWN=      0    Vosko Wilk Nusair interpolation
   ROPT   =    0.00000
 Ionic relaxation
   EDIFFG = 0.1E-05   stopping-criterion for IOM
   NSW    =     10    number of steps for IOM
   NBLOCK =      1;   KBLOCK =     10    inner block; outer block 
   IBRION =      1    ionic relax: 0-MD 1-quasi-New 2-CG
   NFREE  =      0    steps in history (QN), initial steepest desc. (CG)
   ISIF   =      3    stress and relaxation
   IWAVPR =     11    prediction:  0-non 1-charg 2-wave 3-comb
   ISYM   =      2    0-nonsym 1-usesym 2-fastsym
   LCORR  =      T    Harris-Foulkes like correction to forces

   POTIM  = 0.5000    time-step for ionic-motion
   TEIN   =    0.0    initial temperature
   TEBEG  =    0.0;   TEEND  =   0.0 temperature during run
   SMASS  =  -3.00    Nose mass-parameter (am)
   estimated Nose-frequenzy (Omega)   =  0.10E-29 period in steps =****** mass=  -0.337E-27a.u.
   SCALEE = 1.0000    scale energy and forces
   NPACO  =    256;   APACO  = 16.0  distance and # of slots for P.C.
   PSTRESS=    0.0 pullay stress

  Mass of Ions in am
   POMASS =  28.09
  Ionic Valenz
   ZVAL   =   4.00
  Atomic Wigner-Seitz radii
   RWIGS  =  -1.00
  virtual crystal weights 
   VCA    =   1.00
   NELECT =       8.0000    total number of electrons
   NUPDOWN=      -1.0000    fix difference up-down

 DOS related values:
   EMIN   =  10.00;   EMAX   =-10.00  energy-range for DOS
   EFERMI =   0.00
   ISMEAR =     0;   SIGMA  =   0.05  broadening in eV -4-tet -1-fermi 0-gaus

 Electronic relaxation 2 (details)
   IALGO  =     38    algorithm
   LDIAG  =      T    sub-space diagonalisation (order eigenvalues)
   LSUBROT=      F    optimize rotation matrix (better conditioning)
   TURBO    =      0    0=normal 1=particle mesh
   IRESTART =      0    0=no restart 2=restart with 2 vectors
   NREBOOT  =      0    no. of reboots
   NMIN     =      0    reboot dimension
   EREF     =   0.00    reference energy to select bands
   IMIX   =      4    mixing-type and parameters
     AMIX     =   0.40;   BMIX     =  1.00
     AMIX_MAG =   1.60;   BMIX_MAG =  1.00
     AMIN     =   0.10
     WC   =   100.;   INIMIX=   1;  MIXPRE=   1;  MAXMIX= -45

 Intra band minimization:
   WEIMIN = 0.0010     energy-eigenvalue tresh-hold
   EBREAK =  0.16E-08  absolut break condition
   DEPER  =   0.30     relativ break condition  

   TIME   =   0.40     timestep for ELM

  volume/ion in A,a.u.               =      20.03       135.17
  Fermi-wavevector in a.u.,A,eV,Ry     =   0.956908  1.808295 12.458496  0.915674
  Thomas-Fermi vector in A             =   2.085879

 Write flags
   LWAVE  =      T    write WAVECAR
   LCHARG =      T    write CHGCAR
   LVTOT  =      F    write LOCPOT, total local potential
   LVHAR  =      F    write LOCPOT, Hartree potential only
   LELF   =      F    write electronic localiz. function (ELF)
   LORBIT =      0    0 simple, 1 ext, 2 COOP (PROOUT)


 Dipole corrections
   LMONO  =      F    monopole corrections only (constant potential shift)
   LDIPOL =      F    correct potential (dipole corrections)
   IDIPOL =      0    1-x, 2-y, 3-z, 4-all directions 
   EPSILON=  1.0000000 bulk dielectric constant

 Exchange correlation treatment:
   GGA     =    --    GGA type
   LEXCH   =     8    internal setting for exchange type
   VOSKOWN=      0    Vosko Wilk Nusair interpolation
   LHFCALC =     F    Hartree Fock is set to
   LHFONE  =     F    Hartree Fock one center treatment
   AEXX    =    0.0000 exact exchange contribution

 Linear response parameters
   LEPSILON=     F    determine dielectric tensor
   LRPA    =     F    only Hartree local field effects (RPA)
   LNABLA  =     F    use nabla operator in PAW spheres
   LVEL    =     F    velocity operator in full k-point grid
   LINTERFAST=   F  fast interpolation
   KINTER  =     0    interpolate to denser k-point grid
   CSHIFT  =0.1000    complex shift for real part using Kramers Kronig
   OMEGAMAX=  -1.0    maximum frequency
   DEG_THRESHOLD= 0.2000000E-02 threshold for treating states as degnerate
   RTIME   =    0.100 relaxation time in fs

 Orbital magnetization related:
   ORBITALMAG=     F  switch on orbital magnetization
   LCHIMAG   =     F  perturbation theory with respect to B field
   DQ        =  0.001000  dq finite difference perturbation B field



--------------------------------------------------------------------------------------------------------


 quasi-Newton-method for relaxation of ions
 charge density and potential will be updated during run
 non-spin polarized calculation
 Variant of blocked Davidson
 Davidson routine will perform the subspace rotation
 perform sub-space diagonalisation
    after iterative eigenvector-optimisation
 modified Broyden-mixing scheme, WC =      100.0
 initial mixing is a Kerker type mixing with AMIX =  0.4000 and BMIX =      1.0000
 Hartree-type preconditioning will be used
 using additional bands           12
 reciprocal scheme for non local part
 use partial core corrections
 calculate Harris-corrections to forces   (improved forces if not selfconsistent)
 use gradient corrections 
 use of overlap-Matrix (Vanderbilt PP)
 Gauss-broadening in eV      SIGMA  =   0.05


--------------------------------------------------------------------------------------------------------


  energy-cutoff  :      350.00
  volume of cell :       40.06
      direct lattice vectors                 reciprocal lattice vectors
    -0.000000000  2.715758437  2.715758437    -0.184110631  0.184110631  0.184110631
     2.715758437 -0.000000000  2.715758437     0.184110631 -0.184110631  0.184110631
     2.715758437  2.715758437 -0.000000000     0.184110631  0.184110631 -0.184110631

  length of vectors
     3.840662414  3.840662414  3.840662414     0.318888967  0.318888967  0.318888967



 old parameters found on file WAVECAR:
  energy-cutoff  :      300.00
  volume of cell :       40.06
      direct lattice vectors                 reciprocal lattice vectors
    -0.000000000  2.715758437  2.715758437    -0.184110631  0.184110631  0.184110631
     2.715758437 -0.000000000  2.715758437     0.184110631 -0.184110631  0.184110631
     2.715758437  2.715758437 -0.000000000     0.184110631  0.184110631 -0.184110631

  length of vectors


 k-points in units of 2pi/SCALE and weight: Automatic kpoint scheme                 
   0.00000000  0.00000000  0.00000000       0.001
  -0.02045674  0.02045674  0.02045674       0.011
  -0.04091347  0.04091347  0.04091347       0.011
  -0.06137021  0.06137021  0.06137021       0.011
  -0.08182695  0.08182695  0.08182695       0.011
   0.00000000  0.00000000  0.04091347       0.008
  -0.02045674  0.02045674  0.06137021       0.033
  -0.04091347  0.04091347  0.08182695       0.033
  -0.06137021  0.06137021  0.10228368       0.033
   0.10228368 -0.10228368 -0.06137021       0.033
   0.08182695 -0.08182695 -0.04091347       0.033
   0.06137021 -0.06137021 -0.02045674       0.033
   0.04091347 -0.04091347  0.00000000       0.016
   0.00000000  0.00000000  0.08182695       0.008
  -0.02045674  0.02045674  0.10228368       0.033
  -0.04091347  0.04091347  0.12274042       0.033
   0.12274042 -0.12274042 -0.04091347       0.033
   0.10228368 -0.10228368 -0.02045674       0.033
   0.08182695 -0.08182695  0.00000000       0.016
   0.00000000  0.00000000  0.12274042       0.008
  -0.02045674  0.02045674  0.14319716       0.033
   0.14319716 -0.14319716 -0.02045674       0.033
   0.12274042 -0.12274042  0.00000000       0.016
   0.00000000  0.00000000  0.16365389       0.008
   0.16365389 -0.16365389  0.00000000       0.016
   0.00000000  0.04091347  0.08182695       0.033
  -0.02045674  0.06137021  0.10228368       0.066
   0.14319716 -0.10228368 -0.06137021       0.066
   0.00000000  0.04091347  0.12274042       0.033
   0.16365389 -0.12274042 -0.04091347       0.066
   0.14319716 -0.10228368 -0.02045674       0.066
   0.12274042 -0.08182695 -0.00000000       0.033
   0.18411063 -0.14319716 -0.02045674       0.033
   0.16365389 -0.12274042  0.00000000       0.033
   0.18411063 -0.10228368 -0.02045674       0.033

 k-points in reciprocal lattice and weights: Automatic kpoint scheme                 
   0.00000000  0.00000000  0.00000000       0.001
   0.11111111  0.00000000  0.00000000       0.011
   0.22222222  0.00000000  0.00000000       0.011
   0.33333333  0.00000000  0.00000000       0.011
   0.44444444  0.00000000  0.00000000       0.011
   0.11111111  0.11111111  0.00000000       0.008
   0.22222222  0.11111111  0.00000000       0.033
   0.33333333  0.11111111  0.00000000       0.033
   0.44444444  0.11111111  0.00000000       0.033
  -0.44444444  0.11111111  0.00000000       0.033
  -0.33333333  0.11111111  0.00000000       0.033
  -0.22222222  0.11111111  0.00000000       0.033
  -0.11111111  0.11111111  0.00000000       0.016
   0.22222222  0.22222222  0.00000000       0.008
   0.33333333  0.22222222  0.00000000       0.033
   0.44444444  0.22222222  0.00000000       0.033
  -0.44444444  0.22222222  0.00000000       0.033
  -0.33333333  0.22222222  0.00000000       0.033
  -0.22222222  0.22222222  0.00000000       0.016
   0.33333333  0.33333333  0.00000000       0.008
   0.44444444  0.33333333  0.00000000       0.033
  -0.44444444  0.33333333  0.00000000       0.033
  -0.33333333  0.33333333  0.00000000       0.016
   0.44444444  0.44444444  0.00000000       0.008
  -0.44444444  0.44444444  0.00000000       0.016
   0.33333333  0.22222222  0.11111111       0.033
   0.44444444  0.22222222  0.11111111       0.066
  -0.44444444  0.22222222  0.11111111       0.066
   0.44444444  0.33333333  0.11111111       0.033
  -0.44444444  0.33333333  0.11111111       0.066
  -0.33333333  0.33333333  0.11111111       0.066
  -0.22222222  0.33333333  0.11111111       0.033
  -0.44444444  0.44444444  0.11111111       0.033
  -0.33333333  0.44444444  0.11111111       0.033
  -0.33333333  0.44444444  0.22222222       0.033

 position of ions in fractional coordinates (direct lattice) 
   0.00000000  0.00000000  0.00000000
   0.25000000  0.25000000  0.25000000

 position of ions in cartesian coordinates  (Angst):
   0.00000000  0.00000000  0.00000000
   1.35787922  1.35787922  1.35787922



--------------------------------------------------------------------------------------------------------


 k-point  1 :   0.0000 0.0000 0.0000  plane waves:     609
 k-point  2 :   0.1111 0.0000 0.0000  plane waves:     585
 k-point  3 :   0.2222 0.0000 0.0000  plane waves:     589
 k-point  4 :   0.3333 0.0000 0.0000  plane waves:     601
 k-point  5 :   0.4444 0.0000 0.0000  plane waves:     595
 k-point  6 :   0.1111 0.1111 0.0000  plane waves:     589
 k-point  7 :   0.2222 0.1111 0.0000  plane waves:     588
 k-point  8 :   0.3333 0.1111 0.0000  plane waves:     596
 k-point  9 :   0.4444 0.1111 0.0000  plane waves:     598
 k-point 10 :  -0.4444 0.1111 0.0000  plane waves:     594
 k-point 11 :  -0.3333 0.1111 0.0000  plane waves:     595
 k-point 12 :  -0.2222 0.1111 0.0000  plane waves:     587
 k-point 13 :  -0.1111 0.1111 0.0000  plane waves:     582
 k-point 14 :   0.2222 0.2222 0.0000  plane waves:     584
 k-point 15 :   0.3333 0.2222 0.0000  plane waves:     597
 k-point 16 :   0.4444 0.2222 0.0000  plane waves:     599
 k-point 17 :  -0.4444 0.2222 0.0000  plane waves:     595
 k-point 18 :  -0.3333 0.2222 0.0000  plane waves:     595
 k-point 19 :  -0.2222 0.2222 0.0000  plane waves:     600
 k-point 20 :   0.3333 0.3333 0.0000  plane waves:     592
 k-point 21 :   0.4444 0.3333 0.0000  plane waves:     597
 k-point 22 :  -0.4444 0.3333 0.0000  plane waves:     599
 k-point 23 :  -0.3333 0.3333 0.0000  plane waves:     598
 k-point 24 :   0.4444 0.4444 0.0000  plane waves:     596
 k-point 25 :  -0.4444 0.4444 0.0000  plane waves:     608
 k-point 26 :   0.3333 0.2222 0.1111  plane waves:     595
 k-point 27 :   0.4444 0.2222 0.1111  plane waves:     595
 k-point 28 :  -0.4444 0.2222 0.1111  plane waves:     597
 k-point 29 :   0.4444 0.3333 0.1111  plane waves:     599
 k-point 30 :  -0.4444 0.3333 0.1111  plane waves:     594
 k-point 31 :  -0.3333 0.3333 0.1111  plane waves:     600
 k-point 32 :  -0.2222 0.3333 0.1111  plane waves:     600
 k-point 33 :  -0.4444 0.4444 0.1111  plane waves:     599
 k-point 34 :  -0.3333 0.4444 0.1111  plane waves:     599
 k-point 35 :  -0.3333 0.4444 0.2222  plane waves:     599

 maximum and minimum number of plane-waves per node :       609      582

 maximum number of plane-waves:       609
 maximum index in each direction: 
   IXMAX=    6   IYMAX=    5   IZMAX=    5
   IXMIN=   -6   IYMIN=   -6   IZMIN=   -6

 WARNING: aliasing errors must be expected set NGX to  26 to avoid them
 NGY is ok and might be reduce to  24
 NGZ is ok and might be reduce to  24
 aliasing errors are usually negligible using standard VASP settings
 and one can safely disregard these warnings

 serial   3D FFT for wavefunctions
 parallel 3D FFT for charge:
    minimum data exchange during FFTs selected (reduces bandwidth)


 total amount of memory used by VASP on root node    33350. kBytes
========================================================================

   base      :      30000. kBytes
   nonl-proj :       1417. kBytes
   fftplans  :        574. kBytes
   grid      :        995. kBytes
   one-center:          6. kBytes
   wavefun   :        358. kBytes

     INWAV:  cpu time    0.0520: real time    0.0520
 Broyden mixing: mesh for mixing (old mesh)
   NGX = 11   NGY = 11   NGZ = 11
  (NGX  = 48   NGY  = 48   NGZ  = 48)
  gives a total of   1331 points

 charge density for first step will be calculated from the start-wavefunctions


--------------------------------------------------------------------------------------------------------


 Maximum index for augmentation-charges          709 (set IRDMAX)


--------------------------------------------------------------------------------------------------------


 initial charge from wavefunction
 First call to EWALD:  gamma=   0.518
 Maximum number of real-space cells 3x 3x 3
 Maximum number of reciprocal cells 3x 3x 3

 FEWALD executed in parallel
    FEWALD:  cpu time    0.0000: real time    0.0010


----------------------------------------- Iteration    1(   1)  ---------------------------------------


    POTLOK:  cpu time    0.0240: real time    0.0320
    SETDIJ:  cpu time    0.0000: real time    0.0031
     EDDAV:  cpu time    0.5720: real time    0.5705
       DOS:  cpu time    0.0000: real time    0.0005
    CHARGE:  cpu time    0.0360: real time    0.0365
    MIXING:  cpu time    0.0000: real time    0.0006
    --------------------------------------------
      LOOP:  cpu time    0.6360: real time    0.6614

 eigenvalue-minimisations  :  1248
 total energy-change (2. order) :-0.1084281E+02  (-0.1362512E-01)
 number of electron       7.9999999 magnetization 
 augmentation part       -0.4570205 magnetization 

 Broyden mixing:
  rms(total) = 0.35765E-01    rms(broyden)= 0.35760E-01
  rms(prec ) = 0.65544E-01
  weight for this iteration     100.00

 Free energy of the ion-electron system (eV)
  ---------------------------------------------------
  alpha Z        PSCENC =         3.36132951
  Ewald energy   TEWEN  =      -228.49969339
  -Hartree energ DENC   =       -15.22274264
  -exchange      EXHF   =         0.00000000
  -V(xc)+E(xc)   XCENC  =       -17.94881978
  PAW double counting   =       837.08324077     -802.14912691
  entropy T*S    EENTRO =        -0.00000000
  eigenvalues    EBANDS =         6.40174779
  atomic energy  EATOM  =       206.13125414
  Solvation  Ediel_sol  =         0.00000000
  ---------------------------------------------------
  free energy    TOTEN  =       -10.84281051 eV

  energy without entropy =      -10.84281051  energy(sigma->0) =      -10.84281051


--------------------------------------------------------------------------------------------------------




----------------------------------------- Iteration    1(   2)  ---------------------------------------


    POTLOK:  cpu time    0.0160: real time    0.0185
    SETDIJ:  cpu time    0.0040: real time    0.0029
     EDDAV:  cpu time    0.6360: real time    0.6352
       DOS:  cpu time    0.0000: real time    0.0004
    CHARGE:  cpu time    0.0360: real time    0.0373
    MIXING:  cpu time    0.0000: real time    0.0005
    --------------------------------------------
      LOOP:  cpu time    0.6960: real time    0.7107

 eigenvalue-minimisations  :  1360
 total energy-change (2. order) : 0.9586444E-03  (-0.2117421E-03)
 number of electron       7.9999999 magnetization 
 augmentation part       -0.4576401 magnetization 

 Broyden mixing:
  rms(total) = 0.18298E-01    rms(broyden)= 0.18297E-01
  rms(prec ) = 0.35655E-01
  weight for this iteration     100.00

 eigenvalues of (default mixing * dielectric matrix)
  average eigenvalue GAMMA=   2.0225
  2.0225

 Free energy of the ion-electron system (eV)
  ---------------------------------------------------
  alpha Z        PSCENC =         3.36132951
  Ewald energy   TEWEN  =      -228.49969339
  -Hartree energ DENC   =       -15.09143722
  -exchange      EXHF   =         0.00000000
  -V(xc)+E(xc)   XCENC  =       -17.95685705
  PAW double counting   =       860.18807320     -825.24025104
  entropy T*S    EENTRO =        -0.00000000
  eigenvalues    EBANDS =         6.26572998
  atomic energy  EATOM  =       206.13125414
  Solvation  Ediel_sol  =         0.00000000
  ---------------------------------------------------
  free energy    TOTEN  =       -10.84185186 eV

  energy without entropy =      -10.84185186  energy(sigma->0) =      -10.84185186


--------------------------------------------------------------------------------------------------------




----------------------------------------- Iteration    1(   3)  ---------------------------------------


    POTLOK:  cpu time    0.0200: real time    0.0299
    SETDIJ:  cpu time    0.0040: real time    0.0028
     EDDAV:  cpu time    0.9680: real time    0.9860
       DOS:  cpu time    0.0000: real time    0.0004
    CHARGE:  cpu time    0.0400: real time    0.0376
    MIXING:  cpu time    0.0000: real time    0.0009
    --------------------------------------------
      LOOP:  cpu time    1.0320: real time    1.0669

 eigenvalue-minimisations  :  1696
 total energy-change (2. order) : 0.4878135E-03  (-0.1228669E-03)
 number of electron       7.9999999 magnetization 
 augmentation part       -0.4586717 magnetization 

 Broyden mixing:
  rms(total) = 0.37545E-02    rms(broyden)= 0.37542E-02
  rms(prec ) = 0.44541E-02
  weight for this iteration     100.00

 eigenvalues of (default mixing * dielectric matrix)
  average eigenvalue GAMMA=   1.5647
  1.5647  1.5647

 Free energy of the ion-electron system (eV)
  ---------------------------------------------------
  alpha Z        PSCENC =         3.36132951
  Ewald energy   TEWEN  =      -228.49969339
  -Hartree energ DENC   =       -14.93714486
  -exchange      EXHF   =         0.00000000
  -V(xc)+E(xc)   XCENC  =       -17.96487307
  PAW double counting   =       886.52383108     -851.56023853
  entropy T*S    EENTRO =        -0.00000000
  eigenvalues    EBANDS =         6.10417107
  atomic energy  EATOM  =       206.13125414
  Solvation  Ediel_sol  =         0.00000000
  ---------------------------------------------------
  free energy    TOTEN  =       -10.84136405 eV

  energy without entropy =      -10.84136405  energy(sigma->0) =      -10.84136405


--------------------------------------------------------------------------------------------------------




----------------------------------------- Iteration    1(   4)  ---------------------------------------


    POTLOK:  cpu time    0.0160: real time    0.0160
    SETDIJ:  cpu time    0.0040: real time    0.0034
     EDDAV:  cpu time    0.8760: real time    0.8776
       DOS:  cpu time    0.0000: real time    0.0003
    CHARGE:  cpu time    0.0360: real time    0.0353
    MIXING:  cpu time    0.0000: real time    0.0006
    --------------------------------------------
      LOOP:  cpu time    0.9320: real time    0.9560

 eigenvalue-minimisations  :  1584
 total energy-change (2. order) :-0.3747381E-05  (-0.1551271E-05)
 number of electron       7.9999999 magnetization 
 augmentation part       -0.4586905 magnetization 

 Broyden mixing:
  rms(total) = 0.21301E-02    rms(broyden)= 0.21300E-02
  rms(prec ) = 0.27350E-02
  weight for this iteration     100.00

 eigenvalues of (default mixing * dielectric matrix)
  average eigenvalue GAMMA=   2.0839
  1.1576  2.2234  2.8708

 Free energy of the ion-electron system (eV)
  ---------------------------------------------------
  alpha Z        PSCENC =         3.36132951
  Ewald energy   TEWEN  =      -228.49969339
  -Hartree energ DENC   =       -14.93873282
  -exchange      EXHF   =         0.00000000
  -V(xc)+E(xc)   XCENC  =       -17.96421410
  PAW double counting   =       882.59192523     -847.62924891
  entropy T*S    EENTRO =        -0.00000000
  eigenvalues    EBANDS =         6.10601254
  atomic energy  EATOM  =       206.13125414
  Solvation  Ediel_sol  =         0.00000000
  ---------------------------------------------------
  free energy    TOTEN  =       -10.84136780 eV

  energy without entropy =      -10.84136780  energy(sigma->0) =      -10.84136780


--------------------------------------------------------------------------------------------------------




----------------------------------------- Iteration    1(   5)  ---------------------------------------


    POTLOK:  cpu time    0.0200: real time    0.0210
    SETDIJ:  cpu time    0.0040: real time    0.0032
     EDDAV:  cpu time    1.0120: real time    1.0114
       DOS:  cpu time    0.0000: real time    0.0003
    CHARGE:  cpu time    0.0320: real time    0.0349
    MIXING:  cpu time    0.0040: real time    0.0006
    --------------------------------------------
      LOOP:  cpu time    1.0760: real time    1.4575

 eigenvalue-minimisations  :  1760
 total energy-change (2. order) :-0.7803021E-06  (-0.2244839E-06)
 number of electron       7.9999999 magnetization 
 augmentation part       -0.4587326 magnetization 

 Broyden mixing:
  rms(total) = 0.21720E-03    rms(broyden)= 0.21718E-03
  rms(prec ) = 0.26097E-03
  weight for this iteration     100.00

 eigenvalues of (default mixing * dielectric matrix)
  average eigenvalue GAMMA=   1.7400
  2.7487  2.1925  1.1256  0.8931

 Free energy of the ion-electron system (eV)
  ---------------------------------------------------
  alpha Z        PSCENC =         3.36132951
  Ewald energy   TEWEN  =      -228.49969339
  -Hartree energ DENC   =       -14.93307828
  -exchange      EXHF   =         0.00000000
  -V(xc)+E(xc)   XCENC  =       -17.96390038
  PAW double counting   =       877.42840148     -842.46620094
  entropy T*S    EENTRO =        -0.00000000
  eigenvalues    EBANDS =         6.10051929
  atomic energy  EATOM  =       206.13125414
  Solvation  Ediel_sol  =         0.00000000
  ---------------------------------------------------
  free energy    TOTEN  =       -10.84136858 eV

  energy without entropy =      -10.84136858  energy(sigma->0) =      -10.84136858


--------------------------------------------------------------------------------------------------------




----------------------------------------- Iteration    1(   6)  ---------------------------------------


    POTLOK:  cpu time    0.0160: real time    0.0179
    SETDIJ:  cpu time    0.0040: real time    0.0031
     EDDAV:  cpu time    0.9600: real time    0.9593
       DOS:  cpu time    0.0000: real time    0.0004
    CHARGE:  cpu time    0.0360: real time    0.0365
    MIXING:  cpu time    0.0000: real time    0.0006
    --------------------------------------------
      LOOP:  cpu time    1.0160: real time    1.0688

 eigenvalue-minimisations  :  1680
 total energy-change (2. order) : 0.1003600E-06  (-0.1993374E-08)
 number of electron       7.9999999 magnetization 
 augmentation part       -0.4587342 magnetization 

 Broyden mixing:
  rms(total) = 0.34641E-04    rms(broyden)= 0.34634E-04
  rms(prec ) = 0.86982E-04
  weight for this iteration     100.00

 eigenvalues of (default mixing * dielectric matrix)
  average eigenvalue GAMMA=   1.9730
  2.9769  2.5809  2.1968  1.0116  1.0990

 Free energy of the ion-electron system (eV)
  ---------------------------------------------------
  alpha Z        PSCENC =         3.36132951
  Ewald energy   TEWEN  =      -228.49969339
  -Hartree energ DENC   =       -14.93268282
  -exchange      EXHF   =         0.00000000
  -V(xc)+E(xc)   XCENC  =       -17.96398448
  PAW double counting   =       877.83533890     -842.87304281
  entropy T*S    EENTRO =        -0.00000000
  eigenvalues    EBANDS =         6.10011249
  atomic energy  EATOM  =       206.13125414
  Solvation  Ediel_sol  =         0.00000000
  ---------------------------------------------------
  free energy    TOTEN  =       -10.84136848 eV

  energy without entropy =      -10.84136848  energy(sigma->0) =      -10.84136848


--------------------------------------------------------------------------------------------------------




----------------------------------------- Iteration    1(   7)  ---------------------------------------


    POTLOK:  cpu time    0.0160: real time    0.0190
    SETDIJ:  cpu time    0.0040: real time    0.0033
     EDDAV:  cpu time    1.0240: real time    1.0232
       DOS:  cpu time    0.0000: real time    0.0004
    --------------------------------------------
      LOOP:  cpu time    1.0480: real time    1.0679

 eigenvalue-minimisations  :  1744
 total energy-change (2. order) :-0.6288133E-08  (-0.2454778E-08)
 number of electron       7.9999999 magnetization 
 augmentation part       -0.4587342 magnetization 

 Free energy of the ion-electron system (eV)
  ---------------------------------------------------
  alpha Z        PSCENC =         3.36132951
  Ewald energy   TEWEN  =      -228.49969339
  -Hartree energ DENC   =       -14.93228428
  -exchange      EXHF   =         0.00000000
  -V(xc)+E(xc)   XCENC  =       -17.96406599
  PAW double counting   =       877.80227481     -842.83996171
  entropy T*S    EENTRO =        -0.00000000
  eigenvalues    EBANDS =         6.09977842
  atomic energy  EATOM  =       206.13125414
  Solvation  Ediel_sol  =         0.00000000
  ---------------------------------------------------
  free energy    TOTEN  =       -10.84136848 eV

  energy without entropy =      -10.84136848  energy(sigma->0) =      -10.84136848


--------------------------------------------------------------------------------------------------------




 average (electrostatic) potential at core
  the test charge radii are     0.9892
  (the norm of the test charge is              1.0000)
       1 -83.2525       2 -83.2525



 E-fermi :   6.1379     XC(G=0):  -9.4071     alpha+bet :-11.9745


 k-point     1 :       0.0000    0.0000    0.0000
  band No.  band energies     occupation 
      1      -6.1325      2.00000
      2       5.8227      2.00000
      3       5.8227      2.00000
      4       5.8227      2.00000
      5       8.3884      0.00000
      6       8.3884      0.00000
      7       8.3884      0.00000
      8       9.1904      0.00000
      9      13.5454      0.00000
     10      13.5454      0.00000
     11      13.7804      0.00000
     12      17.0761      0.00000
     13      17.0761      0.00000
     14      17.0761      0.00000
     15      21.2260      0.00000
     16      28.9476      0.00000

 k-point     2 :       0.1111    0.0000    0.0000
  band No.  band energies     occupation 
      1      -5.9711      2.00000
      2       4.4802      2.00000
      3       5.5856      2.00000
      4       5.5856      2.00000
      5       8.3697      0.00000
      6       8.7384      0.00000
      7       8.7384      0.00000
      8      10.2972      0.00000
      9      13.1352      0.00000
     10      13.1352      0.00000
     11      14.4276      0.00000
     12      16.5872      0.00000
     13      18.0270      0.00000
     14      18.0270      0.00000
     15      22.2343      0.00000
     16      27.2838      0.00000

 k-point     3 :       0.2222    0.0000    0.0000
  band No.  band energies     occupation 
      1      -5.4967      2.00000
      2       2.4042      2.00000
      3       5.1617      2.00000
      4       5.1617      2.00000
      5       7.9583      0.00000
      6       9.2666      0.00000
      7       9.2666      0.00000
      8      12.2688      0.00000
      9      12.9108      0.00000
     10      12.9108      0.00000
     11      14.9208      0.00000
     12      17.1280      0.00000
     13      19.9899      0.00000
     14      19.9899      0.00000
     15      23.9211      0.00000
     16      24.3264      0.00000

 k-point     4 :       0.3333    0.0000    0.0000
  band No.  band energies     occupation 
      1      -4.7563      2.00000
      2       0.4926      2.00000
      3       4.8238      2.00000
      4       4.8238      2.00000
      5       7.5874      0.00000
      6       9.3321      0.00000
      7       9.3321      0.00000
      8      13.6925      0.00000
      9      13.8112      0.00000
     10      13.8112      0.00000
     11      14.9434      0.00000
     12      19.4404      0.00000
     13      20.4409      0.00000
     14      20.4409      0.00000
     15      22.6532      0.00000
     16      23.4953      0.00000

 k-point     5 :       0.4444    0.0000    0.0000
  band No.  band energies     occupation 
      1      -3.9652      2.00000
      2      -0.9026      2.00000
      3       4.6479      2.00000
      4       4.6479      2.00000
      5       7.3875      0.00000
      6       9.1904      0.00000
      7       9.1904      0.00000
      8      13.5911      0.00000
      9      15.5904      0.00000
     10      15.5904      0.00000
     11      16.6455      0.00000
     12      18.0483      0.00000
     13      18.0483      0.00000
     14      19.3347      0.00000
     15      23.8396      0.00000
     16      26.1320      0.00000

 k-point     6 :       0.1111    0.1111    0.0000
  band No.  band energies     occupation 
      1      -5.9168      2.00000
      2       4.7133      2.00000
      3       5.1460      2.00000
      4       5.1460      2.00000
      5       7.9351      0.00000
      6       9.3303      0.00000
      7       9.3303      0.00000
      8      10.1242      0.00000
      9      12.4451      0.00000
     10      13.7873      0.00000
     11      14.6584      0.00000
     12      17.4507      0.00000
     13      17.4507      0.00000
     14      17.8925      0.00000
     15      22.6943      0.00000
     16      26.8173      0.00000

 k-point     7 :       0.2222    0.1111    0.0000
  band No.  band energies     occupation 
      1      -5.5447      2.00000
      2       3.0276      2.00000
      3       4.6727      2.00000
      4       4.8112      2.00000
      5       8.0261      0.00000
      6       9.3659      0.00000
      7      10.0440      0.00000
      8      10.7351      0.00000
      9      12.8776      0.00000
     10      13.8383      0.00000
     11      15.6311      0.00000
     12      17.1346      0.00000
     13      18.6397      0.00000
     14      19.7669      0.00000
     15      24.1555      0.00000
     16      24.2719      0.00000

 k-point     8 :       0.3333    0.1111    0.0000
  band No.  band energies     occupation 
      1      -4.8841      2.00000
      2       1.1200      2.00000
      3       4.3059      2.00000
      4       4.3678      2.00000
      5       8.1498      0.00000
      6       9.3282      0.00000
      7      10.2095      0.00000
      8      11.1660      0.00000
      9      14.5317      0.00000
     10      14.6960      0.00000
     11      15.4217      0.00000
     12      18.7850      0.00000
     13      19.8643      0.00000
     14      21.2713      0.00000
     15      22.1520      0.00000
     16      23.0789      0.00000

 k-point     9 :       0.4444    0.1111    0.0000
  band No.  band energies     occupation 
      1      -4.0578      2.00000
      2      -0.4702      2.00000
      3       3.8701      2.00000
      4       4.2857      2.00000
      5       8.0307      0.00000
      6       9.2264      0.00000
      7       9.9262      0.00000
      8      12.6122      0.00000
      9      14.8058      0.00000
     10      16.1398      0.00000
     11      16.9126      0.00000
     12      17.7806      0.00000
     13      18.6330      0.00000
     14      21.3219      0.00000
     15      23.0676      0.00000
     16      24.2677      0.00000

 k-point    10 :      -0.4444    0.1111    0.0000
  band No.  band energies     occupation 
      1      -3.6790      2.00000
      2      -1.0425      2.00000
      3       3.6110      2.00000
      4       4.4257      2.00000
      5       8.0387      0.00000
      6       9.2450      0.00000
      7       9.6616      0.00000
      8      14.0034      0.00000
      9      14.8817      0.00000
     10      15.2412      0.00000
     11      16.7691      0.00000
     12      18.4987      0.00000
     13      18.9360      0.00000
     14      19.7099      0.00000
     15      24.4725      0.00000
     16      25.8707      0.00000

 k-point    11 :      -0.3333    0.1111    0.0000
  band No.  band energies     occupation 
      1      -4.3362      2.00000
      2       0.0062      2.00000
      3       3.5767      2.00000
      4       4.7561      2.00000
      5       8.2288      0.00000
      6       9.4686      0.00000
      7       9.5409      0.00000
      8      13.2333      0.00000
      9      13.2980      0.00000
     10      15.1694      0.00000
     11      17.0803      0.00000
     12      17.8940      0.00000
     13      20.4837      0.00000
     14      20.9638      0.00000
     15      22.3162      0.00000
     16      23.4249      0.00000

 k-point    12 :      -0.2222    0.1111    0.0000
  band No.  band energies     occupation 
      1      -5.1350      2.00000
      2       1.7358      2.00000
      3       3.8085      2.00000
      4       5.2058      2.00000
      5       8.5561      0.00000
      6       9.3337      0.00000
      7       9.6150      0.00000
      8      11.9205      0.00000
      9      12.1918      0.00000
     10      15.0517      0.00000
     11      15.6563      0.00000
     12      17.8539      0.00000
     13      19.6304      0.00000
     14      21.6159      0.00000
     15      21.8090      0.00000
     16      24.2496      0.00000

 k-point    13 :      -0.1111    0.1111    0.0000
  band No.  band energies     occupation 
      1      -5.7045      2.00000
      2       3.5020      2.00000
      3       4.4586      2.00000
      4       5.5992      2.00000
      5       8.8321      0.00000
      6       8.8389      0.00000
      7       9.0427      0.00000
      8      11.2173      0.00000
      9      12.3076      0.00000
     10      13.5966      0.00000
     11      15.2990      0.00000
     12      16.9511      0.00000
     13      17.9314      0.00000
     14      19.7901      0.00000
     15      23.5558      0.00000
     16      24.3050      0.00000

 k-point    14 :       0.2222    0.2222    0.0000
  band No.  band energies     occupation 
      1      -5.2757      2.00000
      2       2.8060      2.00000
      3       4.1516      2.00000
      4       4.1516      2.00000
      5       7.1337      0.00000
      6       9.3826      0.00000
      7      11.0973      0.00000
      8      11.0973      0.00000
      9      13.3291      0.00000
     10      14.5044      0.00000
     11      16.6779      0.00000
     12      18.5138      0.00000
     13      18.5138      0.00000
     14      19.1678      0.00000
     15      23.8898      0.00000
     16      23.8898      0.00000

 k-point    15 :       0.3333    0.2222    0.0000
  band No.  band energies     occupation 
      1      -4.7064      2.00000
      2       1.4720      2.00000
      3       3.5265      2.00000
      4       3.8094      2.00000
      5       7.2883      0.00000
      6       8.9960      0.00000
      7      11.3465      0.00000
      8      11.6703      0.00000
      9      15.1146      0.00000
     10      15.2035      0.00000
     11      17.2264      0.00000
     12      18.9298      0.00000
     13      19.3653      0.00000
     14      20.8308      0.00000
     15      21.7822      0.00000
     16      22.6072      0.00000

 k-point    16 :       0.4444    0.2222    0.0000
  band No.  band energies     occupation 
      1      -3.9073      2.00000
      2      -0.0006      2.00000
      3       2.7859      2.00000
      4       3.7116      2.00000
      5       7.4718      0.00000
      6      10.0166      0.00000
      7      11.1074      0.00000
      8      11.4756      0.00000
      9      16.4253      0.00000
     10      16.7377      0.00000
     11      17.4076      0.00000
     12      17.6956      0.00000
     13      18.9929      0.00000
     14      21.6083      0.00000
     15      22.9184      0.00000
     16      24.6056      0.00000

 k-point    17 :      -0.4444    0.2222    0.0000
  band No.  band energies     occupation 
      1      -3.2520      2.00000
      2      -0.9433      2.00000
      3       2.2660      2.00000
      4       3.8668      2.00000
      5       7.6227      0.00000
      6      10.8497      0.00000
      7      11.0903      0.00000
      8      12.0166      0.00000
      9      14.9970      0.00000
     10      15.1495      0.00000
     11      17.9157      0.00000
     12      19.0152      0.00000
     13      19.7155      0.00000
     14      22.5182      0.00000
     15      24.1858      0.00000
     16      24.5589      0.00000

 k-point    18 :      -0.3333    0.2222    0.0000
  band No.  band energies     occupation 
      1      -3.6646      2.00000
      2      -0.3647      2.00000
      3       2.0843      2.00000
      4       4.2478      2.00000
      5       8.0114      0.00000
      6      10.7535      0.00000
      7      10.7920      0.00000
      8      13.0414      0.00000
      9      13.1033      0.00000
     10      14.3262      0.00000
     11      17.9294      0.00000
     12      20.1851      0.00000
     13      20.7822      0.00000
     14      21.4752      0.00000
     15      22.1453      0.00000
     16      24.2346      0.00000

 k-point    19 :      -0.2222    0.2222    0.0000
  band No.  band energies     occupation 
      1      -4.4874      2.00000
      2       0.8837      2.00000
      3       2.4687      2.00000
      4       4.7700      2.00000
      5       8.5464      0.00000
      6      10.1517      0.00000
      7      10.4815      0.00000
      8      11.7023      0.00000
      9      12.0456      0.00000
     10      16.3057      0.00000
     11      17.5984      0.00000
     12      18.0854      0.00000
     13      19.2796      0.00000
     14      21.4418      0.00000
     15      23.0254      0.00000
     16      23.7976      0.00000

 k-point    20 :       0.3333    0.3333    0.0000
  band No.  band energies     occupation 
      1      -4.2289      2.00000
      2       0.8150      2.00000
      3       3.4084      2.00000
      4       3.4084      2.00000
      5       6.5528      0.00000
      6       7.8175      0.00000
      7      13.0881      0.00000
      8      13.0881      0.00000
      9      15.6688      0.00000
     10      15.6939      0.00000
     11      18.9165      0.00000
     12      19.3118      0.00000
     13      19.3118      0.00000
     14      20.9482      0.00000
     15      22.0156      0.00000
     16      22.2410      0.00000

 k-point    21 :       0.4444    0.3333    0.0000
  band No.  band energies     occupation 
      1      -3.4901      2.00000
      2      -0.2357      2.00000
      3       2.6827      2.00000
      4       3.2512      2.00000
      5       6.7947      0.00000
      6       7.8655      0.00000
      7      13.3981      0.00000
      8      13.4328      0.00000
      9      17.0682      0.00000
     10      17.3611      0.00000
     11      17.7456      0.00000
     12      17.7679      0.00000
     13      20.6173      0.00000
     14      20.9259      0.00000
     15      21.5388      0.00000
     16      23.4530      0.00000

 k-point    22 :      -0.4444    0.3333    0.0000
  band No.  band energies     occupation 
      1      -2.6956      2.00000
      2      -1.1338      2.00000
      3       1.7781      2.00000
      4       3.3585      2.00000
      5       6.9915      0.00000
      6       9.4695      0.00000
      7      13.0539      0.00000
      8      13.1925      0.00000
      9      15.3216      0.00000
     10      15.3222      0.00000
     11      19.3339      0.00000
     12      19.8166      0.00000
     13      20.4153      0.00000
     14      21.9862      0.00000
     15      22.5448      0.00000
     16      23.7421      0.00000

 k-point    23 :      -0.3333    0.3333    0.0000
  band No.  band energies     occupation 
      1      -2.8697      2.00000
      2      -0.9436      2.00000
      3       1.4151      2.00000
      4       3.7139      2.00000
      5       7.3924      0.00000
      6      11.6243      0.00000
      7      12.3024      0.00000
      8      12.9019      0.00000
      9      13.2591      0.00000
     10      13.4924      0.00000
     11      20.1962      0.00000
     12      20.7747      0.00000
     13      21.5401      0.00000
     14      21.5581      0.00000
     15      22.4564      0.00000
     16      23.4068      0.00000

 k-point    24 :       0.4444    0.4444    0.0000
  band No.  band energies     occupation 
      1      -2.8150      2.00000
      2      -1.1001      2.00000
      3       3.0229      2.00000
      4       3.0229      2.00000
      5       6.4088      0.00000
      6       6.8080      0.00000
      7      15.1731      0.00000
      8      15.1731      0.00000
      9      17.3552      0.00000
     10      17.5800      0.00000
     11      17.5800      0.00000
     12      17.9299      0.00000
     13      19.4678      0.00000
     14      19.5327      0.00000
     15      23.4038      0.00000
     16      24.2111      0.00000

 k-point    25 :      -0.4444    0.4444    0.0000
  band No.  band energies     occupation 
      1      -2.0424      2.00000
      2      -1.8729      2.00000
      3       2.4071      2.00000
      4       3.0604      2.00000
      5       6.6349      0.00000
      6       7.4667      0.00000
      7      15.0511      0.00000
      8      15.3909      0.00000
      9      15.7229      0.00000
     10      15.9180      0.00000
     11      19.2133      0.00000
     12      19.3119      0.00000
     13      19.4013      0.00000
     14      20.1339      0.00000
     15      23.4160      0.00000
     16      23.7893      0.00000

 k-point    26 :       0.3333    0.2222    0.1111
  band No.  band energies     occupation 
      1      -5.0751      2.00000
      2       2.0361      2.00000
      3       3.4564      2.00000
      4       4.6586      2.00000
      5       8.2045      0.00000
      6       9.6552      0.00000
      7      10.2185      0.00000
      8      10.8521      0.00000
      9      13.3029      0.00000
     10      15.2452      0.00000
     11      16.6574      0.00000
     12      17.6558      0.00000
     13      19.2749      0.00000
     14      21.3456      0.00000
     15      21.5227      0.00000
     16      24.2213      0.00000

 k-point    27 :       0.4444    0.2222    0.1111
  band No.  band energies     occupation 
      1      -4.3398      2.00000
      2       0.5459      2.00000
      3       2.8500      2.00000
      4       4.2210      2.00000
      5       8.5936      0.00000
      6       9.4341      0.00000
      7      10.6158      0.00000
      8      11.2913      0.00000
      9      14.1738      0.00000
     10      16.1822      0.00000
     11      17.4822      0.00000
     12      18.0456      0.00000
     13      19.9575      0.00000
     14      21.0950      0.00000
     15      22.1437      0.00000
     16      24.3999      0.00000

 k-point    28 :      -0.4444    0.2222    0.1111
  band No.  band energies     occupation 
      1      -3.5432      2.00000
      2      -0.7432      2.00000
      3       2.6577      2.00000
      4       3.8975      2.00000
      5       8.6937      0.00000
      6       9.0229      0.00000
      7      11.2373      0.00000
      8      12.3582      0.00000
      9      14.4719      0.00000
     10      15.7814      0.00000
     11      17.2453      0.00000
     12      18.7417      0.00000
     13      19.8010      0.00000
     14      21.9255      0.00000
     15      23.0852      0.00000
     16      25.0766      0.00000

 k-point    29 :       0.4444    0.3333    0.1111
  band No.  band energies     occupation 
      1      -4.0547      2.00000
      2       0.5114      2.00000
      3       2.7450      2.00000
      4       3.4354      2.00000
      5       7.6494      0.00000
      6       8.6547      0.00000
      7      11.2755      0.00000
      8      12.9973      0.00000
      9      15.2821      0.00000
     10      17.0229      0.00000
     11      17.5441      0.00000
     12      19.0223      0.00000
     13      19.8179      0.00000
     14      20.6234      0.00000
     15      21.7859      0.00000
     16      23.3447      0.00000

 k-point    30 :      -0.4444    0.3333    0.1111
  band No.  band energies     occupation 
      1      -3.2278      2.00000
      2      -0.5728      2.00000
      3       2.0808      2.00000
      4       3.1293      2.00000
      5       8.0527      0.00000
      6       9.7513      0.00000
      7      10.8365      0.00000
      8      13.3994      0.00000
      9      14.7362      0.00000
     10      16.6429      0.00000
     11      18.0818      0.00000
     12      19.6029      0.00000
     13      20.1231      0.00000
     14      21.3900      0.00000
     15      23.2085      0.00000
     16      23.9742      0.00000

 k-point    31 :      -0.3333    0.3333    0.1111
  band No.  band energies     occupation 
      1      -2.8622      2.00000
      2      -0.9988      2.00000
      3       1.6942      2.00000
      4       3.2419      2.00000
      5       8.3445      0.00000
      6      10.3462      0.00000
      7      11.8893      0.00000
      8      12.4498      0.00000
      9      13.3142      0.00000
     10      15.8684      0.00000
     11      18.8215      0.00000
     12      19.5069      0.00000
     13      22.0422      0.00000
     14      22.2029      0.00000
     15      23.0754      0.00000
     16      23.3576      0.00000

 k-point    32 :      -0.2222    0.3333    0.1111
  band No.  band energies     occupation 
      1      -3.5635      2.00000
      2      -0.1969      2.00000
      3       1.8413      2.00000
      4       3.6789      2.00000
      5       8.8573      0.00000
      6       9.8493      0.00000
      7      10.7102      0.00000
      8      12.7506      0.00000
      9      14.3128      0.00000
     10      14.4138      0.00000
     11      19.2257      0.00000
     12      19.8622      0.00000
     13      20.2361      0.00000
     14      21.0374      0.00000
     15      22.9459      0.00000
     16      24.1000      0.00000

 k-point    33 :      -0.4444    0.4444    0.1111
  band No.  band energies     occupation 
      1      -2.6986      2.00000
      2      -1.1160      2.00000
      3       2.4577      2.00000
      4       2.6672      2.00000
      5       7.4736      0.00000
      6       7.7838      0.00000
      7      13.0514      0.00000
      8      14.9449      0.00000
      9      15.4082      0.00000
     10      17.1792      0.00000
     11      17.9749      0.00000
     12      19.6104      0.00000
     13      19.9623      0.00000
     14      21.9177      0.00000
     15      21.9395      0.00000
     16      23.5198      0.00000

 k-point    34 :      -0.3333    0.4444    0.1111
  band No.  band energies     occupation 
      1      -2.1757      2.00000
      2      -1.5771      2.00000
      3       1.7336      2.00000
      4       2.7555      2.00000
      5       7.8445      0.00000
      6       9.4868      0.00000
      7      12.5019      0.00000
      8      12.7588      0.00000
      9      15.2983      0.00000
     10      16.1418      0.00000
     11      18.9221      0.00000
     12      19.9684      0.00000
     13      21.6365      0.00000
     14      22.5648      0.00000
     15      22.6007      0.00000
     16      22.9757      0.00000

 k-point    35 :      -0.3333    0.4444    0.2222
  band No.  band energies     occupation 
      1      -2.4218      2.00000
      2      -1.2621      2.00000
      3       1.7724      2.00000
      4       2.4145      2.00000
      5       9.6767      0.00000
      6       9.7655      0.00000
      7      10.4634      0.00000
      8      12.2049      0.00000
      9      15.2589      0.00000
     10      16.7010      0.00000
     11      18.5160      0.00000
     12      19.8932      0.00000
     13      21.1963      0.00000
     14      22.5726      0.00000
     15      23.0473      0.00000
     16      24.2760      0.00000


--------------------------------------------------------------------------------------------------------


 soft charge-density along one line, spin component           1
         0         1         2         3         4         5         6         7         8         9
 total charge-density along one line

 pseudopotential strength for first ion, spin component:           1
 18.414   0.000  25.691   0.000   0.000   0.000   0.000   0.000   0.000   0.000   0.000   0.000   0.000   0.000   0.000   0.000
 25.691   0.000  35.848   0.000   0.000   0.000   0.000   0.000   0.000   0.000   0.000   0.000   0.000   0.000   0.000   0.000
  0.000   0.000   0.000   0.000   4.179   0.000  -0.000   0.000  -0.000   0.000   7.786   0.000  -0.000   0.000  -0.000   0.000
  0.000   0.000   0.000   0.000  -0.000   0.000   4.179   0.000  -0.000   0.000  -0.000   0.000   7.786   0.000  -0.000   0.000
  0.000   0.000   0.000   0.000  -0.000   0.000  -0.000   0.000   4.179   0.000  -0.000   0.000  -0.000   0.000   7.786   0.000
  0.000   0.000   0.000   0.000   7.786   0.000  -0.000   0.000  -0.000   0.000  14.520   0.000  -0.000   0.000  -0.000   0.000
  0.000   0.000   0.000   0.000  -0.000   0.000   7.786   0.000  -0.000   0.000  -0.000   0.000  14.520   0.000  -0.000   0.000
  0.000   0.000   0.000   0.000  -0.000   0.000  -0.000   0.000   7.786   0.000  -0.000   0.000  -0.000   0.000  14.520   0.000
 total augmentation occupancy for first ion, spin component:           1
  5.701  -2.158   0.000   0.000  -0.000   0.000   0.000   0.000
 -2.158   0.931   0.000   0.000  -0.000   0.000   0.000  -0.000
  0.000   0.000   3.014   0.000   0.000  -0.685   0.000  -0.000
  0.000   0.000   0.000   3.014   0.000   0.000  -0.685   0.000
  0.000   0.000   0.000   0.000   3.014  -0.000   0.000  -0.685
  0.000   0.000  -0.685  -0.000   0.000   0.164   0.000  -0.000
  0.000   0.000   0.000  -0.685  -0.000  -0.000   0.164   0.000
  0.000  -0.000   0.000   0.000  -0.685  -0.000   0.000   0.164


------------------------ aborting loop because EDIFF is reached ----------------------------------------


    CHARGE:  cpu time    0.0360: real time    0.0645
    FORLOC:  cpu time    0.0040: real time    0.0007
    FORNL :  cpu time    0.0200: real time    0.0215
    STRESS:  cpu time    0.2480: real time    0.2497
    FORCOR:  cpu time    0.0160: real time    0.0162
    FORHAR:  cpu time    0.0080: real time    0.0054
    MIXING:  cpu time    0.0000: real time    0.0008
    OFIELD:  cpu time    0.0000: real time    0.0000

  FORCE on cell =-STRESS in cart. coord.  units (eV):
  Direction    XX          YY          ZZ          XY          YZ          ZX
  --------------------------------------------------------------------------------------
  Alpha Z     3.36133     3.36133     3.36133
  Ewald     -76.16660   -76.16660   -76.16660     0.00000     0.00000    -0.00000
  Hartree     4.97744     4.97744     4.97744     0.00000     0.00000     0.00000
  E(xc)     -25.36757   -25.36757   -25.36757    -0.00000    -0.00000    -0.00000
  Local     -29.25075   -29.25075   -29.25075     0.00001     0.00001     0.00001
  n-local    78.91931    80.16994    74.44129     2.23400    -1.26636     0.58759
  augment   -11.65070   -11.65070   -11.65070    -0.00001    -0.00001    -0.00001
  Kinetic    58.81269    56.21687    55.12088     3.55266    -0.68075     1.01337
  Fock        0.00000     0.00000     0.00000     0.00000     0.00000     0.00000
  -------------------------------------------------------------------------------------
  Total       0.46348     0.46348     0.46348    -0.00000    -0.00000    -0.00000
  in kB      18.53687    18.53687    18.53687    -0.00000    -0.00000    -0.00000
  external pressure =       18.54 kB  Pullay stress =        0.00 kB


 VOLUME and BASIS-vectors are now :
 -----------------------------------------------------------------------------
  energy-cutoff  :      350.00
  volume of cell :       40.06
      direct lattice vectors                 reciprocal lattice vectors
    -0.000000000  2.715758437  2.715758437    -0.184110631  0.184110631  0.184110631
     2.715758437 -0.000000000  2.715758437     0.184110631 -0.184110631  0.184110631
     2.715758437  2.715758437 -0.000000000     0.184110631  0.184110631 -0.184110631

  length of vectors
     3.840662414  3.840662414  3.840662414     0.318888967  0.318888967  0.318888967


 FORCES acting on ions
    electron-ion (+dipol)            ewald-force                    non-local-force                 convergence-correction
 -----------------------------------------------------------------------------------------------
   0.177E-06 0.177E-06 0.177E-06   0.162E-14 0.334E-14 -.186E-13   -.763E-16 -.416E-16 -.451E-16   -.143E-08 -.143E-08 -.143E-08
   -.177E-06 -.177E-06 -.177E-06   -.170E-14 -.303E-14 0.186E-13   0.833E-16 0.278E-16 0.173E-16   0.143E-08 0.143E-08 0.143E-08
 -----------------------------------------------------------------------------------------------
   -.307E-13 0.123E-14 -.516E-14   -.860E-16 0.308E-15 -.720E-16   0.694E-17 -.139E-16 -.278E-16   -.262E-14 0.985E-15 0.141E-14


 POSITION                                       TOTAL-FORCE (eV/Angst)
 -----------------------------------------------------------------------------------
      0.00000      0.00000      0.00000         0.000000      0.000000      0.000000
      1.35788      1.35788      1.35788        -0.000000     -0.000000     -0.000000
 -----------------------------------------------------------------------------------
    total drift:                               -0.000000      0.000000     -0.000000


--------------------------------------------------------------------------------------------------------



  FREE ENERGIE OF THE ION-ELECTRON SYSTEM (eV)
  ---------------------------------------------------
  free  energy   TOTEN  =       -10.84136848 eV

  energy  without entropy=      -10.84136848  energy(sigma->0) =      -10.84136848



--------------------------------------------------------------------------------------------------------


    POTLOK:  cpu time    0.0240: real time    0.0240


--------------------------------------------------------------------------------------------------------


 Quasi-Newton relaxation of ions (Broydens 2nd method)
  g(Force)  = 0.509E-46   g(Stress)= 0.155E-01

 Reset! Starting new Quasi-Newton update for ions 


--------------------------------------------------------------------------------------------------------


    WAVPRE:  cpu time    0.0040: real time    0.0035
 FEWALD executed in parallel
    FEWALD:  cpu time    0.0000: real time    0.0003
    GENKIN:  cpu time    0.0160: real time    0.0134
    ORTHCH:  cpu time    0.0240: real time    0.0221
     LOOP+:  cpu time    7.0320: real time    7.9482


----------------------------------------- Iteration    2(   1)  ---------------------------------------


    POTLOK:  cpu time    0.0160: real time    0.0236
    SETDIJ:  cpu time    0.0040: real time    0.0028
     EDDAV:  cpu time    0.6280: real time    0.6274
       DOS:  cpu time    0.0000: real time    0.0004
    CHARGE:  cpu time    0.0320: real time    0.0341
    MIXING:  cpu time    0.0040: real time    0.0006
    --------------------------------------------
      LOOP:  cpu time    0.6840: real time    0.6906

 eigenvalue-minimisations  :  1312
 total energy-change (2. order) :-0.8711203E-02  (-0.2387897E-01)
 number of electron       8.0000000 magnetization 
 augmentation part       -0.4610712 magnetization 

 Broyden mixing:
  rms(total) = 0.47362E-01    rms(broyden)= 0.47360E-01
  rms(prec ) = 0.11801E+00
  weight for this iteration     100.00

 Free energy of the ion-electron system (eV)
  ---------------------------------------------------
  alpha Z        PSCENC =         3.25106800
  Ewald energy   TEWEN  =      -225.97337757
  -Hartree energ DENC   =       -14.76721092
  -exchange      EXHF   =         0.00000000
  -V(xc)+E(xc)   XCENC  =       -18.12737172
  PAW double counting   =       877.81453301     -842.85222341
  entropy T*S    EENTRO =        -0.00000000
  eigenvalues    EBANDS =         3.67324879
  atomic energy  EATOM  =       206.13125414
  Solvation  Ediel_sol  =         0.00000000
  ---------------------------------------------------
  free energy    TOTEN  =       -10.85007968 eV

  energy without entropy =      -10.85007968  energy(sigma->0) =      -10.85007968


--------------------------------------------------------------------------------------------------------




----------------------------------------- Iteration    2(   2)  ---------------------------------------


    POTLOK:  cpu time    0.0160: real time    0.0281
    SETDIJ:  cpu time    0.0000: real time    0.0027
     EDDAV:  cpu time    0.6080: real time    0.6128
       DOS:  cpu time    0.0000: real time    0.0005
    CHARGE:  cpu time    0.0360: real time    0.0364
    MIXING:  cpu time    0.0000: real time    0.0006
    --------------------------------------------
      LOOP:  cpu time    0.6640: real time    0.8037

 eigenvalue-minimisations  :  1264
 total energy-change (2. order) : 0.4107028E-02  (-0.2814524E-03)
 number of electron       8.0000000 magnetization 
 augmentation part       -0.4600156 magnetization 

 Broyden mixing:
  rms(total) = 0.27337E-01    rms(broyden)= 0.27337E-01
  rms(prec ) = 0.67648E-01
  weight for this iteration     100.00

 eigenvalues of (default mixing * dielectric matrix)
  average eigenvalue GAMMA=   2.3448
  2.3448

 Free energy of the ion-electron system (eV)
  ---------------------------------------------------
  alpha Z        PSCENC =         3.25106800
  Ewald energy   TEWEN  =      -225.97337757
  -Hartree energ DENC   =       -15.01071992
  -exchange      EXHF   =         0.00000000
  -V(xc)+E(xc)   XCENC  =       -18.11970560
  PAW double counting   =       844.72295393     -809.75364617
  entropy T*S    EENTRO =        -0.00000000
  eigenvalues    EBANDS =         3.90620053
  atomic energy  EATOM  =       206.13125414
  Solvation  Ediel_sol  =         0.00000000
  ---------------------------------------------------
  free energy    TOTEN  =       -10.84597265 eV

  energy without entropy =      -10.84597265  energy(sigma->0) =      -10.84597265


--------------------------------------------------------------------------------------------------------




----------------------------------------- Iteration    2(   3)  ---------------------------------------


    POTLOK:  cpu time    0.0200: real time    0.0172
    SETDIJ:  cpu time    0.0040: real time    0.0033
     EDDAV:  cpu time    0.7000: real time    0.6998
       DOS:  cpu time    0.0000: real time    0.0004
    CHARGE:  cpu time    0.0320: real time    0.0338
    MIXING:  cpu time    0.0000: real time    0.0005
    --------------------------------------------
      LOOP:  cpu time    0.7560: real time    0.7900

 eigenvalue-minimisations  :  1376
 total energy-change (2. order) : 0.2110870E-02  (-0.4407703E-03)
 number of electron       8.0000000 magnetization 
 augmentation part       -0.4580180 magnetization 

 Broyden mixing:
  rms(total) = 0.10022E-01    rms(broyden)= 0.10022E-01
  rms(prec ) = 0.11010E-01
  weight for this iteration     100.00

 eigenvalues of (default mixing * dielectric matrix)
  average eigenvalue GAMMA=   1.2449
  2.2404  0.2495

 Free energy of the ion-electron system (eV)
  ---------------------------------------------------
  alpha Z        PSCENC =         3.25106800
  Ewald energy   TEWEN  =      -225.97337757
  -Hartree energ DENC   =       -15.33288876
  -exchange      EXHF   =         0.00000000
  -V(xc)+E(xc)   XCENC  =       -18.11273152
[...]
      1      -3.3738      2.00000
      2      -1.0727      2.00000
      3       2.1280      2.00000
      4       3.7028      2.00000
      5       7.4344      0.00000
      6      10.5914      0.00000
      7      10.8633      0.00000
      8      11.7531      0.00000
      9      14.6837      0.00000
     10      14.8944      0.00000
     11      17.6199      0.00000
     12      18.6988      0.00000
     13      19.2854      0.00000
     14      22.1073      0.00000
     15      23.8009      0.00000
     16      24.1403      0.00000

 k-point    18 :      -0.3333    0.2222    0.0000
  band No.  band energies     occupation 
      1      -3.7756      2.00000
      2      -0.5090      2.00000
      3       1.9539      2.00000
      4       4.0760      2.00000
      5       7.8090      0.00000
      6      10.5242      0.00000
      7      10.5357      0.00000
      8      12.7420      0.00000
      9      12.8873      0.00000
     10      14.0297      0.00000
     11      17.6397      0.00000
     12      19.7813      0.00000
     13      20.4383      0.00000
     14      21.1284      0.00000
     15      21.7267      0.00000
     16      23.8450      0.00000

 k-point    19 :      -0.2222    0.2222    0.0000
  band No.  band energies     occupation 
      1      -4.5808      2.00000
      2       0.7140      2.00000
      3       2.3376      2.00000
      4       4.5875      2.00000
      5       8.3185      0.00000
      6       9.9190      0.00000
      7      10.2397      0.00000
      8      11.4111      0.00000
      9      11.8598      0.00000
     10      15.9875      0.00000
     11      17.2180      0.00000
     12      17.8140      0.00000
     13      18.9644      0.00000
     14      21.0985      0.00000
     15      22.6640      0.00000
     16      23.3522      0.00000

 k-point    20 :       0.3333    0.3333    0.0000
  band No.  band energies     occupation 
      1      -4.3253      2.00000
      2       0.6323      2.00000
      3       3.2546      2.00000
      4       3.2546      2.00000
      5       6.3822      0.00000
      6       7.6461      0.00000
      7      12.8021      0.00000
      8      12.8021      0.00000
      9      15.2444      0.00000
     10      15.4558      0.00000
     11      18.5515      0.00000
     12      18.9946      0.00000
     13      18.9946      0.00000
     14      20.6445      0.00000
     15      21.6904      0.00000
     16      21.8822      0.00000

 k-point    21 :       0.4444    0.3333    0.0000
  band No.  band energies     occupation 
      1      -3.6002      2.00000
      2      -0.4016      2.00000
      3       2.5469      2.00000
      4       3.0996      2.00000
      5       6.6247      0.00000
      6       7.6857      0.00000
      7      13.0922      0.00000
      8      13.1564      0.00000
      9      16.7982      0.00000
     10      16.9571      0.00000
     11      17.3797      0.00000
     12      17.4637      0.00000
     13      20.2512      0.00000
     14      20.5935      0.00000
     15      21.2105      0.00000
     16      23.0916      0.00000

 k-point    22 :      -0.4444    0.3333    0.0000
  band No.  band energies     occupation 
      1      -2.8241      2.00000
      2      -1.2820      2.00000
      3       1.6642      2.00000
      4       3.2044      2.00000
      5       6.8212      0.00000
      6       9.2611      0.00000
      7      12.7891      0.00000
      8      12.8829      0.00000
      9      14.9892      0.00000
     10      15.0658      0.00000
     11      19.0201      0.00000
     12      19.3735      0.00000
     13      20.0964      0.00000
     14      21.6316      0.00000
     15      22.1227      0.00000
     16      23.3768      0.00000

 k-point    23 :      -0.3333    0.3333    0.0000
  band No.  band energies     occupation 
      1      -2.9974      2.00000
      2      -1.0921      2.00000
      3       1.3095      2.00000
      4       3.5529      2.00000
      5       7.2120      0.00000
      6      11.4046      0.00000
      7      12.0356      0.00000
      8      12.5996      0.00000
      9      12.9241      0.00000
     10      13.2815      0.00000
     11      19.8719      0.00000
     12      20.4444      0.00000
     13      21.0983      0.00000
     14      21.2128      0.00000
     15      22.0636      0.00000
     16      23.0000      0.00000

 k-point    24 :       0.4444    0.4444    0.0000
  band No.  band energies     occupation 
      1      -2.9362      2.00000
      2      -1.2513      2.00000
      3       2.8750      2.00000
      4       2.8750      2.00000
      5       6.2468      0.00000
      6       6.6474      0.00000
      7      14.8484      0.00000
      8      14.8484      0.00000
      9      17.0947      0.00000
     10      17.2753      0.00000
     11      17.2753      0.00000
     12      17.4835      0.00000
     13      19.1019      0.00000
     14      19.1780      0.00000
     15      23.0673      0.00000
     16      23.8424      0.00000

 k-point    25 :      -0.4444    0.4444    0.0000
  band No.  band energies     occupation 
      1      -2.1798      2.00000
      2      -2.0100      2.00000
      3       2.2774      2.00000
      4       2.9117      2.00000
      5       6.4726      0.00000
      6       7.2876      0.00000
      7      14.7230      0.00000
      8      15.0252      0.00000
      9      15.4319      0.00000
     10      15.6712      0.00000
     11      18.9243      0.00000
     12      18.9557      0.00000
     13      18.9934      0.00000
     14      19.7140      0.00000
     15      23.0622      0.00000
     16      23.4339      0.00000

 k-point    26 :       0.3333    0.2222    0.1111
  band No.  band energies     occupation 
      1      -5.1572      2.00000
      2       1.8494      2.00000
      3       3.3060      2.00000
      4       4.4773      2.00000
      5       8.0006      0.00000
      6       9.3731      0.00000
      7      10.0281      0.00000
      8      10.6016      0.00000
      9      13.0293      0.00000
     10      14.9295      0.00000
     11      16.3428      0.00000
     12      17.3844      0.00000
     13      18.9678      0.00000
     14      21.0113      0.00000
     15      21.1668      0.00000
     16      23.8135      0.00000

 k-point    27 :       0.4444    0.2222    0.1111
  band No.  band energies     occupation 
      1      -4.4360      2.00000
      2       0.3869      2.00000
      3       2.7033      2.00000
      4       4.0507      2.00000
      5       8.3794      0.00000
      6       9.2003      0.00000
      7      10.3854      0.00000
      8      11.0468      0.00000
      9      13.8995      0.00000
     10      15.8847      0.00000
     11      17.1155      0.00000
     12      17.7459      0.00000
     13      19.6211      0.00000
     14      20.7336      0.00000
     15      21.7991      0.00000
     16      23.9769      0.00000

 k-point    28 :      -0.4444    0.2222    0.1111
  band No.  band energies     occupation 
      1      -3.6583      2.00000
      2      -0.8728      2.00000
      3       2.5081      2.00000
      4       3.7357      2.00000
      5       8.4625      0.00000
      6       8.8232      0.00000
      7      10.9857      0.00000
      8      12.1075      0.00000
      9      14.1866      0.00000
     10      15.5068      0.00000
     11      16.9432      0.00000
     12      18.3978      0.00000
     13      19.4072      0.00000
     14      21.5282      0.00000
     15      22.6999      0.00000
     16      24.6825      0.00000

 k-point    29 :       0.4444    0.3333    0.1111
  band No.  band energies     occupation 
      1      -4.1550      2.00000
      2       0.3357      2.00000
      3       2.6073      2.00000
      4       3.2841      2.00000
      5       7.4581      0.00000
      6       8.4655      0.00000
      7      11.0118      0.00000
      8      12.7145      0.00000
      9      14.9783      0.00000
     10      16.7002      0.00000
     11      17.1729      0.00000
     12      18.7295      0.00000
     13      19.4832      0.00000
     14      20.2757      0.00000
     15      21.4381      0.00000
     16      22.9633      0.00000

 k-point    30 :      -0.4444    0.3333    0.1111
  band No.  band energies     occupation 
      1      -3.3455      2.00000
      2      -0.7283      2.00000
      3       1.9555      2.00000
      4       2.9860      2.00000
      5       7.8608      0.00000
      6       9.5450      0.00000
      7      10.5777      0.00000
      8      13.1099      0.00000
      9      14.4472      0.00000
     10      16.3268      0.00000
     11      17.7548      0.00000
     12      19.2503      0.00000
     13      19.7556      0.00000
     14      21.0314      0.00000
     15      22.8240      0.00000
     16      23.5934      0.00000

 k-point    31 :      -0.3333    0.3333    0.1111
  band No.  band energies     occupation 
      1      -2.9905      2.00000
      2      -1.1425      2.00000
      3       1.5774      2.00000
      4       3.0955      2.00000
      5       8.1471      0.00000
      6      10.1173      0.00000
      7      11.6439      0.00000
      8      12.1730      0.00000
      9      13.0326      0.00000
     10      15.5647      0.00000
     11      18.4850      0.00000
     12      19.1760      0.00000
     13      21.6376      0.00000
     14      21.8189      0.00000
     15      22.6775      0.00000
     16      22.9643      0.00000

 k-point    32 :      -0.2222    0.3333    0.1111
  band No.  band energies     occupation 
      1      -3.6753      2.00000
      2      -0.3573      2.00000
      3       1.7238      2.00000
      4       3.5223      2.00000
      5       8.6463      0.00000
      6       9.6247      0.00000
      7      10.4723      0.00000
      8      12.4813      0.00000
      9      14.0320      0.00000
     10      14.1156      0.00000
     11      18.9206      0.00000
     12      19.5400      0.00000
     13      19.8202      0.00000
     14      20.6865      0.00000
     15      22.5445      0.00000
     16      23.7154      0.00000

 k-point    33 :      -0.4444    0.4444    0.1111
  band No.  band energies     occupation 
      1      -2.8236      2.00000
      2      -1.2690      2.00000
      3       2.3261      2.00000
      4       2.5330      2.00000
      5       7.2906      0.00000
      6       7.6032      0.00000
      7      12.7692      0.00000
      8      14.6050      0.00000
      9      15.1409      0.00000
     10      16.8465      0.00000
     11      17.6423      0.00000
     12      19.2487      0.00000
     13      19.5697      0.00000
     14      21.5400      0.00000
     15      21.6153      0.00000
     16      23.1343      0.00000

 k-point    34 :      -0.3333    0.4444    0.1111
  band No.  band energies     occupation 
      1      -2.3152      2.00000
      2      -1.7205      2.00000
      3       1.6227      2.00000
      4       2.6189      2.00000
      5       7.6580      0.00000
      6       9.2782      0.00000
      7      12.2285      0.00000
      8      12.4848      0.00000
      9      14.9896      0.00000
     10      15.8331      0.00000
     11      18.5599      0.00000
     12      19.5999      0.00000
     13      21.2865      0.00000
     14      22.1768      0.00000
     15      22.2589      0.00000
     16      22.5544      0.00000

 k-point    35 :      -0.3333    0.4444    0.2222
  band No.  band energies     occupation 
      1      -2.5559      2.00000
      2      -1.4139      2.00000
      3       1.6596      2.00000
      4       2.2893      2.00000
      5       9.4627      0.00000
      6       9.5740      0.00000
      7      10.1990      0.00000
      8      11.9389      0.00000
      9      14.9508      0.00000
     10      16.3774      0.00000
     11      18.1629      0.00000
     12      19.5243      0.00000
     13      20.8705      0.00000
     14      22.2197      0.00000
     15      22.6271      0.00000
     16      23.8967      0.00000


--------------------------------------------------------------------------------------------------------


 soft charge-density along one line, spin component           1
         0         1         2         3         4         5         6         7         8         9
 total charge-density along one line

 pseudopotential strength for first ion, spin component:           1
 18.437   0.000  25.722   0.000   0.000   0.000   0.000   0.000   0.000   0.000   0.000   0.000   0.000   0.000   0.000   0.000
 25.722   0.000  35.892   0.000   0.000   0.000   0.000   0.000   0.000   0.000   0.000   0.000   0.000   0.000   0.000   0.000
  0.000   0.000   0.000   0.000   4.181   0.000  -0.000   0.000  -0.000   0.000   7.790   0.000  -0.000   0.000  -0.000   0.000
  0.000   0.000   0.000   0.000  -0.000   0.000   4.181   0.000  -0.000   0.000  -0.000   0.000   7.790   0.000  -0.000   0.000
  0.000   0.000   0.000   0.000  -0.000   0.000  -0.000   0.000   4.181   0.000  -0.000   0.000  -0.000   0.000   7.790   0.000
  0.000   0.000   0.000   0.000   7.790   0.000  -0.000   0.000  -0.000   0.000  14.528   0.000  -0.000   0.000  -0.000   0.000
  0.000   0.000   0.000   0.000  -0.000   0.000   7.790   0.000  -0.000   0.000  -0.000   0.000  14.528   0.000  -0.000   0.000
  0.000   0.000   0.000   0.000  -0.000   0.000  -0.000   0.000   7.790   0.000  -0.000   0.000  -0.000   0.000  14.528   0.000
 total augmentation occupancy for first ion, spin component:           1
  5.533  -2.065  -0.000   0.000   0.000   0.000   0.000  -0.000
 -2.065   0.886  -0.000  -0.000   0.000   0.000   0.000   0.000
 -0.000   0.000   2.944  -0.000   0.000  -0.664  -0.000  -0.000
  0.000  -0.000  -0.000   2.944   0.000  -0.000  -0.664   0.000
  0.000   0.000   0.000   0.000   2.944   0.000   0.000  -0.664
  0.000   0.000  -0.664  -0.000  -0.000   0.158   0.000   0.000
  0.000  -0.000   0.000  -0.664   0.000   0.000   0.158   0.000
  0.000   0.000   0.000  -0.000  -0.664   0.000  -0.000   0.158


------------------------ aborting loop because EDIFF is reached ----------------------------------------


    CHARGE:  cpu time    0.0400: real time    0.0490
    FORLOC:  cpu time    0.0000: real time    0.0006
    FORNL :  cpu time    0.0240: real time    0.0233
    STRESS:  cpu time    0.2600: real time    0.2563
    FORCOR:  cpu time    0.0120: real time    0.0140
    FORHAR:  cpu time    0.0040: real time    0.0044
    MIXING:  cpu time    0.0000: real time    0.0006
    OFIELD:  cpu time    0.0000: real time    0.0000

  FORCE on cell =-STRESS in cart. coord.  units (eV):
  Direction    XX          YY          ZZ          XY          YZ          ZX
  --------------------------------------------------------------------------------------
  Alpha Z     3.29519     3.29519     3.29519
  Ewald     -75.66375   -75.66375   -75.66375    -0.00000    -0.00000    -0.00000
  Hartree     5.05639     5.05639     5.05639     0.00000     0.00000     0.00000
  E(xc)     -25.25277   -25.25277   -25.25277    -0.00000    -0.00000    -0.00000
  Local     -29.52879   -29.52879   -29.52879     0.00001     0.00001     0.00001
  n-local    78.54967    79.79574    74.09069     2.19229    -1.23681     0.57017
  augment   -11.64509   -11.64509   -11.64509    -0.00001    -0.00001    -0.00001
  Kinetic    58.35511    55.91009    54.51517     3.55139    -0.71281     1.01251
  Fock        0.00000     0.00000     0.00000     0.00000     0.00000     0.00000
  -------------------------------------------------------------------------------------
  Total       0.00001     0.00001     0.00001     0.00000    -0.00000     0.00000
  in kB       0.00057     0.00057     0.00057     0.00000    -0.00000     0.00000
  external pressure =        0.00 kB  Pullay stress =        0.00 kB


 VOLUME and BASIS-vectors are now :
 -----------------------------------------------------------------------------
  energy-cutoff  :      350.00
  volume of cell :       40.86
      direct lattice vectors                 reciprocal lattice vectors
    -0.000000000  2.733806940  2.733806940    -0.182895139  0.182895139  0.182895139
     2.733806940 -0.000000000  2.733806940     0.182895139 -0.182895139  0.182895139
     2.733806940  2.733806940 -0.000000000     0.182895139  0.182895139 -0.182895139

  length of vectors
     3.866186852  3.866186852  3.866186852     0.316783673  0.316783673  0.316783673


 FORCES acting on ions
    electron-ion (+dipol)            ewald-force                    non-local-force                 convergence-correction
 -----------------------------------------------------------------------------------------------
   0.208E-06 0.208E-06 0.208E-06   0.609E-14 0.108E-13 0.467E-14   0.555E-16 0.555E-16 0.693E-16   0.340E-09 0.340E-09 0.340E-09
   -.208E-06 -.208E-06 -.208E-06   -.594E-14 -.111E-13 -.486E-14   -.486E-16 -.625E-16 -.902E-16   -.340E-09 -.340E-09 -.340E-09
 -----------------------------------------------------------------------------------------------
   -.387E-13 0.265E-14 0.107E-13   0.146E-15 -.354E-15 -.185E-15   0.694E-17 -.694E-17 -.208E-16   -.660E-15 -.203E-15 -.986E-15


 POSITION                                       TOTAL-FORCE (eV/Angst)
 -----------------------------------------------------------------------------------
      0.00000      0.00000      0.00000         0.000000      0.000000      0.000000
      1.36690      1.36690      1.36690        -0.000000     -0.000000     -0.000000
 -----------------------------------------------------------------------------------
    total drift:                               -0.000000      0.000000      0.000000


--------------------------------------------------------------------------------------------------------



  FREE ENERGIE OF THE ION-ELECTRON SYSTEM (eV)
  ---------------------------------------------------
  free  energy   TOTEN  =       -10.84591456 eV

  energy  without entropy=      -10.84591456  energy(sigma->0) =      -10.84591456

 d Force = 0.0000000E+00[ 0.000E+00, 0.000E+00]  d Energy = 0.9926224E-06-0.993E-06
 d Force = 0.0000000E+00[ 0.000E+00, 0.000E+00]  d Ewald  = 0.1985537E-01-0.199E-01


--------------------------------------------------------------------------------------------------------


    POTLOK:  cpu time    0.0200: real time    0.0198


--------------------------------------------------------------------------------------------------------


 Quasi-Newton relaxation of ions (Broydens 2nd method)
  g(Force)  = 0.305E-48   g(Stress)= 0.151E-10

 retain information from N=  1 steps
 eigenvalues of (default step * inverse Hessian matrix)
  average eigenvalue of G=   0.6128
 eigenvalue spectrum of G is  0.6128


--------------------------------------------------------------------------------------------------------


  
 reached required accuracy - stopping structural energy minimisation
 writing wavefunctions
     LOOP+:  cpu time    2.5680: real time    2.8312
    4ORBIT:  cpu time    0.0000: real time    0.0000

 total amount of memory used by VASP on root node    33350. kBytes
========================================================================

   base      :      30000. kBytes
   nonl-proj :       1417. kBytes
   fftplans  :        574. kBytes
   grid      :        995. kBytes
   one-center:          6. kBytes
   wavefun   :        358. kBytes

  
  
 General timing and accounting informations for this job:
 ========================================================
  
                  Total CPU time used (sec):       22.980
                            User time (sec):       22.264
                          System time (sec):        0.716
                         Elapsed time (sec):       26.002
  
                   Maximum memory used (kb):       37468.
                   Average memory used (kb):           0.
  
                          Minor page faults:       213753
                          Major page faults:            7
                 Voluntary context switches:         1391
