<?xml version="1.0" encoding="ISO-8859-1"?>
<modeling>
 <generator>
  <i name="program" type="string">vasp </i>
  <i name="version" type="string">5.4.1  </i>
  <i name="subversion" type="string">24Jun15 (build Jan 30 2017 21:57:38) complex                          parallel </i>
  <i name="platform" type="string">IFC91_ompi </i>
  <i name="date" type="string">2018 07 26 </i>
  <i name="time" type="string">12:10:02 </i>
 </generator>
 <incar>
  <i type="string" name="PREC">accurate</i>
  <i type="logical" name="LSORBIT"> F  </i>
  <i type="int" name="IBRION">     1</i>
  <i name="EDIFF">      0.00000010</i>
  <i type="int" name="NSW">    10</i>
  <i type="int" name="ISIF">     3</i>
  <i name="ENCUT">    350.00000000</i>
  <i type="int" name="ISMEAR">     0</i>
  <i name="SIGMA">      0.05000000</i>
  <v type="int" name="KPOINT_BSE">    -1     0     0     0</v>
 </incar>
 <kpoints>
  <generation param="Gamma">
   <v type="int" name="divisions">       9        9        9 </v>
   <v name="usershift">      0.00000000       0.00000000       0.00000000 </v>
   <v name="genvec1">      0.11111111       0.00000000       0.00000000 </v>
   <v name="genvec2">      0.00000000       0.11111111       0.00000000 </v>
   <v name="genvec3">      0.00000000       0.00000000       0.11111111 </v>
   <v name="shift">      0.00000000       0.00000000       0.00000000 </v>
  </generation>
  <varray name="kpointlist" >
   <v>       0.00000000       0.00000000       0.00000000 </v>
   <v>       0.11111111       0.00000000       0.00000000 </v>
   <v>       0.22222222       0.00000000       0.00000000 </v>
   <v>       0.33333333       0.00000000       0.00000000 </v>
   <v>       0.44444444       0.00000000       0.00000000 </v>
   <v>       0.11111111       0.11111111       0.00000000 </v>
   <v>       0.22222222       0.11111111       0.00000000 </v>
   <v>       0.33333333       0.11111111       0.00000000 </v>
   <v>       0.44444444       0.11111111       0.00000000 </v>
   <v>      -0.44444444       0.11111111       0.00000000 </v>
   <v>      -0.33333333       0.11111111       0.00000000 </v>
   <v>      -0.22222222       0.11111111       0.00000000 </v>
   <v>      -0.11111111       0.11111111       0.00000000 </v>
   <v>       0.22222222       0.22222222       0.00000000 </v>
   <v>       0.33333333       0.22222222       0.00000000 </v>
   <v>       0.44444444       0.22222222       0.00000000 </v>
   <v>      -0.44444444       0.22222222       0.00000000 </v>
   <v>      -0.33333333       0.22222222       0.00000000 </v>
   <v>      -0.22222222       0.22222222       0.00000000 </v>
   <v>       0.33333333       0.33333333       0.00000000 </v>
   <v>       0.44444444       0.33333333       0.00000000 </v>
   <v>      -0.44444444       0.33333333       0.00000000 </v>
   <v>      -0.33333333       0.33333333       0.00000000 </v>
   <v>       0.44444444       0.44444444       0.00000000 </v>
   <v>      -0.44444444       0.44444444       0.00000000 </v>
   <v>       0.33333333       0.22222222       0.11111111 </v>
   <v>       0.44444444       0.22222222       0.11111111 </v>
   <v>      -0.44444444       0.22222222       0.11111111 </v>
   <v>       0.44444444       0.33333333       0.11111111 </v>
   <v>      -0.44444444       0.33333333       0.11111111 </v>
   <v>      -0.33333333       0.33333333       0.11111111 </v>
   <v>      -0.22222222       0.33333333       0.11111111 </v>
   <v>      -0.44444444       0.44444444       0.11111111 </v>
   <v>      -0.33333333       0.44444444       0.11111111 </v>
   <v>      -0.33333333       0.44444444       0.22222222 </v>
  </varray>
  <varray name="weights" >
   <v>       0.00137174 </v>
   <v>       0.01097394 </v>
   <v>       0.01097394 </v>
   <v>       0.01097394 </v>
   <v>       0.01097394 </v>
   <v>       0.00823045 </v>
   <v>       0.03292181 </v>
   <v>       0.03292181 </v>
   <v>       0.03292181 </v>
   <v>       0.03292181 </v>
   <v>       0.03292181 </v>
   <v>       0.03292181 </v>
   <v>       0.01646091 </v>
   <v>       0.00823045 </v>
   <v>       0.03292181 </v>
   <v>       0.03292181 </v>
   <v>       0.03292181 </v>
   <v>       0.03292181 </v>
   <v>       0.01646091 </v>
   <v>       0.00823045 </v>
   <v>       0.03292181 </v>
   <v>       0.03292181 </v>
   <v>       0.01646091 </v>
   <v>       0.00823045 </v>
   <v>       0.01646091 </v>
   <v>       0.03292181 </v>
   <v>       0.06584362 </v>
   <v>       0.06584362 </v>
   <v>       0.03292181 </v>
   <v>       0.06584362 </v>
   <v>       0.06584362 </v>
   <v>       0.03292181 </v>
   <v>       0.03292181 </v>
   <v>       0.03292181 </v>
   <v>       0.03292181 </v>
  </varray>
 </kpoints>
 <parameters>
  <separator name="general" >
   <i type="string" name="SYSTEM">unknown system</i>
   <i type="logical" name="LCOMPAT"> F  </i>
  </separator>
  <separator name="electronic" >
   <i type="string" name="PREC">accura</i>
   <i name="ENMAX">    350.00000000</i>
   <i name="ENAUG">    322.06900000</i>
   <i name="EDIFF">      0.00000010</i>
   <i type="int" name="IALGO">    38</i>
   <i type="int" name="IWAVPR">    11</i>
   <i type="int" name="NBANDS">    16</i>
   <i name="NELECT">      8.00000000</i>
   <i type="int" name="TURBO">     0</i>
   <i type="int" name="IRESTART">     0</i>
   <i type="int" name="NREBOOT">     0</i>
   <i type="int" name="NMIN">     0</i>
   <i name="EREF">      0.00000000</i>
   <separator name="electronic smearing" >
    <i type="int" name="ISMEAR">     0</i>
    <i name="SIGMA">      0.05000000</i>
    <i name="KSPACING">      0.50000000</i>
    <i type="logical" name="KGAMMA"> T  </i>
   </separator>
   <separator name="electronic projectors" >
    <i type="logical" name="LREAL"> F  </i>
    <v name="ROPT">      0.00000000</v>
    <i type="int" name="LMAXPAW">  -100</i>
    <i type="int" name="LMAXMIX">     2</i>
    <i type="logical" name="NLSPLINE"> F  </i>
   </separator>
   <separator name="electronic startup" >
    <i type="int" name="ISTART">     1</i>
    <i type="int" name="ICHARG">     0</i>
    <i type="int" name="INIWAV">     1</i>
   </separator>
   <separator name="electronic spin" >
    <i type="int" name="ISPIN">     1</i>
    <i type="logical" name="LNONCOLLINEAR"> F  </i>
    <v name="MAGMOM">      1.00000000      1.00000000</v>
    <i name="NUPDOWN">     -1.00000000</i>
    <i type="logical" name="LSORBIT"> F  </i>
    <v name="SAXIS">      0.00000000      0.00000000      1.00000000</v>
    <i type="logical" name="LSPIRAL"> F  </i>
    <v name="QSPIRAL">      0.00000000      0.00000000      0.00000000</v>
    <i type="logical" name="LZEROZ"> F  </i>
   </separator>
   <separator name="electronic exchange-correlation" >
    <i type="logical" name="LASPH"> F  </i>
    <i type="logical" name="LMETAGGA"> F  </i>
   </separator>
   <separator name="electronic convergence" >
    <i type="int" name="NELM">    60</i>
    <i type="int" name="NELMDL">     0</i>
    <i type="int" name="NELMIN">     2</i>
    <i name="ENINI">    350.00000000</i>
    <separator name="electronic convergence detail" >
     <i type="logical" name="LDIAG"> T  </i>
     <i type="logical" name="LSUBROT"> F  </i>
     <i name="WEIMIN">      0.00100000</i>
     <i name="EBREAK">      0.00000000</i>
     <i name="DEPER">      0.30000000</i>
     <i type="int" name="NRMM">     4</i>
     <i name="TIME">      0.40000000</i>
    </separator>
   </separator>
   <separator name="electronic mixer" >
    <i name="AMIX">      0.40000000</i>
    <i name="BMIX">      1.00000000</i>
    <i name="AMIN">      0.10000000</i>
    <i name="AMIX_MAG">      1.60000000</i>
    <i name="BMIX_MAG">      1.00000000</i>
    <separator name="electronic mixer details" >
     <i type="int" name="IMIX">     4</i>
     <i type="logical" name="MIXFIRST"> F  </i>
     <i type="int" name="MAXMIX">   -45</i>
     <i name="WC">    100.00000000</i>
     <i type="int" name="INIMIX">     1</i>
     <i type="int" name="MIXPRE">     1</i>
     <i type="int" name="MREMOVE">     5</i>
    </separator>
   </separator>
   <separator name="electronic dipolcorrection" >
    <i type="logical" name="LDIPOL"> F  </i>
    <i type="logical" name="LMONO"> F  </i>
    <i type="int" name="IDIPOL">     0</i>
    <i name="EPSILON">      1.00000000</i>
    <v name="DIPOL">   -100.00000000   -100.00000000   -100.00000000</v>
    <i name="EFIELD">      0.00000000</i>
   </separator>
  </separator>
  <separator name="grids" >
   <i type="int" name="NGX">    24</i>
   <i type="int" name="NGY">    24</i>
   <i type="int" name="NGZ">    24</i>
   <i type="int" name="NGXF">    48</i>
   <i type="int" name="NGYF">    48</i>
   <i type="int" name="NGZF">    48</i>
   <i type="logical" name="ADDGRID"> F  </i>
  </separator>
  <separator name="ionic" >
   <i type="int" name="NSW">    10</i>
   <i type="int" name="IBRION">     1</i>
   <i type="int" name="ISIF">     3</i>
   <i name="PSTRESS">      0.00000000</i>
   <i name="EDIFFG">      0.00000100</i>
   <i type="int" name="NFREE">     0</i>
   <i name="POTIM">      0.50000000</i>
   <i name="SMASS">     -3.00000000</i>
   <i name="SCALEE">      1.00000000</i>
  </separator>
  <separator name="ionic md" >
   <i name="TEBEG">      0.00010000</i>
   <i name="TEEND">      0.00010000</i>
   <i type="int" name="NBLOCK">     1</i>
   <i type="int" name="KBLOCK">    10</i>
   <i type="int" name="NPACO">   256</i>
   <i name="APACO">     16.00000000</i>
  </separator>
  <separator name="symmetry" >
   <i type="int" name="ISYM">     2</i>
   <i name="SYMPREC">      0.00001000</i>
  </separator>
  <separator name="dos" >
   <i type="logical" name="LORBIT"> T  </i>
   <v name="RWIGS">     -1.00000000</v>
   <i type="int" name="NEDOS">   301</i>
   <i name="EMIN">     10.00000000</i>
   <i name="EMAX">    -10.00000000</i>
   <i name="EFERMI">      0.00000000</i>
  </separator>
  <separator name="writing" >
   <i type="int" name="NWRITE">     2</i>
   <i type="logical" name="LWAVE"> T  </i>
   <i type="logical" name="LCHARG"> T  </i>
   <i type="logical" name="LPARD"> F  </i>
   <i type="logical" name="LVTOT"> F  </i>
   <i type="logical" name="LVHAR"> F  </i>
   <i type="logical" name="LELF"> F  </i>
   <i type="logical" name="LOPTICS"> F  </i>
   <v name="STM">      0.00000000      0.00000000      0.00000000      0.00000000      0.00000000      0.00000000      0.00000000</v>
  </separator>
  <separator name="performance" >
   <i type="int" name="NPAR">    16</i>
   <i type="int" name="NSIM">     4</i>
   <i type="int" name="NBLK">    -1</i>
   <i type="logical" name="LPLANE"> T  </i>
   <i type="logical" name="LSCALAPACK"> T  </i>
   <i type="logical" name="LSCAAWARE"> F  </i>
   <i type="logical" name="LSCALU"> F  </i>
   <i type="logical" name="LASYNC"> F  </i>
   <i type="logical" name="LORBITALREAL"> F  </i>
  </separator>
  <separator name="miscellaneous" >
   <i type="int" name="IDIOT">     3</i>
   <i type="logical" name="LMUSIC"> F  </i>
   <v name="POMASS">     28.08500000</v>
   <v name="DARWINR">      0.00000000</v>
   <v name="DARWINV">      1.00000000</v>
   <i type="logical" name="LCORR"> T  </i>
  </separator>
  <i type="logical" name="GGA_COMPAT"> T  </i>
  <i type="logical" name="LBERRY"> F  </i>
  <i type="int" name="ICORELEVEL">     0</i>
  <i type="logical" name="LDAU"> F  </i>
  <i type="int" name="I_CONSTRAINED_M">     0</i>
  <separator name="electronic exchange-correlation" >
   <i type="string" name="GGA">--</i>
   <i type="int" name="VOSKOWN">     0</i>
   <i type="logical" name="LHFCALC"> F  </i>
   <i type="string" name="PRECFOCK"></i>
   <i type="logical" name="LSYMGRAD"> F  </i>
   <i type="logical" name="LHFONE"> F  </i>
   <i type="logical" name="LRHFCALC"> F  </i>
   <i type="logical" name="LTHOMAS"> F  </i>
   <i type="logical" name="LMODELHF"> F  </i>
   <i name="ENCUT4O">     -1.00000000</i>
   <i type="int" name="EXXOEP">     0</i>
   <i type="int" name="FOURORBIT">     0</i>
   <i name="AEXX">      0.00000000</i>
   <i name="HFALPHA">      0.00000000</i>
   <i name="MCALPHA">      0.00000000</i>
   <i name="ALDAX">      1.00000000</i>
   <i name="AGGAX">      1.00000000</i>
   <i name="ALDAC">      1.00000000</i>
   <i name="AGGAC">      1.00000000</i>
   <i type="int" name="NKREDX">     1</i>
   <i type="int" name="NKREDY">     1</i>
   <i type="int" name="NKREDZ">     1</i>
   <i type="logical" name="SHIFTRED"> F  </i>
   <i type="logical" name="ODDONLY"> F  </i>
   <i type="logical" name="EVENONLY"> F  </i>
   <i type="int" name="LMAXFOCK">     0</i>
   <i type="int" name="NMAXFOCKAE">     0</i>
   <i type="logical" name="LFOCKAEDFT"> F  </i>
   <i name="HFSCREEN">      0.00000000</i>
   <i name="HFSCREENC">      0.00000000</i>
   <i type="int" name="NBANDSGWLOW">     0</i>
  </separator>
  <separator name="vdW DFT" >
   <i type="logical" name="LUSE_VDW"> F  </i>
   <i name="Zab_VDW">     -0.84910000</i>
   <i name="PARAM1">      0.12340000</i>
   <i name="PARAM2">      1.00000000</i>
   <i name="PARAM3">      0.00000000</i>
  </separator>
  <separator name="model GW" >
   <i type="int" name="MODEL_GW">     0</i>
   <i name="MODEL_EPS0">     12.01779143</i>
   <i name="MODEL_ALPHA">      1.00000000</i>
  </separator>
  <separator name="linear response parameters" >
   <i type="logical" name="LEPSILON"> F  </i>
   <i type="logical" name="LRPA"> F  </i>
   <i type="logical" name="LNABLA"> F  </i>
   <i type="logical" name="LVEL"> F  </i>
   <i type="int" name="KINTER">     0</i>
   <i name="CSHIFT">      0.10000000</i>
   <i name="OMEGAMAX">     -1.00000000</i>
   <i name="DEG_THRESHOLD">      0.00200000</i>
  </separator>
  <separator name="orbital magnetization" >
   <i type="logical" name="NUCIND"> F  </i>
   <v name="MAGPOS">      0.00000000      0.00000000      0.00000000</v>
   <i type="logical" name="LNICSALL"> T  </i>
   <i type="logical" name="ORBITALMAG"> F  </i>
   <i type="logical" name="LMAGBLOCH"> F  </i>
   <i type="logical" name="LCHIMAG"> F  </i>
   <i type="logical" name="LGAUGE"> T  </i>
   <i type="int" name="MAGATOM">     0</i>
   <v name="MAGDIPOL">      0.00000000      0.00000000      0.00000000</v>
   <v name="AVECCONST">      0.00000000      0.00000000      0.00000000</v>
  </separator>
  <separator name="response functions" >
   <i type="logical" name="LADDER"> F  </i>
   <i type="logical" name="LFXC"> F  </i>
   <i type="logical" name="LHARTREE"> T  </i>
   <i type="int" name="IBSE">     0</i>
   <v type="int" name="KPOINT">    -1     0     0     0</v>
   <i type="logical" name="LTCTE"> F  </i>
   <i type="logical" name="LTETE"> F  </i>
   <i type="logical" name="LTRIPLET"> F  </i>
   <i type="logical" name="LFXCEPS"> F  </i>
   <i type="logical" name="LFXHEG"> F  </i>
   <i type="int" name="NATURALO">     0</i>
   <i type="logical" name="L2ORDER"> F  </i>
   <i type="logical" name="LUSEW"> F  </i>
   <i name="ENCUTGW">     -2.00000000</i>
   <i name="ENCUTGWSOFT">     -2.00000000</i>
   <i name="ENCUTLF">     -1.00000000</i>
   <i type="int" name="LMAXMP2">    -1</i>
   <i name="SCISSOR">      0.00000000</i>
   <i type="int" name="NOMEGA">     0</i>
   <i type="int" name="NOMEGAR">     0</i>
   <i type="int" name="NBANDSGW">    -1</i>
   <i type="int" name="NBANDSO">    -1</i>
   <i type="int" name="NBANDSV">    -1</i>
   <i type="int" name="NELM">     1</i>
   <i type="int" name="NELMHF">     1</i>
   <i type="int" name="DIM">     3</i>
   <i type="int" name="ANTIRES">     0</i>
   <i name="OMEGAMAX">    -30.00000000</i>
   <i name="OMEGAMIN">    -30.00000000</i>
   <i name="OMEGATL">   -200.00000000</i>
   <i type="int" name="OMEGAGRID">     0</i>
   <i name="CSHIFT">     -0.10000000</i>
   <i type="logical" name="SELFENERGY"> F  </i>
   <i type="logical" name="LSPECTRAL"> F  </i>
   <i type="logical" name="LSPECTRALGW"> F  </i>
   <i type="logical" name="LSINGLES"> F  </i>
   <i type="logical" name="LFERMIGW"> F  </i>
   <i type="logical" name="ODDONLYGW"> F  </i>
   <i type="logical" name="EVENONLYGW"> F  </i>
   <i type="int" name="NKREDLFX">     1</i>
   <i type="int" name="NKREDLFY">     1</i>
   <i type="int" name="NKREDLFZ">     1</i>
   <i type="int" name="MAXMEM">  1800</i>
   <i type="int" name="TELESCOPE">     0</i>
   <i type="int" name="TAUPAR">     1</i>
   <i type="int" name="OMEGAPAR">    -1</i>
   <i name="LAMBDA">      1.00000000</i>
  </separator>
  <separator name="External order field" >
   <i name="OFIELD_KAPPA">      0.00000000</i>
   <v name="OFIELD_K">      0.00000000      0.00000000      0.00000000</v>
   <i name="OFIELD_Q6_NEAR">      0.00000000</i>
   <i name="OFIELD_Q6_FAR">      0.00000000</i>
   <i name="OFIELD_A">      0.00000000</i>
  </separator>
 </parameters>
 <atominfo>
  <atoms>       2 </atoms>
  <types>       1 </types>
  <array name="atoms" >
   <dimension dim="1">ion</dimension>
   <field type="string">element</field>
   <field type="int">atomtype</field>
   <set>
    <rc><c>Si</c><c>   1</c></rc>
    <rc><c>Si</c><c>   1</c></rc>
   </set>
  </array>
  <array name="atomtypes" >
   <dimension dim="1">type</dimension>
   <field type="int">atomspertype</field>
   <field type="string">element</field>
   <field>mass</field>
   <field>valence</field>
   <field type="string">pseudopotential</field>
   <set>
    <rc><c>   2</c><c>Si</c><c>     28.08500000</c><c>      4.00000000</c><c>  PAW_PBE Si 05Jan2001                  </c></rc>
   </set>
  </array>
 </atominfo>
 <structure name="initialpos" >
  <crystal>
   <varray name="basis" >
    <v>      -0.00000000       2.71575844       2.71575844 </v>
    <v>       2.71575844      -0.00000000       2.71575844 </v>
    <v>       2.71575844       2.71575844      -0.00000000 </v>
   </varray>
   <i name="volume">     40.05930478 </i>
   <varray name="rec_basis" >
    <v>      -0.18411063       0.18411063       0.18411063 </v>
    <v>       0.18411063      -0.18411063       0.18411063 </v>
    <v>       0.18411063       0.18411063      -0.18411063 </v>
   </varray>
  </crystal>
  <varray name="positions" >
   <v>       0.00000000       0.00000000       0.00000000 </v>
   <v>       0.25000000       0.25000000       0.25000000 </v>
  </varray>
 </structure>
 <calculation>
  <scstep>
   <time name="dav">    0.57    0.57</time>
   <time name="total">    0.64    0.66</time>
   <energy>
    <i name="alphaZ">      3.36132951 </i>
    <i name="ewald">   -228.49969339 </i>
    <i name="hartreedc">    -15.22274264 </i>
    <i name="XCdc">    -17.94881978 </i>
    <i name="pawpsdc">    837.08324077 </i>
    <i name="pawaedc">   -802.14912691 </i>
    <i name="eentropy">     -0.00000000 </i>
    <i name="bandstr">      6.40174779 </i>
    <i name="atom">    206.13125414 </i>
    <i name="e_fr_energy">    -10.84281051 </i>
    <i name="e_wo_entrp">    -10.84281051 </i>
    <i name="e_0_energy">    -10.84281051 </i>
   </energy>
  </scstep>
  <scstep>
   <time name="dav">    0.64    0.64</time>
   <time name="total">    0.70    0.71</time>
   <energy>
    <i name="e_fr_energy">    -10.84185186 </i>
    <i name="e_wo_entrp">    -10.84185186 </i>
    <i name="e_0_energy">    -10.84185186 </i>
   </energy>
  </scstep>
  <scstep>
   <time name="dav">    0.97    0.99</time>
   <time name="total">    1.03    1.07</time>
   <energy>
    <i name="e_fr_energy">    -10.84136405 </i>
    <i name="e_wo_entrp">    -10.84136405 </i>
    <i name="e_0_energy">    -10.84136405 </i>
   </energy>
  </scstep>
  <scstep>
   <time name="dav">    0.88    0.88</time>
   <time name="total">    0.93    0.96</time>
   <energy>
    <i name="e_fr_energy">    -10.84136780 </i>
    <i name="e_wo_entrp">    -10.84136780 </i>
    <i name="e_0_energy">    -10.84136780 </i>
   </energy>
  </scstep>
  <scstep>
   <time name="dav">    1.01    1.01</time>
   <time name="total">    1.08    1.46</time>
   <energy>
    <i name="e_fr_energy">    -10.84136858 </i>
    <i name="e_wo_entrp">    -10.84136858 </i>
    <i name="e_0_energy">    -10.84136858 </i>
   </energy>
  </scstep>
  <scstep>
   <time name="dav">    0.96    0.96</time>
   <time name="total">    1.02    1.07</time>
   <energy>
    <i name="e_fr_energy">    -10.84136848 </i>
    <i name="e_wo_entrp">    -10.84136848 </i>
    <i name="e_0_energy">    -10.84136848 </i>
   </energy>
  </scstep>
  <scstep>
   <time name="dav">    1.02    1.02</time>
   <time name="total">    1.05    1.07</time>
   <energy>
    <i name="alphaZ">      3.36132951 </i>
    <i name="ewald">   -228.49969339 </i>
    <i name="hartreedc">    -14.93228428 </i>
    <i name="XCdc">    -17.96406599 </i>
    <i name="pawpsdc">    877.80227481 </i>
    <i name="pawaedc">   -842.83996171 </i>
    <i name="eentropy">     -0.00000000 </i>
    <i name="bandstr">      6.09977842 </i>
    <i name="atom">    206.13125414 </i>
    <i name="e_fr_energy">    -10.84136848 </i>
    <i name="e_wo_entrp">    -10.84136848 </i>
    <i name="e_0_energy">    -10.84136848 </i>
   </energy>
  </scstep>
  <structure>
   <crystal>
    <varray name="basis" >
     <v>      -0.00000000       2.71575844       2.71575844 </v>
     <v>       2.71575844      -0.00000000       2.71575844 </v>
     <v>       2.71575844       2.71575844      -0.00000000 </v>
    </varray>
    <i name="volume">     40.05930478 </i>
    <varray name="rec_basis" >
     <v>      -0.18411063       0.18411063       0.18411063 </v>
     <v>       0.18411063      -0.18411063       0.18411063 </v>
     <v>       0.18411063       0.18411063      -0.18411063 </v>
    </varray>
   </crystal>
   <varray name="positions" >
    <v>       0.00000000       0.00000000       0.00000000 </v>
    <v>       0.25000000       0.25000000       0.25000000 </v>
   </varray>
  </structure>
  <varray name="forces" >
   <v>       0.00000000       0.00000000       0.00000000 </v>
   <v>      -0.00000000      -0.00000000      -0.00000000 </v>
  </varray>
  <varray name="stress" >
   <v>      18.53686731      -0.00000000      -0.00000000 </v>
   <v>      -0.00000000      18.53686731       0.00000000 </v>
   <v>       0.00000000      -0.00000000      18.53686731 </v>
  </varray>
  <energy>
   <i name="e_fr_energy">    -10.84136848 </i>
   <i name="e_wo_entrp">    -10.84136848 </i>
   <i name="e_0_energy">     -0.00000000 </i>
  </energy>
  <time name="totalsc">    7.03    7.95</time>
 </calculation>
 <calculation>
  <scstep>
   <time name="dav">    0.63    0.63</time>
   <time name="total">    0.68    0.69</time>
   <energy>
    <i name="alphaZ">      3.25106800 </i>
    <i name="ewald">   -225.97337757 </i>
    <i name="hartreedc">    -14.76721092 </i>
    <i name="XCdc">    -18.12737172 </i>
    <i name="pawpsdc">    877.81453301 </i>
    <i name="pawaedc">   -842.85222341 </i>
    <i name="eentropy">     -0.00000000 </i>
    <i name="bandstr">      3.67324879 </i>
    <i name="atom">    206.13125414 </i>
    <i name="e_fr_energy">    -10.85007968 </i>
    <i name="e_wo_entrp">    -10.85007968 </i>
    <i name="e_0_energy">    -10.85007968 </i>
   </energy>
  </scstep>
  <scstep>
   <time name="dav">    0.61    0.61</time>
   <time name="total">    0.66    0.80</time>
   <energy>
    <i name="e_fr_energy">    -10.84597265 </i>
    <i name="e_wo_entrp">    -10.84597265 </i>
    <i name="e_0_energy">    -10.84597265 </i>
   </energy>
  </scstep>
  <scstep>
   <time name="dav">    0.70    0.70</time>
   <time name="total">    0.76    0.79</time>
   <energy>
    <i name="e_fr_energy">    -10.84386178 </i>
    <i name="e_wo_entrp">    -10.84386178 </i>
    <i name="e_0_energy">    -10.84386178 </i>
   </energy>
  </scstep>
  <scstep>
   <time name="dav">    0.87    0.87</time>
   <time name="total">    0.93    0.94</time>
   <energy>
    <i name="e_fr_energy">    -10.84386160 </i>
    <i name="e_wo_entrp">    -10.84386160 </i>
    <i name="e_0_energy">    -10.84386160 </i>
   </energy>
  </scstep>
  <scstep>
   <time name="dav">    0.82    0.83</time>
   <time name="total">    0.88    0.90</time>
   <energy>
    <i name="e_fr_energy">    -10.84385079 </i>
    <i name="e_wo_entrp">    -10.84385079 </i>
    <i name="e_0_energy">    -10.84385079 </i>
   </energy>
  </scstep>
  <scstep>
   <time name="dav">    0.84    0.85</time>
   <time name="total">    0.91    0.92</time>
   <energy>
    <i name="e_fr_energy">    -10.84384937 </i>
    <i name="e_wo_entrp">    -10.84384937 </i>
    <i name="e_0_energy">    -10.84384937 </i>
   </energy>
  </scstep>
  <scstep>
   <time name="dav">    0.78    0.80</time>
   <time name="total">    0.84    0.90</time>
   <energy>
    <i name="e_fr_energy">    -10.84384960 </i>
    <i name="e_wo_entrp">    -10.84384960 </i>
    <i name="e_0_energy">    -10.84384960 </i>
   </energy>
  </scstep>
  <scstep>
   <time name="dav">    0.67    0.67</time>
   <time name="total">    0.71    0.76</time>
   <energy>
    <i name="alphaZ">      3.25106800 </i>
    <i name="ewald">   -225.97337757 </i>
    <i name="hartreedc">    -15.33073395 </i>
    <i name="XCdc">    -18.11615289 </i>
    <i name="pawpsdc">    817.91185015 </i>
    <i name="pawaedc">   -782.92090651 </i>
    <i name="eentropy">     -0.00000000 </i>
    <i name="bandstr">      4.20314900 </i>
    <i name="atom">    206.13125414 </i>
    <i name="e_fr_energy">    -10.84384963 </i>
    <i name="e_wo_entrp">    -10.84384963 </i>
    <i name="e_0_energy">    -10.84384963 </i>
   </energy>
  </scstep>
  <structure>
   <crystal>
    <varray name="basis" >
     <v>       0.00000000       2.74611982       2.74611982 </v>
     <v>       2.74611982      -0.00000000       2.74611982 </v>
     <v>       2.74611982       2.74611982       0.00000000 </v>
    </varray>
    <i name="volume">     41.41793498 </i>
    <varray name="rec_basis" >
     <v>      -0.18207509       0.18207509       0.18207509 </v>
     <v>       0.18207509      -0.18207509       0.18207509 </v>
     <v>       0.18207509       0.18207509      -0.18207509 </v>
    </varray>
   </crystal>
   <varray name="positions" >
    <v>      -0.00000000       0.00000000       0.00000000 </v>
    <v>       0.25000000       0.25000000       0.25000000 </v>
   </varray>
  </structure>
  <varray name="forces" >
   <v>       0.00000000      -0.00000000       0.00000000 </v>
   <v>      -0.00000000       0.00000000      -0.00000000 </v>
  </varray>
  <varray name="stress" >
   <v>     -11.70593672      -0.00000000      -0.00000000 </v>
   <v>      -0.00000000     -11.70593672      -0.00000000 </v>
   <v>      -0.00000000      -0.00000000     -11.70593672 </v>
  </varray>
  <energy>
   <i name="e_fr_energy">    -10.84384963 </i>
   <i name="e_wo_entrp">    -10.84384963 </i>
   <i name="e_0_energy">     -0.00000000 </i>
  </energy>
  <time name="totalsc">    6.79    7.30</time>
 </calculation>
 <calculation>
  <scstep>
   <time name="dav">    0.63    0.63</time>
   <time name="total">    0.69    0.70</time>
   <energy>
    <i name="alphaZ">      3.29432927 </i>
    <i name="ewald">   -226.97129060 </i>
    <i name="hartreedc">    -15.39859404 </i>
    <i name="XCdc">    -18.05196686 </i>
    <i name="pawpsdc">    818.70653333 </i>
    <i name="pawaedc">   -783.71555147 </i>
    <i name="eentropy">     -0.00000000 </i>
    <i name="bandstr">      5.15840582 </i>
    <i name="atom">    206.13125414 </i>
    <i name="e_fr_energy">    -10.84688040 </i>
    <i name="e_wo_entrp">    -10.84688040 </i>
    <i name="e_0_energy">    -10.84688040 </i>
   </energy>
  </scstep>
  <scstep>
   <time name="dav">    0.57    0.57</time>
   <time name="total">    0.66    0.80</time>
   <energy>
    <i name="e_fr_energy">    -10.84623421 </i>
    <i name="e_wo_entrp">    -10.84623421 </i>
    <i name="e_0_energy">    -10.84623421 </i>
   </energy>
  </scstep>
  <scstep>
   <time name="dav">    0.66    0.66</time>
   <time name="total">    0.72    0.73</time>
   <energy>
    <i name="e_fr_energy">    -10.84591052 </i>
    <i name="e_wo_entrp">    -10.84591052 </i>
    <i name="e_0_energy">    -10.84591052 </i>
   </energy>
  </scstep>
  <scstep>
   <time name="dav">    0.84    0.84</time>
   <time name="total">    0.90    0.93</time>
   <energy>
    <i name="e_fr_energy">    -10.84591115 </i>
    <i name="e_wo_entrp">    -10.84591115 </i>
    <i name="e_0_energy">    -10.84591115 </i>
   </energy>
  </scstep>
  <scstep>
   <time name="dav">    0.73    0.73</time>
   <time name="total">    0.82    1.26</time>
   <energy>
    <i name="e_fr_energy">    -10.84591271 </i>
    <i name="e_wo_entrp">    -10.84591271 </i>
    <i name="e_0_energy">    -10.84591271 </i>
   </energy>
  </scstep>
  <scstep>
   <time name="dav">    0.80    0.80</time>
   <time name="total">    0.86    0.89</time>
   <energy>
    <i name="e_fr_energy">    -10.84591356 </i>
    <i name="e_wo_entrp">    -10.84591356 </i>
    <i name="e_0_energy">    -10.84591356 </i>
   </energy>
  </scstep>
  <scstep>
   <time name="dav">    0.63    0.63</time>
   <time name="total">    0.65    0.66</time>
   <energy>
    <i name="alphaZ">      3.29432927 </i>
    <i name="ewald">   -226.97129060 </i>
    <i name="hartreedc">    -15.17237287 </i>
    <i name="XCdc">    -18.05604848 </i>
    <i name="pawpsdc">    841.84866887 </i>
    <i name="pawaedc">   -806.86881190 </i>
    <i name="eentropy">     -0.00000000 </i>
    <i name="bandstr">      4.94835801 </i>
    <i name="atom">    206.13125414 </i>
    <i name="e_fr_energy">    -10.84591357 </i>
    <i name="e_wo_entrp">    -10.84591357 </i>
    <i name="e_0_energy">    -10.84591357 </i>
   </energy>
  </scstep>
  <structure>
   <crystal>
    <varray name="basis" >
     <v>      -0.00000000       2.73404609       2.73404609 </v>
     <v>       2.73404609      -0.00000000       2.73404609 </v>
     <v>       2.73404609       2.73404609      -0.00000000 </v>
    </varray>
    <i name="volume">     40.87403303 </i>
    <varray name="rec_basis" >
     <v>      -0.18287914       0.18287914       0.18287914 </v>
     <v>       0.18287914      -0.18287914       0.18287914 </v>
     <v>       0.18287914       0.18287914      -0.18287914 </v>
    </varray>
   </crystal>
   <varray name="positions" >
    <v>      -0.00000000       0.00000000       0.00000000 </v>
    <v>       0.25000000       0.25000000       0.25000000 </v>
   </varray>
  </structure>
  <varray name="forces" >
   <v>       0.00000000       0.00000000       0.00000000 </v>
   <v>      -0.00000000      -0.00000000      -0.00000000 </v>
  </varray>
  <varray name="stress" >
   <v>      -0.23140679      -0.00000000      -0.00000000 </v>
   <v>      -0.00000000      -0.23140679      -0.00000000 </v>
   <v>       0.00000000       0.00000000      -0.23140679 </v>
  </varray>
  <energy>
   <i name="e_fr_energy">    -10.84591357 </i>
   <i name="e_wo_entrp">    -10.84591357 </i>
   <i name="e_0_energy">     -0.00000000 </i>
  </energy>
  <time name="totalsc">    5.71    6.59</time>
 </calculation>
 <calculation>
  <scstep>
   <time name="dav">    0.70    0.70</time>
   <time name="total">    0.81    0.83</time>
   <energy>
    <i name="alphaZ">      3.29519390 </i>
    <i name="ewald">   -226.99114597 </i>
    <i name="hartreedc">    -15.17368951 </i>
    <i name="XCdc">    -18.05477399 </i>
    <i name="pawpsdc">    841.88880257 </i>
    <i name="pawaedc">   -806.90893131 </i>
    <i name="eentropy">     -0.00000000 </i>
    <i name="bandstr">      4.96737544 </i>
    <i name="atom">    206.13125414 </i>
    <i name="e_fr_energy">    -10.84591471 </i>
    <i name="e_wo_entrp">    -10.84591471 </i>
    <i name="e_0_energy">    -10.84591471 </i>
   </energy>
  </scstep>
  <scstep>
   <time name="dav">    0.60    0.61</time>
   <time name="total">    0.66    0.68</time>
   <energy>
    <i name="e_fr_energy">    -10.84591454 </i>
    <i name="e_wo_entrp">    -10.84591454 </i>
    <i name="e_0_energy">    -10.84591454 </i>
   </energy>
  </scstep>
  <scstep>
   <time name="dav">    0.66    0.66</time>
   <time name="total">    0.68    0.73</time>
   <energy>
    <i name="alphaZ">      3.29519390 </i>
    <i name="ewald">   -226.99114597 </i>
    <i name="hartreedc">    -15.16913990 </i>
    <i name="XCdc">    -18.05492034 </i>
    <i name="pawpsdc">    842.12193432 </i>
    <i name="pawaedc">   -807.14224658 </i>
    <i name="eentropy">     -0.00000000 </i>
    <i name="bandstr">      4.96315585 </i>
    <i name="atom">    206.13125414 </i>
    <i name="e_fr_energy">    -10.84591456 </i>
    <i name="e_wo_entrp">    -10.84591456 </i>
    <i name="e_0_energy">    -10.84591456 </i>
   </energy>
  </scstep>
  <structure>
   <crystal>
    <varray name="basis" >
     <v>      -0.00000000       2.73380694       2.73380694 </v>
     <v>       2.73380694      -0.00000000       2.73380694 </v>
     <v>       2.73380694       2.73380694      -0.00000000 </v>
    </varray>
    <i name="volume">     40.86330796 </i>
    <varray name="rec_basis" >
     <v>      -0.18289514       0.18289514       0.18289514 </v>
     <v>       0.18289514      -0.18289514       0.18289514 </v>
     <v>       0.18289514       0.18289514      -0.18289514 </v>
    </varray>
   </crystal>
   <varray name="positions" >
    <v>       0.00000000       0.00000000       0.00000000 </v>
    <v>       0.25000000       0.25000000       0.25000000 </v>
   </varray>
  </structure>
  <varray name="forces" >
   <v>       0.00000000       0.00000000       0.00000000 </v>
   <v>      -0.00000000      -0.00000000      -0.00000000 </v>
  </varray>
  <varray name="stress" >
   <v>       0.00056726      -0.00000000       0.00000000 </v>
   <v>       0.00000000       0.00056726       0.00000000 </v>
   <v>      -0.00000000      -0.00000000       0.00056726 </v>
  </varray>
  <energy>
   <i name="e_fr_energy">    -10.84591456 </i>
   <i name="e_wo_entrp">    -10.84591456 </i>
   <i name="e_0_energy">     -0.00000000 </i>
  </energy>
  <time name="totalsc">    2.57    2.83</time>
  <eigenvalues>
   <array>
    <dimension dim="1">band</dimension>
    <dimension dim="2">kpoint</dimension>
    <dimension dim="3">spin</dimension>
    <field>eigene</field>
    <field>occ</field>
    <set>
     <set comment="spin 1">
      <set comment="kpoint 1">
       <r>   -6.1962    1.0000 </r>
       <r>    5.6236    1.0000 </r>
       <r>    5.6236    1.0000 </r>
       <r>    5.6236    1.0000 </r>
       <r>    8.1810    0.0000 </r>
       <r>    8.1810    0.0000 </r>
       <r>    8.1810    0.0000 </r>
       <r>    8.7634    0.0000 </r>
       <r>   13.3365    0.0000 </r>
       <r>   13.3365    0.0000 </r>
       <r>   13.5030    0.0000 </r>
       <r>   16.8103    0.0000 </r>
       <r>   16.8103    0.0000 </r>
       <r>   16.8103    0.0000 </r>
       <r>   20.9012    0.0000 </r>
       <r>   28.5130    0.0000 </r>
      </set>
      <set comment="kpoint 2">
       <r>   -6.0375    1.0000 </r>
       <r>    4.2844    1.0000 </r>
       <r>    5.3913    1.0000 </r>
       <r>    5.3913    1.0000 </r>
       <r>    8.1153    0.0000 </r>
       <r>    8.5241    0.0000 </r>
       <r>    8.5241    0.0000 </r>
       <r>    9.9202    0.0000 </r>
       <r>   12.9334    0.0000 </r>
       <r>   12.9334    0.0000 </r>
       <r>   14.1412    0.0000 </r>
       <r>   16.3267    0.0000 </r>
       <r>   17.7473    0.0000 </r>
       <r>   17.7473    0.0000 </r>
       <r>   21.8957    0.0000 </r>
       <r>   26.8583    0.0000 </r>
      </set>
      <set comment="kpoint 3">
       <r>   -5.5715    1.0000 </r>
       <r>    2.2336    1.0000 </r>
       <r>    4.9740    1.0000 </r>
       <r>    4.9740    1.0000 </r>
       <r>    7.6910    0.0000 </r>
       <r>    9.0488    0.0000 </r>
       <r>    9.0488    0.0000 </r>
       <r>   11.9016    0.0000 </r>
       <r>   12.7089    0.0000 </r>
       <r>   12.7089    0.0000 </r>
       <r>   14.6559    0.0000 </r>
       <r>   16.8198    0.0000 </r>
       <r>   19.6788    0.0000 </r>
       <r>   19.6788    0.0000 </r>
       <r>   23.5240    0.0000 </r>
       <r>   23.9443    0.0000 </r>
      </set>
      <set comment="kpoint 4">
       <r>   -4.8453    1.0000 </r>
       <r>    0.3516    1.0000 </r>
       <r>    4.6402    1.0000 </r>
       <r>    4.6402    1.0000 </r>
       <r>    7.3186    0.0000 </r>
       <r>    9.1289    0.0000 </r>
       <r>    9.1289    0.0000 </r>
       <r>   13.4102    0.0000 </r>
       <r>   13.5837    0.0000 </r>
       <r>   13.5837    0.0000 </r>
       <r>   14.6090    0.0000 </r>
       <r>   19.0577    0.0000 </r>
       <r>   20.1017    0.0000 </r>
       <r>   20.1017    0.0000 </r>
       <r>   22.2259    0.0000 </r>
       <r>   23.1443    0.0000 </r>
      </set>
      <set comment="kpoint 5">
       <r>   -4.0736    1.0000 </r>
       <r>   -1.0159    1.0000 </r>
       <r>    4.4660    1.0000 </r>
       <r>    4.4660    1.0000 </r>
       <r>    7.1184    0.0000 </r>
       <r>    8.9985    0.0000 </r>
       <r>    8.9985    0.0000 </r>
       <r>   13.3636    0.0000 </r>
       <r>   15.3346    0.0000 </r>
       <r>   15.3346    0.0000 </r>
       <r>   16.2670    0.0000 </r>
       <r>   17.7376    0.0000 </r>
       <r>   17.7376    0.0000 </r>
       <r>   18.8763    0.0000 </r>
       <r>   23.4343    0.0000 </r>
       <r>   25.7422    0.0000 </r>
      </set>
      <set comment="kpoint 6">
       <r>   -5.9842    1.0000 </r>
       <r>    4.4954    1.0000 </r>
       <r>    4.9625    1.0000 </r>
       <r>    4.9625    1.0000 </r>
       <r>    7.7360    0.0000 </r>
       <r>    9.1033    0.0000 </r>
       <r>    9.1033    0.0000 </r>
       <r>    9.7340    0.0000 </r>
       <r>   12.2372    0.0000 </r>
       <r>   13.5752    0.0000 </r>
       <r>   14.3680    0.0000 </r>
       <r>   17.1804    0.0000 </r>
       <r>   17.1804    0.0000 </r>
       <r>   17.6149    0.0000 </r>
       <r>   22.3488    0.0000 </r>
       <r>   26.3835    0.0000 </r>
      </set>
      <set comment="kpoint 7">
       <r>   -5.6185    1.0000 </r>
       <r>    2.8387    1.0000 </r>
       <r>    4.4973    1.0000 </r>
       <r>    4.6232    1.0000 </r>
       <r>    7.8217    0.0000 </r>
       <r>    9.0903    0.0000 </r>
       <r>    9.8077    0.0000 </r>
       <r>   10.4973    0.0000 </r>
       <r>   12.5639    0.0000 </r>
       <r>   13.6243    0.0000 </r>
       <r>   15.3368    0.0000 </r>
       <r>   16.8567    0.0000 </r>
       <r>   18.3514    0.0000 </r>
       <r>   19.4624    0.0000 </r>
       <r>   23.7697    0.0000 </r>
       <r>   23.8767    0.0000 </r>
      </set>
      <set comment="kpoint 8">
       <r>   -4.9701    1.0000 </r>
       <r>    0.9630    1.0000 </r>
       <r>    4.1238    1.0000 </r>
       <r>    4.1960    1.0000 </r>
       <r>    7.9245    0.0000 </r>
       <r>    9.0806    0.0000 </r>
       <r>    9.9849    0.0000 </r>
       <r>   10.9463    0.0000 </r>
       <r>   14.2969    0.0000 </r>
       <r>   14.3565    0.0000 </r>
       <r>   15.1416    0.0000 </r>
       <r>   18.4353    0.0000 </r>
       <r>   19.5379    0.0000 </r>
       <r>   20.9166    0.0000 </r>
       <r>   21.8158    0.0000 </r>
       <r>   22.6980    0.0000 </r>
      </set>
      <set comment="kpoint 9">
       <r>   -4.1620    1.0000 </r>
       <r>   -0.5971    1.0000 </r>
       <r>    3.6949    1.0000 </r>
       <r>    4.1134    1.0000 </r>
       <r>    7.7934    0.0000 </r>
       <r>    9.0067    0.0000 </r>
       <r>    9.7181    0.0000 </r>
       <r>   12.3616    0.0000 </r>
       <r>   14.5640    0.0000 </r>
       <r>   15.8804    0.0000 </r>
       <r>   16.5371    0.0000 </r>
       <r>   17.4701    0.0000 </r>
       <r>   18.2547    0.0000 </r>
       <r>   20.9304    0.0000 </r>
       <r>   22.6646    0.0000 </r>
       <r>   23.9065    0.0000 </r>
      </set>
      <set comment="kpoint 10">
       <r>   -3.7941    1.0000 </r>
       <r>   -1.1554    1.0000 </r>
       <r>    3.4418    1.0000 </r>
       <r>    4.2493    1.0000 </r>
       <r>    7.7904    0.0000 </r>
       <r>    9.0369    0.0000 </r>
       <r>    9.4609    0.0000 </r>
       <r>   13.7402    0.0000 </r>
       <r>   14.6115    0.0000 </r>
       <r>   14.9870    0.0000 </r>
       <r>   16.4507    0.0000 </r>
       <r>   18.1852    0.0000 </r>
       <r>   18.5912    0.0000 </r>
       <r>   19.2514    0.0000 </r>
       <r>   24.0687    0.0000 </r>
       <r>   25.4497    0.0000 </r>
      </set>
      <set comment="kpoint 11">
       <r>   -4.4338    1.0000 </r>
       <r>   -0.1304    1.0000 </r>
       <r>    3.4114    1.0000 </r>
       <r>    4.5729    1.0000 </r>
       <r>    7.9692    0.0000 </r>
       <r>    9.2613    0.0000 </r>
       <r>    9.3363    0.0000 </r>
       <r>   12.9476    0.0000 </r>
       <r>   13.0765    0.0000 </r>
       <r>   14.9050    0.0000 </r>
       <r>   16.7314    0.0000 </r>
       <r>   17.5678    0.0000 </r>
       <r>   20.1000    0.0000 </r>
       <r>   20.6189    0.0000 </r>
       <r>   21.9218    0.0000 </r>
       <r>   23.0538    0.0000 </r>
      </set>
      <set comment="kpoint 12">
       <r>   -5.2163    1.0000 </r>
       <r>    1.5678    1.0000 </r>
       <r>    3.6449    1.0000 </r>
       <r>    5.0144    1.0000 </r>
       <r>    8.2895    0.0000 </r>
       <r>    9.1176    0.0000 </r>
       <r>    9.3933    0.0000 </r>
       <r>   11.6345    0.0000 </r>
       <r>   12.0012    0.0000 </r>
       <r>   14.7307    0.0000 </r>
       <r>   15.3859    0.0000 </r>
       <r>   17.5392    0.0000 </r>
       <r>   19.3180    0.0000 </r>
       <r>   21.2627    0.0000 </r>
       <r>   21.4664    0.0000 </r>
       <r>   23.8183    0.0000 </r>
      </set>
      <set comment="kpoint 13">
       <r>   -5.7755    1.0000 </r>
       <r>    3.3064    1.0000 </r>
       <r>    4.2900    1.0000 </r>
       <r>    5.4015    1.0000 </r>
       <r>    8.5661    0.0000 </r>
       <r>    8.6185    0.0000 </r>
       <r>    8.8185    0.0000 </r>
       <r>   10.8824    0.0000 </r>
       <r>   12.1198    0.0000 </r>
       <r>   13.3569    0.0000 </r>
       <r>   15.0003    0.0000 </r>
       <r>   16.6865    0.0000 </r>
       <r>   17.6526    0.0000 </r>
       <r>   19.4835    0.0000 </r>
       <r>   23.1946    0.0000 </r>
       <r>   23.9066    0.0000 </r>
      </set>
      <set comment="kpoint 14">
       <r>   -5.3540    1.0000 </r>
       <r>    2.5972    1.0000 </r>
       <r>    3.9858    1.0000 </r>
       <r>    3.9858    1.0000 </r>
       <r>    6.9497    0.0000 </r>
       <r>    9.1683    0.0000 </r>
       <r>   10.8410    0.0000 </r>
       <r>   10.8410    0.0000 </r>
       <r>   12.9583    0.0000 </r>
       <r>   14.2827    0.0000 </r>
       <r>   16.3573    0.0000 </r>
       <r>   18.2290    0.0000 </r>
       <r>   18.2290    0.0000 </r>
       <r>   18.8792    0.0000 </r>
       <r>   23.4898    0.0000 </r>
       <r>   23.4898    0.0000 </r>
      </set>
      <set comment="kpoint 15">
       <r>   -4.7949    1.0000 </r>
       <r>    1.2875    1.0000 </r>
       <r>    3.3689    1.0000 </r>
       <r>    3.6488    1.0000 </r>
       <r>    7.1029    0.0000 </r>
       <r>    8.7981    0.0000 </r>
       <r>   11.0726    0.0000 </r>
       <r>   11.4145    0.0000 </r>
       <r>   14.7221    0.0000 </r>
       <r>   14.9645    0.0000 </r>
       <r>   16.9203    0.0000 </r>
       <r>   18.6147    0.0000 </r>
       <r>   19.0547    0.0000 </r>
       <r>   20.4931    0.0000 </r>
       <r>   21.4420    0.0000 </r>
       <r>   22.2379    0.0000 </r>
      </set>
      <set comment="kpoint 16">
       <r>   -4.0117    1.0000 </r>
       <r>   -0.1541    1.0000 </r>
       <r>    2.6388    1.0000 </r>
       <r>    3.5515    1.0000 </r>
       <r>    7.2883    0.0000 </r>
       <r>    9.8041    0.0000 </r>
       <r>   10.8229    0.0000 </r>
       <r>   11.2382    0.0000 </r>
       <r>   16.1268    0.0000 </r>
       <r>   16.4731    0.0000 </r>
       <r>   17.0050    0.0000 </r>
       <r>   17.3854    0.0000 </r>
       <r>   18.6457    0.0000 </r>
       <r>   21.2482    0.0000 </r>
       <r>   22.5759    0.0000 </r>
       <r>   24.2149    0.0000 </r>
      </set>
      <set comment="kpoint 17">
       <r>   -3.3738    1.0000 </r>
       <r>   -1.0727    1.0000 </r>
       <r>    2.1280    1.0000 </r>
       <r>    3.7028    1.0000 </r>
       <r>    7.4344    0.0000 </r>
       <r>   10.5914    0.0000 </r>
       <r>   10.8633    0.0000 </r>
       <r>   11.7531    0.0000 </r>
       <r>   14.6837    0.0000 </r>
       <r>   14.8944    0.0000 </r>
       <r>   17.6199    0.0000 </r>
       <r>   18.6988    0.0000 </r>
       <r>   19.2854    0.0000 </r>
       <r>   22.1073    0.0000 </r>
       <r>   23.8009    0.0000 </r>
       <r>   24.1403    0.0000 </r>
      </set>
      <set comment="kpoint 18">
       <r>   -3.7756    1.0000 </r>
       <r>   -0.5090    1.0000 </r>
       <r>    1.9539    1.0000 </r>
       <r>    4.0760    1.0000 </r>
       <r>    7.8090    0.0000 </r>
       <r>   10.5242    0.0000 </r>
       <r>   10.5357    0.0000 </r>
       <r>   12.7420    0.0000 </r>
       <r>   12.8873    0.0000 </r>
       <r>   14.0297    0.0000 </r>
       <r>   17.6397    0.0000 </r>
       <r>   19.7813    0.0000 </r>
       <r>   20.4383    0.0000 </r>
       <r>   21.1284    0.0000 </r>
       <r>   21.7267    0.0000 </r>
       <r>   23.8450    0.0000 </r>
      </set>
      <set comment="kpoint 19">
       <r>   -4.5808    1.0000 </r>
       <r>    0.7140    1.0000 </r>
       <r>    2.3376    1.0000 </r>
       <r>    4.5875    1.0000 </r>
       <r>    8.3185    0.0000 </r>
       <r>    9.9190    0.0000 </r>
       <r>   10.2397    0.0000 </r>
       <r>   11.4111    0.0000 </r>
       <r>   11.8598    0.0000 </r>
       <r>   15.9875    0.0000 </r>
       <r>   17.2180    0.0000 </r>
       <r>   17.8140    0.0000 </r>
       <r>   18.9644    0.0000 </r>
       <r>   21.0985    0.0000 </r>
       <r>   22.6640    0.0000 </r>
       <r>   23.3522    0.0000 </r>
      </set>
      <set comment="kpoint 20">
       <r>   -4.3253    1.0000 </r>
       <r>    0.6323    1.0000 </r>
       <r>    3.2546    1.0000 </r>
       <r>    3.2546    1.0000 </r>
       <r>    6.3822    0.0000 </r>
       <r>    7.6461    0.0000 </r>
       <r>   12.8021    0.0000 </r>
       <r>   12.8021    0.0000 </r>
       <r>   15.2444    0.0000 </r>
       <r>   15.4558    0.0000 </r>
       <r>   18.5515    0.0000 </r>
       <r>   18.9946    0.0000 </r>
       <r>   18.9946    0.0000 </r>
       <r>   20.6445    0.0000 </r>
       <r>   21.6904    0.0000 </r>
       <r>   21.8822    0.0000 </r>
      </set>
      <set comment="kpoint 21">
       <r>   -3.6002    1.0000 </r>
       <r>   -0.4016    1.0000 </r>
       <r>    2.5469    1.0000 </r>
       <r>    3.0996    1.0000 </r>
       <r>    6.6247    0.0000 </r>
       <r>    7.6857    0.0000 </r>
       <r>   13.0922    0.0000 </r>
       <r>   13.1564    0.0000 </r>
       <r>   16.7982    0.0000 </r>
       <r>   16.9571    0.0000 </r>
       <r>   17.3797    0.0000 </r>
       <r>   17.4637    0.0000 </r>
       <r>   20.2512    0.0000 </r>
       <r>   20.5935    0.0000 </r>
       <r>   21.2105    0.0000 </r>
       <r>   23.0916    0.0000 </r>
      </set>
      <set comment="kpoint 22">
       <r>   -2.8241    1.0000 </r>
       <r>   -1.2820    1.0000 </r>
       <r>    1.6642    1.0000 </r>
       <r>    3.2044    1.0000 </r>
       <r>    6.8212    0.0000 </r>
       <r>    9.2611    0.0000 </r>
       <r>   12.7891    0.0000 </r>
       <r>   12.8829    0.0000 </r>
       <r>   14.9892    0.0000 </r>
       <r>   15.0658    0.0000 </r>
       <r>   19.0201    0.0000 </r>
       <r>   19.3735    0.0000 </r>
       <r>   20.0964    0.0000 </r>
       <r>   21.6316    0.0000 </r>
       <r>   22.1227    0.0000 </r>
       <r>   23.3768    0.0000 </r>
      </set>
      <set comment="kpoint 23">
       <r>   -2.9974    1.0000 </r>
       <r>   -1.0921    1.0000 </r>
       <r>    1.3095    1.0000 </r>
       <r>    3.5529    1.0000 </r>
       <r>    7.2120    0.0000 </r>
       <r>   11.4046    0.0000 </r>
       <r>   12.0356    0.0000 </r>
       <r>   12.5996    0.0000 </r>
       <r>   12.9241    0.0000 </r>
       <r>   13.2815    0.0000 </r>
       <r>   19.8719    0.0000 </r>
       <r>   20.4444    0.0000 </r>
       <r>   21.0983    0.0000 </r>
       <r>   21.2128    0.0000 </r>
       <r>   22.0636    0.0000 </r>
       <r>   23.0000    0.0000 </r>
      </set>
      <set comment="kpoint 24">
       <r>   -2.9362    1.0000 </r>
       <r>   -1.2513    1.0000 </r>
       <r>    2.8750    1.0000 </r>
       <r>    2.8750    1.0000 </r>
       <r>    6.2468    0.0000 </r>
       <r>    6.6474    0.0000 </r>
       <r>   14.8484    0.0000 </r>
       <r>   14.8484    0.0000 </r>
       <r>   17.0947    0.0000 </r>
       <r>   17.2753    0.0000 </r>
       <r>   17.2753    0.0000 </r>
       <r>   17.4835    0.0000 </r>
       <r>   19.1019    0.0000 </r>
       <r>   19.1780    0.0000 </r>
       <r>   23.0673    0.0000 </r>
       <r>   23.8424    0.0000 </r>
      </set>
      <set comment="kpoint 25">
       <r>   -2.1798    1.0000 </r>
       <r>   -2.0100    1.0000 </r>
       <r>    2.2774    1.0000 </r>
       <r>    2.9117    1.0000 </r>
       <r>    6.4726    0.0000 </r>
       <r>    7.2876    0.0000 </r>
       <r>   14.7230    0.0000 </r>
       <r>   15.0252    0.0000 </r>
       <r>   15.4319    0.0000 </r>
       <r>   15.6712    0.0000 </r>
       <r>   18.9243    0.0000 </r>
       <r>   18.9557    0.0000 </r>
       <r>   18.9934    0.0000 </r>
       <r>   19.7140    0.0000 </r>
       <r>   23.0622    0.0000 </r>
       <r>   23.4339    0.0000 </r>
      </set>
      <set comment="kpoint 26">
       <r>   -5.1572    1.0000 </r>
       <r>    1.8494    1.0000 </r>
       <r>    3.3060    1.0000 </r>
       <r>    4.4773    1.0000 </r>
       <r>    8.0006    0.0000 </r>
       <r>    9.3731    0.0000 </r>
       <r>   10.0281    0.0000 </r>
       <r>   10.6016    0.0000 </r>
       <r>   13.0293    0.0000 </r>
       <r>   14.9295    0.0000 </r>
       <r>   16.3428    0.0000 </r>
       <r>   17.3844    0.0000 </r>
       <r>   18.9678    0.0000 </r>
       <r>   21.0113    0.0000 </r>
       <r>   21.1668    0.0000 </r>
       <r>   23.8135    0.0000 </r>
      </set>
      <set comment="kpoint 27">
       <r>   -4.4360    1.0000 </r>
       <r>    0.3869    1.0000 </r>
       <r>    2.7033    1.0000 </r>
       <r>    4.0507    1.0000 </r>
       <r>    8.3794    0.0000 </r>
       <r>    9.2003    0.0000 </r>
       <r>   10.3854    0.0000 </r>
       <r>   11.0468    0.0000 </r>
       <r>   13.8995    0.0000 </r>
       <r>   15.8847    0.0000 </r>
       <r>   17.1155    0.0000 </r>
       <r>   17.7459    0.0000 </r>
       <r>   19.6211    0.0000 </r>
       <r>   20.7336    0.0000 </r>
       <r>   21.7991    0.0000 </r>
       <r>   23.9769    0.0000 </r>
      </set>
      <set comment="kpoint 28">
       <r>   -3.6583    1.0000 </r>
       <r>   -0.8728    1.0000 </r>
       <r>    2.5081    1.0000 </r>
       <r>    3.7357    1.0000 </r>
       <r>    8.4625    0.0000 </r>
       <r>    8.8232    0.0000 </r>
       <r>   10.9857    0.0000 </r>
       <r>   12.1075    0.0000 </r>
       <r>   14.1866    0.0000 </r>
       <r>   15.5068    0.0000 </r>
       <r>   16.9432    0.0000 </r>
       <r>   18.3978    0.0000 </r>
       <r>   19.4072    0.0000 </r>
       <r>   21.5282    0.0000 </r>
       <r>   22.6999    0.0000 </r>
       <r>   24.6825    0.0000 </r>
      </set>
      <set comment="kpoint 29">
       <r>   -4.1550    1.0000 </r>
       <r>    0.3357    1.0000 </r>
       <r>    2.6073    1.0000 </r>
       <r>    3.2841    1.0000 </r>
       <r>    7.4581    0.0000 </r>
       <r>    8.4655    0.0000 </r>
       <r>   11.0118    0.0000 </r>
       <r>   12.7145    0.0000 </r>
       <r>   14.9783    0.0000 </r>
       <r>   16.7002    0.0000 </r>
       <r>   17.1729    0.0000 </r>
       <r>   18.7295    0.0000 </r>
       <r>   19.4832    0.0000 </r>
       <r>   20.2757    0.0000 </r>
       <r>   21.4381    0.0000 </r>
       <r>   22.9633    0.0000 </r>
      </set>
      <set comment="kpoint 30">
       <r>   -3.3455    1.0000 </r>
       <r>   -0.7283    1.0000 </r>
       <r>    1.9555    1.0000 </r>
       <r>    2.9860    1.0000 </r>
       <r>    7.8608    0.0000 </r>
       <r>    9.5450    0.0000 </r>
       <r>   10.5777    0.0000 </r>
       <r>   13.1099    0.0000 </r>
       <r>   14.4472    0.0000 </r>
       <r>   16.3268    0.0000 </r>
       <r>   17.7548    0.0000 </r>
       <r>   19.2503    0.0000 </r>
       <r>   19.7556    0.0000 </r>
       <r>   21.0314    0.0000 </r>
       <r>   22.8240    0.0000 </r>
       <r>   23.5934    0.0000 </r>
      </set>
      <set comment="kpoint 31">
       <r>   -2.9905    1.0000 </r>
       <r>   -1.1425    1.0000 </r>
       <r>    1.5774    1.0000 </r>
       <r>    3.0955    1.0000 </r>
       <r>    8.1471    0.0000 </r>
       <r>   10.1173    0.0000 </r>
       <r>   11.6439    0.0000 </r>
       <r>   12.1730    0.0000 </r>
       <r>   13.0326    0.0000 </r>
       <r>   15.5647    0.0000 </r>
       <r>   18.4850    0.0000 </r>
       <r>   19.1760    0.0000 </r>
       <r>   21.6376    0.0000 </r>
       <r>   21.8189    0.0000 </r>
       <r>   22.6775    0.0000 </r>
       <r>   22.9643    0.0000 </r>
      </set>
      <set comment="kpoint 32">
       <r>   -3.6753    1.0000 </r>
       <r>   -0.3573    1.0000 </r>
       <r>    1.7238    1.0000 </r>
       <r>    3.5223    1.0000 </r>
       <r>    8.6463    0.0000 </r>
       <r>    9.6247    0.0000 </r>
       <r>   10.4723    0.0000 </r>
       <r>   12.4813    0.0000 </r>
       <r>   14.0320    0.0000 </r>
       <r>   14.1156    0.0000 </r>
       <r>   18.9206    0.0000 </r>
       <r>   19.5400    0.0000 </r>
       <r>   19.8202    0.0000 </r>
       <r>   20.6865    0.0000 </r>
       <r>   22.5445    0.0000 </r>
       <r>   23.7154    0.0000 </r>
      </set>
      <set comment="kpoint 33">
       <r>   -2.8236    1.0000 </r>
       <r>   -1.2690    1.0000 </r>
       <r>    2.3261    1.0000 </r>
       <r>    2.5330    1.0000 </r>
       <r>    7.2906    0.0000 </r>
       <r>    7.6032    0.0000 </r>
       <r>   12.7692    0.0000 </r>
       <r>   14.6050    0.0000 </r>
       <r>   15.1409    0.0000 </r>
       <r>   16.8465    0.0000 </r>
       <r>   17.6423    0.0000 </r>
       <r>   19.2487    0.0000 </r>
       <r>   19.5697    0.0000 </r>
       <r>   21.5400    0.0000 </r>
       <r>   21.6153    0.0000 </r>
       <r>   23.1343    0.0000 </r>
      </set>
      <set comment="kpoint 34">
       <r>   -2.3152    1.0000 </r>
       <r>   -1.7205    1.0000 </r>
       <r>    1.6227    1.0000 </r>
       <r>    2.6189    1.0000 </r>
       <r>    7.6580    0.0000 </r>
       <r>    9.2782    0.0000 </r>
       <r>   12.2285    0.0000 </r>
       <r>   12.4848    0.0000 </r>
       <r>   14.9896    0.0000 </r>
       <r>   15.8331    0.0000 </r>
       <r>   18.5599    0.0000 </r>
       <r>   19.5999    0.0000 </r>
       <r>   21.2865    0.0000 </r>
       <r>   22.1768    0.0000 </r>
       <r>   22.2589    0.0000 </r>
       <r>   22.5544    0.0000 </r>
      </set>
      <set comment="kpoint 35">
       <r>   -2.5559    1.0000 </r>
       <r>   -1.4139    1.0000 </r>
       <r>    1.6596    1.0000 </r>
       <r>    2.2893    1.0000 </r>
       <r>    9.4627    0.0000 </r>
       <r>    9.5740    0.0000 </r>
       <r>   10.1990    0.0000 </r>
       <r>   11.9389    0.0000 </r>
       <r>   14.9508    0.0000 </r>
       <r>   16.3774    0.0000 </r>
       <r>   18.1629    0.0000 </r>
       <r>   19.5243    0.0000 </r>
       <r>   20.8705    0.0000 </r>
       <r>   22.2197    0.0000 </r>
       <r>   22.6271    0.0000 </r>
       <r>   23.8967    0.0000 </r>
      </set>
     </set>
    </set>
   </array>
  </eigenvalues>
  <separator name="orbital magnetization" >
   <v name="MAGDIPOLOUT">      0.00000000      0.00000000      0.00000000</v>
  </separator>
 </calculation>
 <structure name="finalpos" >
  <crystal>
   <varray name="basis" >
    <v>      -0.00000000       2.73380694       2.73380694 </v>
    <v>       2.73380694      -0.00000000       2.73380694 </v>
    <v>       2.73380694       2.73380694      -0.00000000 </v>
   </varray>
   <i name="volume">     40.86330796 </i>
   <varray name="rec_basis" >
    <v>      -0.18289514       0.18289514       0.18289514 </v>
    <v>       0.18289514      -0.18289514       0.18289514 </v>
    <v>       0.18289514       0.18289514      -0.18289514 </v>
   </varray>
  </crystal>
  <varray name="positions" >
   <v>       0.00000000       0.00000000       0.00000000 </v>
   <v>       0.25000000       0.25000000       0.25000000 </v>
  </varray>
 </structure>
</modeling>
