unknown system                          
           1
     0.000000    2.746120    2.746120
     2.746120   -0.000000    2.746120
     2.746120    2.746120    0.000000
   Si
   2
Direct configuration=     1
   0.00000000  0.00000000  0.00000000
   0.25000000  0.25000000  0.25000000
unknown system                          
           1
    -0.000000    2.734046    2.734046
     2.734046   -0.000000    2.734046
     2.734046    2.734046   -0.000000
   Si
   2
Direct configuration=     2
  -0.00000000  0.00000000  0.00000000
   0.25000000  0.25000000  0.25000000
unknown system                          
           1
    -0.000000    2.733807    2.733807
     2.733807   -0.000000    2.733807
     2.733807    2.733807   -0.000000
   Si
   2
Direct configuration=     3
  -0.00000000  0.00000000  0.00000000
   0.25000000  0.25000000  0.25000000
unknown system                          
           1
    -0.000000    2.733807    2.733807
     2.733807   -0.000000    2.733807
     2.733807    2.733807   -0.000000
   Si
   2
Direct configuration=     4
   0.00000000  0.00000000  0.00000000
   0.25000000  0.25000000  0.25000000
