
     Program PWSCF v.5.1 starts on 11Aug2017 at 11:48: 6 

     This program is part of the open-source Quantum ESPRESSO suite
     for quantum simulation of materials; please cite
         "P. Giannozzi et al., J. Phys.:Condens. Matter 21 395502 (2009);
          URL http://www.quantum-espresso.org", 
     in publications or presentations arising from this work. More details at
     http://www.quantum-espresso.org/quote

     Parallel version (MPI), running on     2 processors
     R & G space division:  proc/nbgrp/npool/nimage =       2
     Reading input from /tmp/mn.box.in.27355/mn.box.in.t
Warning: card &IONS ignored
Warning: card   ION_DYNAMICS='BFGS', ignored
Warning: card / ignored
Warning: card &CELL ignored
Warning: card  CELL_DYNAMICS = 'BFGS' ignored
Warning: card  CELL_DOFREE = 'XY' ignored
Warning: card / ignored

     Current dimensions of program PWSCF are:
     Max number of different atomic species (ntypx) = 10
     Max number of k-points (npk) =  40000
     Max angular momentum in pseudopotentials (lmaxx) =  3

     Subspace diagonalization in iterative solution of the eigenvalue problem:
     a serial algorithm will be used


     Parallelization info
     --------------------
     sticks:   dense  smooth     PW     G-vecs:    dense   smooth      PW
     Min         798     640    162                23916    17130    2168
     Max         799     641    163                23917    17135    2169
     Sum        1597    1281    325                47833    34265    4337

     Generating pointlists ...
     new r_m :   0.4125 (alat units)  4.1250 (a.u.) for type    1


     bravais-lattice index     =            0
     lattice parameter (alat)  =    1.000000000  a.u.
     unit-cell volume          =    1000.0000 (a.u.)^3
     number of atoms/cell      =            4
     number of atomic types    =            2
     number of electrons       =        15.00
     number of Kohn-Sham states=           12
     kinetic-energy cutoff     =      40.0000  Ry
     charge density cutoff     =     200.0000  Ry
     convergence threshold     =      1.0E-10
     mixing beta               =       0.3000
     number of iterations used =            8  local-TF  mixing
     Exchange-correlation      = SLA  PW   PSX  PSC ( 1  4 10  8 0)

     celldm(1)=  1.000000  celldm(2)=   0.000000  celldm(3)=   0.000000
     celldm(4)=   0.000000  celldm(5)=   0.000000  celldm(6)=   0.000000

     crystal axes: (cart. coord. in units of alat)
               a(1) = (   2.000000000000   0.000000000000   0.000000000000 )  
               a(2) = (   0.000000000000   2.000000000000   0.000000000000 )  
               a(3) = (   0.000000000000   0.000000000000   100.000000000000 )  

     reciprocal axes: (cart. coord. in units 2 pi/alat)
               b(1) = (  1.000000  0.000000  0.000000 )  
               b(2) = (  0.000000  1.000000  0.000000 )  
               b(3) = (  0.000000  0.000000  1.000000 )  


     PseudoPot. # 1 for Mn read from file:
     /users/kfg/psuedo/gbrv_1.5/mn.pbesol.UPF
     MD5 check sum: 0716d5f563e6e95a34f9080f4c78c109
     Pseudo is Ultrasoft + core correction, Zval = 15.0
     Generated by new atomic code, or converted to UPF format
     Using radial grid of  859 points,  6 beta functions with: 
                l(1) =   0
                l(2) =   0
                l(3) =   1
                l(4) =   1
                l(5) =   2
                l(6) =   2
     Q(r) pseudized with  8 coefficients,  rinner =    0.950   0.950   0.950
                                                       0.950   0.950

     atomic species   valence    mass     pseudopotential
        Mn            15.00    15.99940     Mn( 1.00)

     Starting magnetic structure 
     atomic species   magnetization
        Mn           1.000


     Simplified LDA+U calculation (l_max = 2) with parameters (eV):
     atomic species    L          U    alpha       J0     beta
        Mn             2     3.0000   0.0000   0.0000   0.0000



     48 Sym. Ops., with inversion, found



   Cartesian axes

     site n.     atom                  positions (alat units)
         1           Fe  tau(   1) = (    0.00000000000    0.00000000000    0.00000000000  )
         1           Mn  tau(   1) = (    0.00000000000    1.0000000000    0.00000000000  )
         1           Mn  tau(   1) = (    1.00000000000    0.00000000000    0.00000000000  )
         1           Mn  tau(   1) = (    1.00000000000    1.00000000000    0.00000000000  )

     number of k points=     2  gaussian smearing, width (Ry)=  0.0100
                       cart. coord. in units 2pi/alat
        k(    1) = (   0.0000000   0.0000000   0.0000000), wk =   1.0000000
        k(    2) = (   0.0000000   0.0000000   0.0000000), wk =   1.0000000

     Dense  grid:    47833 G-vectors     FFT dimensions: (  45,  45,  45)

     Smooth grid:    34265 G-vectors     FFT dimensions: (  45,  45,  45)

     Largest allocated arrays     est. size (Mb)     dimensions
        Kohn-Sham Wavefunctions         0.40 Mb     (    2169,   12)
        Atomic Hubbard wavefuncts       0.17 Mb     (    2169,    5)
        NL pseudopotentials             0.60 Mb     (    2169,   18)
        Each V/rho on FFT grid          1.42 Mb     (   46575,   2)
        Each G-vector array             0.18 Mb     (   23916)
        G-vector shells                 0.00 Mb     (     424)
     Largest temporary arrays     est. size (Mb)     dimensions
        Auxiliary wavefunctions         1.59 Mb     (    2169,   48)
        Each subspace H/S matrix        0.04 Mb     (      48,   48)
        Each <psi_i|beta_j> matrix      0.00 Mb     (      18,   12)
        Arrays for rho mixing           5.69 Mb     (   46575,    8)

     Check: negative/imaginary core charge=   -0.000018    0.000000

     Initial potential from superposition of free atoms

     starting charge   14.49992, renormalised to   15.00000

     negative rho (up, down):  2.239E-06 0.000E+00
     Number of +U iterations with fixed ns =  0
     Starting occupations:
 --- enter write_ns ---
 LDA+U parameters:
U( 1)     =  3.00000000
alpha( 1) =  0.00000000
atom    1   Tr[ns(na)] (up, down, total) =   5.00000  0.00000  5.00000
   spin  1
    eigenvalues: 
  1.000  1.000  1.000  1.000  1.000
    eigenvectors:
  1.000  0.000  0.000  0.000  0.000
  0.000  1.000  0.000  0.000  0.000
  0.000  0.000  1.000  0.000  0.000
  0.000  0.000  0.000  1.000  0.000
  0.000  0.000  0.000  0.000  1.000
    occupations:
  1.000  0.000  0.000  0.000  0.000
  0.000  1.000  0.000  0.000  0.000
  0.000  0.000  1.000  0.000  0.000
  0.000  0.000  0.000  1.000  0.000
  0.000  0.000  0.000  0.000  1.000
   spin  2
    eigenvalues: 
  0.000  0.000  0.000  0.000  0.000
    eigenvectors:
  1.000  0.000  0.000  0.000  0.000
  0.000  1.000  0.000  0.000  0.000
  0.000  0.000  1.000  0.000  0.000
  0.000  0.000  0.000  1.000  0.000
  0.000  0.000  0.000  0.000  1.000
    occupations:
  0.000  0.000  0.000  0.000  0.000
  0.000  0.000  0.000  0.000  0.000
  0.000  0.000  0.000  0.000  0.000
  0.000  0.000  0.000  0.000  0.000
  0.000  0.000  0.000  0.000  0.000
atomic mag. moment =     5.000000
N of occupied +U levels =    5.000000
 --- exit write_ns ---
 Atomic wfc used for LDA+U Projector are NOT orthogonalized
     Starting wfc are   13 randomized atomic wfcs

     total cpu time spent up to now is        1.2 secs

     per-process dynamical memory:    24.2 Mb

     Self-consistent Calculation

     iteration #  1     ecut=    40.00 Ry     beta=0.30
     Davidson diagonalization with overlap
     ethr =  1.00E-02,  avg # of iterations =  3.5
 --- enter write_ns ---
 LDA+U parameters:
U( 1)     =  3.00000000
alpha( 1) =  0.00000000
atom    1   Tr[ns(na)] (up, down, total) =   5.00398  0.00000  5.00398
   spin  1
    eigenvalues: 
  0.998  0.998  0.998  1.005  1.005
    eigenvectors:
  0.000  0.000  0.000  0.142  0.858
  0.110  0.151  0.739  0.000  0.000
  0.326  0.413  0.261  0.000  0.000
  0.000  0.000  0.000  0.858  0.142
  0.564  0.436  0.000  0.000  0.000
    occupations:
  1.005 -0.000 -0.000 -0.000  0.000
 -0.000  0.998 -0.000  0.000  0.000
 -0.000 -0.000  0.998  0.000  0.000
 -0.000  0.000  0.000  1.005 -0.000
  0.000  0.000  0.000 -0.000  0.998
   spin  2
    eigenvalues: 
  0.000  0.000  0.000  0.000  0.000
    eigenvectors:
  0.265  0.735  0.000  0.000  0.000
  0.000  0.000  0.101  0.120  0.779
  0.000  0.000  0.323  0.457  0.221
  0.735  0.265  0.000  0.000  0.000
  0.000  0.000  0.576  0.423  0.000
    occupations:
  0.000 -0.000 -0.000  0.000  0.000
 -0.000  0.000 -0.000  0.000  0.000
 -0.000 -0.000  0.000  0.000  0.000
  0.000  0.000  0.000  0.000 -0.000
  0.000  0.000  0.000 -0.000  0.000
atomic mag. moment =     5.003984
N of occupied +U levels =    5.003985
 --- exit write_ns ---

     negative rho (up, down):  8.896E-04 2.512E-04

     Magnetic moment per site:
     atom:    1    charge:   14.8035    magn:   11.9840    constr:    0.0000

     total cpu time spent up to now is        2.9 secs

     total energy              =    -209.87953969 Ry
     Harris-Foulkes estimate   =    -207.64995522 Ry
     estimated scf accuracy    <       3.42235697 Ry

     total magnetization       =     5.00 Bohr mag/cell
     absolute magnetization    =     5.59 Bohr mag/cell

     iteration #  2     ecut=    40.00 Ry     beta=0.30
     Davidson diagonalization with overlap
     ethr =  1.00E-02,  avg # of iterations =  1.0

     negative rho (up, down):  8.678E-03 1.101E-03

     Magnetic moment per site:
     atom:    1    charge:   14.6611    magn:    4.9967    constr:    0.0000

     total cpu time spent up to now is        4.2 secs

     total energy              =    -210.82534631 Ry
     Harris-Foulkes estimate   =    -209.90186823 Ry
     estimated scf accuracy    <       1.75966812 Ry

     total magnetization       =     5.00 Bohr mag/cell
     absolute magnetization    =     5.45 Bohr mag/cell

     iteration #  3     ecut=    40.00 Ry     beta=0.30
     Davidson diagonalization with overlap
     ethr =  1.00E-02,  avg # of iterations =  2.0

     negative rho (up, down):  1.464E-03 1.305E-03

     Magnetic moment per site:
     atom:    1    charge:   14.6437    magn:    4.8321    constr:    0.0000

     total cpu time spent up to now is        5.4 secs

     total energy              =    -210.85553007 Ry
     Harris-Foulkes estimate   =    -210.87330628 Ry
     estimated scf accuracy    <       0.06780702 Ry

     total magnetization       =     5.00 Bohr mag/cell
     absolute magnetization    =     5.19 Bohr mag/cell

     iteration #  4     ecut=    40.00 Ry     beta=0.30
     Davidson diagonalization with overlap
     ethr =  4.52E-04,  avg # of iterations =  2.5

     negative rho (up, down):  0.000E+00 1.605E-03

     Magnetic moment per site:
     atom:    1    charge:   14.6149    magn:    5.1873    constr:    0.0000

     total cpu time spent up to now is        6.9 secs

     total energy              =    -210.84776935 Ry
     Harris-Foulkes estimate   =    -210.85919575 Ry
     estimated scf accuracy    <       0.02936979 Ry

     total magnetization       =     5.00 Bohr mag/cell
     absolute magnetization    =     5.16 Bohr mag/cell

     iteration #  5     ecut=    40.00 Ry     beta=0.30
     Davidson diagonalization with overlap
     ethr =  1.96E-04,  avg # of iterations =  2.0

     negative rho (up, down):  0.000E+00 1.651E-03

     Magnetic moment per site:
     atom:    1    charge:   14.5913    magn:    5.0442    constr:    0.0000

     total cpu time spent up to now is        8.6 secs

     total energy              =    -210.85233853 Ry
     Harris-Foulkes estimate   =    -210.85281207 Ry
     estimated scf accuracy    <       0.00146157 Ry

     total magnetization       =     5.00 Bohr mag/cell
     absolute magnetization    =     5.16 Bohr mag/cell

     iteration #  6     ecut=    40.00 Ry     beta=0.30
     Davidson diagonalization with overlap
     ethr =  9.74E-06,  avg # of iterations =  3.0

     negative rho (up, down):  0.000E+00 1.591E-03

     Magnetic moment per site:
     atom:    1    charge:   14.5870    magn:    5.0437    constr:    0.0000

     total cpu time spent up to now is       10.0 secs

     total energy              =    -210.85243308 Ry
     Harris-Foulkes estimate   =    -210.85261163 Ry
     estimated scf accuracy    <       0.00080776 Ry

     total magnetization       =     5.00 Bohr mag/cell
     absolute magnetization    =     5.16 Bohr mag/cell

     iteration #  7     ecut=    40.00 Ry     beta=0.30
     Davidson diagonalization with overlap
     ethr =  5.39E-06,  avg # of iterations =  1.5

     negative rho (up, down):  0.000E+00 1.523E-03

     Magnetic moment per site:
     atom:    1    charge:   14.5819    magn:    5.0608    constr:    0.0000

     total cpu time spent up to now is       11.3 secs

     total energy              =    -210.85246990 Ry
     Harris-Foulkes estimate   =    -210.85248826 Ry
     estimated scf accuracy    <       0.00016823 Ry

     total magnetization       =     5.00 Bohr mag/cell
     absolute magnetization    =     5.16 Bohr mag/cell

     iteration #  8     ecut=    40.00 Ry     beta=0.30
     Davidson diagonalization with overlap
     ethr =  1.12E-06,  avg # of iterations =  5.0

     negative rho (up, down):  0.000E+00 1.505E-03

     Magnetic moment per site:
     atom:    1    charge:   14.5760    magn:    5.0679    constr:    0.0000

     total cpu time spent up to now is       12.8 secs

     total energy              =    -210.85252104 Ry
     Harris-Foulkes estimate   =    -210.85251884 Ry
     estimated scf accuracy    <       0.00001993 Ry

     total magnetization       =     5.00 Bohr mag/cell
     absolute magnetization    =     5.16 Bohr mag/cell

     iteration #  9     ecut=    40.00 Ry     beta=0.30
     Davidson diagonalization with overlap
     ethr =  1.33E-07,  avg # of iterations =  2.0

     negative rho (up, down):  0.000E+00 1.510E-03

     Magnetic moment per site:
     atom:    1    charge:   14.5738    magn:    5.0733    constr:    0.0000

     total cpu time spent up to now is       14.0 secs

     total energy              =    -210.85252496 Ry
     Harris-Foulkes estimate   =    -210.85252248 Ry
     estimated scf accuracy    <       0.00000309 Ry

     total magnetization       =     5.00 Bohr mag/cell
     absolute magnetization    =     5.16 Bohr mag/cell

     iteration # 10     ecut=    40.00 Ry     beta=0.30
     Davidson diagonalization with overlap
     ethr =  2.06E-08,  avg # of iterations =  2.0

     negative rho (up, down):  0.000E+00 1.519E-03

     Magnetic moment per site:
     atom:    1    charge:   14.5719    magn:    5.0724    constr:    0.0000

     total cpu time spent up to now is       15.4 secs

     total energy              =    -210.85252432 Ry
     Harris-Foulkes estimate   =    -210.85252547 Ry
     estimated scf accuracy    <       0.00000257 Ry

     total magnetization       =     5.00 Bohr mag/cell
     absolute magnetization    =     5.17 Bohr mag/cell

     iteration # 11     ecut=    40.00 Ry     beta=0.30
     Davidson diagonalization with overlap
     ethr =  1.71E-08,  avg # of iterations =  2.0

     negative rho (up, down):  0.000E+00 1.519E-03

     Magnetic moment per site:
     atom:    1    charge:   14.5719    magn:    5.0717    constr:    0.0000

     total cpu time spent up to now is       16.7 secs

     total energy              =    -210.85252481 Ry
     Harris-Foulkes estimate   =    -210.85252472 Ry
     estimated scf accuracy    <       0.00000003 Ry

     total magnetization       =     5.00 Bohr mag/cell
     absolute magnetization    =     5.17 Bohr mag/cell

     iteration # 12     ecut=    40.00 Ry     beta=0.30
     Davidson diagonalization with overlap
     ethr =  2.17E-10,  avg # of iterations =  5.5

     negative rho (up, down):  0.000E+00 1.518E-03

     Magnetic moment per site:
     atom:    1    charge:   14.5721    magn:    5.0718    constr:    0.0000

     total cpu time spent up to now is       18.2 secs

     total energy              =    -210.85252483 Ry
     Harris-Foulkes estimate   =    -210.85252482 Ry
     estimated scf accuracy    <       0.00000003 Ry

     total magnetization       =     5.00 Bohr mag/cell
     absolute magnetization    =     5.17 Bohr mag/cell

     iteration # 13     ecut=    40.00 Ry     beta=0.30
     Davidson diagonalization with overlap
     ethr =  1.73E-10,  avg # of iterations =  2.0

     negative rho (up, down):  0.000E+00 1.518E-03

     Magnetic moment per site:
     atom:    1    charge:   14.5721    magn:    5.0717    constr:    0.0000

     total cpu time spent up to now is       19.6 secs

     total energy              =    -210.85252486 Ry
     Harris-Foulkes estimate   =    -210.85252484 Ry
     estimated scf accuracy    <          9.4E-10 Ry

     total magnetization       =     5.00 Bohr mag/cell
     absolute magnetization    =     5.17 Bohr mag/cell

     iteration # 14     ecut=    40.00 Ry     beta=0.30
     Davidson diagonalization with overlap
     ethr =  6.28E-12,  avg # of iterations =  3.0

     negative rho (up, down):  0.000E+00 1.518E-03

     Magnetic moment per site:
     atom:    1    charge:   14.5721    magn:    5.0718    constr:    0.0000

     total cpu time spent up to now is       20.9 secs

     total energy              =    -210.85252488 Ry
     Harris-Foulkes estimate   =    -210.85252486 Ry
     estimated scf accuracy    <          1.1E-10 Ry

     total magnetization       =     5.00 Bohr mag/cell
     absolute magnetization    =     5.17 Bohr mag/cell

     iteration # 15     ecut=    40.00 Ry     beta=0.30
     Davidson diagonalization with overlap
     ethr =  7.66E-13,  avg # of iterations =  3.5

     negative rho (up, down):  0.000E+00 1.518E-03

     Magnetic moment per site:
     atom:    1    charge:   14.5721    magn:    5.0718    constr:    0.0000

     total cpu time spent up to now is       22.1 secs

     End of self-consistent calculation
 --- enter write_ns ---
 LDA+U parameters:
U( 1)     =  3.00000000
alpha( 1) =  0.00000000
atom    1   Tr[ns(na)] (up, down, total) =   5.00699  0.00000  5.00699
   spin  1
    eigenvalues: 
  0.999  0.999  0.999  1.006  1.006
    eigenvectors:
  0.000  0.000  0.000  0.088  0.912
  0.121  0.345  0.535  0.000  0.000
  0.335  0.229  0.435  0.000  0.000
  0.000  0.000  0.000  0.912  0.088
  0.544  0.426  0.030  0.000  0.000
    occupations:
  1.006 -0.000 -0.000 -0.000  0.000
 -0.000  0.999 -0.000  0.000  0.000
 -0.000 -0.000  0.999  0.000  0.000
 -0.000  0.000  0.000  1.006 -0.000
  0.000  0.000  0.000 -0.000  0.999
   spin  2
    eigenvalues: 
  0.000  0.000  0.000  0.000  0.000
    eigenvectors:
  0.000  0.000  0.000  0.057  0.943
  0.129  0.128  0.743  0.000  0.000
  0.374  0.369  0.257  0.000  0.000
  0.000  0.000  0.000  0.943  0.057
  0.497  0.503  0.000  0.000  0.000
    occupations:
  0.000 -0.000  0.000 -0.000  0.000
 -0.000  0.000 -0.000  0.000  0.000
  0.000 -0.000  0.000  0.000  0.000
 -0.000  0.000  0.000  0.000 -0.000
  0.000  0.000  0.000 -0.000  0.000
atomic mag. moment =     5.006992
N of occupied +U levels =    5.006992
 --- exit write_ns ---

 ------ SPIN UP ------------


          k = 0.0000 0.0000 0.0000 (  4337 PWs)   bands (ev):

   -85.8932 -54.7099 -54.7099 -54.7099  -8.3467  -8.3467  -8.3039  -8.3039
    -8.3039  -4.2872   1.3733   1.3733

 ------ SPIN DOWN ----------


          k = 0.0000 0.0000 0.0000 (  4337 PWs)   bands (ev):

   -80.5484 -49.4748 -49.4748 -49.4748  -3.3458  -0.8504  -0.8504  -0.7481
    -0.7481  -0.7481   2.0734   2.0734

     the Fermi energy is    -1.8034 ev

!    total energy              =    8.0 Ry
     Harris-Foulkes estimate   =    -210.85252488 Ry
     estimated scf accuracy    <          2.1E-11 Ry

     The total energy is the sum of the following terms:

     one-electron contribution =    -234.07263093 Ry
     hartree contribution      =     113.05770140 Ry
     xc contribution           =     -25.99762375 Ry
     ewald contribution        =     -63.83919333 Ry
     Hubbard energy            =      -0.00077828 Ry
     smearing contrib. (-TS)   =      -0.00000000 Ry

     total magnetization       =     5.00 Bohr mag/cell
     absolute magnetization    =     5.17 Bohr mag/cell

     convergence has been achieved in  15 iterations

     Forces acting on atoms (Ry/au):


     negative rho (up, down):  0.000E+00 1.518E-03
     atom    1 type  2   force =   0.00000000E+00  0.00000000E+00  0.00000000E+00
     atom    2 type  1   force =   0.00000000E+00  0.00000000E+00  0.00000000E+00
     atom    3 type  1   force =   0.00000000E+00  0.00000000E+00  0.00000000E+00
     atom    4 type  1   force =   0.00000000E+00  0.00000000E+00  0.00000000E+00

     Total force =     0.000000     Total SCF correction =     0.000000


     entering subroutine stress ...


     negative rho (up, down):  0.000E+00 1.518E-03
          total   stress  (Ry/bohr**3)                   (kbar)     P=  -25.79
  -0.000   0.0000000000   0.0000000000        -25.79      0.00      0.00
   0.0000000000  -0.000   0.0000000000          0.00    -25.79      0.00
   0.0000000000   0.0000000000  -0.000          0.00      0.00    -25.79


     Writing output data file mn.box.in.save

     init_run     :      1.14s CPU      1.12s WALL (       1 calls)
     electrons    :     21.91s CPU     20.85s WALL (       1 calls)
     forces       :      0.80s CPU      0.77s WALL (       1 calls)
     stress       :      3.61s CPU      3.48s WALL (       1 calls)

     Called by init_run:
     wfcinit      :      0.22s CPU      0.19s WALL (       1 calls)
     potinit      :      0.20s CPU      0.21s WALL (       1 calls)

     Called by electrons:
     c_bands      :      7.14s CPU      6.12s WALL (      15 calls)
     sum_band     :      4.99s CPU      4.90s WALL (      15 calls)
     v_of_rho     :      3.42s CPU      3.43s WALL (      16 calls)
     newd         :      2.69s CPU      2.70s WALL (      16 calls)
     mix_rho      :      3.70s CPU      3.73s WALL (      15 calls)

     Called by c_bands:
     init_us_2    :      0.33s CPU      0.35s WALL (      88 calls)
     cegterg      :      6.77s CPU      5.76s WALL (      30 calls)

     Called by *egterg:
     h_psi        :      4.99s CPU      4.65s WALL (     113 calls)
     s_psi        :      0.37s CPU      0.21s WALL (     135 calls)
     g_psi        :      0.02s CPU      0.04s WALL (      81 calls)
     cdiaghg      :      0.11s CPU      0.11s WALL (     111 calls)

     Called by h_psi:
     add_vuspsi   :      0.30s CPU      0.17s WALL (     113 calls)
     vhpsi        :      0.29s CPU      0.21s WALL (     113 calls)

     General routines
     calbec       :      1.22s CPU      0.75s WALL (     422 calls)
     fft          :      1.56s CPU      1.55s WALL (     530 calls)
     ffts         :      2.02s CPU      2.08s WALL (     810 calls)
     fftw         :      4.41s CPU      4.42s WALL (    2174 calls)
     interpolate  :      0.42s CPU      0.41s WALL (      62 calls)
     davcio       :      0.00s CPU      0.00s WALL (       2 calls)

     Parallel routines
     fft_scatter  :      2.24s CPU      2.32s WALL (    3514 calls)
     Hubbard U routines
     new_ns       :      0.10s CPU      0.09s WALL (      15 calls)
     vhpsi        :      0.29s CPU      0.21s WALL (     113 calls)
     force_hub    :      0.12s CPU      0.08s WALL (       1 calls)
     stres_hub    :      1.13s CPU      0.99s WALL (       1 calls)

     PWSCF        :    27.71s CPU        26.49s WALL


   This run was terminated on:  11:48:33  11Aug2017            

=------------------------------------------------------------------------------=
   JOB DONE.
=------------------------------------------------------------------------------=
