       N       E                     dE             d eps       ncg     rms          rms(c)
DAV:   1    -0.108428377770E+02   -0.10843E+02   -0.43809E-01  6560   0.297E+00    0.853E-01
DAV:   2    -0.108378844647E+02    0.49533E-02   -0.19949E-02  8352   0.691E-01    0.452E-01
DAV:   3    -0.108354596776E+02    0.24248E-02   -0.11667E-02  9888   0.323E-01    0.689E-02
DAV:   4    -0.108354672643E+02   -0.75867E-05   -0.43827E-04  8688   0.106E-01    0.697E-02
DAV:   5    -0.108354631774E+02    0.40869E-05   -0.35190E-05 10448   0.220E-02    0.209E-02
DAV:   6    -0.108354618882E+02    0.12892E-05   -0.89237E-06  8592   0.988E-03    0.581E-03
DAV:   7    -0.108354621224E+02   -0.23419E-06   -0.75921E-07 10128   0.399E-03    0.304E-04
DAV:   8    -0.108354621212E+02    0.11873E-08   -0.12306E-08  9648   0.438E-04
   1 F= -.10835462E+02 E0= -.10835462E+02  d E =-.108355E+02
       N       E                     dE             d eps       ncg     rms          rms(c)
DAV:   1    -0.108463249672E+02   -0.10863E-01   -0.57893E-01  8304   0.227E+00    0.352E-01
DAV:   2    -0.108432937676E+02    0.30312E-02   -0.14369E-02  9920   0.522E-01    0.200E-01
DAV:   3    -0.108418628298E+02    0.14309E-02   -0.54963E-03  9504   0.231E-01    0.335E-02
DAV:   4    -0.108418700969E+02   -0.72671E-05   -0.23454E-04  8000   0.748E-02    0.399E-02
DAV:   5    -0.108418668292E+02    0.32677E-05   -0.89954E-06 11440   0.108E-02    0.185E-02
DAV:   6    -0.108418665495E+02    0.27971E-06   -0.15612E-06  8480   0.456E-03    0.424E-03
DAV:   7    -0.108418665933E+02   -0.43796E-07   -0.13295E-07 10096   0.142E-03
   2 F= -.10841867E+02 E0= -.10841867E+02  d E =-.640447E-02
       N       E                     dE             d eps       ncg     rms          rms(c)
DAV:   1    -0.108471217455E+02   -0.52552E-02   -0.10537E-01  9536   0.938E-01    0.171E-01
DAV:   2    -0.108460707158E+02    0.10510E-02   -0.26450E-03  8928   0.210E-01    0.876E-02
DAV:   3    -0.108456819007E+02    0.38882E-03   -0.15304E-03 10272   0.121E-01    0.137E-02
DAV:   4    -0.108456839242E+02   -0.20235E-05   -0.51079E-05  7632   0.362E-02    0.128E-02
DAV:   5    -0.108456840944E+02   -0.17019E-06   -0.28238E-06 11168   0.593E-03    0.375E-03
DAV:   6    -0.108456842270E+02   -0.13268E-06   -0.12094E-07  8288   0.133E-03    0.153E-03
DAV:   7    -0.108456842845E+02   -0.57453E-07   -0.33646E-08  8672   0.713E-04
   3 F= -.10845684E+02 E0= -.10845684E+02  d E =-.381769E-02
       N       E                     dE             d eps       ncg     rms          rms(c)
DAV:   1    -0.108464835371E+02   -0.79931E-03   -0.13359E-02  9904   0.340E-01    0.828E-02
DAV:   2    -0.108461863267E+02    0.29721E-03   -0.54767E-04  8880   0.884E-02    0.426E-02
DAV:   3    -0.108460815137E+02    0.10481E-03   -0.37575E-04 10704   0.598E-02    0.776E-03
DAV:   4    -0.108460821130E+02   -0.59933E-06   -0.11904E-05  7456   0.171E-02    0.763E-03
DAV:   5    -0.108460823793E+02   -0.26632E-06   -0.68244E-07 11328   0.272E-03    0.231E-03
DAV:   6    -0.108460824917E+02   -0.11241E-06   -0.43450E-08  6144   0.875E-04    0.712E-04
DAV:   7    -0.108460825071E+02   -0.15394E-07   -0.12392E-08  7104   0.409E-04
   4 F= -.10846083E+02 E0= -.10846083E+02  d E =-.398223E-03
       N       E                     dE             d eps       ncg     rms          rms(c)
DAV:   1    -0.108461185895E+02   -0.36098E-04   -0.45379E-04  9616   0.620E-02    0.185E-02
DAV:   2    -0.108461096837E+02    0.89058E-05   -0.10949E-05  8928   0.119E-02    0.105E-02
DAV:   3    -0.108461052971E+02    0.43866E-05   -0.10276E-05 10176   0.917E-03    0.301E-03
DAV:   4    -0.108461051413E+02    0.15576E-06   -0.27864E-07  7744   0.244E-03    0.246E-03
DAV:   5    -0.108461049305E+02    0.21082E-06   -0.28100E-08  6368   0.588E-04    0.438E-04
DAV:   6    -0.108461049069E+02    0.23585E-07   -0.18591E-09  4464   0.193E-04
   5 F= -.10846105E+02 E0= -.10846105E+02  d E =-.223998E-04
       N       E                     dE             d eps       ncg     rms          rms(c)
DAV:   1    -0.108461061575E+02   -0.12269E-05   -0.29749E-05  8688   0.157E-02    0.311E-03
DAV:   2    -0.108461058415E+02    0.31600E-06   -0.70260E-07  9296   0.351E-03    0.166E-03
DAV:   3    -0.108461056731E+02    0.16840E-06   -0.41168E-07 10192   0.197E-03    0.281E-04
DAV:   4    -0.108461056550E+02    0.18039E-07   -0.14488E-08  4736   0.586E-04
   6 F= -.10846106E+02 E0= -.10846106E+02  d E =-.748085E-06
