       N       E                     dE             d eps       ncg     rms          rms(c)
DAV:   1     0.413942193508E+03    0.41394E+03   -0.64989E+04  4032   0.901E+02
DAV:   2    -0.255875029014E+03   -0.66982E+03   -0.63755E+03  4944   0.155E+02
DAV:   3    -0.296097668273E+03   -0.40223E+02   -0.39710E+02  5072   0.352E+01
DAV:   4    -0.296947779019E+03   -0.85011E+00   -0.84617E+00  5088   0.636E+00
DAV:   5    -0.296966926766E+03   -0.19148E-01   -0.19130E-01  4992   0.929E-01    0.247E+01
DAV:   6    -0.293842269052E+03    0.31247E+01   -0.17233E+00  4720   0.220E+00    0.151E+01
DAV:   7    -0.292413086064E+03    0.14292E+01   -0.37448E+00  4784   0.334E+00    0.885E-01
DAV:   8    -0.292435295845E+03   -0.22210E-01   -0.20705E-01  4704   0.901E-01    0.413E-01
DAV:   9    -0.292442013395E+03   -0.67175E-02   -0.11027E-02  5024   0.230E-01    0.299E-01
DAV:  10    -0.292443446733E+03   -0.14333E-02   -0.18378E-03  4528   0.812E-02    0.106E-01
DAV:  11    -0.292443873965E+03   -0.42723E-03   -0.55777E-04  4560   0.522E-02    0.370E-02
DAV:  12    -0.292443885991E+03   -0.12026E-04   -0.21426E-05  5296   0.930E-03    0.192E-02
DAV:  13    -0.292443888674E+03   -0.26829E-05   -0.10188E-05  4576   0.682E-03    0.449E-03
DAV:  14    -0.292443887886E+03    0.78877E-06   -0.63974E-07  4976   0.167E-03    0.216E-03
DAV:  15    -0.292443888206E+03   -0.32000E-06   -0.26443E-07  3920   0.122E-03    0.107E-03
DAV:  16    -0.292443888216E+03   -0.10084E-07   -0.12293E-08  2688   0.241E-04
   1 F= -.29244389E+03 E0= -.29244389E+03  d E =-.357486E-12
