       N       E                     dE             d eps       ncg     rms          rms(c)
DAV:   1     0.468674068513E+03    0.46867E+03   -0.65065E+04  4032   0.903E+02
DAV:   2    -0.239841781947E+03   -0.70852E+03   -0.67523E+03  4944   0.156E+02
DAV:   3    -0.283992396573E+03   -0.44151E+02   -0.43562E+02  5024   0.372E+01
DAV:   4    -0.284945410594E+03   -0.95301E+00   -0.94860E+00  5088   0.648E+00
DAV:   5    -0.284964563910E+03   -0.19153E-01   -0.19135E-01  4992   0.920E-01    0.239E+01
DAV:   6    -0.281751118572E+03    0.32134E+01   -0.18141E+00  4736   0.234E+00    0.147E+01
DAV:   7    -0.280335973635E+03    0.14151E+01   -0.38248E+00  4672   0.347E+00    0.954E-01
DAV:   8    -0.280354065218E+03   -0.18092E-01   -0.24238E-01  4720   0.104E+00    0.473E-01
DAV:   9    -0.280360800268E+03   -0.67350E-02   -0.17888E-02  5056   0.283E-01    0.309E-01
DAV:  10    -0.280362032017E+03   -0.12317E-02   -0.18625E-03  4608   0.829E-02    0.171E-01
DAV:  11    -0.280362916906E+03   -0.88489E-03   -0.88542E-04  4480   0.662E-02    0.689E-02
DAV:  12    -0.280362958106E+03   -0.41200E-04   -0.70826E-05  5040   0.178E-02    0.312E-02
DAV:  13    -0.280362971322E+03   -0.13216E-04   -0.21829E-05  4608   0.103E-02    0.937E-03
DAV:  14    -0.280362969086E+03    0.22363E-05   -0.23541E-06  4976   0.350E-03    0.478E-03
DAV:  15    -0.280362970305E+03   -0.12190E-05   -0.10937E-06  4832   0.233E-03    0.183E-03
DAV:  16    -0.280362970281E+03    0.23587E-07   -0.11687E-07  2912   0.824E-04
   1 F= -.28036297E+03 E0= -.28036297E+03  d E =-.350195E-11
