
     Program PWSCF v.5.1 starts on  9Oct2017 at 10:58:23 

     This program is part of the open-source Quantum ESPRESSO suite
     for quantum simulation of materials; please cite
         "P. Giannozzi et al., J. Phys.:Condens. Matter 21 395502 (2009);
          URL http://www.quantum-espresso.org", 
     in publications or presentations arising from this work. More details at
     http://www.quantum-espresso.org/quote

     Parallel version (MPI), running on     8 processors
     R & G space division:  proc/nbgrp/npool/nimage =       8
     Reading input from /tmp/Al.scf.in.super.333.01.23169/Al.scf.in.super.333.01.t
Warning: card &IONS ignored
Warning: card   ION_DYNAMICS='BFGS', ignored
Warning: card / ignored
Warning: card &CELL ignored
Warning: card  CELL_DYNAMICS = 'BFGS' ignored
Warning: card / ignored
     Message from routine read_cards :
     DEPRECATED: no units specified in CELL_PARAMETERS card

     Current dimensions of program PWSCF are:
     Max number of different atomic species (ntypx) = 10
     Max number of k-points (npk) =  40000
     Max angular momentum in pseudopotentials (lmaxx) =  3
 kfg - two_fermi_energies  F

     Subspace diagonalization in iterative solution of the eigenvalue problem:
     a serial algorithm will be used


     Parallelization info
     --------------------
     sticks:   dense  smooth     PW     G-vecs:    dense   smooth      PW
     Min         446     314     87                17656    10334    1524
     Max         447     315     89                17661    10352    1525
     Sum        3571    2515    703               141263    82723   12195



     bravais-lattice index     =            0
     lattice parameter (alat)  =    16.110077237  a.u.
     unit-cell volume          =    2956.4999 (a.u.)^3
     number of atoms/cell      =           27
     number of atomic types    =            1
     number of electrons       =        81.00
     number of Kohn-Sham states=           49
     kinetic-energy cutoff     =      35.0000  Ry
     charge density cutoff     =     200.0000  Ry
     convergence threshold     =      1.0E-09
     mixing beta               =       0.3000
     number of iterations used =            8  local-TF  mixing
     Exchange-correlation      = SLA  PW   PSX  PSC ( 1  4 10  8 0)
     A smooth kinetic-energy cutoff is imposed at      34.5000 Ry
     height of the smooth step-function =             800.0000 Ry
     width of the smooth step-function  =               1.0000 Ry


     celldm(1)=  16.110077  celldm(2)=   0.000000  celldm(3)=   0.000000
     celldm(4)=   0.000000  celldm(5)=   0.000000  celldm(6)=   0.000000

     crystal axes: (cart. coord. in units of alat)
               a(1) = (   0.707106781187   0.707106781187   0.000000000000 )  
               a(2) = (   0.707106781187  -0.000000000000   0.707106781187 )  
               a(3) = (   0.000000000000   0.707106781187   0.707106781187 )  

     reciprocal axes: (cart. coord. in units 2 pi/alat)
               b(1) = (  0.707107  0.707107 -0.707107 )  
               b(2) = (  0.707107 -0.707107  0.707107 )  
               b(3) = ( -0.707107  0.707107  0.707107 )  


     PseudoPot. # 1 for Al read from file:
     /users/kfg/psuedo/gbrv_1.5/al.pbesol.UPF
     MD5 check sum: 6741bacbf7acc11acbeee135211c012e
     Pseudo is Ultrasoft + core correction, Zval =  3.0
     Generated by new atomic code, or converted to UPF format
     Using radial grid of  893 points,  3 beta functions with: 
                l(1) =   0
                l(2) =   1
                l(3) =   2
     Q(r) pseudized with  8 coefficients,  rinner =    0.900   0.900   0.900
                                                       0.900   0.900

     atomic species   valence    mass     pseudopotential
        Al             3.00    26.98154     Al( 1.00)

     No symmetry found



   Cartesian axes

     site n.     atom                  positions (alat units)
         1           Al  tau(   1) = (   -0.00016720361   -0.00079851937   -0.00054954522  )
         2           Al  tau(   2) = (   -0.00084595338    0.23701778639    0.23592466001  )
         3           Al  tau(   3) = (    0.00022226070    0.47426926005    0.47015456531  )
         4           Al  tau(   4) = (    0.23526894979   -0.00132066723    0.23272674321  )
         5           Al  tau(   5) = (    0.23627546809    0.23492028015    0.47162065393  )
         6           Al  tau(   6) = (    0.23650472876    0.47093493925    0.70516200658  )
         7           Al  tau(   7) = (    0.47431548484    0.00197889236    0.47036631899  )
         8           Al  tau(   8) = (    0.47066057506    0.23432454838    0.70862034244  )
         9           Al  tau(   9) = (    0.47302856533    0.47354057368    0.94261801394  )
        10           Al  tau(  10) = (    0.23395768833    0.23640915690    0.00181193557  )
        11           Al  tau(  11) = (    0.23835062405    0.47024652948    0.23265976110  )
        12           Al  tau(  12) = (    0.23492007893    0.70724556285    0.47286530849  )
        13           Al  tau(  13) = (    0.47019115967    0.23768153369    0.23777626233  )
        14           Al  tau(  14) = (    0.47293032140    0.46955832706    0.47246457564  )
        15           Al  tau(  15) = (    0.46880007279    0.70662302897    0.70810004106  )
        16           Al  tau(  16) = (    0.70536696669    0.23874987504    0.47425238433  )
        17           Al  tau(  17) = (    0.70763747915    0.46922489667    0.70546494691  )
        18           Al  tau(  18) = (    0.70806384658    0.70911814115    0.94577329572  )
        19           Al  tau(  19) = (    0.47365803699    0.47133173323    0.00061595077  )
        20           Al  tau(  20) = (    0.47041371138    0.70504304875    0.23747851183  )
        21           Al  tau(  21) = (    0.47243423161    0.94083201738    0.47147926006  )
        22           Al  tau(  22) = (    0.70501913429    0.46885576921    0.23771935379  )
        23           Al  tau(  23) = (    0.70429540086    0.70478574280    0.47143952994  )
        24           Al  tau(  24) = (    0.70496367162    0.93976908815    0.70439619754  )
        25           Al  tau(  25) = (    0.94528367362    0.47024144631    0.47032798153  )
        26           Al  tau(  26) = (    0.94461413112    0.70766950042    0.70445341823  )
        27           Al  tau(  27) = (    0.94092866268    0.94399251261    0.94087595230  )

     number of k points=   112  gaussian smearing, width (Ry)=  0.0500

     Number of k-points >= 100: set verbosity='high' to print them.

     Dense  grid:   141263 G-vectors     FFT dimensions: (  75,  75,  75)

     Smooth grid:    82723 G-vectors     FFT dimensions: (  64,  64,  64)

     Largest allocated arrays     est. size (Mb)     dimensions
        Kohn-Sham Wavefunctions         0.99 Mb     (    1323,   49)
        NL pseudopotentials             4.91 Mb     (    1323,  243)
        Each V/rho on FFT grid          0.86 Mb     (   56250)
        Each G-vector array             0.13 Mb     (   17661)
        G-vector shells                 0.01 Mb     (     874)
     Largest temporary arrays     est. size (Mb)     dimensions
        Auxiliary wavefunctions         3.96 Mb     (    1323,  196)
        Each subspace H/S matrix        0.59 Mb     (     196,  196)
        Each <psi_i|beta_j> matrix      0.18 Mb     (     243,   49)
        Arrays for rho mixing           6.87 Mb     (   56250,    8)

     Initial potential from superposition of free atoms

     starting charge   80.93646, renormalised to   81.00000
     Starting wfc are  108 randomized atomic wfcs

     total cpu time spent up to now is      120.2 secs

     Self-consistent Calculation

     iteration #  1     ecut=    35.00 Ry     beta=0.30
     Davidson diagonalization with overlap
     ethr =  1.00E-02,  avg # of iterations =  3.0

     Threshold (ethr) on eigenvalues was too large:
     Diagonalizing with lowered threshold

     Davidson diagonalization with overlap
     ethr =  1.98E-04,  avg # of iterations =  3.4

     total cpu time spent up to now is      569.5 secs

     total energy              =    -180.06072419 Ry
     Harris-Foulkes estimate   =    -180.08403702 Ry
     estimated scf accuracy    <       0.16192033 Ry

     iteration #  2     ecut=    35.00 Ry     beta=0.30
     Davidson diagonalization with overlap
     ethr =  2.00E-04,  avg # of iterations =  1.2

     total cpu time spent up to now is      725.6 secs

     total energy              =    -180.01977812 Ry
     Harris-Foulkes estimate   =    -180.06172211 Ry
     estimated scf accuracy    <       0.09881330 Ry

     iteration #  3     ecut=    35.00 Ry     beta=0.30
     Davidson diagonalization with overlap
     ethr =  1.22E-04,  avg # of iterations =  1.0

     total cpu time spent up to now is      874.8 secs

     total energy              =    -180.02365385 Ry
     Harris-Foulkes estimate   =    -180.02363147 Ry
     estimated scf accuracy    <       0.00007313 Ry

     iteration #  4     ecut=    35.00 Ry     beta=0.30
     Davidson diagonalization with overlap
     c_bands:  3 eigenvalues not converged
     c_bands:  3 eigenvalues not converged
     c_bands:  3 eigenvalues not converged
     c_bands:  3 eigenvalues not converged
     ethr =  9.03E-08,  avg # of iterations =  9.7

     total cpu time spent up to now is     1308.3 secs

     total energy              =    -180.02435498 Ry
     Harris-Foulkes estimate   =    -180.02435046 Ry
     estimated scf accuracy    <       0.00025893 Ry

     iteration #  5     ecut=    35.00 Ry     beta=0.30
     Davidson diagonalization with overlap
     c_bands:  2 eigenvalues not converged
     c_bands:  2 eigenvalues not converged
     c_bands:  1 eigenvalues not converged
     ethr =  9.03E-08,  avg # of iterations =  2.1

     total cpu time spent up to now is     1481.7 secs

     total energy              =    -180.02456924 Ry
     Harris-Foulkes estimate   =    -180.02435526 Ry
     estimated scf accuracy    <       0.00027486 Ry

     iteration #  6     ecut=    35.00 Ry     beta=0.30
     Davidson diagonalization with overlap
     ethr =  9.03E-08,  avg # of iterations =  5.3

     total cpu time spent up to now is     1806.2 secs

     total energy              =    -180.02430741 Ry
     Harris-Foulkes estimate   =    -180.02468779 Ry
     estimated scf accuracy    <       0.00203042 Ry

     iteration #  7     ecut=    35.00 Ry     beta=0.30
     Davidson diagonalization with overlap
     ethr =  9.03E-08,  avg # of iterations =  4.4

     total cpu time spent up to now is     2081.0 secs

     total energy              =    -180.02424350 Ry
     Harris-Foulkes estimate   =    -180.02439205 Ry
     estimated scf accuracy    <       0.00042172 Ry

     iteration #  8     ecut=    35.00 Ry     beta=0.30
     Davidson diagonalization with overlap
     ethr =  9.03E-08,  avg # of iterations =  4.3

     total cpu time spent up to now is     2358.6 secs

     total energy              =    -180.02431548 Ry
     Harris-Foulkes estimate   =    -180.02431615 Ry
     estimated scf accuracy    <       0.00000480 Ry

     iteration #  9     ecut=    35.00 Ry     beta=0.30
     Davidson diagonalization with overlap
     ethr =  5.93E-09,  avg # of iterations =  2.2

     total cpu time spent up to now is     2540.9 secs

     total energy              =    -180.02431477 Ry
     Harris-Foulkes estimate   =    -180.02431578 Ry
     estimated scf accuracy    <       0.00000207 Ry

     iteration # 10     ecut=    35.00 Ry     beta=0.30
     Davidson diagonalization with overlap
     ethr =  2.56E-09,  avg # of iterations =  3.7

     total cpu time spent up to now is     2793.5 secs

     total energy              =    -180.02431513 Ry
     Harris-Foulkes estimate   =    -180.02431579 Ry
     estimated scf accuracy    <       0.00000146 Ry

     iteration # 11     ecut=    35.00 Ry     beta=0.30
     Davidson diagonalization with overlap
     ethr =  1.80E-09,  avg # of iterations =  3.3

     total cpu time spent up to now is     3023.1 secs

     total energy              =    -180.02431550 Ry
     Harris-Foulkes estimate   =    -180.02431557 Ry
     estimated scf accuracy    <       0.00000027 Ry

     iteration # 12     ecut=    35.00 Ry     beta=0.30
     Davidson diagonalization with overlap
     ethr =  3.37E-10,  avg # of iterations =  2.4

     total cpu time spent up to now is     3209.1 secs

     total energy              =    -180.02431551 Ry
     Harris-Foulkes estimate   =    -180.02431552 Ry
     estimated scf accuracy    <       0.00000002 Ry

     iteration # 13     ecut=    35.00 Ry     beta=0.30
     Davidson diagonalization with overlap
     ethr =  3.03E-11,  avg # of iterations =  3.6

     total cpu time spent up to now is     3462.8 secs

     total energy              =    -180.02431552 Ry
     Harris-Foulkes estimate   =    -180.02431552 Ry
     estimated scf accuracy    <          1.9E-09 Ry

     iteration # 14     ecut=    35.00 Ry     beta=0.30
     Davidson diagonalization with overlap
     ethr =  2.31E-12,  avg # of iterations =  2.5

     total cpu time spent up to now is     3635.2 secs

     End of self-consistent calculation

     Number of k-points >= 100: set verbosity='high' to print the bands.

     the Fermi energy is     8.0128 ev

!    total energy              =    -180.02431552 Ry
     Harris-Foulkes estimate   =    -180.02431552 Ry
     estimated scf accuracy    <          6.4E-10 Ry

     The total energy is the sum of the following terms:

     one-electron contribution =      81.66378833 Ry
     hartree contribution      =       0.23868028 Ry
     xc contribution           =    -115.06066841 Ry
     ewald contribution        =    -146.68349014 Ry
     smearing contrib. (-TS)   =      -0.18262557 Ry

     convergence has been achieved in  14 iterations

     Forces acting on atoms (Ry/au):

     atom    1 type  1   force =  -0.56184204E-03  0.69378572E-03  0.33510179E-02
     atom    2 type  1   force =   0.66832380E-03 -0.28278081E-02  0.14914926E-02
     atom    3 type  1   force =   0.17557282E-02 -0.57845827E-02  0.88773308E-03
     atom    4 type  1   force =  -0.21089499E-02  0.95713305E-03  0.58983893E-02
     atom    5 type  1   force =  -0.31025734E-02  0.30163980E-03 -0.23171446E-02
     atom    6 type  1   force =  -0.30589900E-02 -0.20311348E-02  0.19865245E-02
     atom    7 type  1   force =  -0.50897499E-02 -0.20656480E-02  0.11802872E-02
     atom    8 type  1   force =   0.58195780E-03  0.95270411E-03  0.11205930E-02
     atom    9 type  1   force =  -0.13864390E-02 -0.30833310E-02 -0.32566075E-03
     atom   10 type  1   force =   0.33342735E-02 -0.15705782E-02 -0.36629639E-02
     atom   11 type  1   force =  -0.48981362E-02  0.37681459E-02  0.45147994E-02
     atom   12 type  1   force =   0.16022489E-02  0.13243374E-02 -0.30214042E-02
     atom   13 type  1   force =   0.13716825E-02 -0.49193316E-02 -0.36882453E-02
     atom   14 type  1   force =  -0.54186383E-02  0.28778111E-02  0.87146183E-03
     atom   15 type  1   force =   0.42017706E-02  0.51563320E-03  0.14315073E-03
     atom   16 type  1   force =   0.45392171E-02 -0.53273726E-02 -0.27557287E-02
     atom   17 type  1   force =   0.38516519E-04  0.66518222E-02  0.46850158E-02
     atom   18 type  1   force =   0.84615621E-03 -0.11477604E-02 -0.69853525E-02
     atom   19 type  1   force =  -0.14484127E-02 -0.74165992E-03 -0.32784860E-02
     atom   20 type  1   force =   0.15375595E-03  0.30796250E-02 -0.21437989E-02
     atom   21 type  1   force =  -0.35921412E-02  0.33189063E-02 -0.86585706E-03
     atom   22 type  1   force =   0.47776981E-02  0.29969263E-02 -0.48237896E-02
     atom   23 type  1   force =   0.58361442E-02  0.12624554E-02 -0.11238441E-02
     atom   24 type  1   force =   0.22219435E-02  0.32812062E-02  0.35483881E-02
     atom   25 type  1   force =  -0.20331134E-03  0.21004179E-02  0.39616636E-03
     atom   26 type  1   force =  -0.32012730E-02 -0.30784328E-02  0.23466971E-02
     atom   27 type  1   force =   0.21410402E-02 -0.15049093E-02  0.25705586E-02

     Total force =     0.027617     Total SCF correction =     0.000032


     entering subroutine stress ...

          total   stress  (Ry/bohr**3)                   (kbar)     P=    0.68
   0.0000043753  -0.0000000626  -0.0000002162          0.64     -0.01     -0.03
  -0.0000000626   0.0000049445   0.0000003848         -0.01      0.73      0.06
  -0.0000002162   0.0000003848   0.0000045244         -0.03      0.06      0.67


     Writing output data file Al.scf.in.super.333.011.save

     init_run     :    118.64s CPU    120.02s WALL (       1 calls)
     electrons    :   3261.07s CPU   3515.06s WALL (       1 calls)
     forces       :     25.99s CPU     23.91s WALL (       1 calls)
     stress       :     77.93s CPU     78.91s WALL (       1 calls)

     Called by init_run:
     wfcinit      :    117.72s CPU    119.05s WALL (       1 calls)
     potinit      :      0.22s CPU      0.23s WALL (       1 calls)

     Called by electrons:
     c_bands      :   2876.56s CPU   3098.78s WALL (      15 calls)
     sum_band     :    375.16s CPU    406.12s WALL (      15 calls)
     v_of_rho     :      1.98s CPU      2.23s WALL (      15 calls)
     newd         :      5.71s CPU      6.02s WALL (      15 calls)
     mix_rho      :      1.86s CPU      2.08s WALL (      15 calls)

     Called by c_bands:
     init_us_2    :     23.43s CPU     25.29s WALL (    3696 calls)
     cegterg      :   2802.74s CPU   3020.76s WALL (    1680 calls)

     Called by *egterg:
     h_psi        :   1833.60s CPU   2000.58s WALL (    7640 calls)
     s_psi        :    207.14s CPU    167.60s WALL (    7640 calls)
     g_psi        :      3.10s CPU      3.07s WALL (    5848 calls)
     cdiaghg      :    194.55s CPU    242.89s WALL (    7416 calls)

     Called by h_psi:
     add_vuspsi   :    210.54s CPU    180.57s WALL (    7640 calls)

     General routines
     calbec       :    438.30s CPU    420.01s WALL (    9544 calls)
     fft          :      2.85s CPU      3.12s WALL (     265 calls)
     ffts         :      1.12s CPU      1.21s WALL (     255 calls)
     fftw         :   1383.47s CPU   1604.06s WALL (  565278 calls)
     interpolate  :      0.34s CPU      0.43s WALL (      30 calls)

     Parallel routines
     fft_scatter  :    890.23s CPU   1036.63s WALL (  565798 calls)

     PWSCF        :     0h58m CPU        1h 2m WALL


   This run was terminated on:  12: 0:51   9Oct2017            

=------------------------------------------------------------------------------=
   JOB DONE.
=------------------------------------------------------------------------------=
