
     Program PWSCF v.5.1 starts on 15Sep2017 at 10:22:23 

     This program is part of the open-source Quantum ESPRESSO suite
     for quantum simulation of materials; please cite
         "P. Giannozzi et al., J. Phys.:Condens. Matter 21 395502 (2009);
          URL http://www.quantum-espresso.org", 
     in publications or presentations arising from this work. More details at
     http://www.quantum-espresso.org/quote

     Parallel version (MPI), running on     8 processors
     R & G space division:  proc/nbgrp/npool/nimage =       8
     Reading input from /tmp/Al.scf.in.super.333.vac.relaxed_scf.23040/Al.scf.in.super.333.vac.relaxed_scf.t
Warning: card &IONS ignored
Warning: card   ION_DYNAMICS='BFGS', ignored
Warning: card / ignored
Warning: card &CELL ignored
Warning: card  CELL_DYNAMICS = 'BFGS' ignored
Warning: card / ignored
     Message from routine read_cards :
     DEPRECATED: no units specified in CELL_PARAMETERS card

     Current dimensions of program PWSCF are:
     Max number of different atomic species (ntypx) = 10
     Max number of k-points (npk) =  40000
     Max angular momentum in pseudopotentials (lmaxx) =  3
 kfg - two_fermi_energies  F

     Subspace diagonalization in iterative solution of the eigenvalue problem:
     a serial algorithm will be used


     Parallelization info
     --------------------
     sticks:   dense  smooth     PW     G-vecs:    dense   smooth      PW
     Min         446     314     87                17656    10334    1524
     Max         447     315     89                17661    10352    1525
     Sum        3571    2515    703               141263    82723   12195



     bravais-lattice index     =            0
     lattice parameter (alat)  =    16.110077237  a.u.
     unit-cell volume          =    2956.4999 (a.u.)^3
     number of atoms/cell      =           26
     number of atomic types    =            1
     number of electrons       =        78.00
     number of Kohn-Sham states=           47
     kinetic-energy cutoff     =      35.0000  Ry
     charge density cutoff     =     200.0000  Ry
     convergence threshold     =      1.0E-10
     mixing beta               =       0.3000
     number of iterations used =            8  local-TF  mixing
     Exchange-correlation      = SLA  PW   PSX  PSC ( 1  4 10  8 0)
     A smooth kinetic-energy cutoff is imposed at      34.5000 Ry
     height of the smooth step-function =             800.0000 Ry
     width of the smooth step-function  =               1.0000 Ry


     celldm(1)=  16.110077  celldm(2)=   0.000000  celldm(3)=   0.000000
     celldm(4)=   0.000000  celldm(5)=   0.000000  celldm(6)=   0.000000

     crystal axes: (cart. coord. in units of alat)
               a(1) = (   0.707106781187   0.707106781187  -0.000000000000 )  
               a(2) = (   0.707106781187  -0.000000000000   0.707106781187 )  
               a(3) = (  -0.000000000000   0.707106781187   0.707106781187 )  

     reciprocal axes: (cart. coord. in units 2 pi/alat)
               b(1) = (  0.707107  0.707107 -0.707107 )  
               b(2) = (  0.707107 -0.707107  0.707107 )  
               b(3) = ( -0.707107  0.707107  0.707107 )  


     PseudoPot. # 1 for Al read from file:
     /users/kfg/psuedo/gbrv_1.5/al.pbesol.UPF
     MD5 check sum: 6741bacbf7acc11acbeee135211c012e
     Pseudo is Ultrasoft + core correction, Zval =  3.0
     Generated by new atomic code, or converted to UPF format
     Using radial grid of  893 points,  3 beta functions with: 
                l(1) =   0
                l(2) =   1
                l(3) =   2
     Q(r) pseudized with  8 coefficients,  rinner =    0.900   0.900   0.900
                                                       0.900   0.900

     atomic species   valence    mass     pseudopotential
        Al             3.00    26.98154     Al( 1.00)

     48 Sym. Ops., with inversion, found



   Cartesian axes

     site n.     atom                  positions (alat units)
         1           Al  tau(   1) = (    0.00000000000    0.23298837656    0.23298837656  )
         2           Al  tau(   2) = (    0.00000000000    0.47411840463    0.47411840463  )
         3           Al  tau(   3) = (    0.23298837656    0.00000000000    0.23298837656  )
         4           Al  tau(   4) = (    0.23543877945    0.23543877945    0.47166800103  )
         5           Al  tau(   5) = (    0.23298837656    0.47411840463    0.70710678119  )
         6           Al  tau(   6) = (    0.47411840463    0.00000000000    0.47411840463  )
         7           Al  tau(   7) = (    0.47411840463    0.23298837656    0.70710678119  )
         8           Al  tau(   8) = (    0.47166800174    0.47166800174    0.94254556134  )
         9           Al  tau(   9) = (    0.23298837656    0.23298837656    0.00000000000  )
        10           Al  tau(  10) = (    0.23543877945    0.47166800103    0.23543877945  )
        11           Al  tau(  11) = (    0.23298837656    0.70710678119    0.47411840463  )
        12           Al  tau(  12) = (    0.47166800103    0.23543877945    0.23543877945  )
        13           Al  tau(  13) = (    0.47166800103    0.47166800103    0.47166800103  )
        14           Al  tau(  14) = (    0.47096989007    0.70710678119    0.70710678119  )
        15           Al  tau(  15) = (    0.70710678119    0.23298837656    0.47411840463  )
        16           Al  tau(  16) = (    0.70710678119    0.47096989007    0.70710678119  )
        17           Al  tau(  17) = (    0.70710678119    0.70710678119    0.94324367231  )
        18           Al  tau(  18) = (    0.47411840463    0.47411840463   -0.00000000000  )
        19           Al  tau(  19) = (    0.47411840463    0.70710678119    0.23298837656  )
        20           Al  tau(  20) = (    0.47166800174    0.94254556134    0.47166800174  )
        21           Al  tau(  21) = (    0.70710678119    0.47411840463    0.23298837656  )
        22           Al  tau(  22) = (    0.70710678119    0.70710678119    0.47096989007  )
        23           Al  tau(  23) = (    0.70710678119    0.94324367231    0.70710678119  )
        24           Al  tau(  24) = (    0.94254556134    0.47166800174    0.47166800174  )
        25           Al  tau(  25) = (    0.94324367231    0.70710678119    0.70710678119  )
        26           Al  tau(  26) = (    0.94254556134    0.94254556134    0.94254556134  )

     number of k points=    16  gaussian smearing, width (Ry)=  0.0500
                       cart. coord. in units 2pi/alat
        k(    1) = (   0.0000000   0.0000000   0.0000000), wk =   0.0092593
        k(    2) = (  -0.1178511   0.1178511   0.1178511), wk =   0.0740741
        k(    3) = (  -0.2357023   0.2357023   0.2357023), wk =   0.0740741
        k(    4) = (   0.3535534  -0.3535534  -0.3535534), wk =   0.0370370
        k(    5) = (   0.0000000   0.0000000   0.2357023), wk =   0.0555556
        k(    6) = (  -0.1178511   0.1178511   0.3535534), wk =   0.2222222
        k(    7) = (   0.4714045  -0.4714045  -0.2357023), wk =   0.2222222
        k(    8) = (   0.3535534  -0.3535534  -0.1178511), wk =   0.2222222
        k(    9) = (   0.2357023  -0.2357023   0.0000000), wk =   0.1111111
        k(   10) = (   0.0000000   0.0000000   0.4714045), wk =   0.0555556
        k(   11) = (   0.5892557  -0.5892557  -0.1178511), wk =   0.2222222
        k(   12) = (   0.4714045  -0.4714045  -0.0000000), wk =   0.1111111
        k(   13) = (   0.0000000   0.0000000  -0.7071068), wk =   0.0277778
        k(   14) = (   0.7071068  -0.4714045  -0.2357023), wk =   0.2222222
        k(   15) = (   0.5892557  -0.3535534  -0.1178511), wk =   0.2222222
        k(   16) = (   0.0000000   0.2357023  -0.7071068), wk =   0.1111111

     Dense  grid:   141263 G-vectors     FFT dimensions: (  75,  75,  75)

     Smooth grid:    82723 G-vectors     FFT dimensions: (  64,  64,  64)

     Largest allocated arrays     est. size (Mb)     dimensions
        Kohn-Sham Wavefunctions         0.94 Mb     (    1310,   47)
        NL pseudopotentials             4.68 Mb     (    1310,  234)
        Each V/rho on FFT grid          0.86 Mb     (   56250)
        Each G-vector array             0.13 Mb     (   17661)
        G-vector shells                 0.01 Mb     (     874)
     Largest temporary arrays     est. size (Mb)     dimensions
        Auxiliary wavefunctions         3.76 Mb     (    1310,  188)
        Each subspace H/S matrix        0.54 Mb     (     188,  188)
        Each <psi_i|beta_j> matrix      0.17 Mb     (     234,   47)
        Arrays for rho mixing           6.87 Mb     (   56250,    8)

     Initial potential from superposition of free atoms

     starting charge   77.93882, renormalised to   78.00000
     Starting wfc are  104 randomized atomic wfcs

     total cpu time spent up to now is        8.0 secs

     per-process dynamical memory:    34.6 Mb

     Self-consistent Calculation

     iteration #  1     ecut=    35.00 Ry     beta=0.30
     Davidson diagonalization with overlap
     ethr =  1.00E-02,  avg # of iterations =  3.0

     Threshold (ethr) on eigenvalues was too large:
     Diagonalizing with lowered threshold

     Davidson diagonalization with overlap
     ethr =  2.40E-04,  avg # of iterations =  4.9

     total cpu time spent up to now is       42.7 secs

     total energy              =    -173.34112887 Ry
     Harris-Foulkes estimate   =    -173.36734343 Ry
     estimated scf accuracy    <       0.19859813 Ry

     iteration #  2     ecut=    35.00 Ry     beta=0.30
     Davidson diagonalization with overlap
     ethr =  2.55E-04,  avg # of iterations =  1.0

     total cpu time spent up to now is       54.0 secs

     total energy              =    -173.29045270 Ry
     Harris-Foulkes estimate   =    -173.34246390 Ry
     estimated scf accuracy    <       0.12458248 Ry

     iteration #  3     ecut=    35.00 Ry     beta=0.30
     Davidson diagonalization with overlap
     ethr =  1.60E-04,  avg # of iterations =  2.2

     total cpu time spent up to now is       66.5 secs

     total energy              =    -173.30060992 Ry
     Harris-Foulkes estimate   =    -173.30066813 Ry
     estimated scf accuracy    <       0.00053830 Ry

     iteration #  4     ecut=    35.00 Ry     beta=0.30
     Davidson diagonalization with overlap
     c_bands:  1 eigenvalues not converged
     c_bands:  1 eigenvalues not converged
     c_bands:  1 eigenvalues not converged
     c_bands:  1 eigenvalues not converged
     ethr =  6.90E-07,  avg # of iterations = 14.3

     total cpu time spent up to now is      100.1 secs

     total energy              =    -173.30199501 Ry
     Harris-Foulkes estimate   =    -173.30196940 Ry
     estimated scf accuracy    <       0.00159912 Ry

     iteration #  5     ecut=    35.00 Ry     beta=0.30
     Davidson diagonalization with overlap
     c_bands:  1 eigenvalues not converged
     ethr =  6.90E-07,  avg # of iterations =  2.4

     total cpu time spent up to now is      112.8 secs

     total energy              =    -173.30092212 Ry
     Harris-Foulkes estimate   =    -173.30199657 Ry
     estimated scf accuracy    <       0.00171291 Ry

     iteration #  6     ecut=    35.00 Ry     beta=0.30
     Davidson diagonalization with overlap
     ethr =  6.90E-07,  avg # of iterations =  5.6

     total cpu time spent up to now is      138.7 secs

     total energy              =    -173.30212281 Ry
     Harris-Foulkes estimate   =    -173.30250429 Ry
     estimated scf accuracy    <       0.00447991 Ry

     iteration #  7     ecut=    35.00 Ry     beta=0.30
     Davidson diagonalization with overlap
     ethr =  6.90E-07,  avg # of iterations =  2.1

     total cpu time spent up to now is      151.4 secs

     total energy              =    -173.30129044 Ry
     Harris-Foulkes estimate   =    -173.30215985 Ry
     estimated scf accuracy    <       0.00265827 Ry

     iteration #  8     ecut=    35.00 Ry     beta=0.30
     Davidson diagonalization with overlap
     ethr =  6.90E-07,  avg # of iterations =  3.9

     total cpu time spent up to now is      171.4 secs

     total energy              =    -173.30171099 Ry
     Harris-Foulkes estimate   =    -173.30171727 Ry
     estimated scf accuracy    <       0.00001204 Ry

     iteration #  9     ecut=    35.00 Ry     beta=0.30
     Davidson diagonalization with overlap
     ethr =  1.54E-08,  avg # of iterations =  4.4

     total cpu time spent up to now is      190.9 secs

     total energy              =    -173.30171491 Ry
     Harris-Foulkes estimate   =    -173.30172053 Ry
     estimated scf accuracy    <       0.00001804 Ry

     iteration # 10     ecut=    35.00 Ry     beta=0.30
     Davidson diagonalization with overlap
     ethr =  1.54E-08,  avg # of iterations =  2.9

     total cpu time spent up to now is      206.4 secs

     total energy              =    -173.30171737 Ry
     Harris-Foulkes estimate   =    -173.30171738 Ry
     estimated scf accuracy    <       0.00000007 Ry

     iteration # 11     ecut=    35.00 Ry     beta=0.30
     Davidson diagonalization with overlap
     ethr =  9.29E-11,  avg # of iterations =  5.4

     total cpu time spent up to now is      232.3 secs

     total energy              =    -173.30171743 Ry
     Harris-Foulkes estimate   =    -173.30171761 Ry
     estimated scf accuracy    <       0.00000098 Ry

     iteration # 12     ecut=    35.00 Ry     beta=0.30
     Davidson diagonalization with overlap
     ethr =  9.29E-11,  avg # of iterations =  3.8

     total cpu time spent up to now is      250.2 secs

     total energy              =    -173.30171742 Ry
     Harris-Foulkes estimate   =    -173.30171747 Ry
     estimated scf accuracy    <       0.00000019 Ry

     iteration # 13     ecut=    35.00 Ry     beta=0.30
     Davidson diagonalization with overlap
     ethr =  9.29E-11,  avg # of iterations =  3.4

     total cpu time spent up to now is      266.5 secs

     total energy              =    -173.30171744 Ry
     Harris-Foulkes estimate   =    -173.30171744 Ry
     estimated scf accuracy    <          1.9E-09 Ry

     iteration # 14     ecut=    35.00 Ry     beta=0.30
     Davidson diagonalization with overlap
     ethr =  2.44E-12,  avg # of iterations =  5.0

     total cpu time spent up to now is      283.0 secs

     total energy              =    -173.30171744 Ry
     Harris-Foulkes estimate   =    -173.30171744 Ry
     estimated scf accuracy    <          3.9E-10 Ry

     iteration # 15     ecut=    35.00 Ry     beta=0.30
     Davidson diagonalization with overlap
     ethr =  4.96E-13,  avg # of iterations =  4.2

     total cpu time spent up to now is      300.3 secs

     End of self-consistent calculation

          k = 0.0000 0.0000 0.0000 ( 10417 PWs)   bands (ev):

    -3.5082  -0.6103  -0.5728  -0.5728  -0.5728  -0.5160  -0.5160  -0.5160
    -0.1670   0.4105   0.4105   0.5272   0.5272   0.5272   1.4734   4.2801
     4.2801   4.2801   4.3502   4.3502   4.3502   4.3638   4.3638   4.6541
     4.6541   4.6541   5.0119   6.4940   6.4940   6.4940   6.5122   6.5833
     6.5833   6.7216   6.7216   6.7216   7.1185   7.1185   7.1185   8.0656
     8.0656   8.0656   8.0678   8.0678   8.0678   8.0960   8.0960

          k =-0.1179 0.1179 0.1179 ( 10357 PWs)   bands (ev):

    -3.4252  -1.4274  -0.7954  -0.7954  -0.7015  -0.1934  -0.1934  -0.1338
    -0.0418  -0.0418   0.3643   0.6557   1.2039   1.2039   1.8392   3.1560
     3.1560   3.4536   4.3563   4.4336   4.4336   4.6279   4.6279   4.7411
     5.4852   5.4852   5.7083   5.8141   5.8141   6.0405   6.1243   6.2386
     6.2386   6.3077   6.4549   6.4549   6.7465   7.0777   7.0777   7.1224
     7.7544   7.7970   7.7970   8.2087   8.2087   8.2770   8.6178

          k =-0.2357 0.2357 0.2357 ( 10345 PWs)   bands (ev):

    -3.1786  -2.1600  -0.8852  -0.8852  -0.8271  -0.5257  -0.5257  -0.2000
     0.4633   0.4633   0.7779   1.7732   2.0285   2.0285   2.1717   2.1717
     2.2994   2.7817   4.2913   4.2913   4.4394   4.5786   4.6582   4.6582
     4.8704   4.8704   4.8984   4.9691   5.5381   5.6296   5.6296   5.8863
     5.8863   6.1871   6.9542   6.9710   6.9710   7.2595   7.2595   7.4317
     7.5192   7.5192   7.5734   8.6270   8.6270   8.7175   9.6506

          k = 0.3536-0.3536-0.3536 ( 10332 PWs)   bands (ev):

    -2.8527  -2.6492  -0.8665  -0.8600  -0.8600  -0.7145  -0.7145  -0.2758
     1.1561   1.1561   1.2469   1.2469   1.2941   1.6942   2.9670   3.0972
     3.0972   3.1795   3.1795   3.1874   3.6095   3.8420   4.8318   4.9263
     4.9263   5.0185   5.0216   5.0216   5.1498   5.2525   5.2525   5.5615
     5.5615   5.9364   6.9262   7.0573   7.0573   7.2807   7.2807   7.4681
     8.7784   8.7784   8.7908   8.8722   8.9191   8.9191   9.3094

          k = 0.0000 0.0000 0.2357 ( 10337 PWs)   bands (ev):

    -3.3975  -1.1481  -1.0965  -1.0965  -0.9813  -0.5347   0.1837   0.2130
     0.2130   0.3360   0.5207   0.6488   0.6488   1.2667   2.1385   3.1408
     3.2247   3.2247   3.5438   4.4357   4.5635   4.5635   4.6449   5.3752
     5.3839   5.3839   5.6888   5.7545   5.7545   5.9014   6.0142   6.1008
     6.1740   6.3231   6.3231   7.0349   7.1903   7.1903   7.2204   7.2718
     7.4072   7.5349   7.5349   7.6848   7.8826   7.8826   8.2610

          k =-0.1179 0.1179 0.3536 ( 10318 PWs)   bands (ev):

    -3.2050  -1.8689  -1.3027  -1.2354  -0.9989  -0.4518   0.0315   0.0950
     0.3511   0.7619   0.9523   1.3478   1.4203   1.8560   2.0841   2.3069
     2.8919   3.3669   3.4906   3.5920   4.0668   4.5688   4.5786   4.8154
     5.0098   5.1666   5.1747   5.4681   5.6075   5.8812   5.9089   5.9592
     6.0851   6.2517   6.7579   6.7742   7.0361   7.2177   7.2441   7.3142
     7.7383   7.7652   7.9167   8.0073   8.0506   8.2479   8.6211

          k = 0.4714-0.4714-0.2357 ( 10326 PWs)   bands (ev):

    -2.8633  -2.4786  -1.5272  -1.2090  -1.0245  -0.2016  -0.1385   0.1483
     0.3581   1.1124   1.2822   1.4509   1.6538   2.4269   2.4847   2.5323
     2.8390   2.9724   3.6924   3.7536   3.7644   3.9317   3.9605   4.1164
     4.2184   4.5068   5.0530   5.1202   5.3948   5.4730   5.6106   6.2275
     6.3709   6.4422   6.5177   6.6671   6.9548   7.6205   7.9129   7.9235
     7.9726   8.2432   8.3200   8.8259   8.9104   8.9217   9.0728

          k = 0.3536-0.3536-0.1179 ( 10316 PWs)   bands (ev):

    -2.9897  -2.2992  -1.6375  -1.0183  -0.8724  -0.3372  -0.2330   0.3262
     0.3481   0.5872   1.0927   1.6617   1.7821   2.2834   2.3712   2.4858
     2.9204   3.2878   3.5253   3.6294   3.6710   3.7953   4.2090   4.2703
     4.6091   4.9211   4.9439   4.9472   5.6139   5.6289   5.7579   6.1378
     6.2714   6.3974   6.4308   6.6534   7.0030   7.2890   7.4501   7.6103
     8.1626   8.2048   8.7048   8.8239   8.9568   8.9989   9.0340

          k = 0.2357-0.2357 0.0000 ( 10323 PWs)   bands (ev):

    -3.2874  -1.6799  -1.5425  -0.6736  -0.5834  -0.3512  -0.3415  -0.2505
     0.0497   0.7137   0.7634   1.0049   1.3059   1.9822   2.0796   2.3994
     3.2439   3.3394   3.4337   3.5854   4.6166   4.6666   4.8059   4.8082
     4.9114   5.1929   5.5875   5.8119   5.9119   5.9649   6.0007   6.0287
     6.1030   6.1370   6.1704   6.5535   6.5769   6.8279   7.1079   7.1509
     7.5221   8.1568   8.2775   8.3686   8.5090   8.5742   8.5887

          k = 0.0000 0.0000 0.4714 ( 10318 PWs)   bands (ev):

    -3.0673  -1.7760  -1.4827  -1.4291  -1.4291  -0.9980   0.8505   0.9103
     0.9103   0.9562   1.1731   1.2583   1.2583   1.8424   2.1652   2.2662
     2.2662   2.6608   3.6216   3.7462   3.8242   3.8242   4.3010   4.8266
     4.8939   4.8939   5.1833   5.7012   5.7724   5.8740   5.8740   6.1397
     6.3285   6.4263   6.4263   7.0590   7.0695   7.0695   7.3345   7.5217
     7.5227   7.5227   7.7821   8.2109   8.2578   8.3129   8.6533

          k = 0.5893-0.5893-0.1179 ( 10356 PWs)   bands (ev):

    -2.7711  -2.1790  -1.9951  -1.4571  -1.2839  -0.6607   0.5365   0.6252
     1.1928   1.2157   1.4345   1.7818   1.8229   1.9366   2.1612   2.5017
     2.5076   2.6014   2.9399   3.1707   3.4136   3.7807   4.1695   4.4702
     4.5635   4.9160   5.1813   5.1995   5.2668   5.6087   5.6539   6.0536
     6.1075   6.4717   6.8455   7.1341   7.4067   7.4606   7.4704   7.6466
     8.0195   8.1421   8.3232   8.4150   8.7109   8.9273   8.9893

          k = 0.4714-0.4714-0.0000 ( 10375 PWs)   bands (ev):

    -2.6521  -2.3509  -2.1702  -1.3191  -1.1445   0.0833   0.3116   0.3192
     0.3875   0.6711   1.3776   1.5359   2.5944   2.6486   2.7100   2.7116
     2.9072   2.9269   3.0395   3.0555   3.1485   3.4279   3.9008   4.0396
     4.1859   4.4553   5.0821   5.2031   5.2300   5.5479   5.5497   5.9473
     5.9532   6.5934   7.4255   7.5243   7.6834   7.8124   7.9320   8.0086
     8.0419   8.0739   8.1455   8.3881   8.6872   8.8839   9.0273

          k = 0.0000 0.0000-0.7071 ( 10326 PWs)   bands (ev):

    -2.5753  -2.4621  -1.5944  -1.5402  -1.5402  -1.1197   1.3690   1.3857
     1.3857   1.4304   1.4309   1.5774   1.5774   1.8078   2.3518   2.3808
     2.3808   2.3869   2.5115   2.5115   2.8537   3.3572   4.8468   5.2550
     5.3464   5.3464   5.3854   5.3854   5.3957   5.4246   5.5968   5.7329
     5.7592   6.1709   6.1709   6.3800   7.1022   7.1022   7.1808   7.7204
     8.4540   8.4985   8.4985   8.9225   9.3334   9.3734   9.3844

          k = 0.7071-0.4714-0.2357 ( 10320 PWs)   bands (ev):

    -2.9600  -2.0150  -1.9081  -1.5305  -0.6772  -0.4699  -0.2312   0.6384
     0.7781   1.0012   1.0582   1.3269   1.9648   2.1070   2.3254   2.3722
     2.7111   3.2534   3.4326   3.6033   3.6586   3.7460   3.9272   4.4928
     4.5788   4.6745   4.8923   4.9451   5.4542   5.4695   6.1850   6.1909
     6.3631   6.6553   6.7929   7.0634   7.3675   7.3905   7.5169   7.5678
     7.6986   7.8930   7.9690   8.1925   8.6582   8.7593   9.1235

          k = 0.5893-0.3536-0.1179 ( 10332 PWs)   bands (ev):

    -2.6283  -2.4563  -1.9543  -1.6946  -0.5461  -0.4605   0.1238   0.2488
     0.7087   0.9617   1.4666   1.5570   2.1437   2.1769   2.6647   2.7205
     2.8753   2.9597   3.2329   3.3706   3.5734   3.7564   3.8824   4.0222
     4.2234   4.3509   4.6729   4.7620   4.8094   5.1992   6.3703   6.4953
     6.7343   6.7366   6.9612   7.0612   7.4278   7.4915   7.6705   7.9001
     7.9317   8.0214   8.4458   8.5768   8.7957   8.9644   9.0260

          k = 0.0000 0.2357-0.7071 ( 10362 PWs)   bands (ev):

    -2.4631  -2.3998  -2.1269  -1.8548  -0.7879  -0.5560   0.2061   0.4133
     1.4939   1.5289   1.6402   1.6484   1.8255   1.9421   2.0422   2.3161
     2.8060   2.9111   3.1058   3.2004   3.4079   3.7347   4.1447   4.1763
     4.2574   4.3618   4.4552   5.0099   5.1076   5.3234   6.3382   6.4279
     6.6655   6.6800   6.7369   7.0268   7.1477   7.4145   7.8611   8.1774
     8.2589   8.4168   8.4750   8.5771   8.5834   8.8364   8.8561

     the Fermi energy is     7.5771 ev

!    total energy              =    -173.30171744 Ry
     Harris-Foulkes estimate   =    -173.30171744 Ry
     estimated scf accuracy    <          9.2E-11 Ry

     The total energy is the sum of the following terms:

     one-electron contribution =      74.02678337 Ry
     hartree contribution      =       1.29605238 Ry
     xc contribution           =    -110.46909356 Ry
     ewald contribution        =    -137.97417100 Ry
     smearing contrib. (-TS)   =      -0.18128863 Ry

     convergence has been achieved in  15 iterations

     Forces acting on atoms (Ry/au):

     atom    1 type  1   force =  -0.50821977E-20 -0.14721443E-04 -0.14721443E-04
     atom    2 type  1   force =  -0.16940659E-20  0.14721443E-04  0.14721443E-04
     atom    3 type  1   force =  -0.14721443E-04 -0.25410988E-20 -0.14721443E-04
     atom    4 type  1   force =   0.82335571E-04  0.82335571E-04 -0.82335571E-04
     atom    5 type  1   force =  -0.14721443E-04  0.14721443E-04 -0.25410988E-20
     atom    6 type  1   force =   0.14721443E-04  0.84703295E-20  0.14721443E-04
     atom    7 type  1   force =   0.14721443E-04 -0.14721443E-04  0.00000000E+00
     atom    8 type  1   force =  -0.82335571E-04 -0.82335571E-04  0.82335571E-04
     atom    9 type  1   force =  -0.14721443E-04 -0.14721443E-04  0.84703295E-21
     atom   10 type  1   force =   0.82335571E-04 -0.82335571E-04  0.82335571E-04
     atom   11 type  1   force =  -0.14721443E-04  0.00000000E+00  0.14721443E-04
     atom   12 type  1   force =  -0.82335571E-04  0.82335571E-04  0.82335571E-04
     atom   13 type  1   force =  -0.82335571E-04 -0.82335571E-04 -0.82335571E-04
     atom   14 type  1   force =   0.25483476E-03  0.95973165E-22  0.95973165E-22
     atom   15 type  1   force =   0.33881318E-20 -0.14721443E-04  0.14721443E-04
     atom   16 type  1   force =   0.00000000E+00  0.25483476E-03  0.00000000E+00
     atom   17 type  1   force =   0.00000000E+00  0.00000000E+00 -0.25483476E-03
     atom   18 type  1   force =   0.14721443E-04  0.14721443E-04  0.50821977E-20
     atom   19 type  1   force =   0.14721443E-04 -0.42351647E-20 -0.14721443E-04
     atom   20 type  1   force =  -0.82335571E-04  0.82335571E-04 -0.82335571E-04
     atom   21 type  1   force =   0.25410988E-20  0.14721443E-04 -0.14721443E-04
     atom   22 type  1   force =   0.00000000E+00  0.00000000E+00  0.25483476E-03
     atom   23 type  1   force =   0.27105054E-19 -0.25483476E-03 -0.27105054E-19
     atom   24 type  1   force =   0.82335571E-04 -0.82335571E-04 -0.82335571E-04
     atom   25 type  1   force =  -0.25483476E-03  0.16479699E-21  0.16479699E-21
     atom   26 type  1   force =   0.82335571E-04  0.82335571E-04  0.82335571E-04

     Total force =     0.000747     Total SCF correction =     0.000012


     entering subroutine stress ...

          total   stress  (Ry/bohr**3)                   (kbar)     P=   -7.78
  -0.0000528776   0.0000000000  -0.0000000000         -7.78      0.00     -0.00
   0.0000000000  -0.0000528776  -0.0000000000          0.00     -7.78     -0.00
  -0.0000000000  -0.0000000000  -0.0000528776         -0.00     -0.00     -7.78


     Writing output data file Al.scf.in.super.333.vac.relaxed_scf.save

     init_run     :      9.40s CPU      7.76s WALL (       1 calls)
     electrons    :    348.77s CPU    292.32s WALL (       1 calls)
     forces       :      3.88s CPU      3.09s WALL (       1 calls)
     stress       :      7.50s CPU      7.31s WALL (       1 calls)

     Called by init_run:
     wfcinit      :      8.32s CPU      6.66s WALL (       1 calls)
     potinit      :      0.14s CPU      0.14s WALL (       1 calls)

     Called by electrons:
     c_bands      :    305.02s CPU    251.28s WALL (      16 calls)
     sum_band     :     35.28s CPU     32.55s WALL (      16 calls)
     v_of_rho     :      1.70s CPU      1.70s WALL (      16 calls)
     newd         :      5.72s CPU      5.73s WALL (      16 calls)
     mix_rho      :      1.28s CPU      1.27s WALL (      16 calls)

     Called by c_bands:
     init_us_2    :      3.38s CPU      3.55s WALL (     560 calls)
     cegterg      :    297.24s CPU    243.19s WALL (     256 calls)

     Called by *egterg:
     h_psi        :    152.55s CPU    133.84s WALL (    1367 calls)
     s_psi        :     25.37s CPU     15.65s WALL (    1367 calls)
     g_psi        :      1.24s CPU      1.31s WALL (    1095 calls)
     cdiaghg      :     39.89s CPU     38.48s WALL (    1335 calls)

     Called by h_psi:
     add_vuspsi   :     27.40s CPU     16.61s WALL (    1367 calls)

     General routines
     calbec       :     41.85s CPU     29.89s WALL (    1655 calls)
     fft          :      1.57s CPU      1.56s WALL (     281 calls)
     ffts         :      0.62s CPU      0.62s WALL (     280 calls)
     fftw         :     94.34s CPU     95.37s WALL (   85526 calls)
     interpolate  :      0.31s CPU      0.31s WALL (      32 calls)

     Parallel routines
     fft_scatter  :     56.96s CPU     57.49s WALL (   86087 calls)

     PWSCF        :  6m10.60s CPU     5m11.94s WALL


   This run was terminated on:  10:27:35  15Sep2017            

=------------------------------------------------------------------------------=
   JOB DONE.
=------------------------------------------------------------------------------=
