
     Program PWSCF v.5.1 starts on  1Sep2017 at 13:51:36 

     This program is part of the open-source Quantum ESPRESSO suite
     for quantum simulation of materials; please cite
         "P. Giannozzi et al., J. Phys.:Condens. Matter 21 395502 (2009);
          URL http://www.quantum-espresso.org", 
     in publications or presentations arising from this work. More details at
     http://www.quantum-espresso.org/quote

     Parallel version (MPI), running on     4 processors
     K-points division:     npool     =       4
     Reading input from /tmp/Al.scf.in.19195/Al.scf.in.t
Warning: card &IONS ignored
Warning: card   ION_DYNAMICS='BFGS', ignored
Warning: card / ignored
Warning: card &CELL ignored
Warning: card  CELL_DYNAMICS = 'BFGS' ignored
Warning: card / ignored
     Message from routine read_cards :
     DEPRECATED: no units specified in CELL_PARAMETERS card

     Current dimensions of program PWSCF are:
     Max number of different atomic species (ntypx) = 10
     Max number of k-points (npk) =  40000
     Max angular momentum in pseudopotentials (lmaxx) =  3
 kfg - two_fermi_energies  F

     Subspace diagonalization in iterative solution of the eigenvalue problem:
     a serial algorithm will be used


     G-vector sticks info
     --------------------
     sticks:   dense  smooth     PW     G-vecs:    dense   smooth      PW
     Sum         397     283     97                 5209     3119     645



     bravais-lattice index     =            0
     lattice parameter (alat)  =     5.370025746  a.u.
     unit-cell volume          =     109.5000 (a.u.)^3
     number of atoms/cell      =            1
     number of atomic types    =            1
     number of electrons       =         3.00
     number of Kohn-Sham states=            6
     kinetic-energy cutoff     =      35.0000  Ry
     charge density cutoff     =     200.0000  Ry
     convergence threshold     =      1.0E-10
     mixing beta               =       0.3000
     number of iterations used =            8  local-TF  mixing
     Exchange-correlation      = SLA  PW   PSX  PSC ( 1  4 10  8 0)
     A smooth kinetic-energy cutoff is imposed at      34.5000 Ry
     height of the smooth step-function =             800.0000 Ry
     width of the smooth step-function  =               1.0000 Ry


     celldm(1)=   5.370026  celldm(2)=   0.000000  celldm(3)=   0.000000
     celldm(4)=   0.000000  celldm(5)=   0.000000  celldm(6)=   0.000000

     crystal axes: (cart. coord. in units of alat)
               a(1) = (   0.707106781187   0.707106781187  -0.000000000000 )  
               a(2) = (   0.707106781187  -0.000000000000   0.707106781187 )  
               a(3) = (  -0.000000000000   0.707106781187   0.707106781187 )  

     reciprocal axes: (cart. coord. in units 2 pi/alat)
               b(1) = (  0.707107  0.707107 -0.707107 )  
               b(2) = (  0.707107 -0.707107  0.707107 )  
               b(3) = ( -0.707107  0.707107  0.707107 )  


     PseudoPot. # 1 for Al read from file:
     /users/kfg/psuedo/gbrv_1.5/al.pbesol.UPF
     MD5 check sum: 6741bacbf7acc11acbeee135211c012e
     Pseudo is Ultrasoft + core correction, Zval =  3.0
     Generated by new atomic code, or converted to UPF format
     Using radial grid of  893 points,  3 beta functions with: 
                l(1) =   0
                l(2) =   1
                l(3) =   2
     Q(r) pseudized with  8 coefficients,  rinner =    0.900   0.900   0.900
                                                       0.900   0.900

     atomic species   valence    mass     pseudopotential
        Al             3.00    26.98154     Al( 1.00)

     48 Sym. Ops., with inversion, found



   Cartesian axes

     site n.     atom                  positions (alat units)
         1           Al  tau(   1) = (    0.00000000000    0.00000000000    0.00000000000  )

     number of k points=   195  gaussian smearing, width (Ry)=  0.0500

     Number of k-points >= 100: set verbosity='high' to print them.

     Dense  grid:     5209 G-vectors     FFT dimensions: (  25,  25,  25)

     Smooth grid:     3119 G-vectors     FFT dimensions: (  24,  24,  24)

     Largest allocated arrays     est. size (Mb)     dimensions
        Kohn-Sham Wavefunctions         0.04 Mb     (     392,    6)
        NL pseudopotentials             0.05 Mb     (     392,    9)
        Each V/rho on FFT grid          0.24 Mb     (   15625)
        Each G-vector array             0.04 Mb     (    5209)
        G-vector shells                 0.00 Mb     (     100)
     Largest temporary arrays     est. size (Mb)     dimensions
        Auxiliary wavefunctions         0.14 Mb     (     392,   24)
        Each subspace H/S matrix        0.01 Mb     (      24,   24)
        Each <psi_i|beta_j> matrix      0.00 Mb     (       9,    6)
        Arrays for rho mixing           1.91 Mb     (   15625,    8)

     Initial potential from superposition of free atoms

     starting charge    2.99765, renormalised to    3.00000
     Starting wfc are    4 randomized atomic wfcs +    2 random wfc

     total cpu time spent up to now is        0.9 secs

     per-process dynamical memory:     7.9 Mb

     Self-consistent Calculation

     iteration #  1     ecut=    35.00 Ry     beta=0.30
     Davidson diagonalization with overlap
     ethr =  1.00E-02,  avg # of iterations =  4.8

     Threshold (ethr) on eigenvalues was too large:
     Diagonalizing with lowered threshold

     Davidson diagonalization with overlap
     ethr =  1.98E-04,  avg # of iterations =  1.5

     total cpu time spent up to now is        4.6 secs

     total energy              =      -6.66906857 Ry
     Harris-Foulkes estimate   =      -6.66992825 Ry
     estimated scf accuracy    <       0.00594276 Ry

     iteration #  2     ecut=    35.00 Ry     beta=0.30
     Davidson diagonalization with overlap
     ethr =  1.98E-04,  avg # of iterations =  1.0

     total cpu time spent up to now is        5.7 secs

     total energy              =      -6.66754902 Ry
     Harris-Foulkes estimate   =      -6.66908029 Ry
     estimated scf accuracy    <       0.00360605 Ry

     iteration #  3     ecut=    35.00 Ry     beta=0.30
     Davidson diagonalization with overlap
     ethr =  1.20E-04,  avg # of iterations =  1.0

     total cpu time spent up to now is        6.7 secs

     total energy              =      -6.66768989 Ry
     Harris-Foulkes estimate   =      -6.66768875 Ry
     estimated scf accuracy    <       0.00000143 Ry

     iteration #  4     ecut=    35.00 Ry     beta=0.30
     Davidson diagonalization with overlap
     ethr =  4.77E-08,  avg # of iterations =  2.9

     total cpu time spent up to now is        8.2 secs

     total energy              =      -6.66769207 Ry
     Harris-Foulkes estimate   =      -6.66769208 Ry
     estimated scf accuracy    <       0.00000003 Ry

     iteration #  5     ecut=    35.00 Ry     beta=0.30
     Davidson diagonalization with overlap
     ethr =  1.15E-09,  avg # of iterations =  1.2

     total cpu time spent up to now is        9.3 secs

     total energy              =      -6.66769208 Ry
     Harris-Foulkes estimate   =      -6.66769207 Ry
     estimated scf accuracy    <       0.00000001 Ry

     iteration #  6     ecut=    35.00 Ry     beta=0.30
     Davidson diagonalization with overlap
     ethr =  3.54E-10,  avg # of iterations =  1.0

     total cpu time spent up to now is       10.3 secs

     total energy              =      -6.66769208 Ry
     Harris-Foulkes estimate   =      -6.66769208 Ry
     estimated scf accuracy    <          1.1E-09 Ry

     iteration #  7     ecut=    35.00 Ry     beta=0.30
     Davidson diagonalization with overlap
     ethr =  3.73E-11,  avg # of iterations =  1.0

     total cpu time spent up to now is       11.3 secs

     End of self-consistent calculation

     Number of k-points >= 100: set verbosity='high' to print the bands.

     the Fermi energy is     8.0113 ev

!    total energy              =      -6.66769208 Ry
     Harris-Foulkes estimate   =      -6.66769208 Ry
     estimated scf accuracy    <          6.1E-11 Ry

     The total energy is the sum of the following terms:

     one-electron contribution =       3.02560706 Ry
     hartree contribution      =       0.00837720 Ry
     xc contribution           =      -4.26137899 Ry
     ewald contribution        =      -5.43347186 Ry
     smearing contrib. (-TS)   =      -0.00682549 Ry

     convergence has been achieved in   7 iterations

     Forces acting on atoms (Ry/au):

     atom    1 type  1   force =   0.00000000E+00  0.00000000E+00  0.00000000E+00

     Total force =     0.000000     Total SCF correction =     0.000000


     entering subroutine stress ...

          total   stress  (Ry/bohr**3)                   (kbar)     P=    0.26
   0.0000017999  -0.0000000000   0.0000000000          0.26     -0.00      0.00
   0.0000000000   0.0000017999  -0.0000000000          0.00      0.26     -0.00
   0.0000000000  -0.0000000000   0.0000017999          0.00     -0.00      0.26


     Writing output data file Al.scf.in.save

     init_run     :      0.82s CPU      0.80s WALL (       1 calls)
     electrons    :     10.57s CPU     10.42s WALL (       1 calls)
     forces       :      0.18s CPU      0.19s WALL (       1 calls)
     stress       :      0.46s CPU      0.46s WALL (       1 calls)

     Called by init_run:
     wfcinit      :      0.37s CPU      0.34s WALL (       1 calls)
     potinit      :      0.03s CPU      0.04s WALL (       1 calls)

     Called by electrons:
     c_bands      :      8.62s CPU      8.48s WALL (       8 calls)
     sum_band     :      1.61s CPU      1.59s WALL (       8 calls)
     v_of_rho     :      0.15s CPU      0.15s WALL (       8 calls)
     newd         :      0.14s CPU      0.13s WALL (       8 calls)
     mix_rho      :      0.07s CPU      0.07s WALL (       8 calls)

     Called by c_bands:
     init_us_2    :      0.41s CPU      0.43s WALL (     931 calls)
     cegterg      :      7.83s CPU      7.59s WALL (     392 calls)

     Called by *egterg:
     h_psi        :      5.94s CPU      6.06s WALL (    1252 calls)
     s_psi        :      0.31s CPU      0.23s WALL (    1252 calls)
     g_psi        :      0.02s CPU      0.04s WALL (     811 calls)
     cdiaghg      :      0.23s CPU      0.28s WALL (    1154 calls)

     Called by h_psi:
     add_vuspsi   :      0.40s CPU      0.27s WALL (    1252 calls)

     General routines
     calbec       :      1.01s CPU      0.60s WALL (    1742 calls)
     fft          :      0.07s CPU      0.06s WALL (     153 calls)
     ffts         :      0.05s CPU      0.05s WALL (     114 calls)
     fftw         :      5.09s CPU      5.59s WALL (   14620 calls)
     interpolate  :      0.02s CPU      0.02s WALL (      16 calls)

     Parallel routines
     fft_scatter  :      0.32s CPU      0.36s WALL (   14887 calls)

     PWSCF        :    13.20s CPU        13.08s WALL


   This run was terminated on:  13:51:49   1Sep2017            

=------------------------------------------------------------------------------=
   JOB DONE.
=------------------------------------------------------------------------------=
