
     Program PWSCF v.5.1 starts on  9Oct2017 at 10:59: 5 

     This program is part of the open-source Quantum ESPRESSO suite
     for quantum simulation of materials; please cite
         "P. Giannozzi et al., J. Phys.:Condens. Matter 21 395502 (2009);
          URL http://www.quantum-espresso.org", 
     in publications or presentations arising from this work. More details at
     http://www.quantum-espresso.org/quote

     Parallel version (MPI), running on     8 processors
     R & G space division:  proc/nbgrp/npool/nimage =       8
     Reading input from /tmp/Al.scf.in.super.333.vac.01.19905/Al.scf.in.super.333.vac.01.t
Warning: card &IONS ignored
Warning: card   ION_DYNAMICS='BFGS', ignored
Warning: card / ignored
Warning: card &CELL ignored
Warning: card  CELL_DYNAMICS = 'BFGS' ignored
Warning: card / ignored
     Message from routine read_cards :
     DEPRECATED: no units specified in CELL_PARAMETERS card

     Current dimensions of program PWSCF are:
     Max number of different atomic species (ntypx) = 10
     Max number of k-points (npk) =  40000
     Max angular momentum in pseudopotentials (lmaxx) =  3
 kfg - two_fermi_energies  F

     Subspace diagonalization in iterative solution of the eigenvalue problem:
     a serial algorithm will be used


     Parallelization info
     --------------------
     sticks:   dense  smooth     PW     G-vecs:    dense   smooth      PW
     Min         446     314     87                17656    10334    1524
     Max         447     315     89                17661    10352    1525
     Sum        3571    2515    703               141263    82723   12195



     bravais-lattice index     =            0
     lattice parameter (alat)  =    16.110077237  a.u.
     unit-cell volume          =    2956.4999 (a.u.)^3
     number of atoms/cell      =           26
     number of atomic types    =            1
     number of electrons       =        78.00
     number of Kohn-Sham states=           47
     kinetic-energy cutoff     =      35.0000  Ry
     charge density cutoff     =     200.0000  Ry
     convergence threshold     =      1.0E-09
     mixing beta               =       0.3000
     number of iterations used =            8  local-TF  mixing
     Exchange-correlation      = SLA  PW   PSX  PSC ( 1  4 10  8 0)
     A smooth kinetic-energy cutoff is imposed at      34.5000 Ry
     height of the smooth step-function =             800.0000 Ry
     width of the smooth step-function  =               1.0000 Ry


     celldm(1)=  16.110077  celldm(2)=   0.000000  celldm(3)=   0.000000
     celldm(4)=   0.000000  celldm(5)=   0.000000  celldm(6)=   0.000000

     crystal axes: (cart. coord. in units of alat)
               a(1) = (   0.707106781187   0.707106781187   0.000000000000 )  
               a(2) = (   0.707106781187   0.000000000000   0.707106781187 )  
               a(3) = (   0.000000000000   0.707106781187   0.707106781187 )  

     reciprocal axes: (cart. coord. in units 2 pi/alat)
               b(1) = (  0.707107  0.707107 -0.707107 )  
               b(2) = (  0.707107 -0.707107  0.707107 )  
               b(3) = ( -0.707107  0.707107  0.707107 )  


     PseudoPot. # 1 for Al read from file:
     /users/kfg/psuedo/gbrv_1.5/al.pbesol.UPF
     MD5 check sum: 6741bacbf7acc11acbeee135211c012e
     Pseudo is Ultrasoft + core correction, Zval =  3.0
     Generated by new atomic code, or converted to UPF format
     Using radial grid of  893 points,  3 beta functions with: 
                l(1) =   0
                l(2) =   1
                l(3) =   2
     Q(r) pseudized with  8 coefficients,  rinner =    0.900   0.900   0.900
                                                       0.900   0.900

     atomic species   valence    mass     pseudopotential
        Al             3.00    26.98154     Al( 1.00)

     No symmetry found



   Cartesian axes

     site n.     atom                  positions (alat units)
         1           Al  tau(   1) = (   -0.00069145023    0.23573627495    0.23515552107  )
         2           Al  tau(   2) = (    0.00155494980    0.47397872293    0.47147991033  )
         3           Al  tau(   3) = (    0.23567262336   -0.00160341430    0.23493445282  )
         4           Al  tau(   4) = (    0.23829288853    0.23595658639    0.47038766241  )
         5           Al  tau(   5) = (    0.23681257195    0.46888938022    0.70832515024  )
         6           Al  tau(   6) = (    0.47198615932    0.00110354134    0.47325887255  )
         7           Al  tau(   7) = (    0.46970818379    0.23610676263    0.70459531935  )
         8           Al  tau(   8) = (    0.47164805520    0.46841567141    0.94582423850  )
         9           Al  tau(   9) = (    0.23772642232    0.23486018970    0.00168942090  )
        10           Al  tau(  10) = (    0.23818481151    0.47194360001    0.23358383013  )
        11           Al  tau(  11) = (    0.23824967971    0.70666203505    0.47023603331  )
        12           Al  tau(  12) = (    0.47260148935    0.23701412218    0.23410149165  )
        13           Al  tau(  13) = (    0.47036689315    0.47382015912    0.47077925905  )
        14           Al  tau(  14) = (    0.47278363710    0.70652042420    0.70531513213  )
        15           Al  tau(  15) = (    0.70902342284    0.23400622894    0.46843021312  )
        16           Al  tau(  16) = (    0.70691745633    0.47013944674    0.70681985909  )
        17           Al  tau(  17) = (    0.70776519364    0.70670382465    0.94100588475  )
        18           Al  tau(  18) = (    0.47420718983    0.47397787214   -0.00298486151  )
        19           Al  tau(  19) = (    0.47128104795    0.70798985536    0.23363190724  )
        20           Al  tau(  20) = (    0.47412969031    0.94249539710    0.47235235446  )
        21           Al  tau(  21) = (    0.70912479210    0.47202199666    0.23808018668  )
        22           Al  tau(  22) = (    0.70739293506    0.70674042780    0.47043627803  )
        23           Al  tau(  23) = (    0.70435494119    0.93996873802    0.70958677626  )
        24           Al  tau(  24) = (    0.94133120489    0.47180801608    0.47240811841  )
        25           Al  tau(  25) = (    0.94276075661    0.70994217295    0.70753414461  )
        26           Al  tau(  26) = (    0.94377628629    0.94382178653    0.94040336069  )

     number of k points=   112  gaussian smearing, width (Ry)=  0.0500

     Number of k-points >= 100: set verbosity='high' to print them.

     Dense  grid:   141263 G-vectors     FFT dimensions: (  75,  75,  75)

     Smooth grid:    82723 G-vectors     FFT dimensions: (  64,  64,  64)

     Largest allocated arrays     est. size (Mb)     dimensions
        Kohn-Sham Wavefunctions         0.95 Mb     (    1323,   47)
        NL pseudopotentials             4.72 Mb     (    1323,  234)
        Each V/rho on FFT grid          0.86 Mb     (   56250)
        Each G-vector array             0.13 Mb     (   17661)
        G-vector shells                 0.01 Mb     (     874)
     Largest temporary arrays     est. size (Mb)     dimensions
        Auxiliary wavefunctions         3.80 Mb     (    1323,  188)
        Each subspace H/S matrix        0.54 Mb     (     188,  188)
        Each <psi_i|beta_j> matrix      0.17 Mb     (     234,   47)
        Arrays for rho mixing           6.87 Mb     (   56250,    8)

     Initial potential from superposition of free atoms

     starting charge   77.93882, renormalised to   78.00000
     Starting wfc are  104 randomized atomic wfcs

     total cpu time spent up to now is      145.1 secs

     Self-consistent Calculation

     iteration #  1     ecut=    35.00 Ry     beta=0.30
     Davidson diagonalization with overlap
     ethr =  1.00E-02,  avg # of iterations =  3.0

     Threshold (ethr) on eigenvalues was too large:
     Diagonalizing with lowered threshold

     Davidson diagonalization with overlap
     ethr =  2.71E-04,  avg # of iterations =  4.7

     total cpu time spent up to now is      616.9 secs

     total energy              =    -173.33908779 Ry
     Harris-Foulkes estimate   =    -173.36843264 Ry
     estimated scf accuracy    <       0.22880821 Ry

     iteration #  2     ecut=    35.00 Ry     beta=0.30
     Davidson diagonalization with overlap
     ethr =  2.93E-04,  avg # of iterations =  1.0

     total cpu time spent up to now is      775.0 secs

     total energy              =    -173.27963224 Ry
     Harris-Foulkes estimate   =    -173.34071763 Ry
     estimated scf accuracy    <       0.14481045 Ry

     iteration #  3     ecut=    35.00 Ry     beta=0.30
     Davidson diagonalization with overlap
     ethr =  1.86E-04,  avg # of iterations =  2.3

     total cpu time spent up to now is      963.7 secs

     total energy              =    -173.29552448 Ry
     Harris-Foulkes estimate   =    -173.29597531 Ry
     estimated scf accuracy    <       0.00255509 Ry

     iteration #  4     ecut=    35.00 Ry     beta=0.30
     Davidson diagonalization with overlap
     c_bands:  1 eigenvalues not converged
     c_bands:  1 eigenvalues not converged
     ethr =  3.28E-06,  avg # of iterations =  9.3

     total cpu time spent up to now is     1366.3 secs

     total energy              =    -173.29685025 Ry
     Harris-Foulkes estimate   =    -173.29679547 Ry
     estimated scf accuracy    <       0.00253964 Ry

     iteration #  5     ecut=    35.00 Ry     beta=0.30
     Davidson diagonalization with overlap
     ethr =  3.26E-06,  avg # of iterations =  1.0

     total cpu time spent up to now is     1522.0 secs

     total energy              =    -173.29549508 Ry
     Harris-Foulkes estimate   =    -173.29685733 Ry
     estimated scf accuracy    <       0.00280120 Ry

     iteration #  6     ecut=    35.00 Ry     beta=0.30
     Davidson diagonalization with overlap
     ethr =  3.26E-06,  avg # of iterations =  3.7

     total cpu time spent up to now is     1769.6 secs

     total energy              =    -173.29658462 Ry
     Harris-Foulkes estimate   =    -173.29666858 Ry
     estimated scf accuracy    <       0.00161675 Ry

     iteration #  7     ecut=    35.00 Ry     beta=0.30
     Davidson diagonalization with overlap
     ethr =  2.07E-06,  avg # of iterations =  1.0

     total cpu time spent up to now is     1925.3 secs

     total energy              =    -173.29625074 Ry
     Harris-Foulkes estimate   =    -173.29659570 Ry
     estimated scf accuracy    <       0.00130137 Ry

     iteration #  8     ecut=    35.00 Ry     beta=0.30
     Davidson diagonalization with overlap
     ethr =  1.67E-06,  avg # of iterations =  2.2

     total cpu time spent up to now is     2105.0 secs

     total energy              =    -173.29633917 Ry
     Harris-Foulkes estimate   =    -173.29636778 Ry
     estimated scf accuracy    <       0.00007556 Ry

     iteration #  9     ecut=    35.00 Ry     beta=0.30
     Davidson diagonalization with overlap
     ethr =  9.69E-08,  avg # of iterations =  4.0

     total cpu time spent up to now is     2377.0 secs

     total energy              =    -173.29637298 Ry
     Harris-Foulkes estimate   =    -173.29637053 Ry
     estimated scf accuracy    <       0.00001665 Ry

     iteration # 10     ecut=    35.00 Ry     beta=0.30
     Davidson diagonalization with overlap
     ethr =  2.13E-08,  avg # of iterations =  1.0

     total cpu time spent up to now is     2528.9 secs

     total energy              =    -173.29636721 Ry
     Harris-Foulkes estimate   =    -173.29637338 Ry
     estimated scf accuracy    <       0.00002915 Ry

     iteration # 11     ecut=    35.00 Ry     beta=0.30
     Davidson diagonalization with overlap
     ethr =  2.13E-08,  avg # of iterations =  1.6

     total cpu time spent up to now is     2694.9 secs

     total energy              =    -173.29636580 Ry
     Harris-Foulkes estimate   =    -173.29636847 Ry
     estimated scf accuracy    <       0.00000732 Ry

     iteration # 12     ecut=    35.00 Ry     beta=0.30
     Davidson diagonalization with overlap
     ethr =  9.39E-09,  avg # of iterations =  3.5

     total cpu time spent up to now is     2933.4 secs

     total energy              =    -173.29636774 Ry
     Harris-Foulkes estimate   =    -173.29636775 Ry
     estimated scf accuracy    <       0.00000069 Ry

     iteration # 13     ecut=    35.00 Ry     beta=0.30
     Davidson diagonalization with overlap
     ethr =  8.87E-10,  avg # of iterations =  2.0

     total cpu time spent up to now is     3093.7 secs

     total energy              =    -173.29636776 Ry
     Harris-Foulkes estimate   =    -173.29636776 Ry
     estimated scf accuracy    <       0.00000066 Ry

     iteration # 14     ecut=    35.00 Ry     beta=0.30
     Davidson diagonalization with overlap
     ethr =  8.44E-10,  avg # of iterations =  1.0

     total cpu time spent up to now is     3247.8 secs

     total energy              =    -173.29636767 Ry
     Harris-Foulkes estimate   =    -173.29636776 Ry
     estimated scf accuracy    <       0.00000066 Ry

     iteration # 15     ecut=    35.00 Ry     beta=0.30
     Davidson diagonalization with overlap
     ethr =  8.44E-10,  avg # of iterations =  1.0

     total cpu time spent up to now is     3401.0 secs

     total energy              =    -173.29636757 Ry
     Harris-Foulkes estimate   =    -173.29636768 Ry
     estimated scf accuracy    <       0.00000027 Ry

     iteration # 16     ecut=    35.00 Ry     beta=0.30
     Davidson diagonalization with overlap
     ethr =  3.48E-10,  avg # of iterations =  3.4

     total cpu time spent up to now is     3637.9 secs

     total energy              =    -173.29636763 Ry
     Harris-Foulkes estimate   =    -173.29636766 Ry
     estimated scf accuracy    <       0.00000008 Ry

     iteration # 17     ecut=    35.00 Ry     beta=0.30
     Davidson diagonalization with overlap
     ethr =  9.98E-11,  avg # of iterations =  3.5

     total cpu time spent up to now is     3878.5 secs

     total energy              =    -173.29636765 Ry
     Harris-Foulkes estimate   =    -173.29636765 Ry
     estimated scf accuracy    <       0.00000002 Ry

     iteration # 18     ecut=    35.00 Ry     beta=0.30
     Davidson diagonalization with overlap
     ethr =  2.92E-11,  avg # of iterations =  1.5

     total cpu time spent up to now is     4068.3 secs

     total energy              =    -173.29636764 Ry
     Harris-Foulkes estimate   =    -173.29636765 Ry
     estimated scf accuracy    <       0.00000001 Ry

     iteration # 19     ecut=    35.00 Ry     beta=0.30
     Davidson diagonalization with overlap
     ethr =  1.30E-11,  avg # of iterations =  3.3

     total cpu time spent up to now is     4322.6 secs

     End of self-consistent calculation

     Number of k-points >= 100: set verbosity='high' to print the bands.

     the Fermi energy is     7.5751 ev

!    total energy              =    -173.29636764 Ry
     Harris-Foulkes estimate   =    -173.29636764 Ry
     estimated scf accuracy    <          3.4E-10 Ry

     The total energy is the sum of the following terms:

     one-electron contribution =      73.40834722 Ry
     hartree contribution      =       1.59600510 Ry
     xc contribution           =    -110.49605023 Ry
     ewald contribution        =    -137.62340802 Ry
     smearing contrib. (-TS)   =      -0.18126171 Ry

     convergence has been achieved in  19 iterations

     Forces acting on atoms (Ry/au):

     atom    1 type  1   force =   0.29477206E-02 -0.55001638E-02 -0.49530331E-02
     atom    2 type  1   force =   0.22490432E-02  0.17383608E-02  0.56569605E-02
     atom    3 type  1   force =  -0.24634181E-02  0.21849940E-02 -0.47850149E-02
     atom    4 type  1   force =  -0.64176340E-02 -0.12047579E-03 -0.69653943E-03
     atom    5 type  1   force =  -0.75382532E-02  0.87011948E-02 -0.22645823E-02
     atom    6 type  1   force =   0.54316330E-02 -0.87859195E-03 -0.10507628E-03
     atom    7 type  1   force =   0.10986368E-01 -0.40852032E-02  0.17338007E-02
     atom    8 type  1   force =   0.12451085E-02  0.61204464E-02 -0.37337349E-02
     atom    9 type  1   force =  -0.69968253E-02 -0.42370362E-02 -0.37048714E-02
     atom   10 type  1   force =  -0.33978972E-02  0.31214349E-04  0.46170174E-04
     atom   11 type  1   force =  -0.74023163E-02  0.22924904E-02  0.57423456E-02
     atom   12 type  1   force =  -0.41511454E-03 -0.20008669E-02  0.20514874E-02
     atom   13 type  1   force =   0.41739177E-02 -0.32409416E-02  0.87595369E-04
     atom   14 type  1   force =  -0.38196797E-02 -0.25936322E-02  0.41806351E-02
     atom   15 type  1   force =  -0.12217292E-02 -0.36452366E-02  0.94744463E-02
     atom   16 type  1   force =   0.15272713E-03 -0.14331760E-02 -0.15370623E-03
     atom   17 type  1   force =  -0.12189735E-02 -0.22485676E-02  0.38958699E-02
     atom   18 type  1   force =   0.38025979E-02  0.33936367E-02  0.36796125E-02
     atom   19 type  1   force =   0.74093380E-02  0.78074734E-04 -0.45584466E-02
     atom   20 type  1   force =  -0.29316979E-02  0.19482183E-03 -0.71622089E-03
     atom   21 type  1   force =  -0.37776934E-02  0.41569422E-02 -0.94766398E-02
     atom   22 type  1   force =   0.13572103E-02  0.18857320E-02 -0.26403256E-03
     atom   23 type  1   force =   0.53446276E-02  0.71078810E-02 -0.52989079E-02
     atom   24 type  1   force =   0.32362299E-02 -0.67729185E-03  0.19959689E-02
     atom   25 type  1   force =   0.24189619E-04 -0.45968752E-02 -0.23948488E-02
     atom   26 type  1   force =  -0.75947908E-03 -0.26277302E-02  0.45607626E-02

     Total force =     0.036842     Total SCF correction =     0.000017


     entering subroutine stress ...

          total   stress  (Ry/bohr**3)                   (kbar)     P=   -6.15
  -0.0000417322  -0.0000016302  -0.0000013936         -6.14     -0.24     -0.21
  -0.0000016302  -0.0000415633  -0.0000015655         -0.24     -6.11     -0.23
  -0.0000013936  -0.0000015655  -0.0000421519         -0.21     -0.23     -6.20


     Writing output data file Al.scf.in.super.333.vac.011.save

     init_run     :    135.54s CPU    144.96s WALL (       1 calls)
     electrons    :   3785.22s CPU   4177.55s WALL (       1 calls)
     forces       :     27.00s CPU     26.35s WALL (       1 calls)
     stress       :     87.77s CPU     89.17s WALL (       1 calls)

     Called by init_run:
     wfcinit      :    134.52s CPU    143.86s WALL (       1 calls)
     potinit      :      0.21s CPU      0.23s WALL (       1 calls)

     Called by electrons:
     c_bands      :   3275.84s CPU   3617.20s WALL (      20 calls)
     sum_band     :    496.68s CPU    546.57s WALL (      20 calls)
     v_of_rho     :      2.59s CPU      2.90s WALL (      20 calls)
     newd         :      7.57s CPU      7.97s WALL (      20 calls)
     mix_rho      :      2.68s CPU      3.02s WALL (      20 calls)

     Called by c_bands:
     init_us_2    :     25.96s CPU     28.63s WALL (    4816 calls)
     cegterg      :   3177.20s CPU   3511.84s WALL (    2240 calls)

     Called by *egterg:
     h_psi        :   2172.65s CPU   2406.36s WALL (    8411 calls)
     s_psi        :    212.31s CPU    181.60s WALL (    8411 calls)
     g_psi        :      3.03s CPU      3.14s WALL (    6059 calls)
     cdiaghg      :    193.99s CPU    252.69s WALL (    8187 calls)

     Called by h_psi:
     add_vuspsi   :    216.60s CPU    196.25s WALL (    8411 calls)

     General routines
     calbec       :    495.58s CPU    498.91s WALL (   10875 calls)
     fft          :      3.54s CPU      3.95s WALL (     345 calls)
     ffts         :      1.50s CPU      1.71s WALL (     376 calls)
     fftw         :   1749.49s CPU   2019.49s WALL (  644920 calls)
     interpolate  :      0.47s CPU      0.58s WALL (      40 calls)

     Parallel routines
     fft_scatter  :   1167.55s CPU   1351.47s WALL (  645641 calls)

     PWSCF        :     1h 7m CPU        1h14m WALL


   This run was terminated on:  12:13:13   9Oct2017            

=------------------------------------------------------------------------------=
   JOB DONE.
=------------------------------------------------------------------------------=
