
     Program PWSCF v.5.1 starts on  9Oct2017 at 11:12:40 

     This program is part of the open-source Quantum ESPRESSO suite
     for quantum simulation of materials; please cite
         "P. Giannozzi et al., J. Phys.:Condens. Matter 21 395502 (2009);
          URL http://www.quantum-espresso.org", 
     in publications or presentations arising from this work. More details at
     http://www.quantum-espresso.org/quote

     Parallel version (MPI), running on     8 processors
     R & G space division:  proc/nbgrp/npool/nimage =       8
     Reading input from /tmp/Al.scf.in.super.333.vac.03.9743/Al.scf.in.super.333.vac.03.t
Warning: card &IONS ignored
Warning: card   ION_DYNAMICS='BFGS', ignored
Warning: card / ignored
Warning: card &CELL ignored
Warning: card  CELL_DYNAMICS = 'BFGS' ignored
Warning: card / ignored
     Message from routine read_cards :
     DEPRECATED: no units specified in CELL_PARAMETERS card

     Current dimensions of program PWSCF are:
     Max number of different atomic species (ntypx) = 10
     Max number of k-points (npk) =  40000
     Max angular momentum in pseudopotentials (lmaxx) =  3
 kfg - two_fermi_energies  F

     Subspace diagonalization in iterative solution of the eigenvalue problem:
     a serial algorithm will be used


     Parallelization info
     --------------------
     sticks:   dense  smooth     PW     G-vecs:    dense   smooth      PW
     Min         446     314     87                17656    10334    1524
     Max         447     315     89                17661    10352    1525
     Sum        3571    2515    703               141263    82723   12195



     bravais-lattice index     =            0
     lattice parameter (alat)  =    16.110077237  a.u.
     unit-cell volume          =    2956.4999 (a.u.)^3
     number of atoms/cell      =           26
     number of atomic types    =            1
     number of electrons       =        78.00
     number of Kohn-Sham states=           47
     kinetic-energy cutoff     =      35.0000  Ry
     charge density cutoff     =     200.0000  Ry
     convergence threshold     =      1.0E-09
     mixing beta               =       0.3000
     number of iterations used =            8  local-TF  mixing
     Exchange-correlation      = SLA  PW   PSX  PSC ( 1  4 10  8 0)
     A smooth kinetic-energy cutoff is imposed at      34.5000 Ry
     height of the smooth step-function =             800.0000 Ry
     width of the smooth step-function  =               1.0000 Ry


     celldm(1)=  16.110077  celldm(2)=   0.000000  celldm(3)=   0.000000
     celldm(4)=   0.000000  celldm(5)=   0.000000  celldm(6)=   0.000000

     crystal axes: (cart. coord. in units of alat)
               a(1) = (   0.707106781187   0.707106781187  -0.000000000000 )  
               a(2) = (   0.707106781187  -0.000000000000   0.707106781187 )  
               a(3) = (  -0.000000000000   0.707106781187   0.707106781187 )  

     reciprocal axes: (cart. coord. in units 2 pi/alat)
               b(1) = (  0.707107  0.707107 -0.707107 )  
               b(2) = (  0.707107 -0.707107  0.707107 )  
               b(3) = ( -0.707107  0.707107  0.707107 )  


     PseudoPot. # 1 for Al read from file:
     /users/kfg/psuedo/gbrv_1.5/al.pbesol.UPF
     MD5 check sum: 6741bacbf7acc11acbeee135211c012e
     Pseudo is Ultrasoft + core correction, Zval =  3.0
     Generated by new atomic code, or converted to UPF format
     Using radial grid of  893 points,  3 beta functions with: 
                l(1) =   0
                l(2) =   1
                l(3) =   2
     Q(r) pseudized with  8 coefficients,  rinner =    0.900   0.900   0.900
                                                       0.900   0.900

     atomic species   valence    mass     pseudopotential
        Al             3.00    26.98154     Al( 1.00)

     No symmetry found



   Cartesian axes

     site n.     atom                  positions (alat units)
         1           Al  tau(   1) = (   -0.00006069509    0.23846124072    0.23267564222  )
         2           Al  tau(   2) = (    0.00022190550    0.46947017507    0.47207299371  )
         3           Al  tau(   3) = (    0.23508897268    0.00242127461    0.23415335942  )
         4           Al  tau(   4) = (    0.23560325109    0.23603678977    0.47292536491  )
         5           Al  tau(   5) = (    0.23529181680    0.47192528884    0.70734442301  )
         6           Al  tau(   6) = (    0.47203727913   -0.00099420528    0.46862250298  )
         7           Al  tau(   7) = (    0.47394218292    0.23538787330    0.71018525900  )
         8           Al  tau(   8) = (    0.47328643693    0.47243254876    0.94572187107  )
         9           Al  tau(   9) = (    0.23722014451    0.23841276370   -0.00289828222  )
        10           Al  tau(  10) = (    0.23773622473    0.47119325631    0.23679246317  )
        11           Al  tau(  11) = (    0.23698821043    0.70948650728    0.47343423548  )
        12           Al  tau(  12) = (    0.46877625293    0.23403575549    0.23403051593  )
        13           Al  tau(  13) = (    0.47093352674    0.47424017257    0.47143167048  )
        14           Al  tau(  14) = (    0.46918631976    0.70578024345    0.70991413545  )
        15           Al  tau(  15) = (    0.70926819700    0.23529960844    0.47090659795  )
        16           Al  tau(  16) = (    0.70795612342    0.47234673067    0.70920965298  )
        17           Al  tau(  17) = (    0.70614002015    0.70451034278    0.94123415675  )
        18           Al  tau(  18) = (    0.46855483175    0.46990772917    0.00005091028  )
        19           Al  tau(  19) = (    0.47211564120    0.70492537507    0.23622686507  )
        20           Al  tau(  20) = (    0.47193336379    0.94463217388    0.46947234074  )
        21           Al  tau(  21) = (    0.70895892405    0.47416984002    0.23365802700  )
        22           Al  tau(  22) = (    0.70964180575    0.70938267183    0.47140419864  )
        23           Al  tau(  23) = (    0.70853119523    0.94367559813    0.70590806805  )
        24           Al  tau(  24) = (    0.94308286321    0.47228865946    0.47399138801  )
        25           Al  tau(  25) = (    0.94575929438    0.70688892960    0.70952717826  )
        26           Al  tau(  26) = (    0.94038912018    0.94313701595    0.94260545265  )

     number of k points=   112  gaussian smearing, width (Ry)=  0.0500

     Number of k-points >= 100: set verbosity='high' to print them.

     Dense  grid:   141263 G-vectors     FFT dimensions: (  75,  75,  75)

     Smooth grid:    82723 G-vectors     FFT dimensions: (  64,  64,  64)

     Largest allocated arrays     est. size (Mb)     dimensions
        Kohn-Sham Wavefunctions         0.95 Mb     (    1323,   47)
        NL pseudopotentials             4.72 Mb     (    1323,  234)
        Each V/rho on FFT grid          0.86 Mb     (   56250)
        Each G-vector array             0.13 Mb     (   17661)
        G-vector shells                 0.01 Mb     (     874)
     Largest temporary arrays     est. size (Mb)     dimensions
        Auxiliary wavefunctions         3.80 Mb     (    1323,  188)
        Each subspace H/S matrix        0.54 Mb     (     188,  188)
        Each <psi_i|beta_j> matrix      0.17 Mb     (     234,   47)
        Arrays for rho mixing           6.87 Mb     (   56250,    8)

     Initial potential from superposition of free atoms

     starting charge   77.93882, renormalised to   78.00000
     Starting wfc are  104 randomized atomic wfcs

     total cpu time spent up to now is      104.0 secs

     Self-consistent Calculation

     iteration #  1     ecut=    35.00 Ry     beta=0.30
     Davidson diagonalization with overlap
     ethr =  1.00E-02,  avg # of iterations =  3.0

     Threshold (ethr) on eigenvalues was too large:
     Diagonalizing with lowered threshold

     Davidson diagonalization with overlap
     ethr =  2.70E-04,  avg # of iterations =  4.8

     total cpu time spent up to now is      496.9 secs

     total energy              =    -173.33836712 Ry
     Harris-Foulkes estimate   =    -173.36764016 Ry
     estimated scf accuracy    <       0.22697633 Ry

     iteration #  2     ecut=    35.00 Ry     beta=0.30
     Davidson diagonalization with overlap
     ethr =  2.91E-04,  avg # of iterations =  1.0

     total cpu time spent up to now is      627.3 secs

     total energy              =    -173.27921760 Ry
     Harris-Foulkes estimate   =    -173.33999712 Ry
     estimated scf accuracy    <       0.14359614 Ry

     iteration #  3     ecut=    35.00 Ry     beta=0.30
     Davidson diagonalization with overlap
     ethr =  1.84E-04,  avg # of iterations =  2.4

     total cpu time spent up to now is      779.2 secs

     total energy              =    -173.29478272 Ry
     Harris-Foulkes estimate   =    -173.29520173 Ry
     estimated scf accuracy    <       0.00233312 Ry

     iteration #  4     ecut=    35.00 Ry     beta=0.30
     Davidson diagonalization with overlap
     c_bands:  1 eigenvalues not converged
     ethr =  2.99E-06,  avg # of iterations =  9.0

     total cpu time spent up to now is     1119.6 secs

     total energy              =    -173.29611117 Ry
     Harris-Foulkes estimate   =    -173.29606249 Ry
     estimated scf accuracy    <       0.00240333 Ry

     iteration #  5     ecut=    35.00 Ry     beta=0.30
     Davidson diagonalization with overlap
     ethr =  2.99E-06,  avg # of iterations =  1.0

     total cpu time spent up to now is     1249.6 secs

     total energy              =    -173.29481117 Ry
     Harris-Foulkes estimate   =    -173.29611688 Ry
     estimated scf accuracy    <       0.00263176 Ry

     iteration #  6     ecut=    35.00 Ry     beta=0.30
     Davidson diagonalization with overlap
     ethr =  2.99E-06,  avg # of iterations =  3.9

     total cpu time spent up to now is     1468.2 secs

     total energy              =    -173.29587210 Ry
     Harris-Foulkes estimate   =    -173.29596285 Ry
     estimated scf accuracy    <       0.00165741 Ry

     iteration #  7     ecut=    35.00 Ry     beta=0.30
     Davidson diagonalization with overlap
     ethr =  2.12E-06,  avg # of iterations =  1.0

     total cpu time spent up to now is     1598.4 secs

     total energy              =    -173.29562143 Ry
     Harris-Foulkes estimate   =    -173.29588321 Ry
     estimated scf accuracy    <       0.00130782 Ry

     iteration #  8     ecut=    35.00 Ry     beta=0.30
     Davidson diagonalization with overlap
     ethr =  1.68E-06,  avg # of iterations =  1.8

     total cpu time spent up to now is     1732.2 secs

     total energy              =    -173.29559425 Ry
     Harris-Foulkes estimate   =    -173.29568575 Ry
     estimated scf accuracy    <       0.00026807 Ry

     iteration #  9     ecut=    35.00 Ry     beta=0.30
     Davidson diagonalization with overlap
     ethr =  3.44E-07,  avg # of iterations =  3.3

     total cpu time spent up to now is     1928.9 secs

     total energy              =    -173.29566090 Ry
     Harris-Foulkes estimate   =    -173.29565696 Ry
     estimated scf accuracy    <       0.00001137 Ry

     iteration # 10     ecut=    35.00 Ry     beta=0.30
     Davidson diagonalization with overlap
     ethr =  1.46E-08,  avg # of iterations =  3.4

     total cpu time spent up to now is     2118.0 secs

     total energy              =    -173.29566831 Ry
     Harris-Foulkes estimate   =    -173.29566282 Ry
     estimated scf accuracy    <       0.00003970 Ry

     iteration # 11     ecut=    35.00 Ry     beta=0.30
     Davidson diagonalization with overlap
     ethr =  1.46E-08,  avg # of iterations =  2.3

     total cpu time spent up to now is     2271.2 secs

     total energy              =    -173.29564231 Ry
     Harris-Foulkes estimate   =    -173.29566930 Ry
     estimated scf accuracy    <       0.00007082 Ry

     iteration # 12     ecut=    35.00 Ry     beta=0.30
     Davidson diagonalization with overlap
     ethr =  1.46E-08,  avg # of iterations =  4.3

     total cpu time spent up to now is     2507.3 secs

     total energy              =    -173.29565574 Ry
     Harris-Foulkes estimate   =    -173.29565582 Ry
     estimated scf accuracy    <       0.00000223 Ry

     iteration # 13     ecut=    35.00 Ry     beta=0.30
     Davidson diagonalization with overlap
     ethr =  2.86E-09,  avg # of iterations =  1.2

     total cpu time spent up to now is     2651.4 secs

     total energy              =    -173.29565569 Ry
     Harris-Foulkes estimate   =    -173.29565577 Ry
     estimated scf accuracy    <       0.00000191 Ry

     iteration # 14     ecut=    35.00 Ry     beta=0.30
     Davidson diagonalization with overlap
     ethr =  2.45E-09,  avg # of iterations =  1.0

     total cpu time spent up to now is     2799.0 secs

     total energy              =    -173.29565526 Ry
     Harris-Foulkes estimate   =    -173.29565570 Ry
     estimated scf accuracy    <       0.00000153 Ry

     iteration # 15     ecut=    35.00 Ry     beta=0.30
     Davidson diagonalization with overlap
     ethr =  1.97E-09,  avg # of iterations =  2.7

     total cpu time spent up to now is     2988.0 secs

     total energy              =    -173.29565546 Ry
     Harris-Foulkes estimate   =    -173.29565546 Ry
     estimated scf accuracy    <          7.5E-09 Ry

     iteration # 16     ecut=    35.00 Ry     beta=0.30
     Davidson diagonalization with overlap
     c_bands:  1 eigenvalues not converged
     ethr =  9.60E-12,  avg # of iterations =  6.1

     total cpu time spent up to now is     3258.8 secs

     total energy              =    -173.29565546 Ry
     Harris-Foulkes estimate   =    -173.29565546 Ry
     estimated scf accuracy    <       0.00000002 Ry

     iteration # 17     ecut=    35.00 Ry     beta=0.30
     Davidson diagonalization with overlap
     ethr =  9.60E-12,  avg # of iterations =  1.0

     total cpu time spent up to now is     3381.1 secs

     total energy              =    -173.29565546 Ry
     Harris-Foulkes estimate   =    -173.29565546 Ry
     estimated scf accuracy    <       0.00000002 Ry

     iteration # 18     ecut=    35.00 Ry     beta=0.30
     Davidson diagonalization with overlap
     ethr =  9.60E-12,  avg # of iterations =  2.6

     total cpu time spent up to now is     3557.2 secs

     total energy              =    -173.29565546 Ry
     Harris-Foulkes estimate   =    -173.29565546 Ry
     estimated scf accuracy    <          3.5E-09 Ry

     iteration # 19     ecut=    35.00 Ry     beta=0.30
     Davidson diagonalization with overlap
     ethr =  4.55E-12,  avg # of iterations =  2.1

     total cpu time spent up to now is     3698.3 secs

     End of self-consistent calculation

     Number of k-points >= 100: set verbosity='high' to print the bands.

     the Fermi energy is     7.5752 ev

!    total energy              =    -173.29565546 Ry
     Harris-Foulkes estimate   =    -173.29565546 Ry
     estimated scf accuracy    <          9.8E-10 Ry

     The total energy is the sum of the following terms:

     one-electron contribution =      73.43268505 Ry
     hartree contribution      =       1.58363324 Ry
     xc contribution           =    -110.49721297 Ry
     ewald contribution        =    -137.63345252 Ry
     smearing contrib. (-TS)   =      -0.18130826 Ry

     convergence has been achieved in  19 iterations

     Forces acting on atoms (Ry/au):

     atom    1 type  1   force =   0.25768795E-02 -0.97495384E-02 -0.11092682E-02
     atom    2 type  1   force =   0.19970204E-02  0.96175366E-02  0.51585303E-02
     atom    3 type  1   force =  -0.67871085E-02 -0.22538814E-02 -0.33846246E-02
     atom    4 type  1   force =   0.30473011E-02 -0.74646594E-03 -0.71158212E-03
     atom    5 type  1   force =  -0.25126761E-02  0.45960594E-02  0.74664343E-03
     atom    6 type  1   force =   0.47635536E-02  0.33106816E-02  0.10571470E-01
     atom    7 type  1   force =   0.19453407E-02 -0.45709014E-02 -0.57658189E-02
     atom    8 type  1   force =  -0.57025545E-02 -0.17497362E-02 -0.43594066E-02
     atom    9 type  1   force =  -0.77725743E-02 -0.84018840E-02  0.36140096E-02
     atom   10 type  1   force =  -0.39634169E-02  0.11167597E-02  0.10995965E-02
     atom   11 type  1   force =  -0.79316644E-02 -0.28799014E-02  0.20412788E-02
     atom   12 type  1   force =   0.71672756E-02  0.33716565E-02  0.28227194E-02
     atom   13 type  1   force =   0.48080019E-02 -0.49937672E-02  0.23998018E-02
     atom   14 type  1   force =   0.34761371E-02  0.25936179E-02 -0.54928005E-02
     atom   15 type  1   force =  -0.62838316E-02 -0.29550666E-02  0.41214247E-02
     atom   16 type  1   force =  -0.11166207E-02 -0.44818100E-03 -0.54152710E-02
     atom   17 type  1   force =   0.38450313E-02  0.48660420E-02  0.40457399E-02
     atom   18 type  1   force =   0.12043166E-01  0.69741215E-02  0.15006694E-03
     atom   19 type  1   force =   0.60947870E-02  0.47944821E-02 -0.46748052E-02
     atom   20 type  1   force =   0.13092999E-02 -0.52316838E-02  0.17869171E-02
     atom   21 type  1   force =  -0.34831271E-02  0.18918167E-02 -0.24939347E-02
     atom   22 type  1   force =  -0.32659275E-02 -0.18043992E-02 -0.41844960E-04
     atom   23 type  1   force =  -0.41910530E-02 -0.14688966E-02  0.27732470E-02
     atom   24 type  1   force =  -0.22697599E-02  0.25983079E-02 -0.51178000E-02
     atom   25 type  1   force =  -0.11442903E-02  0.18765758E-02 -0.25982260E-02
     atom   26 type  1   force =   0.33508103E-02 -0.35335460E-03 -0.16606245E-03

     Total force =     0.039738     Total SCF correction =     0.000040


     entering subroutine stress ...

          total   stress  (Ry/bohr**3)                   (kbar)     P=   -6.01
  -0.0000408531   0.0000024637   0.0000007557         -6.01      0.36      0.11
   0.0000024637  -0.0000399944   0.0000008574          0.36     -5.88      0.13
   0.0000007557   0.0000008574  -0.0000416244          0.11      0.13     -6.12


     Writing output data file Al.scf.in.super.333.vac.033.save

     init_run     :    100.85s CPU    103.90s WALL (       1 calls)
     electrons    :   3331.61s CPU   3594.33s WALL (       1 calls)
     forces       :     21.57s CPU     20.57s WALL (       1 calls)
     stress       :     53.80s CPU     54.90s WALL (       1 calls)

     Called by init_run:
     wfcinit      :     99.96s CPU    102.96s WALL (       1 calls)
     potinit      :      0.18s CPU      0.20s WALL (       1 calls)

     Called by electrons:
     c_bands      :   2894.13s CPU   3118.70s WALL (      20 calls)
     sum_band     :    425.71s CPU    462.90s WALL (      20 calls)
     v_of_rho     :      2.40s CPU      2.64s WALL (      20 calls)
     newd         :      7.27s CPU      7.65s WALL (      20 calls)
     mix_rho      :      2.20s CPU      2.51s WALL (      20 calls)

     Called by c_bands:
     init_us_2    :     23.77s CPU     25.78s WALL (    4816 calls)
     cegterg      :   2806.34s CPU   3025.65s WALL (    2240 calls)

     Called by *egterg:
     h_psi        :   1814.54s CPU   1977.58s WALL (    8834 calls)
     s_psi        :    203.15s CPU    166.53s WALL (    8834 calls)
     g_psi        :      2.95s CPU      2.92s WALL (    6482 calls)
     cdiaghg      :    194.63s CPU    236.13s WALL (    8610 calls)

     Called by h_psi:
     add_vuspsi   :    208.23s CPU    181.14s WALL (    8834 calls)

     General routines
     calbec       :    444.86s CPU    437.58s WALL (   11298 calls)
     fft          :      3.59s CPU      3.90s WALL (     345 calls)
     ffts         :      1.28s CPU      1.43s WALL (     374 calls)
     fftw         :   1431.65s CPU   1646.40s WALL (  654492 calls)
     interpolate  :      0.42s CPU      0.51s WALL (      40 calls)

     Parallel routines
     fft_scatter  :    888.48s CPU   1025.86s WALL (  655211 calls)

     PWSCF        :     0h58m CPU        1h 3m WALL


   This run was terminated on:  12:15:42   9Oct2017            

=------------------------------------------------------------------------------=
   JOB DONE.
=------------------------------------------------------------------------------=
