
     Program PWSCF v.5.1 starts on  9Oct2017 at 11:49:56 

     This program is part of the open-source Quantum ESPRESSO suite
     for quantum simulation of materials; please cite
         "P. Giannozzi et al., J. Phys.:Condens. Matter 21 395502 (2009);
          URL http://www.quantum-espresso.org", 
     in publications or presentations arising from this work. More details at
     http://www.quantum-espresso.org/quote

     Parallel version (MPI), running on     8 processors
     R & G space division:  proc/nbgrp/npool/nimage =       8
     Reading input from /tmp/Al.scf.in.super.333.vac.06.17710/Al.scf.in.super.333.vac.06.t
Warning: card &IONS ignored
Warning: card   ION_DYNAMICS='BFGS', ignored
Warning: card / ignored
Warning: card &CELL ignored
Warning: card  CELL_DYNAMICS = 'BFGS' ignored
Warning: card / ignored
     Message from routine read_cards :
     DEPRECATED: no units specified in CELL_PARAMETERS card

     Current dimensions of program PWSCF are:
     Max number of different atomic species (ntypx) = 10
     Max number of k-points (npk) =  40000
     Max angular momentum in pseudopotentials (lmaxx) =  3
 kfg - two_fermi_energies  F

     Subspace diagonalization in iterative solution of the eigenvalue problem:
     a serial algorithm will be used


     Parallelization info
     --------------------
     sticks:   dense  smooth     PW     G-vecs:    dense   smooth      PW
     Min         446     314     87                17656    10334    1524
     Max         447     315     89                17661    10352    1525
     Sum        3571    2515    703               141263    82723   12195



     bravais-lattice index     =            0
     lattice parameter (alat)  =    16.110077237  a.u.
     unit-cell volume          =    2956.4999 (a.u.)^3
     number of atoms/cell      =           26
     number of atomic types    =            1
     number of electrons       =        78.00
     number of Kohn-Sham states=           47
     kinetic-energy cutoff     =      35.0000  Ry
     charge density cutoff     =     200.0000  Ry
     convergence threshold     =      1.0E-09
     mixing beta               =       0.3000
     number of iterations used =            8  local-TF  mixing
     Exchange-correlation      = SLA  PW   PSX  PSC ( 1  4 10  8 0)
     A smooth kinetic-energy cutoff is imposed at      34.5000 Ry
     height of the smooth step-function =             800.0000 Ry
     width of the smooth step-function  =               1.0000 Ry


     celldm(1)=  16.110077  celldm(2)=   0.000000  celldm(3)=   0.000000
     celldm(4)=   0.000000  celldm(5)=   0.000000  celldm(6)=   0.000000

     crystal axes: (cart. coord. in units of alat)
               a(1) = (   0.707106781187   0.707106781187  -0.000000000000 )  
               a(2) = (   0.707106781187  -0.000000000000   0.707106781187 )  
               a(3) = (  -0.000000000000   0.707106781187   0.707106781187 )  

     reciprocal axes: (cart. coord. in units 2 pi/alat)
               b(1) = (  0.707107  0.707107 -0.707107 )  
               b(2) = (  0.707107 -0.707107  0.707107 )  
               b(3) = ( -0.707107  0.707107  0.707107 )  


     PseudoPot. # 1 for Al read from file:
     /users/kfg/psuedo/gbrv_1.5/al.pbesol.UPF
     MD5 check sum: 6741bacbf7acc11acbeee135211c012e
     Pseudo is Ultrasoft + core correction, Zval =  3.0
     Generated by new atomic code, or converted to UPF format
     Using radial grid of  893 points,  3 beta functions with: 
                l(1) =   0
                l(2) =   1
                l(3) =   2
     Q(r) pseudized with  8 coefficients,  rinner =    0.900   0.900   0.900
                                                       0.900   0.900

     atomic species   valence    mass     pseudopotential
        Al             3.00    26.98154     Al( 1.00)

     No symmetry found



   Cartesian axes

     site n.     atom                  positions (alat units)
         1           Al  tau(   1) = (    0.00249976320    0.23389945734    0.23588061274  )
         2           Al  tau(   2) = (    0.00104984145    0.47277870773    0.47228598458  )
         3           Al  tau(   3) = (    0.23761560801   -0.00054420916    0.23804998877  )
         4           Al  tau(   4) = (    0.23512383796    0.23852550875    0.47242656325  )
         5           Al  tau(   5) = (    0.23376885003    0.47376056545    0.70674134010  )
         6           Al  tau(   6) = (    0.46911238911   -0.00165593213    0.47413775339  )
         7           Al  tau(   7) = (    0.47450148781    0.23659174998    0.70938399737  )
         8           Al  tau(   8) = (    0.47150506777    0.47294507496    0.94453225886  )
         9           Al  tau(   9) = (    0.23434354780    0.23436265929    0.00180139175  )
        10           Al  tau(  10) = (    0.23615008501    0.47405559296    0.23285401711  )
        11           Al  tau(  11) = (    0.23401972880    0.70444904376    0.47245973106  )
        12           Al  tau(  12) = (    0.46842014227    0.23782582150    0.23327199778  )
        13           Al  tau(  13) = (    0.47121464719    0.46919350195    0.47187991679  )
        14           Al  tau(  14) = (    0.47160739117    0.70897085732    0.70935996621  )
        15           Al  tau(  15) = (    0.70863641441    0.23796744661    0.46877958862  )
        16           Al  tau(  16) = (    0.70918006659    0.47221315586    0.70879646203  )
        17           Al  tau(  17) = (    0.70464358718    0.70551980719    0.94160493589  )
        18           Al  tau(  18) = (    0.47032580378    0.47109200834   -0.00208177514  )
        19           Al  tau(  19) = (    0.47397286056    0.70607352221    0.23543184352  )
        20           Al  tau(  20) = (    0.47436307007    0.94233127351    0.46842100281  )
        21           Al  tau(  21) = (    0.70603300692    0.46995353221    0.23581619676  )
        22           Al  tau(  22) = (    0.70819538181    0.70581370342    0.47020859618  )
        23           Al  tau(  23) = (    0.70927483358    0.94137283906    0.70542093162  )
        24           Al  tau(  24) = (    0.94553692878    0.47406679903    0.47308238608  )
        25           Al  tau(  25) = (    0.94500201959    0.70998848349    0.70865802399  )
        26           Al  tau(  26) = (    0.94521878090    0.94528074124    0.94295556330  )

     number of k points=   112  gaussian smearing, width (Ry)=  0.0500

     Number of k-points >= 100: set verbosity='high' to print them.

     Dense  grid:   141263 G-vectors     FFT dimensions: (  75,  75,  75)

     Smooth grid:    82723 G-vectors     FFT dimensions: (  64,  64,  64)

     Largest allocated arrays     est. size (Mb)     dimensions
        Kohn-Sham Wavefunctions         0.95 Mb     (    1323,   47)
        NL pseudopotentials             4.72 Mb     (    1323,  234)
        Each V/rho on FFT grid          0.86 Mb     (   56250)
        Each G-vector array             0.13 Mb     (   17661)
        G-vector shells                 0.01 Mb     (     874)
     Largest temporary arrays     est. size (Mb)     dimensions
        Auxiliary wavefunctions         3.80 Mb     (    1323,  188)
        Each subspace H/S matrix        0.54 Mb     (     188,  188)
        Each <psi_i|beta_j> matrix      0.17 Mb     (     234,   47)
        Arrays for rho mixing           6.87 Mb     (   56250,    8)

     Initial potential from superposition of free atoms

     starting charge   77.93882, renormalised to   78.00000
     Starting wfc are  104 randomized atomic wfcs

     total cpu time spent up to now is      124.2 secs

     Self-consistent Calculation

     iteration #  1     ecut=    35.00 Ry     beta=0.30
     Davidson diagonalization with overlap
     ethr =  1.00E-02,  avg # of iterations =  3.0

     Threshold (ethr) on eigenvalues was too large:
     Diagonalizing with lowered threshold

     Davidson diagonalization with overlap
     ethr =  2.67E-04,  avg # of iterations =  4.8

     total cpu time spent up to now is      542.1 secs

     total energy              =    -173.33870206 Ry
     Harris-Foulkes estimate   =    -173.36765113 Ry
     estimated scf accuracy    <       0.22445384 Ry

     iteration #  2     ecut=    35.00 Ry     beta=0.30
     Davidson diagonalization with overlap
     ethr =  2.88E-04,  avg # of iterations =  1.0

     total cpu time spent up to now is      657.6 secs

     total energy              =    -173.28039356 Ry
     Harris-Foulkes estimate   =    -173.34030628 Ry
     estimated scf accuracy    <       0.14193186 Ry

     iteration #  3     ecut=    35.00 Ry     beta=0.30
     Davidson diagonalization with overlap
     ethr =  1.82E-04,  avg # of iterations =  2.3

     total cpu time spent up to now is      824.3 secs

     total energy              =    -173.29547288 Ry
     Harris-Foulkes estimate   =    -173.29585388 Ry
     estimated scf accuracy    <       0.00211507 Ry

     iteration #  4     ecut=    35.00 Ry     beta=0.30
     Davidson diagonalization with overlap
     c_bands:  4 eigenvalues not converged
     c_bands:  1 eigenvalues not converged
     c_bands:  1 eigenvalues not converged
     c_bands:  1 eigenvalues not converged
     ethr =  2.71E-06,  avg # of iterations =  9.3

     total cpu time spent up to now is     1160.5 secs

     total energy              =    -173.29682718 Ry
     Harris-Foulkes estimate   =    -173.29677928 Ry
     estimated scf accuracy    <       0.00237742 Ry

     iteration #  5     ecut=    35.00 Ry     beta=0.30
     Davidson diagonalization with overlap
     ethr =  2.71E-06,  avg # of iterations =  1.1

     total cpu time spent up to now is     1291.4 secs

     total energy              =    -173.29550465 Ry
     Harris-Foulkes estimate   =    -173.29683204 Ry
     estimated scf accuracy    <       0.00259761 Ry

     iteration #  6     ecut=    35.00 Ry     beta=0.30
     Davidson diagonalization with overlap
     ethr =  2.71E-06,  avg # of iterations =  4.0

     total cpu time spent up to now is     1497.2 secs

     total energy              =    -173.29661767 Ry
     Harris-Foulkes estimate   =    -173.29673458 Ry
     estimated scf accuracy    <       0.00193263 Ry

     iteration #  7     ecut=    35.00 Ry     beta=0.30
     Davidson diagonalization with overlap
     ethr =  2.48E-06,  avg # of iterations =  1.0

     total cpu time spent up to now is     1631.7 secs

     total energy              =    -173.29622196 Ry
     Harris-Foulkes estimate   =    -173.29663038 Ry
     estimated scf accuracy    <       0.00146689 Ry

     iteration #  8     ecut=    35.00 Ry     beta=0.30
     Davidson diagonalization with overlap
     ethr =  1.88E-06,  avg # of iterations =  2.2

     total cpu time spent up to now is     1781.6 secs

     total energy              =    -173.29635556 Ry
     Harris-Foulkes estimate   =    -173.29637569 Ry
     estimated scf accuracy    <       0.00004452 Ry

     iteration #  9     ecut=    35.00 Ry     beta=0.30
     Davidson diagonalization with overlap
     ethr =  5.71E-08,  avg # of iterations =  4.2

     total cpu time spent up to now is     2008.8 secs

     total energy              =    -173.29638732 Ry
     Harris-Foulkes estimate   =    -173.29638374 Ry
     estimated scf accuracy    <       0.00002809 Ry

     iteration # 10     ecut=    35.00 Ry     beta=0.30
     Davidson diagonalization with overlap
     ethr =  3.60E-08,  avg # of iterations =  1.0

     total cpu time spent up to now is     2146.8 secs

     total energy              =    -173.29637472 Ry
     Harris-Foulkes estimate   =    -173.29638777 Ry
     estimated scf accuracy    <       0.00004657 Ry

     iteration # 11     ecut=    35.00 Ry     beta=0.30
     Davidson diagonalization with overlap
     ethr =  3.60E-08,  avg # of iterations =  2.3

     total cpu time spent up to now is     2296.9 secs

     total energy              =    -173.29637805 Ry
     Harris-Foulkes estimate   =    -173.29637888 Ry
     estimated scf accuracy    <       0.00000240 Ry

     iteration # 12     ecut=    35.00 Ry     beta=0.30
     Davidson diagonalization with overlap
     ethr =  3.08E-09,  avg # of iterations =  4.0

     total cpu time spent up to now is     2519.9 secs

     total energy              =    -173.29637877 Ry
     Harris-Foulkes estimate   =    -173.29637874 Ry
     estimated scf accuracy    <       0.00000017 Ry

     iteration # 13     ecut=    35.00 Ry     beta=0.30
     Davidson diagonalization with overlap
     ethr =  2.20E-10,  avg # of iterations =  2.1

     total cpu time spent up to now is     2658.3 secs

     total energy              =    -173.29637878 Ry
     Harris-Foulkes estimate   =    -173.29637879 Ry
     estimated scf accuracy    <       0.00000037 Ry

     iteration # 14     ecut=    35.00 Ry     beta=0.30
     Davidson diagonalization with overlap
     ethr =  2.20E-10,  avg # of iterations =  1.0

     total cpu time spent up to now is     2775.5 secs

     total energy              =    -173.29637877 Ry
     Harris-Foulkes estimate   =    -173.29637878 Ry
     estimated scf accuracy    <       0.00000037 Ry

     iteration # 15     ecut=    35.00 Ry     beta=0.30
     Davidson diagonalization with overlap
     ethr =  2.20E-10,  avg # of iterations =  1.0

     total cpu time spent up to now is     2895.8 secs

     total energy              =    -173.29637861 Ry
     Harris-Foulkes estimate   =    -173.29637877 Ry
     estimated scf accuracy    <       0.00000034 Ry

     iteration # 16     ecut=    35.00 Ry     beta=0.30
     Davidson diagonalization with overlap
     ethr =  2.20E-10,  avg # of iterations =  3.9

     total cpu time spent up to now is     3115.3 secs

     total energy              =    -173.29637870 Ry
     Harris-Foulkes estimate   =    -173.29637874 Ry
     estimated scf accuracy    <       0.00000016 Ry

     iteration # 17     ecut=    35.00 Ry     beta=0.30
     Davidson diagonalization with overlap
     ethr =  2.02E-10,  avg # of iterations =  2.4

     total cpu time spent up to now is     3262.2 secs

     total energy              =    -173.29637871 Ry
     Harris-Foulkes estimate   =    -173.29637871 Ry
     estimated scf accuracy    <          3.6E-09 Ry

     iteration # 18     ecut=    35.00 Ry     beta=0.30
     Davidson diagonalization with overlap
     c_bands:  1 eigenvalues not converged
     ethr =  4.61E-12,  avg # of iterations =  5.3

     total cpu time spent up to now is     3507.9 secs

     End of self-consistent calculation

     Number of k-points >= 100: set verbosity='high' to print the bands.

     the Fermi energy is     7.5752 ev

!    total energy              =    -173.29637871 Ry
     Harris-Foulkes estimate   =    -173.29637871 Ry
     estimated scf accuracy    <          9.2E-10 Ry

     The total energy is the sum of the following terms:

     one-electron contribution =      73.48877952 Ry
     hartree contribution      =       1.55667891 Ry
     xc contribution           =    -110.49367080 Ry
     ewald contribution        =    -137.66687926 Ry
     smearing contrib. (-TS)   =      -0.18128707 Ry

     convergence has been achieved in  18 iterations

     Forces acting on atoms (Ry/au):

     atom    1 type  1   force =  -0.10020693E-02 -0.21569877E-02 -0.49324643E-02
     atom    2 type  1   force =  -0.23728366E-02  0.35988761E-02  0.32816596E-02
     atom    3 type  1   force =  -0.78515027E-02  0.70238592E-03 -0.64519894E-02
     atom    4 type  1   force =   0.22096947E-02 -0.33859441E-02 -0.92591605E-03
     atom    5 type  1   force =  -0.19527552E-02  0.39188952E-02  0.32683427E-02
     atom    6 type  1   force =   0.11484796E-01  0.82344298E-02  0.23114965E-02
     atom    7 type  1   force =   0.39827519E-02 -0.46249131E-02 -0.28581952E-02
     atom    8 type  1   force =   0.20179321E-02 -0.20770582E-02 -0.36351923E-02
     atom    9 type  1   force =  -0.41596792E-02 -0.48056693E-02 -0.61543986E-02
     atom   10 type  1   force =  -0.99145435E-03 -0.11137154E-02  0.37596814E-02
     atom   11 type  1   force =  -0.17908814E-02  0.64793538E-02  0.27922311E-02
     atom   12 type  1   force =   0.50708377E-02 -0.33985486E-02  0.37743418E-02
     atom   13 type  1   force =   0.11450721E-02  0.44917704E-02  0.21585110E-02
     atom   14 type  1   force =  -0.15486130E-02 -0.27183773E-02 -0.58341715E-02
     atom   15 type  1   force =  -0.13624908E-02 -0.91379715E-02  0.68584827E-02
     atom   16 type  1   force =  -0.26687365E-02 -0.14705304E-02 -0.37389051E-02
     atom   17 type  1   force =   0.31900214E-02  0.57973236E-02  0.48822225E-02
     atom   18 type  1   force =   0.87445502E-02  0.32253208E-02  0.25491696E-02
     atom   19 type  1   force =   0.26319649E-02  0.39438211E-03 -0.44732870E-02
     atom   20 type  1   force =  -0.33169587E-02 -0.17206295E-02  0.53576666E-02
     atom   21 type  1   force =   0.21543671E-02  0.64176750E-02 -0.70330728E-02
     atom   22 type  1   force =  -0.68331724E-03 -0.56791326E-03  0.21195244E-02
     atom   23 type  1   force =  -0.30900529E-02  0.31631778E-02  0.27898859E-02
     atom   24 type  1   force =  -0.56965333E-02 -0.49941002E-02  0.11830754E-03
     atom   25 type  1   force =  -0.12158353E-02 -0.34741341E-03 -0.31579823E-03
     atom   26 type  1   force =  -0.29282717E-02 -0.39038184E-02  0.33186730E-03

     Total force =     0.036724     Total SCF correction =     0.000030


     entering subroutine stress ...

          total   stress  (Ry/bohr**3)                   (kbar)     P=   -6.23
  -0.0000430093   0.0000012814   0.0000020194         -6.33      0.19      0.30
   0.0000012814  -0.0000426748  -0.0000032911          0.19     -6.28     -0.48
   0.0000020194  -0.0000032911  -0.0000414173          0.30     -0.48     -6.09


     Writing output data file Al.scf.in.super.333.vac.066.save

     init_run     :    118.49s CPU    124.10s WALL (       1 calls)
     electrons    :   3072.14s CPU   3383.71s WALL (       1 calls)
     forces       :     20.26s CPU     19.79s WALL (       1 calls)
     stress       :     45.45s CPU     46.27s WALL (       1 calls)

     Called by init_run:
     wfcinit      :    117.55s CPU    123.12s WALL (       1 calls)
     potinit      :      0.18s CPU      0.19s WALL (       1 calls)

     Called by electrons:
     c_bands      :   2697.35s CPU   2970.94s WALL (      19 calls)
     sum_band     :    364.55s CPU    401.65s WALL (      19 calls)
     v_of_rho     :      2.20s CPU      2.46s WALL (      19 calls)
     newd         :      6.26s CPU      6.58s WALL (      19 calls)
     mix_rho      :      2.00s CPU      2.27s WALL (      19 calls)

     Called by c_bands:
     init_us_2    :     20.81s CPU     22.58s WALL (    4592 calls)
     cegterg      :   2615.24s CPU   2883.70s WALL (    2128 calls)

     Called by *egterg:
     h_psi        :   1671.31s CPU   1848.10s WALL (    8528 calls)
     s_psi        :    190.30s CPU    163.12s WALL (    8528 calls)
     g_psi        :      2.61s CPU      2.72s WALL (    6288 calls)
     cdiaghg      :    185.22s CPU    234.86s WALL (    8304 calls)

     Called by h_psi:
     add_vuspsi   :    194.30s CPU    181.24s WALL (    8528 calls)

     General routines
     calbec       :    424.49s CPU    432.24s WALL (   10880 calls)
     fft          :      2.39s CPU      2.70s WALL (     329 calls)
     ffts         :      1.28s CPU      1.30s WALL (     357 calls)
     fftw         :   1282.58s CPU   1481.65s WALL (  635202 calls)
     interpolate  :      0.40s CPU      0.44s WALL (      38 calls)

     Parallel routines
     fft_scatter  :    767.86s CPU    890.36s WALL (  635888 calls)

     PWSCF        : 54m21.92s CPU    59m41.35s WALL


   This run was terminated on:  12:49:38   9Oct2017            

=------------------------------------------------------------------------------=
   JOB DONE.
=------------------------------------------------------------------------------=
