
     Program PWSCF v.5.1 starts on  5Sep2017 at 13:16:38 

     This program is part of the open-source Quantum ESPRESSO suite
     for quantum simulation of materials; please cite
         "P. Giannozzi et al., J. Phys.:Condens. Matter 21 395502 (2009);
          URL http://www.quantum-espresso.org", 
     in publications or presentations arising from this work. More details at
     http://www.quantum-espresso.org/quote

     Parallel version (MPI), running on    16 processors
     R & G space division:  proc/nbgrp/npool/nimage =      16
     Reading input from /tmp/Al.scf.in.super.333.27433/Al.scf.in.super.333.t
Warning: card &IONS ignored
Warning: card   ION_DYNAMICS='BFGS', ignored
Warning: card / ignored
Warning: card &CELL ignored
Warning: card  CELL_DYNAMICS = 'BFGS' ignored
Warning: card / ignored
     Message from routine read_cards :
     DEPRECATED: no units specified in CELL_PARAMETERS card

     Current dimensions of program PWSCF are:
     Max number of different atomic species (ntypx) = 10
     Max number of k-points (npk) =  40000
     Max angular momentum in pseudopotentials (lmaxx) =  3
 kfg - two_fermi_energies  F

     Subspace diagonalization in iterative solution of the eigenvalue problem:
     a serial algorithm will be used

     Found symmetry operation: I + (  0.0000  0.0000  0.3333)
     This is a supercell, fractional translations are disabled

     Parallelization info
     --------------------
     sticks:   dense  smooth     PW     G-vecs:    dense   smooth      PW
     Min         223     157     43                 8828     5162     761
     Max         224     158     44                 8833     5175     763
     Sum        3571    2515    703               141263    82723   12195



     bravais-lattice index     =            0
     lattice parameter (alat)  =    16.110077237  a.u.
     unit-cell volume          =    2956.4999 (a.u.)^3
     number of atoms/cell      =           27
     number of atomic types    =            1
     number of electrons       =        81.00
     number of Kohn-Sham states=           49
     kinetic-energy cutoff     =      35.0000  Ry
     charge density cutoff     =     200.0000  Ry
     convergence threshold     =      1.0E-09
     mixing beta               =       0.3000
     number of iterations used =            8  local-TF  mixing
     Exchange-correlation      = SLA  PW   PSX  PSC ( 1  4 10  8 0)
     A smooth kinetic-energy cutoff is imposed at      34.5000 Ry
     height of the smooth step-function =             800.0000 Ry
     width of the smooth step-function  =               1.0000 Ry


     celldm(1)=  16.110077  celldm(2)=   0.000000  celldm(3)=   0.000000
     celldm(4)=   0.000000  celldm(5)=   0.000000  celldm(6)=   0.000000

     crystal axes: (cart. coord. in units of alat)
               a(1) = (   0.707106781187   0.707106781187  -0.000000000000 )  
               a(2) = (   0.707106781187  -0.000000000000   0.707106781187 )  
               a(3) = (  -0.000000000000   0.707106781187   0.707106781187 )  

     reciprocal axes: (cart. coord. in units 2 pi/alat)
               b(1) = (  0.707107  0.707107 -0.707107 )  
               b(2) = (  0.707107 -0.707107  0.707107 )  
               b(3) = ( -0.707107  0.707107  0.707107 )  


     PseudoPot. # 1 for Al read from file:
     /users/kfg/psuedo/gbrv_1.5/al.pbesol.UPF
     MD5 check sum: 6741bacbf7acc11acbeee135211c012e
     Pseudo is Ultrasoft + core correction, Zval =  3.0
     Generated by new atomic code, or converted to UPF format
     Using radial grid of  893 points,  3 beta functions with: 
                l(1) =   0
                l(2) =   1
                l(3) =   2
     Q(r) pseudized with  8 coefficients,  rinner =    0.900   0.900   0.900
                                                       0.900   0.900

     atomic species   valence    mass     pseudopotential
        Al             3.00    26.98154     Al( 1.00)

     48 Sym. Ops., with inversion, found



   Cartesian axes

     site n.     atom                  positions (alat units)
         1           Al  tau(   1) = (    0.00000000000    0.00000000000    0.00000000000  )
         2           Al  tau(   2) = (    0.00000000000    0.23570226040    0.23570226040  )
         3           Al  tau(   3) = (    0.00000000000    0.47140452079    0.47140452079  )
         4           Al  tau(   4) = (    0.23570226040    0.00000000000    0.23570226040  )
         5           Al  tau(   5) = (    0.23570226040    0.23570226040    0.47140452079  )
         6           Al  tau(   6) = (    0.23570226040    0.47140452079    0.70710678119  )
         7           Al  tau(   7) = (    0.47140452079    0.00000000000    0.47140452079  )
         8           Al  tau(   8) = (    0.47140452079    0.23570226040    0.70710678119  )
         9           Al  tau(   9) = (    0.47140452079    0.47140452079    0.94280904158  )
        10           Al  tau(  10) = (    0.23570226040    0.23570226040    0.00000000000  )
        11           Al  tau(  11) = (    0.23570226040    0.47140452079    0.23570226040  )
        12           Al  tau(  12) = (    0.23570226040    0.70710678119    0.47140452079  )
        13           Al  tau(  13) = (    0.47140452079    0.23570226040    0.23570226040  )
        14           Al  tau(  14) = (    0.47140452079    0.47140452079    0.47140452079  )
        15           Al  tau(  15) = (    0.47140452079    0.70710678119    0.70710678119  )
        16           Al  tau(  16) = (    0.70710678119    0.23570226040    0.47140452079  )
        17           Al  tau(  17) = (    0.70710678119    0.47140452079    0.70710678119  )
        18           Al  tau(  18) = (    0.70710678119    0.70710678119    0.94280904158  )
        19           Al  tau(  19) = (    0.47140452079    0.47140452079    0.00000000000  )
        20           Al  tau(  20) = (    0.47140452079    0.70710678119    0.23570226040  )
        21           Al  tau(  21) = (    0.47140452079    0.94280904158    0.47140452079  )
        22           Al  tau(  22) = (    0.70710678119    0.47140452079    0.23570226040  )
        23           Al  tau(  23) = (    0.70710678119    0.70710678119    0.47140452079  )
        24           Al  tau(  24) = (    0.70710678119    0.94280904158    0.70710678119  )
        25           Al  tau(  25) = (    0.94280904158    0.47140452079    0.47140452079  )
        26           Al  tau(  26) = (    0.94280904158    0.70710678119    0.70710678119  )
        27           Al  tau(  27) = (    0.94280904158    0.94280904158    0.94280904158  )

     number of k points=    16  gaussian smearing, width (Ry)=  0.0500
                       cart. coord. in units 2pi/alat
        k(    1) = (   0.0000000   0.0000000   0.0000000), wk =   0.0092593
        k(    2) = (  -0.1178511   0.1178511   0.1178511), wk =   0.0740741
        k(    3) = (  -0.2357023   0.2357023   0.2357023), wk =   0.0740741
        k(    4) = (   0.3535534  -0.3535534  -0.3535534), wk =   0.0370370
        k(    5) = (   0.0000000   0.0000000   0.2357023), wk =   0.0555556
        k(    6) = (  -0.1178511   0.1178511   0.3535534), wk =   0.2222222
        k(    7) = (   0.4714045  -0.4714045  -0.2357023), wk =   0.2222222
        k(    8) = (   0.3535534  -0.3535534  -0.1178511), wk =   0.2222222
        k(    9) = (   0.2357023  -0.2357023   0.0000000), wk =   0.1111111
        k(   10) = (   0.0000000   0.0000000   0.4714045), wk =   0.0555556
        k(   11) = (   0.5892557  -0.5892557  -0.1178511), wk =   0.2222222
        k(   12) = (   0.4714045  -0.4714045  -0.0000000), wk =   0.1111111
        k(   13) = (   0.0000000   0.0000000  -0.7071068), wk =   0.0277778
        k(   14) = (   0.7071068  -0.4714045  -0.2357023), wk =   0.2222222
        k(   15) = (   0.5892557  -0.3535534  -0.1178511), wk =   0.2222222
        k(   16) = (   0.0000000   0.2357023  -0.7071068), wk =   0.1111111

     Dense  grid:   141263 G-vectors     FFT dimensions: (  75,  75,  75)

     Smooth grid:    82723 G-vectors     FFT dimensions: (  64,  64,  64)

     Largest allocated arrays     est. size (Mb)     dimensions
        Kohn-Sham Wavefunctions         0.49 Mb     (     654,   49)
        NL pseudopotentials             2.42 Mb     (     654,  243)
        Each V/rho on FFT grid          0.43 Mb     (   28125)
        Each G-vector array             0.07 Mb     (    8833)
        G-vector shells                 0.01 Mb     (     854)
     Largest temporary arrays     est. size (Mb)     dimensions
        Auxiliary wavefunctions         1.96 Mb     (     654,  196)
        Each subspace H/S matrix        0.59 Mb     (     196,  196)
        Each <psi_i|beta_j> matrix      0.18 Mb     (     243,   49)
        Arrays for rho mixing           3.43 Mb     (   28125,    8)

     Initial potential from superposition of free atoms

     starting charge   80.93646, renormalised to   81.00000
     Starting wfc are  108 randomized atomic wfcs

     total cpu time spent up to now is        8.3 secs

     per-process dynamical memory:    25.4 Mb

     Self-consistent Calculation

     iteration #  1     ecut=    35.00 Ry     beta=0.30
     Davidson diagonalization with overlap
     ethr =  1.00E-02,  avg # of iterations =  3.0

     Threshold (ethr) on eigenvalues was too large:
     Diagonalizing with lowered threshold

     Davidson diagonalization with overlap
     ethr =  1.96E-04,  avg # of iterations =  3.3

     total cpu time spent up to now is       40.8 secs

     total energy              =    -180.06339195 Ry
     Harris-Foulkes estimate   =    -180.08638328 Ry
     estimated scf accuracy    <       0.15915050 Ry

     iteration #  2     ecut=    35.00 Ry     beta=0.30
     Davidson diagonalization with overlap
     ethr =  1.96E-04,  avg # of iterations =  1.0

     total cpu time spent up to now is       51.0 secs

     total energy              =    -180.02322804 Ry
     Harris-Foulkes estimate   =    -180.06433331 Ry
     estimated scf accuracy    <       0.09695781 Ry

     iteration #  3     ecut=    35.00 Ry     beta=0.30
     Davidson diagonalization with overlap
     ethr =  1.20E-04,  avg # of iterations =  1.0

     total cpu time spent up to now is       61.3 secs

     total energy              =    -180.02673975 Ry
     Harris-Foulkes estimate   =    -180.02671932 Ry
     estimated scf accuracy    <       0.00005130 Ry

     iteration #  4     ecut=    35.00 Ry     beta=0.30
     Davidson diagonalization with overlap
     ethr =  6.33E-08,  avg # of iterations =  8.8

     total cpu time spent up to now is       92.8 secs

     total energy              =    -180.02729831 Ry
     Harris-Foulkes estimate   =    -180.02728883 Ry
     estimated scf accuracy    <       0.00001438 Ry

     iteration #  5     ecut=    35.00 Ry     beta=0.30
     Davidson diagonalization with overlap
     ethr =  1.78E-08,  avg # of iterations =  2.7

     total cpu time spent up to now is      105.4 secs

     total energy              =    -180.02729596 Ry
     Harris-Foulkes estimate   =    -180.02729865 Ry
     estimated scf accuracy    <       0.00000645 Ry

     iteration #  6     ecut=    35.00 Ry     beta=0.30
     Davidson diagonalization with overlap
     ethr =  7.96E-09,  avg # of iterations =  3.2

     total cpu time spent up to now is      119.2 secs

     total energy              =    -180.02729632 Ry
     Harris-Foulkes estimate   =    -180.02729655 Ry
     estimated scf accuracy    <       0.00000146 Ry

     iteration #  7     ecut=    35.00 Ry     beta=0.30
     Davidson diagonalization with overlap
     ethr =  1.80E-09,  avg # of iterations =  2.7

     total cpu time spent up to now is      132.3 secs

     total energy              =    -180.02729637 Ry
     Harris-Foulkes estimate   =    -180.02729637 Ry
     estimated scf accuracy    <       0.00000004 Ry

     iteration #  8     ecut=    35.00 Ry     beta=0.30
     Davidson diagonalization with overlap
     c_bands:  3 eigenvalues not converged
     ethr =  4.72E-11,  avg # of iterations =  6.9

     total cpu time spent up to now is      157.9 secs

     total energy              =    -180.02729641 Ry
     Harris-Foulkes estimate   =    -180.02729641 Ry
     estimated scf accuracy    <       0.00000027 Ry

     iteration #  9     ecut=    35.00 Ry     beta=0.30
     Davidson diagonalization with overlap
     ethr =  4.72E-11,  avg # of iterations =  1.1

     total cpu time spent up to now is      168.2 secs

     total energy              =    -180.02729641 Ry
     Harris-Foulkes estimate   =    -180.02729641 Ry
     estimated scf accuracy    <       0.00000027 Ry

     iteration # 10     ecut=    35.00 Ry     beta=0.30
     Davidson diagonalization with overlap
     ethr =  4.72E-11,  avg # of iterations =  1.0

     total cpu time spent up to now is      178.4 secs

     total energy              =    -180.02729640 Ry
     Harris-Foulkes estimate   =    -180.02729641 Ry
     estimated scf accuracy    <       0.00000024 Ry

     iteration # 11     ecut=    35.00 Ry     beta=0.30
     Davidson diagonalization with overlap
     ethr =  4.72E-11,  avg # of iterations =  1.0

     total cpu time spent up to now is      189.2 secs

     total energy              =    -180.02729640 Ry
     Harris-Foulkes estimate   =    -180.02729640 Ry
     estimated scf accuracy    <       0.00000022 Ry

     iteration # 12     ecut=    35.00 Ry     beta=0.30
     Davidson diagonalization with overlap
     ethr =  4.72E-11,  avg # of iterations =  1.0

     total cpu time spent up to now is      199.1 secs

     total energy              =    -180.02729640 Ry
     Harris-Foulkes estimate   =    -180.02729640 Ry
     estimated scf accuracy    <       0.00000022 Ry

     iteration # 13     ecut=    35.00 Ry     beta=0.30
     Davidson diagonalization with overlap
     ethr =  4.72E-11,  avg # of iterations =  1.0

     total cpu time spent up to now is      209.2 secs

     total energy              =    -180.02729640 Ry
     Harris-Foulkes estimate   =    -180.02729640 Ry
     estimated scf accuracy    <       0.00000021 Ry

     iteration # 14     ecut=    35.00 Ry     beta=0.30
     Davidson diagonalization with overlap
     ethr =  4.72E-11,  avg # of iterations =  1.0

     total cpu time spent up to now is      219.7 secs

     total energy              =    -180.02729638 Ry
     Harris-Foulkes estimate   =    -180.02729640 Ry
     estimated scf accuracy    <       0.00000021 Ry

     iteration # 15     ecut=    35.00 Ry     beta=0.30
     Davidson diagonalization with overlap
     ethr =  4.72E-11,  avg # of iterations =  2.3

     total cpu time spent up to now is      231.9 secs

     total energy              =    -180.02729640 Ry
     Harris-Foulkes estimate   =    -180.02729638 Ry
     estimated scf accuracy    <       0.00000012 Ry

     iteration # 16     ecut=    35.00 Ry     beta=0.30
     Davidson diagonalization with overlap
     ethr =  4.72E-11,  avg # of iterations =  1.1

     total cpu time spent up to now is      242.0 secs

     total energy              =    -180.02729633 Ry
     Harris-Foulkes estimate   =    -180.02729640 Ry
     estimated scf accuracy    <       0.00000017 Ry

     iteration # 17     ecut=    35.00 Ry     beta=0.30
     Davidson diagonalization with overlap
     c_bands:  2 eigenvalues not converged
     ethr =  4.72E-11,  avg # of iterations =  5.9

     total cpu time spent up to now is      266.1 secs

     total energy              =    -180.02729642 Ry
     Harris-Foulkes estimate   =    -180.02729642 Ry
     estimated scf accuracy    <       0.00000020 Ry

     iteration # 18     ecut=    35.00 Ry     beta=0.30
     Davidson diagonalization with overlap
     ethr =  4.72E-11,  avg # of iterations =  1.1

     total cpu time spent up to now is      276.3 secs

     total energy              =    -180.02729643 Ry
     Harris-Foulkes estimate   =    -180.02729642 Ry
     estimated scf accuracy    <       0.00000021 Ry

     iteration # 19     ecut=    35.00 Ry     beta=0.30
     Davidson diagonalization with overlap
     ethr =  4.72E-11,  avg # of iterations =  1.0

     total cpu time spent up to now is      287.0 secs

     total energy              =    -180.02729643 Ry
     Harris-Foulkes estimate   =    -180.02729643 Ry
     estimated scf accuracy    <       0.00000022 Ry

     iteration # 20     ecut=    35.00 Ry     beta=0.30
     Davidson diagonalization with overlap
     ethr =  4.72E-11,  avg # of iterations =  1.0

     total cpu time spent up to now is      297.1 secs

     total energy              =    -180.02729643 Ry
     Harris-Foulkes estimate   =    -180.02729643 Ry
     estimated scf accuracy    <       0.00000022 Ry

     iteration # 21     ecut=    35.00 Ry     beta=0.30
     Davidson diagonalization with overlap
     ethr =  4.72E-11,  avg # of iterations =  1.0

     total cpu time spent up to now is      308.5 secs

     total energy              =    -180.02729642 Ry
     Harris-Foulkes estimate   =    -180.02729643 Ry
     estimated scf accuracy    <       0.00000023 Ry

     iteration # 22     ecut=    35.00 Ry     beta=0.30
     Davidson diagonalization with overlap
     ethr =  4.72E-11,  avg # of iterations =  1.0

     total cpu time spent up to now is      319.3 secs

     total energy              =    -180.02729641 Ry
     Harris-Foulkes estimate   =    -180.02729642 Ry
     estimated scf accuracy    <       0.00000021 Ry

     iteration # 23     ecut=    35.00 Ry     beta=0.30
     Davidson diagonalization with overlap
     ethr =  4.72E-11,  avg # of iterations =  1.0

     total cpu time spent up to now is      329.7 secs

     total energy              =    -180.02729642 Ry
     Harris-Foulkes estimate   =    -180.02729641 Ry
     estimated scf accuracy    <       0.00000017 Ry

     iteration # 24     ecut=    35.00 Ry     beta=0.30
     Davidson diagonalization with overlap
     ethr =  4.72E-11,  avg # of iterations =  1.0

     total cpu time spent up to now is      340.9 secs

     total energy              =    -180.02729640 Ry
     Harris-Foulkes estimate   =    -180.02729642 Ry
     estimated scf accuracy    <       0.00000019 Ry

     iteration # 25     ecut=    35.00 Ry     beta=0.30
     Davidson diagonalization with overlap
     ethr =  4.72E-11,  avg # of iterations =  1.1

     total cpu time spent up to now is      351.7 secs

     total energy              =    -180.02729635 Ry
     Harris-Foulkes estimate   =    -180.02729640 Ry
     estimated scf accuracy    <       0.00000012 Ry

     iteration # 26     ecut=    35.00 Ry     beta=0.30
     Davidson diagonalization with overlap
     c_bands:  1 eigenvalues not converged
     ethr =  4.72E-11,  avg # of iterations =  4.9

     total cpu time spent up to now is      374.6 secs

     total energy              =    -180.02729640 Ry
     Harris-Foulkes estimate   =    -180.02729641 Ry
     estimated scf accuracy    <       0.00000010 Ry

     iteration # 27     ecut=    35.00 Ry     beta=0.30
     Davidson diagonalization with overlap
     ethr =  4.72E-11,  avg # of iterations =  1.6

     total cpu time spent up to now is      386.0 secs

     total energy              =    -180.02729639 Ry
     Harris-Foulkes estimate   =    -180.02729640 Ry
     estimated scf accuracy    <       0.00000005 Ry

     iteration # 28     ecut=    35.00 Ry     beta=0.30
     Davidson diagonalization with overlap
     ethr =  4.72E-11,  avg # of iterations =  1.0

     total cpu time spent up to now is      396.7 secs

     total energy              =    -180.02729639 Ry
     Harris-Foulkes estimate   =    -180.02729639 Ry
     estimated scf accuracy    <       0.00000004 Ry

     iteration # 29     ecut=    35.00 Ry     beta=0.30
     Davidson diagonalization with overlap
     ethr =  4.35E-11,  avg # of iterations =  1.4

     total cpu time spent up to now is      408.6 secs

     total energy              =    -180.02729638 Ry
     Harris-Foulkes estimate   =    -180.02729639 Ry
     estimated scf accuracy    <       0.00000001 Ry

     iteration # 30     ecut=    35.00 Ry     beta=0.30
     Davidson diagonalization with overlap
     c_bands:  1 eigenvalues not converged
     ethr =  1.78E-11,  avg # of iterations =  4.1

     total cpu time spent up to now is      425.3 secs

     total energy              =    -180.02729639 Ry
     Harris-Foulkes estimate   =    -180.02729639 Ry
     estimated scf accuracy    <       0.00000002 Ry

     iteration # 31     ecut=    35.00 Ry     beta=0.30
     Davidson diagonalization with overlap
     ethr =  1.78E-11,  avg # of iterations =  1.1

     total cpu time spent up to now is      436.5 secs

     total energy              =    -180.02729639 Ry
     Harris-Foulkes estimate   =    -180.02729639 Ry
     estimated scf accuracy    <       0.00000002 Ry

     iteration # 32     ecut=    35.00 Ry     beta=0.30
     Davidson diagonalization with overlap
     ethr =  1.78E-11,  avg # of iterations =  1.0

     total cpu time spent up to now is      447.4 secs

     total energy              =    -180.02729639 Ry
     Harris-Foulkes estimate   =    -180.02729639 Ry
     estimated scf accuracy    <       0.00000001 Ry

     iteration # 33     ecut=    35.00 Ry     beta=0.30
     Davidson diagonalization with overlap
     ethr =  1.78E-11,  avg # of iterations =  1.0

     total cpu time spent up to now is      458.1 secs

     total energy              =    -180.02729639 Ry
     Harris-Foulkes estimate   =    -180.02729639 Ry
     estimated scf accuracy    <       0.00000001 Ry

     iteration # 34     ecut=    35.00 Ry     beta=0.30
     Davidson diagonalization with overlap
     ethr =  1.62E-11,  avg # of iterations =  1.0

     total cpu time spent up to now is      469.2 secs

     total energy              =    -180.02729639 Ry
     Harris-Foulkes estimate   =    -180.02729639 Ry
     estimated scf accuracy    <          5.0E-09 Ry

     iteration # 35     ecut=    35.00 Ry     beta=0.30
     Davidson diagonalization with overlap
     ethr =  6.21E-12,  avg # of iterations =  1.7

     total cpu time spent up to now is      481.1 secs

     total energy              =    -180.02729639 Ry
     Harris-Foulkes estimate   =    -180.02729639 Ry
     estimated scf accuracy    <          2.4E-09 Ry

     iteration # 36     ecut=    35.00 Ry     beta=0.30
     Davidson diagonalization with overlap
     c_bands:  1 eigenvalues not converged
     ethr =  2.98E-12,  avg # of iterations =  3.7

     total cpu time spent up to now is      496.0 secs

     total energy              =    -180.02729639 Ry
     Harris-Foulkes estimate   =    -180.02729639 Ry
     estimated scf accuracy    <          2.7E-09 Ry

     iteration # 37     ecut=    35.00 Ry     beta=0.30
     Davidson diagonalization with overlap
     c_bands:  1 eigenvalues not converged
     ethr =  2.98E-12,  avg # of iterations =  2.2

     total cpu time spent up to now is      508.3 secs

     total energy              =    -180.02729639 Ry
     Harris-Foulkes estimate   =    -180.02729639 Ry
     estimated scf accuracy    <          2.6E-09 Ry

     iteration # 38     ecut=    35.00 Ry     beta=0.30
     Davidson diagonalization with overlap
     ethr =  2.98E-12,  avg # of iterations =  1.0

     total cpu time spent up to now is      519.0 secs

     total energy              =    -180.02729639 Ry
     Harris-Foulkes estimate   =    -180.02729639 Ry
     estimated scf accuracy    <          4.0E-09 Ry

     iteration # 39     ecut=    35.00 Ry     beta=0.30
     Davidson diagonalization with overlap
     ethr =  2.98E-12,  avg # of iterations =  2.8

     total cpu time spent up to now is      534.4 secs

     total energy              =    -180.02729639 Ry
     Harris-Foulkes estimate   =    -180.02729639 Ry
     estimated scf accuracy    <       0.00000001 Ry

     iteration # 40     ecut=    35.00 Ry     beta=0.30
     Davidson diagonalization with overlap
     ethr =  2.98E-12,  avg # of iterations =  1.0

     total cpu time spent up to now is      544.7 secs

     total energy              =    -180.02729639 Ry
     Harris-Foulkes estimate   =    -180.02729639 Ry
     estimated scf accuracy    <          9.1E-09 Ry

     iteration # 41     ecut=    35.00 Ry     beta=0.30
     Davidson diagonalization with overlap
     ethr =  2.98E-12,  avg # of iterations =  1.0

     total cpu time spent up to now is      555.5 secs

     total energy              =    -180.02729639 Ry
     Harris-Foulkes estimate   =    -180.02729639 Ry
     estimated scf accuracy    <          8.9E-09 Ry

     iteration # 42     ecut=    35.00 Ry     beta=0.30
     Davidson diagonalization with overlap
     ethr =  2.98E-12,  avg # of iterations =  1.0

     total cpu time spent up to now is      565.7 secs

     total energy              =    -180.02729639 Ry
     Harris-Foulkes estimate   =    -180.02729639 Ry
     estimated scf accuracy    <          8.7E-09 Ry

     iteration # 43     ecut=    35.00 Ry     beta=0.30
     Davidson diagonalization with overlap
     ethr =  2.98E-12,  avg # of iterations =  1.0

     total cpu time spent up to now is      576.1 secs

     total energy              =    -180.02729639 Ry
     Harris-Foulkes estimate   =    -180.02729639 Ry
     estimated scf accuracy    <          8.5E-09 Ry

     iteration # 44     ecut=    35.00 Ry     beta=0.30
     Davidson diagonalization with overlap
     ethr =  2.98E-12,  avg # of iterations =  1.0

     total cpu time spent up to now is      586.6 secs

     total energy              =    -180.02729639 Ry
     Harris-Foulkes estimate   =    -180.02729639 Ry
     estimated scf accuracy    <          7.5E-09 Ry

     iteration # 45     ecut=    35.00 Ry     beta=0.30
     Davidson diagonalization with overlap
     c_bands:  2 eigenvalues not converged
     ethr =  2.98E-12,  avg # of iterations =  4.7

     total cpu time spent up to now is      607.2 secs

     End of self-consistent calculation

          k = 0.0000 0.0000 0.0000 ( 10417 PWs)   bands (ev):

    -3.2610  -0.2336  -0.2336  -0.2336  -0.2336  -0.2336  -0.2336  -0.2336
    -0.2336   0.7588   0.7588   0.7588   0.7588   0.7588   0.7588   4.6668
     4.6668   4.6668   4.6668   4.6668   4.6668   4.6668   4.6668   4.6668
     4.6668   4.6669   4.6669   6.9158   6.9158   6.9158   6.9158   6.9158
     6.9158   6.9158   6.9158   6.9158   6.9158   6.9159   6.9159   8.4300
     8.4300   8.4300   8.4300   8.4300   8.4300   8.4300   8.4300   8.4300
     8.4300

          k =-0.1179 0.1179 0.1179 ( 10357 PWs)   bands (ev):

    -3.1761  -1.1525  -0.4837  -0.4837  -0.4837   0.1803   0.1803   0.1803
     0.1822   0.1822   0.1822   0.8452   1.4983   1.4983   1.4983   3.4621
     3.4621   3.4621   4.7434   4.7434   4.7434   4.7434   4.7434   4.7434
     5.8121   5.8121   5.8121   6.0930   6.0930   6.0930   6.5299   6.5299
     6.5299   6.5299   6.5299   6.5299   6.7012   7.1588   7.1588   7.1588
     7.9661   7.9661   7.9661   8.3426   8.3426   8.3427   8.9686   8.9686
     8.9686

          k =-0.2357 0.2357 0.2357 ( 10345 PWs)   bands (ev):

    -2.9218  -1.9084  -0.5673  -0.5673  -0.5673  -0.2347  -0.2346  -0.2346
     0.7623   0.7623   0.7623   2.0787   2.3945   2.3945   2.3945   2.4057
     2.4057   2.4057   4.6174   4.6174   4.6174   4.9668   4.9668   4.9668
     4.9668   4.9668   4.9668   5.0225   5.9327   5.9327   5.9327   5.9327
     5.9327   5.9327   7.1891   7.1891   7.1891   7.5076   7.5076   7.5076
     7.5626   7.5626   7.5626   8.8013   8.8013   8.8013  10.0210  10.0210
    10.0210

          k = 0.3536-0.3536-0.3536 ( 10332 PWs)   bands (ev):

    -2.4988  -2.4988  -0.4842  -0.4842  -0.4842  -0.4842  -0.4842  -0.4842
     1.5044   1.5044   1.5044   1.5044   1.5044   1.5044   3.3296   3.4400
     3.4400   3.4400   3.4400   3.4400   3.4400   3.6229   5.2222   5.2222
     5.2222   5.2222   5.2222   5.2222   5.5397   5.5397   5.5397   5.5397
     5.5397   5.5397   7.3073   7.3073   7.3073   7.3073   7.3073   7.3073
     9.0459   9.0459   9.0459   9.0459   9.0459   9.0459   9.5531   9.5531
     9.5531

          k = 0.0000 0.0000 0.2357 ( 10337 PWs)   bands (ev):

    -3.1478  -0.7899  -0.7899  -0.7899  -0.7899  -0.4569   0.5417   0.5417
     0.5417   0.5417   0.8691   0.8691   0.8691   0.8691   2.1764   3.4885
     3.4885   3.4885   3.4885   4.7604   4.7604   4.7604   4.7604   5.7212
     5.7212   5.7212   5.7212   6.0246   6.0246   6.0246   6.0246   6.3932
     6.3932   6.3932   6.3933   7.3612   7.3612   7.3612   7.3612   7.6471
     7.6471   7.6471   7.6472   7.9083   7.9083   7.9083   7.9083   9.1705
     9.1705

          k =-0.1179 0.1179 0.3536 ( 10318 PWs)   bands (ev):

    -2.9500  -1.6000  -0.9298  -0.9293  -0.9293  -0.2615   0.4016   0.4016
     0.4032   1.0652   1.0652   1.7176   1.7176   1.7238   2.3781   2.3781
     3.0074   3.6742   3.6743   3.6743   4.2962   4.8039   4.8039   5.1256
     5.1256   5.4552   5.4553   5.6121   5.6362   6.0212   6.0212   6.2620
     6.2905   6.2905   6.9083   6.9083   7.3682   7.3682   7.3829   7.3829
     7.9990   7.9990   8.0123   8.0123   8.1712   8.5408   8.5408   8.9866
     9.4106

          k = 0.4714-0.4714-0.2357 ( 10326 PWs)   bands (ev):

    -2.5833  -2.2455  -1.2366  -0.9016  -0.9016   0.0982   0.0982   0.4303
     0.4309   1.4218   1.4219   1.7508   1.7508   2.7210   2.7210   2.7311
     3.0463   3.0464   3.9769   4.0170   4.0171   4.0664   4.2982   4.2982
     4.3252   4.3252   5.3441   5.3441   5.5635   5.5635   5.6514   6.5574
     6.5574   6.6084   6.6084   6.8699   6.8699   7.8530   8.0903   8.1378
     8.1378   8.3582   8.3582   9.0832   9.1249   9.1435   9.1435   9.3545
     9.3545

          k = 0.3536-0.3536-0.1179 ( 10316 PWs)   bands (ev):

    -2.7242  -2.0488  -1.3762  -0.7068  -0.7068  -0.0398  -0.0398   0.6226
     0.6241   0.6242   1.2848   1.9365   1.9423   2.5939   2.5955   2.5955
     3.2239   3.2239   3.8706   3.8706   3.8858   3.8858   4.5107   4.5107
     4.5681   5.0345   5.1517   5.1517   5.8246   5.8246   5.8451   6.4564
     6.4565   6.4592   6.4592   6.9484   6.9484   7.4038   7.7051   7.7051
     8.3616   8.3616   8.8379   9.0060   9.1833   9.1833   9.3423   9.3423
     9.5739

          k = 0.2357-0.2357 0.0000 ( 10323 PWs)   bands (ev):

    -3.0348  -1.3482  -1.3482  -0.3458  -0.3458  -0.0118  -0.0118  -0.0118
    -0.0118   0.9793   0.9793   1.3127   1.3127   2.2855   2.2855   2.2968
     3.5952   3.5952   3.5952   3.5952   4.8733   4.8733   5.1380   5.1380
     5.1380   5.1380   5.8705   6.1824   6.1824   6.1824   6.1824   6.1952
     6.1952   6.4494   6.4494   6.4494   6.4494   7.0794   7.1249   7.1249
     7.6786   8.3780   8.6307   8.6307   8.7195   8.7195   8.7195   8.7195
     9.3027

          k = 0.0000 0.0000 0.4714 ( 10318 PWs)   bands (ev):

    -2.8089  -1.4603  -1.1247  -1.1247  -1.1247  -1.1246   1.1994   1.1994
     1.1994   1.1994   1.5317   1.5317   1.5317   1.5317   2.5128   2.5128
     2.5128   2.5128   3.7622   4.1107   4.1107   4.1107   4.1107   5.1382
     5.1382   5.1382   5.1382   6.0796   6.0796   6.0796   6.0796   6.4053
     6.4053   6.4053   6.4053   7.2904   7.2904   7.2904   7.2904   7.8376
     7.8376   7.8376   7.8376   7.8852   8.5869   8.5869   8.5869   8.5869
    10.1074

          k = 0.5893-0.5893-0.1179 ( 10356 PWs)   bands (ev):

    -2.4988  -1.8244  -1.8243  -1.1526  -1.1526  -0.4838   0.8433   0.8433
     1.5033   1.5033   1.5033   2.1551   2.1551   2.1597   2.1597   2.8080
     2.8087   2.8087   2.8100   3.4545   3.4545   3.9635   4.2764   4.6110
     4.7823   5.2462   5.2462   5.4197   5.4197   5.8777   5.8777   6.0569
     6.0569   6.6869   6.9975   7.3246   7.6163   7.6163   7.7260   7.7260
     8.3152   8.3152   8.4153   8.4153   9.0456   9.0456   9.0710   9.0710
     9.6625

          k = 0.4714-0.4714-0.0000 ( 10375 PWs)   bands (ev):

    -2.3580  -2.0207  -2.0207  -1.0132  -1.0132   0.3203   0.6512   0.6512
     0.6512   0.6512   1.6386   1.6386   2.9462   2.9462   2.9462   2.9462
     3.2616   3.2616   3.2631   3.2631   3.2631   3.2631   4.1914   4.1914
     4.2808   4.2808   5.2429   5.4686   5.4686   5.8639   5.8639   5.8640
     5.8640   6.6346   7.7518   7.7518   8.0215   8.0215   8.0215   8.0215
     8.2969   8.2969   8.3864   8.3865   9.0149   9.0149   9.2893   9.2893
     9.2893

          k = 0.0000 0.0000-0.7071 ( 10326 PWs)   bands (ev):

    -2.2456  -2.2455  -1.2364  -1.2364  -1.2364  -1.2364   1.7482   1.7482
     1.7482   1.7482   1.7482   1.7483   1.7483   1.7483   2.7290   2.7290
     2.7290   2.7290   2.7290   2.7290   2.7290   2.7290   5.0336   5.6594
     5.6594   5.6594   5.6594   5.6594   5.6594   5.6594   5.6594   5.9750
     5.9750   5.9750   5.9751   6.4203   7.3667   7.3667   7.3667   7.3667
     8.7960   8.7960   8.7960   8.7960   9.7345   9.7345   9.7345   9.7346
     9.7346

          k = 0.7071-0.4714-0.2357 ( 10320 PWs)   bands (ev):

    -2.6960  -1.6841  -1.6841  -1.3484  -0.3449  -0.3449  -0.0127   0.9821
     0.9821   1.3094   1.3094   1.3120   2.2963   2.2963   2.6123   2.6215
     2.6215   3.5858   3.5858   3.8696   3.9051   3.9051   3.9108   4.8311
     4.8311   4.9168   4.9168   5.2346   5.2346   5.5567   6.4072   6.4967
     6.4967   6.8114   6.9454   7.3988   7.3988   7.6819   7.6819   7.7705
     7.7705   7.9893   8.0650   8.2850   8.9858   8.9858   9.0013   9.3170
     9.5497

          k = 0.5893-0.3536-0.1179 ( 10332 PWs)   bands (ev):

    -2.2736  -2.2736  -1.6001  -1.6001  -0.2619  -0.2619   0.4031   0.4031
     1.0637   1.0637   1.7226   1.7226   2.3733   2.3733   3.0252   3.0252
     3.0267   3.0267   3.5411   3.6559   3.6559   3.8420   4.1744   4.3006
     4.3006   4.4917   4.8230   4.8230   4.9928   4.9928   6.6294   6.8127
     6.8803   6.8803   7.2081   7.2081   7.5166   7.5166   7.9902   7.9902
     8.1382   8.1382   8.7735   8.7735   8.7912   9.1892   9.1892   9.6138
     9.6648

          k = 0.0000 0.2357-0.7071 ( 10362 PWs)   bands (ev):

    -2.1331  -2.1331  -1.7963  -1.7962  -0.4561  -0.4561   0.5408   0.5408
     1.8577   1.8577   1.8577   1.8577   2.1855   2.1855   2.1855   2.1855
     3.1551   3.1551   3.4752   3.4752   3.4752   3.4752   4.4964   4.4964
     4.4964   4.4964   4.7257   4.7257   5.1383   5.4521   6.5282   6.7069
     6.8487   7.0283   7.0283   7.0283   7.0283   7.6473   7.9974   8.5527
     8.5527   8.5527   8.5527   8.7778   8.7778   8.9003   8.9003   9.2133
     9.2133

     the Fermi energy is     8.0136 ev

!    total energy              =    -180.02729639 Ry
     Harris-Foulkes estimate   =    -180.02729639 Ry
     estimated scf accuracy    <          5.3E-10 Ry

     The total energy is the sum of the following terms:

     one-electron contribution =      81.68987057 Ry
     hartree contribution      =       0.22623073 Ry
     xc contribution           =    -115.05712060 Ry
     ewald contribution        =    -146.70373918 Ry
     smearing contrib. (-TS)   =      -0.18253791 Ry

     convergence has been achieved in  45 iterations

     Forces acting on atoms (Ry/au):

     atom    1 type  1   force =   0.00000000E+00  0.00000000E+00  0.00000000E+00
     atom    2 type  1   force =   0.00000000E+00  0.83232691E-06  0.83232691E-06
     atom    3 type  1   force =  -0.10587912E-21 -0.83232691E-06 -0.83232691E-06
     atom    4 type  1   force =   0.83232691E-06 -0.15881868E-21  0.83232691E-06
     atom    5 type  1   force =  -0.26855884E-06 -0.26855884E-06  0.26855884E-06
     atom    6 type  1   force =   0.83232691E-06 -0.83232691E-06  0.10587912E-21
     atom    7 type  1   force =  -0.83232691E-06 -0.52939559E-22 -0.83232691E-06
     atom    8 type  1   force =  -0.83232691E-06  0.83232691E-06 -0.52939559E-22
     atom    9 type  1   force =   0.26855884E-06  0.26855884E-06 -0.26855884E-06
     atom   10 type  1   force =   0.83232691E-06  0.83232691E-06  0.15881868E-21
     atom   11 type  1   force =  -0.26855884E-06  0.26855884E-06 -0.26855884E-06
     atom   12 type  1   force =   0.83232691E-06  0.10587912E-21 -0.83232691E-06
     atom   13 type  1   force =   0.26855884E-06 -0.26855884E-06 -0.26855884E-06
     atom   14 type  1   force =   0.26855884E-06  0.26855884E-06  0.26855884E-06
     atom   15 type  1   force =  -0.22452906E-06  0.27369823E-25  0.27369823E-25
     atom   16 type  1   force =   0.52939559E-22  0.83232691E-06 -0.83232691E-06
     atom   17 type  1   force =   0.00000000E+00 -0.22452906E-06  0.00000000E+00
     atom   18 type  1   force =   0.00000000E+00  0.00000000E+00  0.22452906E-06
     atom   19 type  1   force =  -0.83232691E-06 -0.83232691E-06 -0.10587912E-21
     atom   20 type  1   force =  -0.83232691E-06  0.00000000E+00  0.83232691E-06
     atom   21 type  1   force =   0.26855884E-06 -0.26855884E-06  0.26855884E-06
     atom   22 type  1   force =  -0.52939559E-22 -0.83232691E-06  0.83232691E-06
     atom   23 type  1   force =   0.00000000E+00  0.00000000E+00 -0.22452906E-06
     atom   24 type  1   force =   0.00000000E+00  0.22452906E-06  0.00000000E+00
     atom   25 type  1   force =  -0.26855884E-06  0.26855884E-06  0.26855884E-06
     atom   26 type  1   force =   0.22452906E-06 -0.32855688E-25 -0.32855688E-25
     atom   27 type  1   force =  -0.26855884E-06 -0.26855884E-06 -0.26855884E-06

     Total force =     0.000004     Total SCF correction =     0.000021
     SCF correction compared to forces is large: reduce conv_thr to get better values


     entering subroutine stress ...

          total   stress  (Ry/bohr**3)                   (kbar)     P=    0.17
   0.0000011727  -0.0000000000  -0.0000000000          0.17     -0.00     -0.00
  -0.0000000000   0.0000011727  -0.0000000000         -0.00      0.17     -0.00
  -0.0000000000  -0.0000000000   0.0000011727         -0.00     -0.00      0.17


     Writing output data file Al.scf.in.super.333.save

     init_run     :      8.46s CPU      8.11s WALL (       1 calls)
     electrons    :    599.08s CPU    598.90s WALL (       1 calls)
     forces       :      2.64s CPU      2.44s WALL (       1 calls)
     stress       :      5.74s CPU      5.84s WALL (       1 calls)

     Called by init_run:
     wfcinit      :      7.60s CPU      7.05s WALL (       1 calls)
     potinit      :      0.14s CPU      0.15s WALL (       1 calls)

     Called by electrons:
     c_bands      :    506.57s CPU    506.18s WALL (      46 calls)
     sum_band     :     77.77s CPU     77.24s WALL (      46 calls)
     v_of_rho     :      3.10s CPU      3.11s WALL (      46 calls)
     newd         :      8.79s CPU      8.78s WALL (      46 calls)
     mix_rho      :      2.67s CPU      3.35s WALL (      46 calls)

     Called by c_bands:
     init_us_2    :      5.42s CPU      5.58s WALL (    1520 calls)
     cegterg      :    483.24s CPU    482.25s WALL (     736 calls)

     Called by *egterg:
     h_psi        :    253.24s CPU    248.33s WALL (    2260 calls)
     s_psi        :     36.87s CPU     29.85s WALL (    2260 calls)
     g_psi        :      0.41s CPU      0.43s WALL (    1508 calls)
     cdiaghg      :     45.32s CPU     48.93s WALL (    2228 calls)

     Called by h_psi:
     add_vuspsi   :     37.47s CPU     32.48s WALL (    2260 calls)

     General routines
     calbec       :    102.22s CPU     99.50s WALL (    3028 calls)
     fft          :      3.28s CPU      3.47s WALL (     761 calls)
     ffts         :      1.47s CPU      2.06s WALL (     850 calls)
     fftw         :    160.12s CPU    161.58s WALL (  199588 calls)
     interpolate  :      0.57s CPU      0.56s WALL (      92 calls)

     Parallel routines
     fft_scatter  :     89.13s CPU     90.66s WALL (  201199 calls)

     PWSCF        : 10m17.31s CPU    10m17.05s WALL


   This run was terminated on:  13:26:55   5Sep2017            

=------------------------------------------------------------------------------=
   JOB DONE.
=------------------------------------------------------------------------------=
