
     Program PWSCF v.5.1 starts on  9Oct2017 at 11: 0:42 

     This program is part of the open-source Quantum ESPRESSO suite
     for quantum simulation of materials; please cite
         "P. Giannozzi et al., J. Phys.:Condens. Matter 21 395502 (2009);
          URL http://www.quantum-espresso.org", 
     in publications or presentations arising from this work. More details at
     http://www.quantum-espresso.org/quote

     Parallel version (MPI), running on     8 processors
     R & G space division:  proc/nbgrp/npool/nimage =       8
     Reading input from /tmp/Al.scf.in.super.333.06.5300/Al.scf.in.super.333.06.t
Warning: card &IONS ignored
Warning: card   ION_DYNAMICS='BFGS', ignored
Warning: card / ignored
Warning: card &CELL ignored
Warning: card  CELL_DYNAMICS = 'BFGS' ignored
Warning: card / ignored
     Message from routine read_cards :
     DEPRECATED: no units specified in CELL_PARAMETERS card

     Current dimensions of program PWSCF are:
     Max number of different atomic species (ntypx) = 10
     Max number of k-points (npk) =  40000
     Max angular momentum in pseudopotentials (lmaxx) =  3
 kfg - two_fermi_energies  F

     Subspace diagonalization in iterative solution of the eigenvalue problem:
     a serial algorithm will be used


     Parallelization info
     --------------------
     sticks:   dense  smooth     PW     G-vecs:    dense   smooth      PW
     Min         446     314     87                17656    10334    1524
     Max         447     315     89                17661    10352    1525
     Sum        3571    2515    703               141263    82723   12195



     bravais-lattice index     =            0
     lattice parameter (alat)  =    16.110077237  a.u.
     unit-cell volume          =    2956.4999 (a.u.)^3
     number of atoms/cell      =           27
     number of atomic types    =            1
     number of electrons       =        81.00
     number of Kohn-Sham states=           49
     kinetic-energy cutoff     =      35.0000  Ry
     charge density cutoff     =     200.0000  Ry
     convergence threshold     =      1.0E-09
     mixing beta               =       0.3000
     number of iterations used =            8  local-TF  mixing
     Exchange-correlation      = SLA  PW   PSX  PSC ( 1  4 10  8 0)
     A smooth kinetic-energy cutoff is imposed at      34.5000 Ry
     height of the smooth step-function =             800.0000 Ry
     width of the smooth step-function  =               1.0000 Ry


     celldm(1)=  16.110077  celldm(2)=   0.000000  celldm(3)=   0.000000
     celldm(4)=   0.000000  celldm(5)=   0.000000  celldm(6)=   0.000000

     crystal axes: (cart. coord. in units of alat)
               a(1) = (   0.707106781187   0.707106781187   0.000000000000 )  
               a(2) = (   0.707106781187  -0.000000000000   0.707106781187 )  
               a(3) = (   0.000000000000   0.707106781187   0.707106781187 )  

     reciprocal axes: (cart. coord. in units 2 pi/alat)
               b(1) = (  0.707107  0.707107 -0.707107 )  
               b(2) = (  0.707107 -0.707107  0.707107 )  
               b(3) = ( -0.707107  0.707107  0.707107 )  


     PseudoPot. # 1 for Al read from file:
     /users/kfg/psuedo/gbrv_1.5/al.pbesol.UPF
     MD5 check sum: 6741bacbf7acc11acbeee135211c012e
     Pseudo is Ultrasoft + core correction, Zval =  3.0
     Generated by new atomic code, or converted to UPF format
     Using radial grid of  893 points,  3 beta functions with: 
                l(1) =   0
                l(2) =   1
                l(3) =   2
     Q(r) pseudized with  8 coefficients,  rinner =    0.900   0.900   0.900
                                                       0.900   0.900

     atomic species   valence    mass     pseudopotential
        Al             3.00    26.98154     Al( 1.00)

     No symmetry found



   Cartesian axes

     site n.     atom                  positions (alat units)
         1           Al  tau(   1) = (   -0.00069702472    0.00049326106    0.00120544020  )
         2           Al  tau(   2) = (   -0.00108830233    0.23721539704    0.23323706373  )
         3           Al  tau(   3) = (    0.00180072291    0.46960732553    0.47276814976  )
         4           Al  tau(   4) = (    0.23405498511    0.00230911239    0.23319275140  )
         5           Al  tau(   5) = (    0.23697014812    0.23415518400    0.47151019645  )
         6           Al  tau(   6) = (    0.23749990924    0.46881619938    0.70627950474  )
         7           Al  tau(   7) = (    0.47115775126    0.00035180344    0.47043482820  )
         8           Al  tau(   8) = (    0.47414089353    0.23698128705    0.70464947209  )
         9           Al  tau(   9) = (    0.47392675105    0.47199258119    0.94203318857  )
        10           Al  tau(  10) = (    0.23666386995    0.23702652143   -0.00082167621  )
        11           Al  tau(  11) = (    0.23596647704    0.47162675713    0.23663217851  )
        12           Al  tau(  12) = (    0.23859637679    0.70934769886    0.47043514037  )
        13           Al  tau(  13) = (    0.47389732887    0.23536589822    0.23800331760  )
        14           Al  tau(  14) = (    0.47382681607    0.47337505009    0.46848090737  )
        15           Al  tau(  15) = (    0.47142132210    0.70747563179    0.70806600605  )
        16           Al  tau(  16) = (    0.70928718903    0.23805639065    0.47118111418  )
        17           Al  tau(  17) = (    0.70816148556    0.47432108802    0.70610677932  )
        18           Al  tau(  18) = (    0.70552042273    0.70492051356    0.94009708960  )
        19           Al  tau(  19) = (    0.47097281979    0.47223125424   -0.00065626209  )
        20           Al  tau(  20) = (    0.46970755884    0.70671069519    0.23874515303  )
        21           Al  tau(  21) = (    0.47305973207    0.94449187492    0.47244884296  )
        22           Al  tau(  22) = (    0.70926573264    0.47300022823    0.23338047685  )
        23           Al  tau(  23) = (    0.70999003496    0.70498521476    0.47135704689  )
        24           Al  tau(  24) = (    0.70603406358    0.94023317217    0.70845636474  )
        25           Al  tau(  25) = (    0.94258545256    0.47035395181    0.47309001860  )
        26           Al  tau(  26) = (    0.94223445083    0.70914578395    0.70979987533  )
        27           Al  tau(  27) = (    0.94097235172    0.94529856152    0.94299370733  )

     number of k points=   112  gaussian smearing, width (Ry)=  0.0500

     Number of k-points >= 100: set verbosity='high' to print them.

     Dense  grid:   141263 G-vectors     FFT dimensions: (  75,  75,  75)

     Smooth grid:    82723 G-vectors     FFT dimensions: (  64,  64,  64)

     Largest allocated arrays     est. size (Mb)     dimensions
        Kohn-Sham Wavefunctions         0.99 Mb     (    1323,   49)
        NL pseudopotentials             4.91 Mb     (    1323,  243)
        Each V/rho on FFT grid          0.86 Mb     (   56250)
        Each G-vector array             0.13 Mb     (   17661)
        G-vector shells                 0.01 Mb     (     874)
     Largest temporary arrays     est. size (Mb)     dimensions
        Auxiliary wavefunctions         3.96 Mb     (    1323,  196)
        Each subspace H/S matrix        0.59 Mb     (     196,  196)
        Each <psi_i|beta_j> matrix      0.18 Mb     (     243,   49)
        Arrays for rho mixing           6.87 Mb     (   56250,    8)

     Initial potential from superposition of free atoms

     starting charge   80.93646, renormalised to   81.00000
     Starting wfc are  108 randomized atomic wfcs

     total cpu time spent up to now is      107.1 secs

     Self-consistent Calculation

     iteration #  1     ecut=    35.00 Ry     beta=0.30
     Davidson diagonalization with overlap
     ethr =  1.00E-02,  avg # of iterations =  3.0

     Threshold (ethr) on eigenvalues was too large:
     Diagonalizing with lowered threshold

     Davidson diagonalization with overlap
     ethr =  1.98E-04,  avg # of iterations =  3.5

     total cpu time spent up to now is      488.6 secs

     total energy              =    -180.06092492 Ry
     Harris-Foulkes estimate   =    -180.08417201 Ry
     estimated scf accuracy    <       0.16132049 Ry

     iteration #  2     ecut=    35.00 Ry     beta=0.30
     Davidson diagonalization with overlap
     ethr =  1.99E-04,  avg # of iterations =  1.2

     total cpu time spent up to now is      615.0 secs

     total energy              =    -180.02016316 Ry
     Harris-Foulkes estimate   =    -180.06191965 Ry
     estimated scf accuracy    <       0.09840263 Ry

     iteration #  3     ecut=    35.00 Ry     beta=0.30
     Davidson diagonalization with overlap
     ethr =  1.21E-04,  avg # of iterations =  1.2

     total cpu time spent up to now is      740.2 secs

     total energy              =    -180.02396140 Ry
     Harris-Foulkes estimate   =    -180.02393998 Ry
     estimated scf accuracy    <       0.00006858 Ry

     iteration #  4     ecut=    35.00 Ry     beta=0.30
     Davidson diagonalization with overlap
     c_bands:  3 eigenvalues not converged
     c_bands:  1 eigenvalues not converged
     c_bands:  3 eigenvalues not converged
     c_bands:  3 eigenvalues not converged
     c_bands:  3 eigenvalues not converged
     ethr =  8.47E-08,  avg # of iterations =  9.9

     total cpu time spent up to now is     1123.6 secs

     total energy              =    -180.02461092 Ry
     Harris-Foulkes estimate   =    -180.02460828 Ry
     estimated scf accuracy    <       0.00020107 Ry

     iteration #  5     ecut=    35.00 Ry     beta=0.30
     Davidson diagonalization with overlap
     c_bands:  2 eigenvalues not converged
     c_bands:  1 eigenvalues not converged
     c_bands:  1 eigenvalues not converged
     c_bands:  2 eigenvalues not converged
     ethr =  8.47E-08,  avg # of iterations =  1.9

     total cpu time spent up to now is     1263.2 secs

     total energy              =    -180.02480103 Ry
     Harris-Foulkes estimate   =    -180.02461127 Ry
     estimated scf accuracy    <       0.00021042 Ry

     iteration #  6     ecut=    35.00 Ry     beta=0.30
     Davidson diagonalization with overlap
     ethr =  8.47E-08,  avg # of iterations =  5.5

     total cpu time spent up to now is     1543.8 secs

     total energy              =    -180.02440211 Ry
     Harris-Foulkes estimate   =    -180.02491886 Ry
     estimated scf accuracy    <       0.00186620 Ry

     iteration #  7     ecut=    35.00 Ry     beta=0.30
     Davidson diagonalization with overlap
     c_bands:  2 eigenvalues not converged
     ethr =  8.47E-08,  avg # of iterations =  5.2

     total cpu time spent up to now is     1837.4 secs

     total energy              =    -180.02457998 Ry
     Harris-Foulkes estimate   =    -180.02459120 Ry
     estimated scf accuracy    <       0.00003667 Ry

     iteration #  8     ecut=    35.00 Ry     beta=0.30
     Davidson diagonalization with overlap
     ethr =  4.53E-08,  avg # of iterations =  2.9

     total cpu time spent up to now is     2012.6 secs

     total energy              =    -180.02458449 Ry
     Harris-Foulkes estimate   =    -180.02458465 Ry
     estimated scf accuracy    <       0.00000036 Ry

     iteration #  9     ecut=    35.00 Ry     beta=0.30
     Davidson diagonalization with overlap
     c_bands:  3 eigenvalues not converged
     ethr =  4.42E-10,  avg # of iterations =  5.3

     total cpu time spent up to now is     2302.4 secs

     total energy              =    -180.02458431 Ry
     Harris-Foulkes estimate   =    -180.02458557 Ry
     estimated scf accuracy    <       0.00000413 Ry

     iteration # 10     ecut=    35.00 Ry     beta=0.30
     Davidson diagonalization with overlap
     ethr =  4.42E-10,  avg # of iterations =  4.6

     total cpu time spent up to now is     2551.5 secs

     total energy              =    -180.02458485 Ry
     Harris-Foulkes estimate   =    -180.02458485 Ry
     estimated scf accuracy    <       0.00000001 Ry

     iteration # 11     ecut=    35.00 Ry     beta=0.30
     Davidson diagonalization with overlap
     ethr =  1.48E-11,  avg # of iterations =  3.1

     total cpu time spent up to now is     2726.3 secs

     total energy              =    -180.02458485 Ry
     Harris-Foulkes estimate   =    -180.02458485 Ry
     estimated scf accuracy    <       0.00000001 Ry

     iteration # 12     ecut=    35.00 Ry     beta=0.30
     Davidson diagonalization with overlap
     ethr =  1.48E-11,  avg # of iterations =  1.1

     total cpu time spent up to now is     2853.3 secs

     total energy              =    -180.02458485 Ry
     Harris-Foulkes estimate   =    -180.02458485 Ry
     estimated scf accuracy    <          5.2E-09 Ry

     iteration # 13     ecut=    35.00 Ry     beta=0.30
     Davidson diagonalization with overlap
     ethr =  6.47E-12,  avg # of iterations =  3.5

     total cpu time spent up to now is     3077.5 secs

     End of self-consistent calculation

     Number of k-points >= 100: set verbosity='high' to print the bands.

     the Fermi energy is     8.0129 ev

!    total energy              =    -180.02458485 Ry
     Harris-Foulkes estimate   =    -180.02458485 Ry
     estimated scf accuracy    <          9.4E-11 Ry

     The total energy is the sum of the following terms:

     one-electron contribution =      81.66887041 Ry
     hartree contribution      =       0.23622973 Ry
     xc contribution           =    -115.06025936 Ry
     ewald contribution        =    -146.68681297 Ry
     smearing contrib. (-TS)   =      -0.18261265 Ry

     convergence has been achieved in  13 iterations

     Forces acting on atoms (Ry/au):

     atom    1 type  1   force =   0.10150406E-02 -0.52202524E-03 -0.46720184E-02
     atom    2 type  1   force =   0.15634300E-02 -0.17273583E-02  0.35766652E-02
     atom    3 type  1   force =   0.32899873E-03  0.35943687E-02 -0.67953788E-03
     atom    4 type  1   force =   0.35608773E-02 -0.30061508E-02  0.26197558E-02
     atom    5 type  1   force =  -0.14007722E-02  0.18277291E-02 -0.79221162E-03
     atom    6 type  1   force =  -0.14703711E-03  0.41432252E-02 -0.11456891E-02
     atom    7 type  1   force =   0.12599234E-02 -0.19383395E-02  0.13084008E-02
     atom    8 type  1   force =  -0.29160421E-02 -0.13449532E-02  0.27294798E-02
     atom    9 type  1   force =  -0.54459897E-02 -0.79704706E-03  0.17166537E-02
     atom   10 type  1   force =  -0.11578054E-03 -0.85260765E-03  0.26075411E-02
     atom   11 type  1   force =  -0.10095664E-03 -0.16560029E-02 -0.91375398E-03
     atom   12 type  1   force =  -0.61621329E-02 -0.24294104E-02  0.28190210E-02
     atom   13 type  1   force =  -0.28445625E-02  0.21494138E-02 -0.32634240E-02
     atom   14 type  1   force =  -0.17180502E-02 -0.25626525E-02  0.42807794E-02
     atom   15 type  1   force =  -0.19244197E-02 -0.41551326E-03 -0.29686300E-02
     atom   16 type  1   force =  -0.17152904E-02 -0.45935116E-02 -0.38826030E-03
     atom   17 type  1   force =  -0.32108556E-03 -0.39382906E-02  0.29646121E-03
     atom   18 type  1   force =   0.36824323E-02  0.29937207E-02  0.80284122E-02
     atom   19 type  1   force =   0.11319691E-02  0.41752739E-03  0.25937553E-02
     atom   20 type  1   force =   0.33572295E-02  0.42083203E-02 -0.56183441E-02
     atom   21 type  1   force =   0.42665325E-03 -0.20842527E-02 -0.23112886E-02
     atom   22 type  1   force =  -0.24046642E-02 -0.11549188E-02  0.74863661E-03
     atom   23 type  1   force =  -0.25989516E-02  0.52076532E-02 -0.13918178E-02
     atom   24 type  1   force =   0.10613595E-02  0.37628555E-02 -0.24746388E-02
     atom   25 type  1   force =   0.37406850E-02  0.44494210E-02 -0.39396278E-02
     atom   26 type  1   force =   0.39988241E-02 -0.12558666E-02 -0.24375557E-02
     atom   27 type  1   force =   0.46883124E-02 -0.24753337E-02 -0.32876387E-03

     Total force =     0.025771     Total SCF correction =     0.000011


     entering subroutine stress ...

          total   stress  (Ry/bohr**3)                   (kbar)     P=    0.63
   0.0000040061   0.0000000286  -0.0000003237          0.59      0.00     -0.05
   0.0000000286   0.0000043672  -0.0000006519          0.00      0.64     -0.10
  -0.0000003237  -0.0000006519   0.0000045024         -0.05     -0.10      0.66


     Writing output data file Al.scf.in.super.333.066.save

     init_run     :    102.01s CPU    107.06s WALL (       1 calls)
     electrons    :   2712.25s CPU   2970.43s WALL (       1 calls)
     forces       :     25.38s CPU     24.26s WALL (       1 calls)
     stress       :     70.66s CPU     71.81s WALL (       1 calls)

     Called by init_run:
     wfcinit      :    101.25s CPU    106.24s WALL (       1 calls)
     potinit      :      0.14s CPU      0.16s WALL (       1 calls)

     Called by electrons:
     c_bands      :   2414.83s CPU   2644.25s WALL (      14 calls)
     sum_band     :    290.20s CPU    318.42s WALL (      14 calls)
     v_of_rho     :      1.61s CPU      1.75s WALL (      14 calls)
     newd         :      4.63s CPU      4.84s WALL (      14 calls)
     mix_rho      :      1.17s CPU      1.34s WALL (      14 calls)

     Called by c_bands:
     init_us_2    :     16.70s CPU     17.99s WALL (    3472 calls)
     cegterg      :   2352.28s CPU   2577.91s WALL (    1568 calls)

     Called by *egterg:
     h_psi        :   1442.14s CPU   1586.91s WALL (    7477 calls)
     s_psi        :    173.86s CPU    148.05s WALL (    7477 calls)
     g_psi        :      2.52s CPU      2.55s WALL (    5797 calls)
     cdiaghg      :    188.54s CPU    242.36s WALL (    7253 calls)

     Called by h_psi:
     add_vuspsi   :    177.68s CPU    161.93s WALL (    7477 calls)

     General routines
     calbec       :    390.18s CPU    390.63s WALL (    9269 calls)
     fft          :      2.10s CPU      2.28s WALL (     249 calls)
     ffts         :      0.74s CPU      0.82s WALL (     238 calls)
     fftw         :   1063.93s CPU   1233.49s WALL (  547344 calls)
     interpolate  :      0.27s CPU      0.32s WALL (      28 calls)

     Parallel routines
     fft_scatter  :    623.57s CPU    722.49s WALL (  547831 calls)

     PWSCF        : 48m37.66s CPU    53m 3.59s WALL


   This run was terminated on:  11:53:45   9Oct2017            

=------------------------------------------------------------------------------=
   JOB DONE.
=------------------------------------------------------------------------------=
