
     Program PWSCF v.5.1 starts on  9Oct2017 at 10:58:24 

     This program is part of the open-source Quantum ESPRESSO suite
     for quantum simulation of materials; please cite
         "P. Giannozzi et al., J. Phys.:Condens. Matter 21 395502 (2009);
          URL http://www.quantum-espresso.org", 
     in publications or presentations arising from this work. More details at
     http://www.quantum-espresso.org/quote

     Parallel version (MPI), running on     8 processors
     R & G space division:  proc/nbgrp/npool/nimage =       8
     Reading input from /tmp/Al.scf.in.super.333.04.22312/Al.scf.in.super.333.04.t
Warning: card &IONS ignored
Warning: card   ION_DYNAMICS='BFGS', ignored
Warning: card / ignored
Warning: card &CELL ignored
Warning: card  CELL_DYNAMICS = 'BFGS' ignored
Warning: card / ignored
     Message from routine read_cards :
     DEPRECATED: no units specified in CELL_PARAMETERS card

     Current dimensions of program PWSCF are:
     Max number of different atomic species (ntypx) = 10
     Max number of k-points (npk) =  40000
     Max angular momentum in pseudopotentials (lmaxx) =  3
 kfg - two_fermi_energies  F

     Subspace diagonalization in iterative solution of the eigenvalue problem:
     a serial algorithm will be used


     Parallelization info
     --------------------
     sticks:   dense  smooth     PW     G-vecs:    dense   smooth      PW
     Min         446     314     87                17656    10334    1524
     Max         447     315     89                17661    10352    1525
     Sum        3571    2515    703               141263    82723   12195



     bravais-lattice index     =            0
     lattice parameter (alat)  =    16.110077237  a.u.
     unit-cell volume          =    2956.4999 (a.u.)^3
     number of atoms/cell      =           27
     number of atomic types    =            1
     number of electrons       =        81.00
     number of Kohn-Sham states=           49
     kinetic-energy cutoff     =      35.0000  Ry
     charge density cutoff     =     200.0000  Ry
     convergence threshold     =      1.0E-09
     mixing beta               =       0.3000
     number of iterations used =            8  local-TF  mixing
     Exchange-correlation      = SLA  PW   PSX  PSC ( 1  4 10  8 0)
     A smooth kinetic-energy cutoff is imposed at      34.5000 Ry
     height of the smooth step-function =             800.0000 Ry
     width of the smooth step-function  =               1.0000 Ry


     celldm(1)=  16.110077  celldm(2)=   0.000000  celldm(3)=   0.000000
     celldm(4)=   0.000000  celldm(5)=   0.000000  celldm(6)=   0.000000

     crystal axes: (cart. coord. in units of alat)
               a(1) = (   0.707106781187   0.707106781187  -0.000000000000 )  
               a(2) = (   0.707106781187   0.000000000000   0.707106781187 )  
               a(3) = (  -0.000000000000   0.707106781187   0.707106781187 )  

     reciprocal axes: (cart. coord. in units 2 pi/alat)
               b(1) = (  0.707107  0.707107 -0.707107 )  
               b(2) = (  0.707107 -0.707107  0.707107 )  
               b(3) = ( -0.707107  0.707107  0.707107 )  


     PseudoPot. # 1 for Al read from file:
     /users/kfg/psuedo/gbrv_1.5/al.pbesol.UPF
     MD5 check sum: 6741bacbf7acc11acbeee135211c012e
     Pseudo is Ultrasoft + core correction, Zval =  3.0
     Generated by new atomic code, or converted to UPF format
     Using radial grid of  893 points,  3 beta functions with: 
                l(1) =   0
                l(2) =   1
                l(3) =   2
     Q(r) pseudized with  8 coefficients,  rinner =    0.900   0.900   0.900
                                                       0.900   0.900

     atomic species   valence    mass     pseudopotential
        Al             3.00    26.98154     Al( 1.00)

     No symmetry found



   Cartesian axes

     site n.     atom                  positions (alat units)
         1           Al  tau(   1) = (   -0.00042110633   -0.00256668895   -0.00121254436  )
         2           Al  tau(   2) = (   -0.00144161561    0.23662212293    0.23853511591  )
         3           Al  tau(   3) = (   -0.00156977665    0.47170842131    0.47405050464  )
         4           Al  tau(   4) = (    0.23545824936   -0.00031606167    0.23749390058  )
         5           Al  tau(   5) = (    0.23260140129    0.23512009447    0.47229122582  )
         6           Al  tau(   6) = (    0.23856470302    0.46888202896    0.70699703724  )
         7           Al  tau(   7) = (    0.46841663580    0.00279067835    0.47073512980  )
         8           Al  tau(   8) = (    0.46981213231    0.23757309295    0.70809678073  )
         9           Al  tau(   9) = (    0.47394176362    0.47081501530    0.94315407861  )
        10           Al  tau(  10) = (    0.23385609420    0.23656708075   -0.00277785235  )
        11           Al  tau(  11) = (    0.23466940679    0.47304091712    0.23612426892  )
        12           Al  tau(  12) = (    0.23527083035    0.70687765529    0.47328287498  )
        13           Al  tau(  13) = (    0.47276184711    0.23839591437    0.23429924683  )
        14           Al  tau(  14) = (    0.46930280391    0.47134383964    0.47356365604  )
        15           Al  tau(  15) = (    0.46916565439    0.70607228840    0.70700945005  )
        16           Al  tau(  16) = (    0.70683801667    0.23822401674    0.47180675620  )
        17           Al  tau(  17) = (    0.70599929348    0.47193772319    0.70573198690  )
        18           Al  tau(  18) = (    0.70522441162    0.70866142552    0.94189993318  )
        19           Al  tau(  19) = (    0.47447722450    0.47263883258    0.00308271752  )
        20           Al  tau(  20) = (    0.47332480357    0.70696577011    0.23541408642  )
        21           Al  tau(  21) = (    0.47227404950    0.94083513654    0.47330290663  )
        22           Al  tau(  22) = (    0.70469271824    0.47344288216    0.23356905186  )
        23           Al  tau(  23) = (    0.70495356122    0.70717631893    0.47053735264  )
        24           Al  tau(  24) = (    0.70520713231    0.94479686292    0.70754806239  )
        25           Al  tau(  25) = (    0.93985592188    0.47173093969    0.46832165400  )
        26           Al  tau(  26) = (    0.94328945208    0.70400790806    0.70902037080  )
        27           Al  tau(  27) = (    0.94055864992    0.93991323306    0.94329240109  )

     number of k points=   112  gaussian smearing, width (Ry)=  0.0500

     Number of k-points >= 100: set verbosity='high' to print them.

     Dense  grid:   141263 G-vectors     FFT dimensions: (  75,  75,  75)

     Smooth grid:    82723 G-vectors     FFT dimensions: (  64,  64,  64)

     Largest allocated arrays     est. size (Mb)     dimensions
        Kohn-Sham Wavefunctions         0.99 Mb     (    1323,   49)
        NL pseudopotentials             4.91 Mb     (    1323,  243)
        Each V/rho on FFT grid          0.86 Mb     (   56250)
        Each G-vector array             0.13 Mb     (   17661)
        G-vector shells                 0.01 Mb     (     874)
     Largest temporary arrays     est. size (Mb)     dimensions
        Auxiliary wavefunctions         3.96 Mb     (    1323,  196)
        Each subspace H/S matrix        0.59 Mb     (     196,  196)
        Each <psi_i|beta_j> matrix      0.18 Mb     (     243,   49)
        Arrays for rho mixing           6.87 Mb     (   56250,    8)

     Initial potential from superposition of free atoms

     starting charge   80.93646, renormalised to   81.00000
     Starting wfc are  108 randomized atomic wfcs

     total cpu time spent up to now is      107.9 secs

     per-process dynamical memory:   137.0 Mb

     Self-consistent Calculation

     iteration #  1     ecut=    35.00 Ry     beta=0.30
     Davidson diagonalization with overlap
     ethr =  1.00E-02,  avg # of iterations =  3.0

     Threshold (ethr) on eigenvalues was too large:
     Diagonalizing with lowered threshold

     Davidson diagonalization with overlap
     ethr =  1.99E-04,  avg # of iterations =  3.5

     total cpu time spent up to now is      519.3 secs

     total energy              =    -180.06034408 Ry
     Harris-Foulkes estimate   =    -180.08371418 Ry
     estimated scf accuracy    <       0.16220280 Ry

     iteration #  2     ecut=    35.00 Ry     beta=0.30
     Davidson diagonalization with overlap
     ethr =  2.00E-04,  avg # of iterations =  1.1

     total cpu time spent up to now is      660.0 secs

     total energy              =    -180.01926837 Ry
     Harris-Foulkes estimate   =    -180.06134125 Ry
     estimated scf accuracy    <       0.09899592 Ry

     iteration #  3     ecut=    35.00 Ry     beta=0.30
     Davidson diagonalization with overlap
     ethr =  1.22E-04,  avg # of iterations =  1.1

     total cpu time spent up to now is      803.7 secs

     total energy              =    -180.02320167 Ry
     Harris-Foulkes estimate   =    -180.02317869 Ry
     estimated scf accuracy    <       0.00007265 Ry

     iteration #  4     ecut=    35.00 Ry     beta=0.30
     Davidson diagonalization with overlap
     c_bands:  3 eigenvalues not converged
     c_bands:  3 eigenvalues not converged
     c_bands:  3 eigenvalues not converged
     c_bands:  3 eigenvalues not converged
     c_bands:  1 eigenvalues not converged
     ethr =  8.97E-08,  avg # of iterations = 10.2

     total cpu time spent up to now is     1209.8 secs

     total energy              =    -180.02389609 Ry
     Harris-Foulkes estimate   =    -180.02389185 Ry
     estimated scf accuracy    <       0.00025775 Ry

     iteration #  5     ecut=    35.00 Ry     beta=0.30
     Davidson diagonalization with overlap
     c_bands:  1 eigenvalues not converged
     c_bands:  1 eigenvalues not converged
     c_bands:  1 eigenvalues not converged
     ethr =  8.97E-08,  avg # of iterations =  2.0

     total cpu time spent up to now is     1362.0 secs

     total energy              =    -180.02413931 Ry
     Harris-Foulkes estimate   =    -180.02389633 Ry
     estimated scf accuracy    <       0.00027185 Ry

     iteration #  6     ecut=    35.00 Ry     beta=0.30
     Davidson diagonalization with overlap
     ethr =  8.97E-08,  avg # of iterations =  5.2

     total cpu time spent up to now is     1665.5 secs

     total energy              =    -180.02390061 Ry
     Harris-Foulkes estimate   =    -180.02427606 Ry
     estimated scf accuracy    <       0.00218525 Ry

     iteration #  7     ecut=    35.00 Ry     beta=0.30
     Davidson diagonalization with overlap
     ethr =  8.97E-08,  avg # of iterations =  4.3

     total cpu time spent up to now is     1928.8 secs

     total energy              =    -180.02373319 Ry
     Harris-Foulkes estimate   =    -180.02397103 Ry
     estimated scf accuracy    <       0.00060892 Ry

     iteration #  8     ecut=    35.00 Ry     beta=0.30
     Davidson diagonalization with overlap
     ethr =  8.97E-08,  avg # of iterations =  4.7

     total cpu time spent up to now is     2223.8 secs

     total energy              =    -180.02385179 Ry
     Harris-Foulkes estimate   =    -180.02385917 Ry
     estimated scf accuracy    <       0.00002420 Ry

     iteration #  9     ecut=    35.00 Ry     beta=0.30
     Davidson diagonalization with overlap
     ethr =  2.99E-08,  avg # of iterations =  2.4

     total cpu time spent up to now is     2398.2 secs

     total energy              =    -180.02385457 Ry
     Harris-Foulkes estimate   =    -180.02385469 Ry
     estimated scf accuracy    <       0.00000053 Ry

     iteration # 10     ecut=    35.00 Ry     beta=0.30
     Davidson diagonalization with overlap
     ethr =  6.56E-10,  avg # of iterations =  4.8

     total cpu time spent up to now is     2672.1 secs

     total energy              =    -180.02385478 Ry
     Harris-Foulkes estimate   =    -180.02385478 Ry
     estimated scf accuracy    <       0.00000001 Ry

     iteration # 11     ecut=    35.00 Ry     beta=0.30
     Davidson diagonalization with overlap
     ethr =  1.76E-11,  avg # of iterations =  2.3

     total cpu time spent up to now is     2838.1 secs

     total energy              =    -180.02385479 Ry
     Harris-Foulkes estimate   =    -180.02385478 Ry
     estimated scf accuracy    <          6.4E-09 Ry

     iteration # 12     ecut=    35.00 Ry     beta=0.30
     Davidson diagonalization with overlap
     c_bands:  2 eigenvalues not converged
     ethr =  7.96E-12,  avg # of iterations =  4.6

     total cpu time spent up to now is     3116.0 secs

     total energy              =    -180.02385477 Ry
     Harris-Foulkes estimate   =    -180.02385480 Ry
     estimated scf accuracy    <       0.00000010 Ry

     iteration # 13     ecut=    35.00 Ry     beta=0.30
     Davidson diagonalization with overlap
     ethr =  7.96E-12,  avg # of iterations =  4.6

     total cpu time spent up to now is     3401.4 secs

     End of self-consistent calculation

     Number of k-points >= 100: set verbosity='high' to print the bands.

     the Fermi energy is     8.0127 ev

!    total energy              =    -180.02385478 Ry
     Harris-Foulkes estimate   =    -180.02385478 Ry
     estimated scf accuracy    <          8.4E-10 Ry

     The total energy is the sum of the following terms:

     one-electron contribution =      81.66031394 Ry
     hartree contribution      =       0.24026840 Ry
     xc contribution           =    -115.06124447 Ry
     ewald contribution        =    -146.68055543 Ry
     smearing contrib. (-TS)   =      -0.18263722 Ry

     convergence has been achieved in  13 iterations

     Forces acting on atoms (Ry/au):

     atom    1 type  1   force =   0.17129686E-02  0.74647718E-02  0.12422636E-02
     atom    2 type  1   force =   0.30781032E-02 -0.92385132E-03 -0.59953149E-02
     atom    3 type  1   force =   0.11796474E-02  0.18805991E-02 -0.40461481E-02
     atom    4 type  1   force =  -0.44526443E-03  0.20259479E-02 -0.53695255E-02
     atom    5 type  1   force =   0.24562324E-02  0.41774648E-03 -0.83970872E-03
     atom    6 type  1   force =  -0.57365249E-02  0.26608602E-02  0.36763886E-02
     atom    7 type  1   force =   0.31460841E-02 -0.24277109E-02  0.17518046E-02
     atom    8 type  1   force =   0.28009957E-02 -0.56997222E-02 -0.81291540E-04
     atom    9 type  1   force =  -0.45227939E-02  0.68522070E-03  0.25497928E-02
     atom   10 type  1   force =   0.15883684E-02  0.20122992E-03  0.61761289E-02
     atom   11 type  1   force =  -0.23637246E-03 -0.31771998E-02  0.11066286E-02
     atom   12 type  1   force =  -0.15119523E-02 -0.54259798E-03 -0.35620129E-02
     atom   13 type  1   force =  -0.58687815E-02 -0.28419410E-02  0.28258092E-02
     atom   14 type  1   force =   0.14256757E-02 -0.29415978E-03 -0.51586376E-02
     atom   15 type  1   force =   0.18701582E-02  0.24939935E-02  0.25196535E-02
     atom   16 type  1   force =  -0.31101328E-02 -0.36581945E-02 -0.11040045E-02
     atom   17 type  1   force =   0.13753105E-02  0.16484753E-03  0.24634940E-02
     atom   18 type  1   force =   0.54614408E-03 -0.18374163E-02  0.23682285E-02
     atom   19 type  1   force =  -0.94354466E-02 -0.13607449E-02 -0.76751378E-02
     atom   20 type  1   force =  -0.43939653E-02  0.22944315E-02  0.17214131E-02
     atom   21 type  1   force =  -0.47236045E-02  0.45023252E-02 -0.17563979E-02
     atom   22 type  1   force =   0.58232640E-02 -0.23818704E-02  0.44484580E-02
     atom   23 type  1   force =   0.19810388E-02 -0.75668275E-03  0.36229613E-02
     atom   24 type  1   force =   0.38589202E-02 -0.51984834E-02 -0.50114798E-03
     atom   25 type  1   force =   0.59220269E-02 -0.82019261E-03  0.32029196E-02
     atom   26 type  1   force =  -0.18081951E-02  0.36685260E-02 -0.37527158E-02
     atom   27 type  1   force =   0.30280955E-02  0.34602680E-02  0.16609896E-03

     Total force =     0.030859     Total SCF correction =     0.000037


     entering subroutine stress ...

          total   stress  (Ry/bohr**3)                   (kbar)     P=    0.74
   0.0000053103  -0.0000005034   0.0000006730          0.78     -0.07      0.10
  -0.0000005034   0.0000051258  -0.0000001209         -0.07      0.75     -0.02
   0.0000006730  -0.0000001209   0.0000047527          0.10     -0.02      0.70


     Writing output data file Al.scf.in.super.333.044.save

     init_run     :    120.36s CPU    107.76s WALL (       1 calls)
     electrons    :   3392.54s CPU   3293.47s WALL (       1 calls)
     forces       :     30.08s CPU     25.48s WALL (       1 calls)
     stress       :    110.65s CPU    109.51s WALL (       1 calls)

     Called by init_run:
     wfcinit      :    119.29s CPU    106.65s WALL (       1 calls)
     potinit      :      0.23s CPU      0.23s WALL (       1 calls)

     Called by electrons:
     c_bands      :   3035.82s CPU   2948.20s WALL (      14 calls)
     sum_band     :    346.34s CPU    334.82s WALL (      14 calls)
     v_of_rho     :      2.24s CPU      2.25s WALL (      14 calls)
     newd         :      6.40s CPU      6.43s WALL (      14 calls)
     mix_rho      :      2.01s CPU      2.03s WALL (      14 calls)

     Called by c_bands:
     init_us_2    :     23.03s CPU     23.76s WALL (    3472 calls)
     cegterg      :   2960.12s CPU   2869.48s WALL (    1568 calls)

     Called by *egterg:
     h_psi        :   1804.97s CPU   1728.61s WALL (    7699 calls)
     s_psi        :    231.26s CPU    174.44s WALL (    7699 calls)
     g_psi        :      3.38s CPU      3.52s WALL (    6019 calls)
     cdiaghg      :    266.31s CPU    310.48s WALL (    7475 calls)

     Called by h_psi:
     add_vuspsi   :    234.26s CPU    182.04s WALL (    7699 calls)

     General routines
     calbec       :    463.92s CPU    413.54s WALL (    9491 calls)
     fft          :      3.26s CPU      3.30s WALL (     249 calls)
     ffts         :      1.02s CPU      1.03s WALL (     240 calls)
     fftw         :   1291.04s CPU   1300.43s WALL (  562666 calls)
     interpolate  :      0.34s CPU      0.36s WALL (      28 calls)

     Parallel routines
     fft_scatter  :    853.57s CPU    860.94s WALL (  563155 calls)

     PWSCF        :     1h 1m CPU        0h59m WALL


   This run was terminated on:  11:57:29   9Oct2017            

=------------------------------------------------------------------------------=
   JOB DONE.
=------------------------------------------------------------------------------=
