
     Program PWSCF v.5.1 starts on  9Oct2017 at 10:59:38 

     This program is part of the open-source Quantum ESPRESSO suite
     for quantum simulation of materials; please cite
         "P. Giannozzi et al., J. Phys.:Condens. Matter 21 395502 (2009);
          URL http://www.quantum-espresso.org", 
     in publications or presentations arising from this work. More details at
     http://www.quantum-espresso.org/quote

     Parallel version (MPI), running on     8 processors
     R & G space division:  proc/nbgrp/npool/nimage =       8
     Reading input from /tmp/Al.scf.in.super.333.vac.02.30603/Al.scf.in.super.333.vac.02.t
Warning: card &IONS ignored
Warning: card   ION_DYNAMICS='BFGS', ignored
Warning: card / ignored
Warning: card &CELL ignored
Warning: card  CELL_DYNAMICS = 'BFGS' ignored
Warning: card / ignored
     Message from routine read_cards :
     DEPRECATED: no units specified in CELL_PARAMETERS card

     Current dimensions of program PWSCF are:
     Max number of different atomic species (ntypx) = 10
     Max number of k-points (npk) =  40000
     Max angular momentum in pseudopotentials (lmaxx) =  3
 kfg - two_fermi_energies  F

     Subspace diagonalization in iterative solution of the eigenvalue problem:
     a serial algorithm will be used


     Parallelization info
     --------------------
     sticks:   dense  smooth     PW     G-vecs:    dense   smooth      PW
     Min         446     314     87                17656    10334    1524
     Max         447     315     89                17661    10352    1525
     Sum        3571    2515    703               141263    82723   12195



     bravais-lattice index     =            0
     lattice parameter (alat)  =    16.110077237  a.u.
     unit-cell volume          =    2956.4999 (a.u.)^3
     number of atoms/cell      =           26
     number of atomic types    =            1
     number of electrons       =        78.00
     number of Kohn-Sham states=           47
     kinetic-energy cutoff     =      35.0000  Ry
     charge density cutoff     =     200.0000  Ry
     convergence threshold     =      1.0E-09
     mixing beta               =       0.3000
     number of iterations used =            8  local-TF  mixing
     Exchange-correlation      = SLA  PW   PSX  PSC ( 1  4 10  8 0)
     A smooth kinetic-energy cutoff is imposed at      34.5000 Ry
     height of the smooth step-function =             800.0000 Ry
     width of the smooth step-function  =               1.0000 Ry


     celldm(1)=  16.110077  celldm(2)=   0.000000  celldm(3)=   0.000000
     celldm(4)=   0.000000  celldm(5)=   0.000000  celldm(6)=   0.000000

     crystal axes: (cart. coord. in units of alat)
               a(1) = (   0.707106781187   0.707106781187  -0.000000000000 )  
               a(2) = (   0.707106781187  -0.000000000000   0.707106781187 )  
               a(3) = (   0.000000000000   0.707106781187   0.707106781187 )  

     reciprocal axes: (cart. coord. in units 2 pi/alat)
               b(1) = (  0.707107  0.707107 -0.707107 )  
               b(2) = (  0.707107 -0.707107  0.707107 )  
               b(3) = ( -0.707107  0.707107  0.707107 )  


     PseudoPot. # 1 for Al read from file:
     /users/kfg/psuedo/gbrv_1.5/al.pbesol.UPF
     MD5 check sum: 6741bacbf7acc11acbeee135211c012e
     Pseudo is Ultrasoft + core correction, Zval =  3.0
     Generated by new atomic code, or converted to UPF format
     Using radial grid of  893 points,  3 beta functions with: 
                l(1) =   0
                l(2) =   1
                l(3) =   2
     Q(r) pseudized with  8 coefficients,  rinner =    0.900   0.900   0.900
                                                       0.900   0.900

     atomic species   valence    mass     pseudopotential
        Al             3.00    26.98154     Al( 1.00)

     No symmetry found



   Cartesian axes

     site n.     atom                  positions (alat units)
         1           Al  tau(   1) = (    0.00007480308    0.23376746353    0.23522766752  )
         2           Al  tau(   2) = (    0.00152358141    0.47114296383    0.46833817385  )
         3           Al  tau(   3) = (    0.23849409575    0.00176178733    0.23585652260  )
         4           Al  tau(   4) = (    0.23865111374    0.23645851774    0.47208160639  )
         5           Al  tau(   5) = (    0.23708186906    0.46994025784    0.70431598064  )
         6           Al  tau(   6) = (    0.47059255918   -0.00024357556    0.46957284178  )
         7           Al  tau(   7) = (    0.47064003032    0.23416418335    0.70746927207  )
         8           Al  tau(   8) = (    0.46988978717    0.46836084861    0.94171211019  )
         9           Al  tau(   9) = (    0.23723708092    0.23417659753    0.00294155750  )
        10           Al  tau(  10) = (    0.23702823108    0.46958006322    0.23711405235  )
        11           Al  tau(  11) = (    0.23309559622    0.70628981100    0.47045101144  )
        12           Al  tau(  12) = (    0.47074021861    0.23315928394    0.23560766083  )
        13           Al  tau(  13) = (    0.47165583322    0.46964726733    0.47191297457  )
        14           Al  tau(  14) = (    0.47338775753    0.70875903013    0.70451713747  )
        15           Al  tau(  15) = (    0.70869072955    0.23628628029    0.47399746395  )
        16           Al  tau(  16) = (    0.70592709049    0.47337624721    0.70475351069  )
        17           Al  tau(  17) = (    0.71007264669    0.70510541627    0.94437358455  )
        18           Al  tau(  18) = (    0.47192604141    0.47381529957   -0.00021958382  )
        19           Al  tau(  19) = (    0.46985574845    0.70716894003    0.23410586152  )
        20           Al  tau(  20) = (    0.46874232675    0.94525392084    0.47074737465  )
        21           Al  tau(  21) = (    0.70846296426    0.47299659729    0.23863050048  )
        22           Al  tau(  22) = (    0.70580652142    0.70777041131    0.47074914876  )
        23           Al  tau(  23) = (    0.70990151882    0.94295631047    0.70468034114  )
        24           Al  tau(  24) = (    0.93995208038    0.47019706378    0.46939521543  )
        25           Al  tau(  25) = (    0.94478382554    0.70722414889    0.70997505979  )
        26           Al  tau(  26) = (    0.94271537939    0.94476485729    0.93975745438  )

     number of k points=   112  gaussian smearing, width (Ry)=  0.0500

     Number of k-points >= 100: set verbosity='high' to print them.

     Dense  grid:   141263 G-vectors     FFT dimensions: (  75,  75,  75)

     Smooth grid:    82723 G-vectors     FFT dimensions: (  64,  64,  64)

     Largest allocated arrays     est. size (Mb)     dimensions
        Kohn-Sham Wavefunctions         0.95 Mb     (    1323,   47)
        NL pseudopotentials             4.72 Mb     (    1323,  234)
        Each V/rho on FFT grid          0.86 Mb     (   56250)
        Each G-vector array             0.13 Mb     (   17661)
        G-vector shells                 0.01 Mb     (     874)
     Largest temporary arrays     est. size (Mb)     dimensions
        Auxiliary wavefunctions         3.80 Mb     (    1323,  188)
        Each subspace H/S matrix        0.54 Mb     (     188,  188)
        Each <psi_i|beta_j> matrix      0.17 Mb     (     234,   47)
        Arrays for rho mixing           6.87 Mb     (   56250,    8)

     Initial potential from superposition of free atoms

     starting charge   77.93882, renormalised to   78.00000
     Starting wfc are  104 randomized atomic wfcs

     total cpu time spent up to now is      115.2 secs

     Self-consistent Calculation

     iteration #  1     ecut=    35.00 Ry     beta=0.30
     Davidson diagonalization with overlap
     ethr =  1.00E-02,  avg # of iterations =  3.0

     Threshold (ethr) on eigenvalues was too large:
     Diagonalizing with lowered threshold

     Davidson diagonalization with overlap
     ethr =  2.72E-04,  avg # of iterations =  4.8

     total cpu time spent up to now is      562.5 secs

     total energy              =    -173.33798335 Ry
     Harris-Foulkes estimate   =    -173.36747405 Ry
     estimated scf accuracy    <       0.22882483 Ry

     iteration #  2     ecut=    35.00 Ry     beta=0.30
     Davidson diagonalization with overlap
     ethr =  2.93E-04,  avg # of iterations =  1.0

     total cpu time spent up to now is      703.4 secs

     total energy              =    -173.27821548 Ry
     Harris-Foulkes estimate   =    -173.33962105 Ry
     estimated scf accuracy    <       0.14482014 Ry

     iteration #  3     ecut=    35.00 Ry     beta=0.30
     Davidson diagonalization with overlap
     ethr =  1.86E-04,  avg # of iterations =  2.4

     total cpu time spent up to now is      885.2 secs

     total energy              =    -173.29420238 Ry
     Harris-Foulkes estimate   =    -173.29465608 Ry
     estimated scf accuracy    <       0.00252922 Ry

     iteration #  4     ecut=    35.00 Ry     beta=0.30
     Davidson diagonalization with overlap
     ethr =  3.24E-06,  avg # of iterations =  9.2

     total cpu time spent up to now is     1266.8 secs

     total energy              =    -173.29552673 Ry
     Harris-Foulkes estimate   =    -173.29547374 Ry
     estimated scf accuracy    <       0.00243336 Ry

     iteration #  5     ecut=    35.00 Ry     beta=0.30
     Davidson diagonalization with overlap
     ethr =  3.12E-06,  avg # of iterations =  1.0

     total cpu time spent up to now is     1417.3 secs

     total energy              =    -173.29421680 Ry
     Harris-Foulkes estimate   =    -173.29553367 Ry
     estimated scf accuracy    <       0.00268046 Ry

     iteration #  6     ecut=    35.00 Ry     beta=0.30
     Davidson diagonalization with overlap
     ethr =  3.12E-06,  avg # of iterations =  4.0

     total cpu time spent up to now is     1664.6 secs

     total energy              =    -173.29525253 Ry
     Harris-Foulkes estimate   =    -173.29533893 Ry
     estimated scf accuracy    <       0.00147281 Ry

     iteration #  7     ecut=    35.00 Ry     beta=0.30
     Davidson diagonalization with overlap
     ethr =  1.89E-06,  avg # of iterations =  1.0

     total cpu time spent up to now is     1812.2 secs

     total energy              =    -173.29500329 Ry
     Harris-Foulkes estimate   =    -173.29526386 Ry
     estimated scf accuracy    <       0.00115731 Ry

     iteration #  8     ecut=    35.00 Ry     beta=0.30
     Davidson diagonalization with overlap
     ethr =  1.48E-06,  avg # of iterations =  2.1

     total cpu time spent up to now is     1963.3 secs

     total energy              =    -173.29500636 Ry
     Harris-Foulkes estimate   =    -173.29507326 Ry
     estimated scf accuracy    <       0.00018127 Ry

     iteration #  9     ecut=    35.00 Ry     beta=0.30
     Davidson diagonalization with overlap
     ethr =  2.32E-07,  avg # of iterations =  3.6

     total cpu time spent up to now is     2190.0 secs

     total energy              =    -173.29506079 Ry
     Harris-Foulkes estimate   =    -173.29505777 Ry
     estimated scf accuracy    <       0.00001559 Ry

     iteration # 10     ecut=    35.00 Ry     beta=0.30
     Davidson diagonalization with overlap
     ethr =  2.00E-08,  avg # of iterations =  1.9

     total cpu time spent up to now is     2350.6 secs

     total energy              =    -173.29505980 Ry
     Harris-Foulkes estimate   =    -173.29506152 Ry
     estimated scf accuracy    <       0.00003038 Ry

     iteration # 11     ecut=    35.00 Ry     beta=0.30
     Davidson diagonalization with overlap
     ethr =  2.00E-08,  avg # of iterations =  1.0

     total cpu time spent up to now is     2499.1 secs

     total energy              =    -173.29505059 Ry
     Harris-Foulkes estimate   =    -173.29506002 Ry
     estimated scf accuracy    <       0.00002517 Ry

     iteration # 12     ecut=    35.00 Ry     beta=0.30
     Davidson diagonalization with overlap
     c_bands:  1 eigenvalues not converged
     ethr =  2.00E-08,  avg # of iterations =  3.1

     total cpu time spent up to now is     2717.0 secs

     total energy              =    -173.29505518 Ry
     Harris-Foulkes estimate   =    -173.29505518 Ry
     estimated scf accuracy    <       0.00000045 Ry

     iteration # 13     ecut=    35.00 Ry     beta=0.30
     Davidson diagonalization with overlap
     c_bands:  1 eigenvalues not converged
     c_bands:  1 eigenvalues not converged
     c_bands:  1 eigenvalues not converged
     c_bands:  1 eigenvalues not converged
     ethr =  5.75E-10,  avg # of iterations =  5.1

     total cpu time spent up to now is     2948.8 secs

     total energy              =    -173.29505523 Ry
     Harris-Foulkes estimate   =    -173.29505524 Ry
     estimated scf accuracy    <       0.00000048 Ry

     iteration # 14     ecut=    35.00 Ry     beta=0.30
     Davidson diagonalization with overlap
     c_bands:  1 eigenvalues not converged
     ethr =  5.75E-10,  avg # of iterations =  1.2

     total cpu time spent up to now is     3098.2 secs

     total energy              =    -173.29505510 Ry
     Harris-Foulkes estimate   =    -173.29505523 Ry
     estimated scf accuracy    <       0.00000047 Ry

     iteration # 15     ecut=    35.00 Ry     beta=0.30
     Davidson diagonalization with overlap
     ethr =  5.75E-10,  avg # of iterations =  2.2

     total cpu time spent up to now is     3275.6 secs

     total energy              =    -173.29505514 Ry
     Harris-Foulkes estimate   =    -173.29505515 Ry
     estimated scf accuracy    <       0.00000001 Ry

     iteration # 16     ecut=    35.00 Ry     beta=0.30
     Davidson diagonalization with overlap
     c_bands:  1 eigenvalues not converged
     ethr =  1.48E-11,  avg # of iterations =  5.0

     total cpu time spent up to now is     3538.0 secs

     total energy              =    -173.29505515 Ry
     Harris-Foulkes estimate   =    -173.29505515 Ry
     estimated scf accuracy    <          2.3E-09 Ry

     iteration # 17     ecut=    35.00 Ry     beta=0.30
     Davidson diagonalization with overlap
     c_bands:  1 eigenvalues not converged
     ethr =  2.89E-12,  avg # of iterations =  2.5

     total cpu time spent up to now is     3725.9 secs

     total energy              =    -173.29505515 Ry
     Harris-Foulkes estimate   =    -173.29505515 Ry
     estimated scf accuracy    <          5.3E-09 Ry

     iteration # 18     ecut=    35.00 Ry     beta=0.30
     Davidson diagonalization with overlap
     ethr =  2.89E-12,  avg # of iterations =  2.4

     total cpu time spent up to now is     3916.4 secs

     End of self-consistent calculation

     Number of k-points >= 100: set verbosity='high' to print the bands.

     the Fermi energy is     7.5748 ev

!    total energy              =    -173.29505515 Ry
     Harris-Foulkes estimate   =    -173.29505515 Ry
     estimated scf accuracy    <          7.0E-10 Ry

     The total energy is the sum of the following terms:

     one-electron contribution =      73.39248035 Ry
     hartree contribution      =       1.60317993 Ry
     xc contribution           =    -110.49859340 Ry
     ewald contribution        =    -137.61083984 Ry
     smearing contrib. (-TS)   =      -0.18128219 Ry

     convergence has been achieved in  18 iterations

     Forces acting on atoms (Ry/au):

     atom    1 type  1   force =  -0.11656947E-04 -0.36218885E-02 -0.57990983E-02
     atom    2 type  1   force =  -0.41307195E-02  0.31414671E-02  0.85550290E-02
     atom    3 type  1   force =  -0.84977383E-02 -0.54284101E-02 -0.59675504E-02
     atom    4 type  1   force =  -0.50870437E-02 -0.43912013E-02 -0.62581220E-03
     atom    5 type  1   force =  -0.69004120E-02  0.10612632E-01  0.35889336E-02
     atom    6 type  1   force =   0.72318799E-02 -0.20367314E-02  0.71080877E-02
     atom    7 type  1   force =   0.96869876E-02 -0.43852487E-02 -0.14985798E-02
     atom    8 type  1   force =   0.39042405E-02  0.62898613E-02 -0.16826351E-02
     atom    9 type  1   force =  -0.74188015E-02 -0.17062394E-02 -0.48153467E-02
     atom   10 type  1   force =  -0.13442156E-02  0.69349358E-03 -0.43315685E-02
     atom   11 type  1   force =   0.32795978E-03  0.26576529E-02  0.75463901E-02
     atom   12 type  1   force =   0.87885273E-02  0.38059080E-02 -0.15660095E-02
     atom   13 type  1   force =   0.96430946E-03  0.34579563E-02 -0.19951211E-02
     atom   14 type  1   force =  -0.30104431E-02 -0.23779730E-02  0.27341154E-02
     atom   15 type  1   force =  -0.26357596E-02 -0.83700943E-02  0.23890851E-02
     atom   16 type  1   force =   0.29880660E-02 -0.39337453E-02  0.53865630E-02
     atom   17 type  1   force =  -0.54190424E-02  0.34734804E-02 -0.28465226E-02
     atom   18 type  1   force =   0.72499989E-02  0.10902419E-02 -0.68769950E-03
     atom   19 type  1   force =   0.76221024E-02 -0.47544029E-03  0.25492883E-03
     atom   20 type  1   force =   0.28283931E-02 -0.36103354E-02  0.12760060E-02
     atom   21 type  1   force =  -0.35542774E-02  0.25893010E-02 -0.11992843E-01
     atom   22 type  1   force =   0.28075050E-02  0.21221701E-02 -0.15706675E-02
     atom   23 type  1   force =  -0.47115939E-02  0.26203425E-02  0.33561733E-02
     atom   24 type  1   force =   0.40566847E-02  0.42299212E-02  0.57788776E-02
     atom   25 type  1   force =  -0.28305732E-02 -0.24713449E-02 -0.65035389E-02
     atom   26 type  1   force =  -0.29043775E-02 -0.39757761E-02  0.39088039E-02

     Total force =     0.042252     Total SCF correction =     0.000030


     entering subroutine stress ...

          total   stress  (Ry/bohr**3)                   (kbar)     P=   -5.92
  -0.0000399063  -0.0000002362   0.0000023519         -5.87     -0.03      0.35
  -0.0000002362  -0.0000413228  -0.0000005854         -0.03     -6.08     -0.09
   0.0000023519  -0.0000005854  -0.0000394592          0.35     -0.09     -5.80


     Writing output data file Al.scf.in.super.333.vac.022.save

     init_run     :    110.91s CPU    115.03s WALL (       1 calls)
     electrons    :   3482.60s CPU   3801.25s WALL (       1 calls)
     forces       :     24.81s CPU     23.21s WALL (       1 calls)
     stress       :     82.64s CPU     83.93s WALL (       1 calls)

     Called by init_run:
     wfcinit      :    110.03s CPU    114.07s WALL (       1 calls)
     potinit      :      0.15s CPU      0.19s WALL (       1 calls)

     Called by electrons:
     c_bands      :   3027.28s CPU   3300.48s WALL (      19 calls)
     sum_band     :    443.16s CPU    487.54s WALL (      19 calls)
     v_of_rho     :      2.48s CPU      2.80s WALL (      19 calls)
     newd         :      7.38s CPU      7.69s WALL (      19 calls)
     mix_rho      :      2.47s CPU      2.83s WALL (      19 calls)

     Called by c_bands:
     init_us_2    :     27.01s CPU     29.01s WALL (    4592 calls)
     cegterg      :   2937.76s CPU   3205.48s WALL (    2128 calls)

     Called by *egterg:
     h_psi        :   1939.45s CPU   2136.46s WALL (    8571 calls)
     s_psi        :    206.47s CPU    170.82s WALL (    8571 calls)
     g_psi        :      3.08s CPU      3.05s WALL (    6331 calls)
     cdiaghg      :    193.36s CPU    237.53s WALL (    8347 calls)

     Called by h_psi:
     add_vuspsi   :    212.01s CPU    186.77s WALL (    8571 calls)

     General routines
     calbec       :    463.29s CPU    457.54s WALL (   10923 calls)
     fft          :      3.40s CPU      3.74s WALL (     329 calls)
     ffts         :      1.39s CPU      1.57s WALL (     361 calls)
     fftw         :   1530.94s CPU   1777.84s WALL (  619022 calls)
     interpolate  :      0.39s CPU      0.50s WALL (      38 calls)

     Parallel routines
     fft_scatter  :    995.55s CPU   1163.19s WALL (  619712 calls)

     PWSCF        :     1h 1m CPU        1h 7m WALL


   This run was terminated on:  12: 6:51   9Oct2017            

=------------------------------------------------------------------------------=
   JOB DONE.
=------------------------------------------------------------------------------=
