
     Program PWSCF v.5.1 starts on  1Sep2017 at 13:57: 7 

     This program is part of the open-source Quantum ESPRESSO suite
     for quantum simulation of materials; please cite
         "P. Giannozzi et al., J. Phys.:Condens. Matter 21 395502 (2009);
          URL http://www.quantum-espresso.org", 
     in publications or presentations arising from this work. More details at
     http://www.quantum-espresso.org/quote

     Parallel version (MPI), running on     4 processors
     K-points division:     npool     =       4
     Reading input from /tmp/Al.scf.in.super.333.vac.relax.5682/Al.scf.in.super.333.vac.relax.t
Warning: card &CELL ignored
Warning: card  CELL_DYNAMICS = 'BFGS' ignored
Warning: card / ignored
     Message from routine read_cards :
     DEPRECATED: no units specified in CELL_PARAMETERS card

     Current dimensions of program PWSCF are:
     Max number of different atomic species (ntypx) = 10
     Max number of k-points (npk) =  40000
     Max angular momentum in pseudopotentials (lmaxx) =  3
 kfg - two_fermi_energies  F

     Subspace diagonalization in iterative solution of the eigenvalue problem:
     a serial algorithm will be used


     G-vector sticks info
     --------------------
     sticks:   dense  smooth     PW     G-vecs:    dense   smooth      PW
     Sum        3571    2515    703               141263    82723   12195



     bravais-lattice index     =            0
     lattice parameter (alat)  =    16.110077237  a.u.
     unit-cell volume          =    2956.4999 (a.u.)^3
     number of atoms/cell      =           26
     number of atomic types    =            1
     number of electrons       =        78.00
     number of Kohn-Sham states=           47
     kinetic-energy cutoff     =      35.0000  Ry
     charge density cutoff     =     200.0000  Ry
     convergence threshold     =      1.0E-10
     mixing beta               =       0.3000
     number of iterations used =            8  local-TF  mixing
     Exchange-correlation      = SLA  PW   PSX  PSC ( 1  4 10  8 0)
     nstep                     =           50

     A smooth kinetic-energy cutoff is imposed at      34.5000 Ry
     height of the smooth step-function =             800.0000 Ry
     width of the smooth step-function  =               1.0000 Ry


     celldm(1)=  16.110077  celldm(2)=   0.000000  celldm(3)=   0.000000
     celldm(4)=   0.000000  celldm(5)=   0.000000  celldm(6)=   0.000000

     crystal axes: (cart. coord. in units of alat)
               a(1) = (   0.707106781187   0.707106781187  -0.000000000000 )  
               a(2) = (   0.707106781187  -0.000000000000   0.707106781187 )  
               a(3) = (  -0.000000000000   0.707106781187   0.707106781187 )  

     reciprocal axes: (cart. coord. in units 2 pi/alat)
               b(1) = (  0.707107  0.707107 -0.707107 )  
               b(2) = (  0.707107 -0.707107  0.707107 )  
               b(3) = ( -0.707107  0.707107  0.707107 )  


     PseudoPot. # 1 for Al read from file:
     /users/kfg/psuedo/gbrv_1.5/al.pbesol.UPF
     MD5 check sum: 6741bacbf7acc11acbeee135211c012e
     Pseudo is Ultrasoft + core correction, Zval =  3.0
     Generated by new atomic code, or converted to UPF format
     Using radial grid of  893 points,  3 beta functions with: 
                l(1) =   0
                l(2) =   1
                l(3) =   2
     Q(r) pseudized with  8 coefficients,  rinner =    0.900   0.900   0.900
                                                       0.900   0.900

     atomic species   valence    mass     pseudopotential
        Al             3.00    26.98154     Al( 1.00)

     48 Sym. Ops., with inversion, found



   Cartesian axes

     site n.     atom                  positions (alat units)
         1           Al  tau(   1) = (    0.00000000000    0.23570226040    0.23570226040  )
         2           Al  tau(   2) = (    0.00000000000    0.47140452079    0.47140452079  )
         3           Al  tau(   3) = (    0.23570226040    0.00000000000    0.23570226040  )
         4           Al  tau(   4) = (    0.23570226040    0.23570226040    0.47140452079  )
         5           Al  tau(   5) = (    0.23570226040    0.47140452079    0.70710678119  )
         6           Al  tau(   6) = (    0.47140452079    0.00000000000    0.47140452079  )
         7           Al  tau(   7) = (    0.47140452079    0.23570226040    0.70710678119  )
         8           Al  tau(   8) = (    0.47140452079    0.47140452079    0.94280904158  )
         9           Al  tau(   9) = (    0.23570226040    0.23570226040    0.00000000000  )
        10           Al  tau(  10) = (    0.23570226040    0.47140452079    0.23570226040  )
        11           Al  tau(  11) = (    0.23570226040    0.70710678119    0.47140452079  )
        12           Al  tau(  12) = (    0.47140452079    0.23570226040    0.23570226040  )
        13           Al  tau(  13) = (    0.47140452079    0.47140452079    0.47140452079  )
        14           Al  tau(  14) = (    0.47140452079    0.70710678119    0.70710678119  )
        15           Al  tau(  15) = (    0.70710678119    0.23570226040    0.47140452079  )
        16           Al  tau(  16) = (    0.70710678119    0.47140452079    0.70710678119  )
        17           Al  tau(  17) = (    0.70710678119    0.70710678119    0.94280904158  )
        18           Al  tau(  18) = (    0.47140452079    0.47140452079    0.00000000000  )
        19           Al  tau(  19) = (    0.47140452079    0.70710678119    0.23570226040  )
        20           Al  tau(  20) = (    0.47140452079    0.94280904158    0.47140452079  )
        21           Al  tau(  21) = (    0.70710678119    0.47140452079    0.23570226040  )
        22           Al  tau(  22) = (    0.70710678119    0.70710678119    0.47140452079  )
        23           Al  tau(  23) = (    0.70710678119    0.94280904158    0.70710678119  )
        24           Al  tau(  24) = (    0.94280904158    0.47140452079    0.47140452079  )
        25           Al  tau(  25) = (    0.94280904158    0.70710678119    0.70710678119  )
        26           Al  tau(  26) = (    0.94280904158    0.94280904158    0.94280904158  )

     number of k points=    16  gaussian smearing, width (Ry)=  0.0500
                       cart. coord. in units 2pi/alat
        k(    1) = (   0.0000000   0.0000000   0.0000000), wk =   0.0092593
        k(    2) = (  -0.1178511   0.1178511   0.1178511), wk =   0.0740741
        k(    3) = (  -0.2357023   0.2357023   0.2357023), wk =   0.0740741
        k(    4) = (   0.3535534  -0.3535534  -0.3535534), wk =   0.0370370
        k(    5) = (   0.0000000   0.0000000   0.2357023), wk =   0.0555556
        k(    6) = (  -0.1178511   0.1178511   0.3535534), wk =   0.2222222
        k(    7) = (   0.4714045  -0.4714045  -0.2357023), wk =   0.2222222
        k(    8) = (   0.3535534  -0.3535534  -0.1178511), wk =   0.2222222
        k(    9) = (   0.2357023  -0.2357023   0.0000000), wk =   0.1111111
        k(   10) = (   0.0000000   0.0000000   0.4714045), wk =   0.0555556
        k(   11) = (   0.5892557  -0.5892557  -0.1178511), wk =   0.2222222
        k(   12) = (   0.4714045  -0.4714045  -0.0000000), wk =   0.1111111
        k(   13) = (   0.0000000   0.0000000  -0.7071068), wk =   0.0277778
        k(   14) = (   0.7071068  -0.4714045  -0.2357023), wk =   0.2222222
        k(   15) = (   0.5892557  -0.3535534  -0.1178511), wk =   0.2222222
        k(   16) = (   0.0000000   0.2357023  -0.7071068), wk =   0.1111111

     Dense  grid:   141263 G-vectors     FFT dimensions: (  75,  75,  75)

     Smooth grid:    82723 G-vectors     FFT dimensions: (  64,  64,  64)

     Largest allocated arrays     est. size (Mb)     dimensions
        Kohn-Sham Wavefunctions         7.47 Mb     (   10417,   47)
        NL pseudopotentials            37.19 Mb     (   10417,  234)
        Each V/rho on FFT grid          6.44 Mb     (  421875)
        Each G-vector array             1.08 Mb     (  141263)
        G-vector shells                 0.01 Mb     (     879)
     Largest temporary arrays     est. size (Mb)     dimensions
        Auxiliary wavefunctions        29.88 Mb     (   10417,  188)
        Each subspace H/S matrix        0.54 Mb     (     188,  188)
        Each <psi_i|beta_j> matrix      0.17 Mb     (     234,   47)
        Arrays for rho mixing          51.50 Mb     (  421875,    8)

     Initial potential from superposition of free atoms

     starting charge   77.93882, renormalised to   78.00000
     Starting wfc are  104 randomized atomic wfcs

     total cpu time spent up to now is       17.7 secs

     per-process dynamical memory:   136.4 Mb

     Self-consistent Calculation

     iteration #  1     ecut=    35.00 Ry     beta=0.30
     Davidson diagonalization with overlap
     ethr =  1.00E-02,  avg # of iterations =  3.0

     Threshold (ethr) on eigenvalues was too large:
     Diagonalizing with lowered threshold

     Davidson diagonalization with overlap
     ethr =  2.67E-04,  avg # of iterations =  4.4

     total cpu time spent up to now is      153.4 secs

     total energy              =    -173.34118165 Ry
     Harris-Foulkes estimate   =    -173.37017739 Ry
     estimated scf accuracy    <       0.22517698 Ry

     iteration #  2     ecut=    35.00 Ry     beta=0.30
     Davidson diagonalization with overlap
     ethr =  2.89E-04,  avg # of iterations =  1.0

     total cpu time spent up to now is      211.9 secs

     total energy              =    -173.28275458 Ry
     Harris-Foulkes estimate   =    -173.34278370 Ry
     estimated scf accuracy    <       0.14232909 Ry

     iteration #  3     ecut=    35.00 Ry     beta=0.30
     Davidson diagonalization with overlap
     ethr =  1.82E-04,  avg # of iterations =  2.5

     total cpu time spent up to now is      282.8 secs

     total energy              =    -173.29798286 Ry
     Harris-Foulkes estimate   =    -173.29837246 Ry
     estimated scf accuracy    <       0.00222498 Ry

     iteration #  4     ecut=    35.00 Ry     beta=0.30
     Davidson diagonalization with overlap
     ethr =  2.85E-06,  avg # of iterations =  8.5

     total cpu time spent up to now is      373.9 secs

     total energy              =    -173.29927587 Ry
     Harris-Foulkes estimate   =    -173.29922229 Ry
     estimated scf accuracy    <       0.00235402 Ry

     iteration #  5     ecut=    35.00 Ry     beta=0.30
     Davidson diagonalization with overlap
     ethr =  2.85E-06,  avg # of iterations =  1.0

     total cpu time spent up to now is      434.6 secs

     total energy              =    -173.29799498 Ry
     Harris-Foulkes estimate   =    -173.29928189 Ry
     estimated scf accuracy    <       0.00260567 Ry

     iteration #  6     ecut=    35.00 Ry     beta=0.30
     Davidson diagonalization with overlap
     ethr =  2.85E-06,  avg # of iterations =  3.6

     total cpu time spent up to now is      516.8 secs

     total energy              =    -173.29904586 Ry
     Harris-Foulkes estimate   =    -173.29912600 Ry
     estimated scf accuracy    <       0.00161025 Ry

     iteration #  7     ecut=    35.00 Ry     beta=0.30
     Davidson diagonalization with overlap
     ethr =  2.06E-06,  avg # of iterations =  1.0

     total cpu time spent up to now is      575.6 secs

     total energy              =    -173.29871142 Ry
     Harris-Foulkes estimate   =    -173.29905589 Ry
     estimated scf accuracy    <       0.00130377 Ry

     iteration #  8     ecut=    35.00 Ry     beta=0.30
     Davidson diagonalization with overlap
     ethr =  1.67E-06,  avg # of iterations =  2.1

     total cpu time spent up to now is      633.8 secs

     total energy              =    -173.29879613 Ry
     Harris-Foulkes estimate   =    -173.29882777 Ry
     estimated scf accuracy    <       0.00007767 Ry

     iteration #  9     ecut=    35.00 Ry     beta=0.30
     Davidson diagonalization with overlap
     ethr =  9.96E-08,  avg # of iterations =  4.1

     total cpu time spent up to now is      695.0 secs

     total energy              =    -173.29883235 Ry
     Harris-Foulkes estimate   =    -173.29883053 Ry
     estimated scf accuracy    <       0.00002295 Ry

     iteration # 10     ecut=    35.00 Ry     beta=0.30
     Davidson diagonalization with overlap
     ethr =  2.94E-08,  avg # of iterations =  1.0

     total cpu time spent up to now is      744.4 secs

     total energy              =    -173.29882425 Ry
     Harris-Foulkes estimate   =    -173.29883254 Ry
     estimated scf accuracy    <       0.00003113 Ry

     iteration # 11     ecut=    35.00 Ry     beta=0.30
     Davidson diagonalization with overlap
     ethr =  2.94E-08,  avg # of iterations =  2.1

     total cpu time spent up to now is      801.8 secs

     total energy              =    -173.29882564 Ry
     Harris-Foulkes estimate   =    -173.29882663 Ry
     estimated scf accuracy    <       0.00000266 Ry

     iteration # 12     ecut=    35.00 Ry     beta=0.30
     Davidson diagonalization with overlap
     ethr =  3.41E-09,  avg # of iterations =  3.9

     total cpu time spent up to now is      866.8 secs

     total energy              =    -173.29882651 Ry
     Harris-Foulkes estimate   =    -173.29882649 Ry
     estimated scf accuracy    <       0.00000032 Ry

     iteration # 13     ecut=    35.00 Ry     beta=0.30
     Davidson diagonalization with overlap
     ethr =  4.16E-10,  avg # of iterations =  1.2

     total cpu time spent up to now is      933.5 secs

     total energy              =    -173.29882645 Ry
     Harris-Foulkes estimate   =    -173.29882652 Ry
     estimated scf accuracy    <       0.00000040 Ry

     iteration # 14     ecut=    35.00 Ry     beta=0.30
     Davidson diagonalization with overlap
     ethr =  4.16E-10,  avg # of iterations =  1.0

     total cpu time spent up to now is      979.7 secs

     total energy              =    -173.29882641 Ry
     Harris-Foulkes estimate   =    -173.29882646 Ry
     estimated scf accuracy    <       0.00000014 Ry

     iteration # 15     ecut=    35.00 Ry     beta=0.30
     Davidson diagonalization with overlap
     ethr =  1.84E-10,  avg # of iterations =  3.1

     total cpu time spent up to now is     1053.6 secs

     total energy              =    -173.29882644 Ry
     Harris-Foulkes estimate   =    -173.29882644 Ry
     estimated scf accuracy    <       0.00000001 Ry

     iteration # 16     ecut=    35.00 Ry     beta=0.30
     Davidson diagonalization with overlap
     ethr =  1.82E-11,  avg # of iterations =  3.1

     total cpu time spent up to now is     1124.0 secs

     total energy              =    -173.29882644 Ry
     Harris-Foulkes estimate   =    -173.29882644 Ry
     estimated scf accuracy    <          4.6E-10 Ry

     iteration # 17     ecut=    35.00 Ry     beta=0.30
     Davidson diagonalization with overlap
     ethr =  5.86E-13,  avg # of iterations =  5.1

     total cpu time spent up to now is     1211.4 secs

     total energy              =    -173.29882644 Ry
     Harris-Foulkes estimate   =    -173.29882644 Ry
     estimated scf accuracy    <          2.2E-09 Ry

     iteration # 18     ecut=    35.00 Ry     beta=0.30
     Davidson diagonalization with overlap
     ethr =  5.86E-13,  avg # of iterations =  3.4

     total cpu time spent up to now is     1288.3 secs

     total energy              =    -173.29882644 Ry
     Harris-Foulkes estimate   =    -173.29882644 Ry
     estimated scf accuracy    <          1.2E-10 Ry

     iteration # 19     ecut=    35.00 Ry     beta=0.30
     Davidson diagonalization with overlap
     ethr =  1.52E-13,  avg # of iterations =  2.8

     total cpu time spent up to now is     1353.6 secs

     End of self-consistent calculation

          k = 0.0000 0.0000 0.0000 ( 10417 PWs)   bands (ev):

    -3.5325  -0.6717  -0.6412  -0.6412  -0.6412  -0.4951  -0.4951  -0.4951
    -0.1778   0.3709   0.3709   0.5493   0.5493   0.5493   1.5776   4.2595
     4.2595   4.2595   4.3032   4.3032   4.3796   4.3796   4.3796   4.6434
     4.6434   4.6434   5.0052   6.4762   6.4762   6.4992   6.4992   6.4992
     6.5149   6.6834   6.6834   6.6834   7.1858   7.1858   7.1858   7.9991
     7.9991   7.9991   8.0326   8.0326   8.0326   8.0590   8.0590

          k =-0.1179 0.1179 0.1179 ( 10357 PWs)   bands (ev):

    -3.4499  -1.4618  -0.8252  -0.8252  -0.7299  -0.2341  -0.2341  -0.1633
    -0.0283  -0.0283   0.3801   0.6501   1.1959   1.1959   1.9256   3.1385
     3.1385   3.4604   4.3351   4.4179   4.4179   4.6146   4.6146   4.7514
     5.4647   5.4647   5.6896   5.7825   5.7825   6.0372   6.1232   6.2150
     6.2150   6.3073   6.4206   6.4206   6.7352   7.1044   7.1044   7.1964
     7.7605   7.7850   7.7850   8.2187   8.2187   8.2813   8.5879

          k =-0.2357 0.2357 0.2357 ( 10345 PWs)   bands (ev):

    -3.2048  -2.1878  -0.9149  -0.9149  -0.8642  -0.5417  -0.5417  -0.1818
     0.4542   0.4542   0.7834   1.7397   2.0367   2.0367   2.1361   2.1361
     2.3214   2.8395   4.2755   4.2755   4.3993   4.5539   4.6421   4.6421
     4.8436   4.8436   4.9076   5.0240   5.5362   5.6110   5.6110   5.8701
     5.8701   6.1817   6.9711   6.9711   6.9794   7.2363   7.2363   7.4323
     7.5443   7.5443   7.6316   8.6239   8.6239   8.7153   9.6164

          k = 0.3536-0.3536-0.3536 ( 10332 PWs)   bands (ev):

    -2.8856  -2.6689  -0.9080  -0.8991  -0.8991  -0.7185  -0.7185  -0.2437
     1.1393   1.1393   1.2404   1.2404   1.2821   1.7129   2.9346   3.0833
     3.0833   3.1322   3.1599   3.1599   3.6641   3.9261   4.7909   4.9174
     4.9174   4.9784   4.9784   5.0316   5.1630   5.2417   5.2417   5.5543
     5.5543   5.9316   6.9387   7.0438   7.0438   7.3129   7.3129   7.5372
     8.7628   8.7628   8.8055   8.8843   8.8887   8.8887   9.3098

          k = 0.0000 0.0000 0.2357 ( 10337 PWs)   bands (ev):

    -3.4223  -1.2128  -1.1210  -1.1210  -1.0008  -0.4951   0.1186   0.1832
     0.1832   0.3209   0.4810   0.6771   0.6771   1.3078   2.1867   3.1016
     3.2321   3.2321   3.5204   4.4616   4.5477   4.5477   4.6093   5.3076
     5.3765   5.3765   5.6464   5.7624   5.7624   5.9327   5.9650   6.0662
     6.1813   6.3126   6.3126   7.0868   7.1721   7.1721   7.1965   7.2191
     7.3748   7.5446   7.5446   7.6897   7.9386   7.9386   8.3288

          k =-0.1179 0.1179 0.3536 ( 10318 PWs)   bands (ev):

    -3.2308  -1.9012  -1.3418  -1.2586  -1.0091  -0.4348  -0.0053   0.0711
     0.3456   0.7477   0.9563   1.3106   1.4164   1.9004   2.0650   2.2999
     2.9252   3.3524   3.4776   3.5916   4.0348   4.5598   4.5749   4.8015
     4.9852   5.1335   5.1379   5.4888   5.6204   5.8542   5.9434   5.9498
     6.0749   6.2404   6.7548   6.7914   7.0097   7.2021   7.2417   7.3046
     7.7480   7.7918   7.8787   8.0286   8.0755   8.2422   8.6637

          k = 0.4714-0.4714-0.2357 ( 10326 PWs)   bands (ev):

    -2.8929  -2.5039  -1.5589  -1.2324  -1.0274  -0.2222  -0.1701   0.1630
     0.3501   1.1011   1.2759   1.4381   1.6551   2.4106   2.4534   2.5231
     2.8180   2.9971   3.6685   3.7243   3.7481   3.9376   3.9856   4.0878
     4.2386   4.5330   5.0249   5.0950   5.3963   5.4633   5.6298   6.2005
     6.3548   6.4455   6.5543   6.6653   6.9528   7.6044   7.9169   7.9366
     7.9970   8.2537   8.3114   8.8163   8.8805   8.9325   9.0768

          k = 0.3536-0.3536-0.1179 ( 10316 PWs)   bands (ev):

    -3.0173  -2.3278  -1.6621  -1.0436  -0.8827  -0.3614  -0.2511   0.3221
     0.3378   0.5927   1.0914   1.6576   1.7486   2.2722   2.3579   2.4915
     2.9051   3.3331   3.5124   3.5916   3.6568   3.7814   4.2088   4.2607
     4.5979   4.9219   4.9251   4.9648   5.6056   5.6111   5.7500   6.1153
     6.2588   6.4165   6.4823   6.6432   7.0004   7.2996   7.4279   7.5937
     8.1764   8.2129   8.7233   8.8288   8.9747   8.9812   9.0310

          k = 0.2357-0.2357 0.0000 ( 10323 PWs)   bands (ev):

    -3.3128  -1.7247  -1.5534  -0.7042  -0.6075  -0.4196  -0.3611  -0.2054
     0.0524   0.7023   0.7454   0.9926   1.3179   1.9722   2.0656   2.4623
     3.2476   3.2973   3.4447   3.5703   4.6123   4.6607   4.7394   4.7917
     4.9264   5.1626   5.5674   5.8131   5.8848   5.9895   6.0032   6.0129
     6.0874   6.0938   6.1443   6.5951   6.6129   6.8122   7.1429   7.1437
     7.5168   8.1757   8.2438   8.3314   8.5002   8.6011   8.6124

          k = 0.0000 0.0000 0.4714 ( 10318 PWs)   bands (ev):

    -3.0941  -1.8074  -1.5473  -1.4509  -1.4509  -0.9381   0.8104   0.8901
     0.8901   0.9311   1.1079   1.2706   1.2706   1.9017   2.1266   2.2764
     2.2764   2.6488   3.6480   3.6828   3.8155   3.8155   4.3495   4.8459
     4.8753   4.8753   5.1410   5.6514   5.7278   5.8621   5.8621   6.2085
     6.3173   6.4432   6.4432   7.0321   7.0691   7.0691   7.3620   7.5138
     7.5189   7.5189   7.7772   8.1588   8.2776   8.2936   8.7105

          k = 0.5893-0.5893-0.1179 ( 10356 PWs)   bands (ev):

    -2.8009  -2.2128  -2.0202  -1.4787  -1.2962  -0.6439   0.5094   0.6067
     1.1867   1.1997   1.4310   1.7402   1.8086   1.9408   2.1391   2.4973
     2.5074   2.5729   2.9699   3.1666   3.3920   3.7829   4.1838   4.4872
     4.5556   4.8933   5.1492   5.1988   5.2641   5.5782   5.6531   6.1043
     6.1414   6.4474   6.8548   7.1313   7.3814   7.4570   7.4619   7.6404
     8.0094   8.1201   8.3114   8.4616   8.6894   8.9720   9.0152

          k = 0.4714-0.4714-0.0000 ( 10375 PWs)   bands (ev):

    -2.6827  -2.3941  -2.1776  -1.3414  -1.1495   0.0794   0.2428   0.2993
     0.4247   0.6717   1.3816   1.5122   2.5924   2.6111   2.6962   2.6989
     2.8666   2.8783   3.0585   3.0873   3.1523   3.3935   3.8766   4.0615
     4.1951   4.5080   5.1035   5.1751   5.2182   5.5005   5.5076   5.9991
     6.0110   6.6085   7.3959   7.5140   7.6983   7.7640   7.9003   8.0077
     8.0406   8.0649   8.1491   8.3698   8.6675   8.8603   9.0793

          k = 0.0000 0.0000-0.7071 ( 10326 PWs)   bands (ev):

    -2.6182  -2.4753  -1.6591  -1.5615  -1.5615  -1.0597   1.3152   1.3616
     1.3616   1.4060   1.4132   1.5990   1.5990   1.7796   2.3028   2.3051
     2.3902   2.3902   2.4981   2.4981   2.9382   3.4126   4.8707   5.2596
     5.3045   5.3045   5.3306   5.3829   5.3829   5.3899   5.5468   5.7539
     5.8061   6.2097   6.2097   6.3795   7.0918   7.0918   7.1891   7.7981
     8.4018   8.5044   8.5044   8.8950   9.3049   9.3080   9.3735

          k = 0.7071-0.4714-0.2357 ( 10320 PWs)   bands (ev):

    -2.9876  -2.0590  -1.9279  -1.5357  -0.7203  -0.4492  -0.2404   0.5910
     0.7651   1.0139   1.0644   1.3067   1.9326   2.0878   2.3332   2.3804
     2.7124   3.2156   3.4574   3.6116   3.6599   3.7159   3.9219   4.4474
     4.5472   4.6549   4.9248   4.9468   5.4781   5.5202   6.1662   6.1827
     6.3298   6.6548   6.8031   7.0235   7.3741   7.3815   7.5024   7.5876
     7.7145   7.8776   7.9706   8.2016   8.6421   8.7592   9.1520

          k = 0.5893-0.3536-0.1179 ( 10332 PWs)   bands (ev):

    -2.6611  -2.4847  -1.9890  -1.6911  -0.5658  -0.4842   0.1153   0.2677
     0.6728   0.9512   1.4561   1.5568   2.1310   2.1603   2.6456   2.6965
     2.8626   2.9828   3.2098   3.3281   3.5734   3.7755   3.8753   3.9933
     4.2209   4.3396   4.6649   4.7737   4.8422   5.2627   6.3495   6.4636
     6.7175   6.7236   6.9715   7.0766   7.4514   7.5060   7.6519   7.8785
     7.9073   8.0166   8.4207   8.5628   8.8267   8.9504   9.0030

          k = 0.0000 0.2357-0.7071 ( 10362 PWs)   bands (ev):

    -2.5061  -2.4195  -2.1707  -1.8416  -0.8303  -0.5272   0.1617   0.4404
     1.4626   1.4667   1.6363   1.6373   1.8091   1.9238   2.0765   2.3356
     2.7550   2.8973   3.0871   3.1539   3.4691   3.7587   4.1276   4.1279
     4.2251   4.3743   4.4758   5.0121   5.1682   5.3363   6.3503   6.4094
     6.6465   6.6724   6.6981   7.0838   7.1307   7.3957   7.8700   8.1611
     8.1917   8.4507   8.4569   8.5673   8.5794   8.8146   8.9072

     the Fermi energy is     7.5757 ev

!    total energy              =    -173.29882644 Ry
     Harris-Foulkes estimate   =    -173.29882644 Ry
     estimated scf accuracy    <          1.4E-11 Ry

     The total energy is the sum of the following terms:

     one-electron contribution =      73.44616142 Ry
     hartree contribution      =       1.57750396 Ry
     xc contribution           =    -110.49327416 Ry
     ewald contribution        =    -137.64795281 Ry
     smearing contrib. (-TS)   =      -0.18126485 Ry

     convergence has been achieved in  19 iterations

     Forces acting on atoms (Ry/au):

     atom    1 type  1   force =  -0.17347235E-17 -0.54570090E-02 -0.54570090E-02
     atom    2 type  1   force =   0.26020852E-17  0.54570090E-02  0.54570090E-02
     atom    3 type  1   force =  -0.54570090E-02 -0.26020852E-17 -0.54570090E-02
     atom    4 type  1   force =  -0.61253195E-03 -0.61253195E-03  0.61253195E-03
     atom    5 type  1   force =  -0.54570090E-02  0.54570090E-02  0.00000000E+00
     atom    6 type  1   force =   0.54570090E-02  0.26020852E-17  0.54570090E-02
     atom    7 type  1   force =   0.54570090E-02 -0.54570090E-02  0.00000000E+00
     atom    8 type  1   force =   0.61253195E-03  0.61253195E-03 -0.61253195E-03
     atom    9 type  1   force =  -0.54570090E-02 -0.54570090E-02 -0.26020852E-17
     atom   10 type  1   force =  -0.61253195E-03  0.61253195E-03 -0.61253195E-03
     atom   11 type  1   force =  -0.54570090E-02  0.00000000E+00  0.54570090E-02
     atom   12 type  1   force =   0.61253195E-03 -0.61253195E-03 -0.61253195E-03
     atom   13 type  1   force =   0.61253195E-03  0.61253195E-03  0.61253195E-03
     atom   14 type  1   force =  -0.11499290E-02  0.24124740E-21  0.24124740E-21
     atom   15 type  1   force =  -0.86736174E-18 -0.54570090E-02  0.54570090E-02
     atom   16 type  1   force =  -0.10842022E-18 -0.11499290E-02  0.10842022E-18
     atom   17 type  1   force =   0.10842022E-18 -0.10842022E-18  0.11499290E-02
     atom   18 type  1   force =   0.54570090E-02  0.54570090E-02  0.26020852E-17
     atom   19 type  1   force =   0.54570090E-02  0.00000000E+00 -0.54570090E-02
     atom   20 type  1   force =   0.61253195E-03 -0.61253195E-03  0.61253195E-03
     atom   21 type  1   force =   0.00000000E+00  0.54570090E-02 -0.54570090E-02
     atom   22 type  1   force =   0.00000000E+00  0.00000000E+00 -0.11499290E-02
     atom   23 type  1   force =   0.00000000E+00  0.11499290E-02  0.00000000E+00
     atom   24 type  1   force =  -0.61253195E-03  0.61253195E-03  0.61253195E-03
     atom   25 type  1   force =   0.11499290E-02  0.26583724E-21  0.26583724E-21
     atom   26 type  1   force =  -0.61253195E-03 -0.61253195E-03 -0.61253195E-03

     Total force =     0.027049     Total SCF correction =     0.000005


     entering subroutine stress ...

          total   stress  (Ry/bohr**3)                   (kbar)     P=   -6.55
  -0.0000444921   0.0000000000  -0.0000000000         -6.55      0.00     -0.00
   0.0000000000  -0.0000444921   0.0000000000          0.00     -6.55      0.00
  -0.0000000000   0.0000000000  -0.0000444921         -0.00      0.00     -6.55


     BFGS Geometry Optimization

     number of scf cycles    =   1
     number of bfgs steps    =   0

     energy   new            =    -173.2988264415 Ry

     new trust radius        =       0.0077173762 bohr
     new conv_thr            =            1.0E-10 Ry


ATOMIC_POSITIONS (crystal)
Al       0.000000000   0.000000000   0.332854293
Al       0.000000000   0.000000000   0.667145707
Al       0.000000000   0.332854293   0.000000000
Al      -0.000080656   0.333360219   0.333360219
Al       0.000000000   0.332854293   0.667145707
Al       0.000000000   0.667145707   0.000000000
Al       0.000000000   0.667145707   0.332854293
Al       0.000080656   0.666639781   0.666639781
Al       0.332854293  -0.000000000  -0.000000000
Al       0.333360219  -0.000080656   0.333360219
Al       0.332854293   0.000000000   0.667145707
Al       0.333360219   0.333360219  -0.000080656
Al       0.333360219   0.333360219   0.333360219
Al       0.333282860   0.333282860   0.666717140
Al       0.332854293   0.667145707   0.000000000
Al       0.333282860   0.666717140   0.333282860
Al       0.333282860   0.666717140   0.666717140
Al       0.667145707   0.000000000   0.000000000
Al       0.667145707   0.000000000   0.332854293
Al       0.666639781   0.000080656   0.666639781
Al       0.667145707   0.332854293   0.000000000
Al       0.666717140   0.333282860   0.333282860
Al       0.666717140   0.333282860   0.666717140
Al       0.666639781   0.666639781   0.000080656
Al       0.666717140   0.666717140   0.333282860
Al       0.666639781   0.666639781   0.666639781



     Writing output data file Al.scf.in.super.333.vac.relax.save
     NEW-OLD atomic charge density approx. for the potential

     total cpu time spent up to now is     1524.0 secs

     per-process dynamical memory:   136.4 Mb

     Self-consistent Calculation

     iteration #  1     ecut=    35.00 Ry     beta=0.30
     Davidson diagonalization with overlap
     ethr =  1.00E-06,  avg # of iterations =  4.2

     Threshold (ethr) on eigenvalues was too large:
     Diagonalizing with lowered threshold

     Davidson diagonalization with overlap
     ethr =  8.29E-08,  avg # of iterations =  3.6

     total cpu time spent up to now is     1643.5 secs

     total energy              =    -173.29951978 Ry
     Harris-Foulkes estimate   =    -173.29952835 Ry
     estimated scf accuracy    <       0.00007569 Ry

     iteration #  2     ecut=    35.00 Ry     beta=0.30
     Davidson diagonalization with overlap
     ethr =  9.70E-08,  avg # of iterations =  1.0

     total cpu time spent up to now is     1693.5 secs

     total energy              =    -173.29949770 Ry
     Harris-Foulkes estimate   =    -173.29952058 Ry
     estimated scf accuracy    <       0.00004817 Ry

     iteration #  3     ecut=    35.00 Ry     beta=0.30
     Davidson diagonalization with overlap
     ethr =  6.18E-08,  avg # of iterations =  3.1

     total cpu time spent up to now is     1764.2 secs

     total energy              =    -173.29951045 Ry
     Harris-Foulkes estimate   =    -173.29951215 Ry
     estimated scf accuracy    <       0.00000690 Ry

     iteration #  4     ecut=    35.00 Ry     beta=0.30
     Davidson diagonalization with overlap
     ethr =  8.85E-09,  avg # of iterations =  2.1

     total cpu time spent up to now is     1816.8 secs

     total energy              =    -173.29951093 Ry
     Harris-Foulkes estimate   =    -173.29951099 Ry
     estimated scf accuracy    <       0.00000133 Ry

     iteration #  5     ecut=    35.00 Ry     beta=0.30
     Davidson diagonalization with overlap
     ethr =  1.71E-09,  avg # of iterations =  2.0

     total cpu time spent up to now is     1874.0 secs

     total energy              =    -173.29951059 Ry
     Harris-Foulkes estimate   =    -173.29951097 Ry
     estimated scf accuracy    <       0.00000093 Ry

     iteration #  6     ecut=    35.00 Ry     beta=0.30
     Davidson diagonalization with overlap
     ethr =  1.20E-09,  avg # of iterations =  3.4

     total cpu time spent up to now is     1953.6 secs

     total energy              =    -173.29951086 Ry
     Harris-Foulkes estimate   =    -173.29951086 Ry
     estimated scf accuracy    <       0.00000011 Ry

     iteration #  7     ecut=    35.00 Ry     beta=0.30
     Davidson diagonalization with overlap
     ethr =  1.41E-10,  avg # of iterations =  2.0

     total cpu time spent up to now is     2018.6 secs

     total energy              =    -173.29951086 Ry
     Harris-Foulkes estimate   =    -173.29951086 Ry
     estimated scf accuracy    <       0.00000010 Ry

     iteration #  8     ecut=    35.00 Ry     beta=0.30
     Davidson diagonalization with overlap
     ethr =  1.27E-10,  avg # of iterations =  1.0

     total cpu time spent up to now is     2070.9 secs

     total energy              =    -173.29951083 Ry
     Harris-Foulkes estimate   =    -173.29951086 Ry
     estimated scf accuracy    <       0.00000007 Ry

     iteration #  9     ecut=    35.00 Ry     beta=0.30
     Davidson diagonalization with overlap
     ethr =  8.78E-11,  avg # of iterations =  2.8

     total cpu time spent up to now is     2132.8 secs

     total energy              =    -173.29951085 Ry
     Harris-Foulkes estimate   =    -173.29951085 Ry
     estimated scf accuracy    <          8.4E-10 Ry

     iteration # 10     ecut=    35.00 Ry     beta=0.30
     Davidson diagonalization with overlap
     ethr =  1.08E-12,  avg # of iterations =  5.3

     total cpu time spent up to now is     2198.2 secs

     total energy              =    -173.29951085 Ry
     Harris-Foulkes estimate   =    -173.29951085 Ry
     estimated scf accuracy    <          1.2E-09 Ry

     iteration # 11     ecut=    35.00 Ry     beta=0.30
     Davidson diagonalization with overlap
     ethr =  1.08E-12,  avg # of iterations =  3.5

     total cpu time spent up to now is     2268.7 secs

     total energy              =    -173.29951084 Ry
     Harris-Foulkes estimate   =    -173.29951085 Ry
     estimated scf accuracy    <          4.0E-09 Ry

     iteration # 12     ecut=    35.00 Ry     beta=0.30
     Davidson diagonalization with overlap
     ethr =  1.08E-12,  avg # of iterations =  4.3

     total cpu time spent up to now is     2348.3 secs

     total energy              =    -173.29951085 Ry
     Harris-Foulkes estimate   =    -173.29951085 Ry
     estimated scf accuracy    <          9.1E-10 Ry

     iteration # 13     ecut=    35.00 Ry     beta=0.30
     Davidson diagonalization with overlap
     ethr =  1.08E-12,  avg # of iterations =  2.2

     total cpu time spent up to now is     2402.2 secs

     End of self-consistent calculation

          k = 0.0000 0.0000 0.0000 ( 10417 PWs)   bands (ev):

    -3.5292  -0.6637  -0.6325  -0.6325  -0.6325  -0.4976  -0.4976  -0.4976
    -0.1753   0.3760   0.3760   0.5464   0.5464   0.5464   1.5646   4.2619
     4.2619   4.2619   4.3104   4.3104   4.3761   4.3761   4.3761   4.6451
     4.6451   4.6451   5.0067   6.4897   6.4897   6.4981   6.4981   6.4981
     6.5153   6.6884   6.6884   6.6884   7.1780   7.1780   7.1780   8.0075
     8.0075   8.0075   8.0369   8.0369   8.0369   8.0635   8.0635

          k =-0.1179 0.1179 0.1179 ( 10357 PWs)   bands (ev):

    -3.4465  -1.4571  -0.8210  -0.8210  -0.7259  -0.2290  -0.2290  -0.1589
    -0.0300  -0.0300   0.3782   0.6510   1.1968   1.1968   1.9147   3.1406
     3.1406   3.4599   4.3375   4.4198   4.4198   4.6165   4.6165   4.7506
     5.4676   5.4676   5.6925   5.7866   5.7866   6.0382   6.1229   6.2176
     6.2176   6.3080   6.4252   6.4252   6.7367   7.1011   7.1011   7.1875
     7.7598   7.7865   7.7865   8.2173   8.2173   8.2811   8.5915

          k =-0.2357 0.2357 0.2357 ( 10345 PWs)   bands (ev):

    -3.2013  -2.1840  -0.9110  -0.9110  -0.8591  -0.5395  -0.5395  -0.1837
     0.4551   0.4551   0.7830   1.7442   2.0355   2.0355   2.1406   2.1406
     2.3192   2.8320   4.2778   4.2778   4.4048   4.5568   4.6441   4.6441
     4.8472   4.8472   4.9068   5.0172   5.5360   5.6131   5.6131   5.8724
     5.8724   6.1829   6.9711   6.9711   6.9768   7.2393   7.2393   7.4327
     7.5409   7.5409   7.6241   8.6243   8.6243   8.7156   9.6209

          k = 0.3536-0.3536-0.3536 ( 10332 PWs)   bands (ev):

    -2.8813  -2.6661  -0.9023  -0.8941  -0.8941  -0.7177  -0.7177  -0.2474
     1.1416   1.1416   1.2408   1.2408   1.2844   1.7107   2.9389   3.0851
     3.0851   3.1393   3.1625   3.1625   3.6573   3.9157   4.7958   4.9185
     4.9185   4.9838   4.9838   5.0303   5.1610   5.2430   5.2430   5.5555
     5.5555   5.9329   6.9377   7.0455   7.0455   7.3086   7.3086   7.5282
     8.7649   8.7649   8.8040   8.8833   8.8924   8.8924   9.3099

          k = 0.0000 0.0000 0.2357 ( 10337 PWs)   bands (ev):

    -3.4190  -1.2044  -1.1177  -1.1177  -0.9979  -0.5000   0.1270   0.1869
     0.1869   0.3234   0.4861   0.6735   0.6735   1.3032   2.1804   3.1061
     3.2313   3.2313   3.5236   4.4586   4.5498   4.5498   4.6138   5.3166
     5.3774   5.3774   5.6515   5.7616   5.7616   5.9297   5.9713   6.0706
     6.1806   6.3140   6.3140   7.0805   7.1748   7.1748   7.1993   7.2253
     7.3788   7.5433   7.5433   7.6892   7.9312   7.9312   8.3205

          k =-0.1179 0.1179 0.3536 ( 10318 PWs)   bands (ev):

    -3.2274  -1.8968  -1.3367  -1.2555  -1.0073  -0.4369  -0.0006   0.0744
     0.3467   0.7495   0.9558   1.3154   1.4169   1.8952   2.0672   2.3010
     2.9209   3.3541   3.4794   3.5917   4.0391   4.5610   4.5755   4.8032
     4.9893   5.1377   5.1422   5.4862   5.6192   5.8577   5.9390   5.9509
     6.0761   6.2420   6.7553   6.7893   7.0131   7.2040   7.2428   7.3058
     7.7468   7.7886   7.8837   8.0257   8.0720   8.2428   8.6586

          k = 0.4714-0.4714-0.2357 ( 10326 PWs)   bands (ev):

    -2.8890  -2.5004  -1.5546  -1.2293  -1.0267  -0.2194  -0.1658   0.1612
     0.3512   1.1024   1.2769   1.4396   1.6552   2.4127   2.4578   2.5242
     2.8208   2.9942   3.6714   3.7287   3.7501   3.9370   3.9822   4.0910
     4.2366   4.5293   5.0285   5.0981   5.3961   5.4646   5.6276   6.2039
     6.3570   6.4450   6.5496   6.6656   6.9535   7.6067   7.9165   7.9348
     7.9941   8.2524   8.3125   8.8175   8.8847   8.9312   9.0799

          k = 0.3536-0.3536-0.1179 ( 10316 PWs)   bands (ev):

    -3.0136  -2.3239  -1.6587  -1.0402  -0.8811  -0.3579  -0.2486   0.3222
     0.3395   0.5922   1.0914   1.6581   1.7531   2.2736   2.3599   2.4910
     2.9071   3.3275   3.5140   3.5965   3.6592   3.7829   4.2082   4.2622
     4.5997   4.9251   4.9267   4.9599   5.6068   5.6134   5.7511   6.1181
     6.2606   6.4141   6.4757   6.6443   7.0011   7.2983   7.4306   7.5960
     8.1751   8.2118   8.7213   8.8279   8.9726   8.9838   9.0312

          k = 0.2357-0.2357 0.0000 ( 10323 PWs)   bands (ev):

    -3.3094  -1.7188  -1.5516  -0.7002  -0.6039  -0.4109  -0.3584  -0.2111
     0.0524   0.7044   0.7477   0.9935   1.3169   1.9736   2.0673   2.4543
     3.2471   3.3023   3.4436   3.5723   4.6131   4.6616   4.7477   4.7940
     4.9243   5.1667   5.5704   5.8130   5.8881   5.9877   6.0031   6.0154
     6.0894   6.0991   6.1460   6.5903   6.6085   6.8140   7.1382   7.1450
     7.5175   8.1736   8.2482   8.3363   8.5015   8.5995   8.6081

          k = 0.0000 0.0000 0.4714 ( 10318 PWs)   bands (ev):

    -3.0905  -1.8032  -1.5390  -1.4480  -1.4480  -0.9453   0.8158   0.8931
     0.8931   0.9346   1.1163   1.2687   1.2687   1.8950   2.1308   2.2752
     2.2752   2.6505   3.6445   3.6910   3.8164   3.8164   4.3439   4.8439
     4.8777   4.8777   5.1464   5.6576   5.7335   5.8638   5.8638   6.1997
     6.3186   6.4413   6.4413   7.0356   7.0689   7.0689   7.3591   7.5145
     7.5195   7.5195   7.7779   8.1650   8.2823   8.2890   8.7033

          k = 0.5893-0.5893-0.1179 ( 10356 PWs)   bands (ev):

    -2.7969  -2.2083  -2.0167  -1.4759  -1.2942  -0.6461   0.5133   0.6093
     1.1872   1.2021   1.4319   1.7455   1.8104   1.9403   2.1422   2.4982
     2.5069   2.5770   2.9660   3.1668   3.3950   3.7829   4.1823   4.4851
     4.5567   4.8962   5.1533   5.2005   5.2632   5.5820   5.6527   6.0980
     6.1372   6.4506   6.8537   7.1318   7.3846   7.4585   7.4617   7.6415
     8.0107   8.1229   8.3138   8.4554   8.6920   8.9664   9.0117

          k = 0.4714-0.4714-0.0000 ( 10375 PWs)   bands (ev):

    -2.6786  -2.3885  -2.1763  -1.3385  -1.1485   0.0802   0.2516   0.3021
     0.4200   0.6718   1.3813   1.5153   2.5931   2.6157   2.6986   2.7005
     2.8737   2.8821   3.0581   3.0812   3.1522   3.3983   3.8796   4.0589
     4.1938   4.5014   5.1008   5.1787   5.2196   5.5064   5.5128   5.9934
     6.0032   6.6065   7.3996   7.5155   7.6963   7.7701   7.9047   8.0098
     8.0433   8.0620   8.1486   8.3724   8.6701   8.8637   9.0731

          k = 0.0000 0.0000-0.7071 ( 10326 PWs)   bands (ev):

    -2.6127  -2.4733  -1.6507  -1.5587  -1.5587  -1.0670   1.3297   1.3648
     1.3648   1.4011   1.4157   1.5968   1.5968   1.7836   2.3111   2.3137
     2.3889   2.3889   2.4993   2.4993   2.9280   3.4060   4.8678   5.2591
     5.3097   5.3097   5.3424   5.3834   5.3834   5.3923   5.5531   5.7514
     5.7988   6.2050   6.2050   6.3794   7.0929   7.0929   7.1882   7.7884
     8.4080   8.5039   8.5039   8.8990   9.3082   9.3173   9.3739

          k = 0.7071-0.4714-0.2357 ( 10320 PWs)   bands (ev):

    -2.9839  -2.0533  -1.9250  -1.5348  -0.7147  -0.4512  -0.2393   0.5971
     0.7672   1.0124   1.0639   1.3089   1.9366   2.0908   2.3325   2.3795
     2.7120   3.2205   3.4544   3.6108   3.6600   3.7199   3.9222   4.4532
     4.5512   4.6575   4.9209   4.9469   5.4748   5.5138   6.1686   6.1839
     6.3341   6.6548   6.8018   7.0285   7.3738   7.3828   7.5045   7.5853
     7.7121   7.8793   7.9706   8.2005   8.6441   8.7595   9.1488

          k = 0.5893-0.3536-0.1179 ( 10332 PWs)   bands (ev):

    -2.6568  -2.4808  -1.9845  -1.6913  -0.5629  -0.4810   0.1167   0.2651
     0.6775   0.9529   1.4574   1.5570   2.1329   2.1625   2.6479   2.6998
     2.8642   2.9802   3.2129   3.3333   3.5737   3.7735   3.8760   3.9969
     4.2215   4.3411   4.6656   4.7717   4.8381   5.2547   6.3522   6.4676
     6.7201   6.7252   6.9702   7.0746   7.4485   7.5041   7.6542   7.8813
     7.9107   8.0173   8.4240   8.5646   8.8228   8.9524   9.0060

          k = 0.0000 0.2357-0.7071 ( 10362 PWs)   bands (ev):

    -2.5006  -2.4168  -2.1650  -1.8429  -0.8248  -0.5306   0.1675   0.4370
     1.4704   1.4711   1.6369   1.6400   1.8112   1.9253   2.0723   2.3334
     2.7614   2.8990   3.0894   3.1596   3.4616   3.7561   4.1297   4.1342
     4.2301   4.3727   4.4728   5.0115   5.1607   5.3344   6.3488   6.4117
     6.6489   6.6805   6.6958   7.0769   7.1330   7.3982   7.8690   8.1632
     8.2001   8.4524   8.4537   8.5687   8.5801   8.8170   8.9009

     the Fermi energy is     7.5760 ev

!    total energy              =    -173.29951085 Ry
     Harris-Foulkes estimate   =    -173.29951085 Ry
     estimated scf accuracy    <          9.3E-11 Ry

     The total energy is the sum of the following terms:

     one-electron contribution =      73.52480376 Ry
     hartree contribution      =       1.53936500 Ry
     xc contribution           =    -110.48977066 Ry
     ewald contribution        =    -137.69263785 Ry
     smearing contrib. (-TS)   =      -0.18127109 Ry

     convergence has been achieved in  13 iterations

     Forces acting on atoms (Ry/au):

     atom    1 type  1   force =   0.17347235E-17 -0.47598994E-02 -0.47598994E-02
     atom    2 type  1   force =  -0.17347235E-17  0.47598994E-02  0.47598994E-02
     atom    3 type  1   force =  -0.47598994E-02  0.43368087E-18 -0.47598994E-02
     atom    4 type  1   force =  -0.51244208E-03 -0.51244208E-03  0.51244208E-03
     atom    5 type  1   force =  -0.47598994E-02  0.47598994E-02  0.00000000E+00
     atom    6 type  1   force =   0.47598994E-02  0.00000000E+00  0.47598994E-02
     atom    7 type  1   force =   0.47598994E-02 -0.47598994E-02  0.86736174E-18
     atom    8 type  1   force =   0.51244208E-03  0.51244208E-03 -0.51244208E-03
     atom    9 type  1   force =  -0.47598994E-02 -0.47598994E-02  0.17347235E-17
     atom   10 type  1   force =  -0.51244208E-03  0.51244208E-03 -0.51244208E-03
     atom   11 type  1   force =  -0.47598994E-02  0.86736174E-18  0.47598994E-02
     atom   12 type  1   force =   0.51244208E-03 -0.51244208E-03 -0.51244208E-03
     atom   13 type  1   force =   0.51244208E-03  0.51244208E-03  0.51244208E-03
     atom   14 type  1   force =  -0.92550527E-03 -0.10511816E-20 -0.10511816E-20
     atom   15 type  1   force =   0.43368087E-18 -0.47598994E-02  0.47598994E-02
     atom   16 type  1   force =   0.00000000E+00 -0.92550527E-03  0.00000000E+00
     atom   17 type  1   force =   0.00000000E+00  0.00000000E+00  0.92550527E-03
     atom   18 type  1   force =   0.47598994E-02  0.47598994E-02 -0.13010426E-17
     atom   19 type  1   force =   0.47598994E-02  0.43368087E-18 -0.47598994E-02
     atom   20 type  1   force =   0.51244208E-03 -0.51244208E-03  0.51244208E-03
     atom   21 type  1   force =  -0.21684043E-17  0.47598994E-02 -0.47598994E-02
     atom   22 type  1   force =  -0.16263033E-18  0.16263033E-18 -0.92550527E-03
     atom   23 type  1   force =   0.00000000E+00  0.92550527E-03  0.00000000E+00
     atom   24 type  1   force =  -0.51244208E-03  0.51244208E-03  0.51244208E-03
     atom   25 type  1   force =   0.92550527E-03  0.14292897E-20  0.14292897E-20
     atom   26 type  1   force =  -0.51244208E-03 -0.51244208E-03 -0.51244208E-03

     Total force =     0.023563     Total SCF correction =     0.000012


     entering subroutine stress ...

          total   stress  (Ry/bohr**3)                   (kbar)     P=   -6.75
  -0.0000459124  -0.0000000000   0.0000000000         -6.75     -0.00      0.00
  -0.0000000000  -0.0000459124   0.0000000000         -0.00     -6.75      0.00
   0.0000000000   0.0000000000  -0.0000459124          0.00      0.00     -6.75


     number of scf cycles    =   2
     number of bfgs steps    =   1

     energy   old            =    -173.2988264415 Ry
     energy   new            =    -173.2995108460 Ry

     CASE: energy  _new < energy  _old


     WARNING: bfgs curvature condition failed, Theta= 0.918
     new trust radius        =       0.0084891138 bohr
     new conv_thr            =            4.8E-12 Ry


ATOMIC_POSITIONS (crystal)
Al       0.000000000   0.000000000   0.332327349
Al       0.000000000   0.000000000   0.667672651
Al       0.000000000   0.332327349   0.000000000
Al      -0.000166137   0.333388712   0.333388712
Al       0.000000000   0.332327349   0.667672651
Al       0.000000000   0.667672651   0.000000000
Al       0.000000000   0.667672651   0.332327349
Al       0.000166137   0.666611288   0.666611288
Al       0.332327349   0.000000000   0.000000000
Al       0.333388712  -0.000166137   0.333388712
Al       0.332327349   0.000000000   0.667672651
Al       0.333388712   0.333388712  -0.000166137
Al       0.333388712   0.333388712   0.333388712
Al       0.333231175   0.333231175   0.666768825
Al       0.332327349   0.667672651   0.000000000
Al       0.333231175   0.666768825   0.333231175
Al       0.333231175   0.666768825   0.666768825
Al       0.667672651  -0.000000000  -0.000000000
Al       0.667672651  -0.000000000   0.332327349
Al       0.666611288   0.000166137   0.666611288
Al       0.667672651   0.332327349  -0.000000000
Al       0.666768825   0.333231175   0.333231175
Al       0.666768825   0.333231175   0.666768825
Al       0.666611288   0.666611288   0.000166137
Al       0.666768825   0.666768825   0.333231175
Al       0.666611288   0.666611288   0.666611288



     Writing output data file Al.scf.in.super.333.vac.relax.save
     NEW-OLD atomic charge density approx. for the potential

     total cpu time spent up to now is     2538.1 secs

     per-process dynamical memory:   136.4 Mb

     Self-consistent Calculation

     iteration #  1     ecut=    35.00 Ry     beta=0.30
     Davidson diagonalization with overlap
     ethr =  1.00E-06,  avg # of iterations =  4.4

     total cpu time spent up to now is     2601.4 secs

     total energy              =    -173.30016203 Ry
     Harris-Foulkes estimate   =    -173.30017161 Ry
     estimated scf accuracy    <       0.00008522 Ry

     iteration #  2     ecut=    35.00 Ry     beta=0.30
     Davidson diagonalization with overlap
     ethr =  1.09E-07,  avg # of iterations =  2.6

     total cpu time spent up to now is     2665.7 secs

     total energy              =    -173.30013742 Ry
     Harris-Foulkes estimate   =    -173.30016622 Ry
     estimated scf accuracy    <       0.00005681 Ry

     iteration #  3     ecut=    35.00 Ry     beta=0.30
     Davidson diagonalization with overlap
     ethr =  7.28E-08,  avg # of iterations =  3.3

     total cpu time spent up to now is     2733.6 secs

     total energy              =    -173.30015308 Ry
     Harris-Foulkes estimate   =    -173.30015720 Ry
     estimated scf accuracy    <       0.00001296 Ry

     iteration #  4     ecut=    35.00 Ry     beta=0.30
     Davidson diagonalization with overlap
     ethr =  1.66E-08,  avg # of iterations =  2.3

     total cpu time spent up to now is     2794.6 secs

     total energy              =    -173.30015454 Ry
     Harris-Foulkes estimate   =    -173.30015462 Ry
     estimated scf accuracy    <       0.00000064 Ry

     iteration #  5     ecut=    35.00 Ry     beta=0.30
     Davidson diagonalization with overlap
     ethr =  8.20E-10,  avg # of iterations =  4.3

     total cpu time spent up to now is     2874.2 secs

     total energy              =    -173.30015455 Ry
     Harris-Foulkes estimate   =    -173.30015462 Ry
     estimated scf accuracy    <       0.00000018 Ry

     iteration #  6     ecut=    35.00 Ry     beta=0.30
     Davidson diagonalization with overlap
     ethr =  2.28E-10,  avg # of iterations =  3.9

     total cpu time spent up to now is     2943.1 secs

     total energy              =    -173.30015461 Ry
     Harris-Foulkes estimate   =    -173.30015462 Ry
     estimated scf accuracy    <       0.00000005 Ry

     iteration #  7     ecut=    35.00 Ry     beta=0.30
     Davidson diagonalization with overlap
     ethr =  5.87E-11,  avg # of iterations =  1.3

     total cpu time spent up to now is     3001.7 secs

     total energy              =    -173.30015460 Ry
     Harris-Foulkes estimate   =    -173.30015461 Ry
     estimated scf accuracy    <       0.00000002 Ry

     iteration #  8     ecut=    35.00 Ry     beta=0.30
     Davidson diagonalization with overlap
     ethr =  3.09E-11,  avg # of iterations =  3.1

     total cpu time spent up to now is     3061.6 secs

     total energy              =    -173.30015461 Ry
     Harris-Foulkes estimate   =    -173.30015461 Ry
     estimated scf accuracy    <          2.0E-10 Ry

     iteration #  9     ecut=    35.00 Ry     beta=0.30
     Davidson diagonalization with overlap
     ethr =  2.54E-13,  avg # of iterations =  5.1

     total cpu time spent up to now is     3129.2 secs

     total energy              =    -173.30015461 Ry
     Harris-Foulkes estimate   =    -173.30015461 Ry
     estimated scf accuracy    <          4.3E-10 Ry

     iteration # 10     ecut=    35.00 Ry     beta=0.30
     Davidson diagonalization with overlap
     ethr =  2.54E-13,  avg # of iterations =  3.3

     total cpu time spent up to now is     3194.6 secs

     total energy              =    -173.30015461 Ry
     Harris-Foulkes estimate   =    -173.30015461 Ry
     estimated scf accuracy    <          1.1E-11 Ry

     iteration # 11     ecut=    35.00 Ry     beta=0.30
     Davidson diagonalization with overlap
     ethr =  1.00E-13,  avg # of iterations =  1.1

     total cpu time spent up to now is     3255.0 secs

     total energy              =    -173.30015461 Ry
     Harris-Foulkes estimate   =    -173.30015461 Ry
     estimated scf accuracy    <          7.7E-12 Ry

     iteration # 12     ecut=    35.00 Ry     beta=0.30
     Davidson diagonalization with overlap
     ethr =  1.00E-13,  avg # of iterations =  1.0

     total cpu time spent up to now is     3297.0 secs

     End of self-consistent calculation

          k = 0.0000 0.0000 0.0000 ( 10417 PWs)   bands (ev):

    -3.5257  -0.6549  -0.6230  -0.6230  -0.6230  -0.5003  -0.5003  -0.5003
    -0.1729   0.3815   0.3815   0.5433   0.5433   0.5433   1.5503   4.2645
     4.2645   4.2645   4.3185   4.3185   4.3722   4.3722   4.3722   4.6469
     4.6469   4.6469   5.0083   6.4970   6.4970   6.4970   6.5046   6.5046
     6.5154   6.6938   6.6938   6.6938   7.1692   7.1692   7.1692   8.0167
     8.0167   8.0167   8.0417   8.0417   8.0417   8.0685   8.0685

          k =-0.1179 0.1179 0.1179 ( 10357 PWs)   bands (ev):

    -3.4430  -1.4521  -0.8166  -0.8166  -0.7217  -0.2234  -0.2234  -0.1542
    -0.0320  -0.0320   0.3761   0.6519   1.1979   1.1979   1.9028   3.1430
     3.1430   3.4593   4.3403   4.4220   4.4220   4.6185   4.6185   4.7495
     5.4706   5.4706   5.6954   5.7911   5.7911   6.0390   6.1228   6.2205
     6.2205   6.3085   6.4301   6.4301   6.7383   7.0975   7.0975   7.1776
     7.7591   7.7882   7.7882   8.2158   8.2158   8.2808   8.5955

          k =-0.2357 0.2357 0.2357 ( 10345 PWs)   bands (ev):

    -3.1975  -2.1799  -0.9067  -0.9067  -0.8536  -0.5371  -0.5371  -0.1859
     0.4562   0.4562   0.7826   1.7491   2.0344   2.0344   2.1455   2.1455
     2.3166   2.8239   4.2801   4.2801   4.4106   4.5600   4.6463   4.6463
     4.8510   4.8510   4.9058   5.0097   5.5360   5.6155   5.6155   5.8749
     5.8749   6.1842   6.9710   6.9710   6.9737   7.2425   7.2425   7.4330
     7.5372   7.5372   7.6159   8.6247   8.6247   8.7159   9.6259

          k = 0.3536-0.3536-0.3536 ( 10332 PWs)   bands (ev):

    -2.8766  -2.6631  -0.8963  -0.8887  -0.8887  -0.7169  -0.7169  -0.2516
     1.1440   1.1440   1.2414   1.2414   1.2866   1.7083   2.9436   3.0871
     3.0871   3.1471   3.1653   3.1653   3.6498   3.9042   4.8012   4.9198
     4.9198   4.9897   4.9897   5.0287   5.1589   5.2444   5.2444   5.5567
     5.5567   5.9341   6.9364   7.0475   7.0475   7.3039   7.3039   7.5184
     8.7671   8.7671   8.8021   8.8820   8.8965   8.8965   9.3099

          k = 0.0000 0.0000 0.2357 ( 10337 PWs)   bands (ev):

    -3.4154  -1.1953  -1.1141  -1.1141  -0.9948  -0.5054   0.1362   0.1911
     0.1911   0.3259   0.4917   0.6695   0.6695   1.2980   2.1735   3.1113
     3.2304   3.2304   3.5270   4.4552   4.5520   4.5520   4.6187   5.3264
     5.3783   5.3783   5.6571   5.7606   5.7606   5.9262   5.9781   6.0754
     6.1797   6.3155   6.3155   7.0735   7.1777   7.1777   7.2025   7.2322
     7.3833   7.5419   7.5419   7.6887   7.9232   7.9232   8.3113

          k =-0.1179 0.1179 0.3536 ( 10318 PWs)   bands (ev):

    -3.2236  -1.8921  -1.3311  -1.2522  -1.0055  -0.4392   0.0046   0.0779
     0.3478   0.7514   0.9553   1.3207   1.4174   1.8894   2.0697   2.3021
     2.9162   3.3559   3.4814   3.5918   4.0437   4.5622   4.5761   4.8052
     4.9934   5.1423   5.1470   5.4834   5.6177   5.8615   5.9342   5.9522
     6.0774   6.2436   6.7558   6.7870   7.0167   7.2061   7.2437   7.3072
     7.7455   7.7851   7.8892   8.0225   8.0683   8.2436   8.6528

          k = 0.4714-0.4714-0.2357 ( 10326 PWs)   bands (ev):

    -2.8847  -2.4967  -1.5500  -1.2260  -1.0260  -0.2163  -0.1611   0.1593
     0.3523   1.1039   1.2780   1.4412   1.6552   2.4150   2.4625   2.5254
     2.8239   2.9910   3.6747   3.7335   3.7521   3.9363   3.9786   4.0946
     4.2343   4.5254   5.0324   5.1015   5.3959   5.4661   5.6251   6.2077
     6.3594   6.4444   6.5445   6.6658   6.9542   7.6090   7.9160   7.9329
     7.9908   8.2510   8.3137   8.8188   8.8892   8.9296   9.0832

          k = 0.3536-0.3536-0.1179 ( 10316 PWs)   bands (ev):

    -3.0096  -2.3198  -1.6551  -1.0366  -0.8794  -0.3542  -0.2458   0.3224
     0.3412   0.5916   1.0915   1.6587   1.7579   2.2752   2.3620   2.4904
     2.9093   3.3212   3.5157   3.6019   3.6616   3.7847   4.2078   4.2637
     4.6016   4.9284   4.9287   4.9547   5.6081   5.6160   5.7522   6.1211
     6.2626   6.4115   6.4685   6.6456   7.0018   7.2968   7.4336   7.5985
     8.1735   8.2107   8.7190   8.8271   8.9703   8.9865   9.0314

          k = 0.2357-0.2357 0.0000 ( 10323 PWs)   bands (ev):

    -3.3057  -1.7125  -1.5499  -0.6959  -0.6002  -0.4014  -0.3555  -0.2173
     0.0522   0.7065   0.7502   0.9946   1.3157   1.9750   2.0692   2.4455
     3.2466   3.3080   3.4423   3.5745   4.6139   4.6626   4.7569   4.7965
     4.9220   5.1711   5.5736   5.8129   5.8918   5.9853   6.0030   6.0179
     6.0916   6.1049   6.1485   6.5848   6.6036   6.8161   7.1331   7.1464
     7.5183   8.1712   8.2529   8.3417   8.5029   8.5977   8.6032

          k = 0.0000 0.0000 0.4714 ( 10318 PWs)   bands (ev):

    -3.0866  -1.7987  -1.5300  -1.4449  -1.4449  -0.9533   0.8216   0.8962
     0.8962   0.9384   1.1255   1.2667   1.2667   1.8874   2.1356   2.2739
     2.2739   2.6524   3.6408   3.7000   3.8175   3.8175   4.3375   4.8415
     4.8804   4.8804   5.1523   5.6645   5.7397   5.8655   5.8655   6.1902
     6.3201   6.4391   6.4391   7.0393   7.0689   7.0689   7.3557   7.5154
     7.5200   7.5200   7.7786   8.1720   8.2839   8.2875   8.6954

          k = 0.5893-0.5893-0.1179 ( 10356 PWs)   bands (ev):

    -2.7926  -2.2035  -2.0129  -1.4728  -1.2922  -0.6484   0.5175   0.6121
     1.1878   1.2046   1.4327   1.7514   1.8124   1.9398   2.1454   2.4993
     2.5063   2.5812   2.9618   3.1672   3.3981   3.7828   4.1804   4.4827
     4.5579   4.8995   5.1577   5.2019   5.2625   5.5862   5.6524   6.0911
     6.1326   6.4540   6.8524   7.1322   7.3881   7.4602   7.4616   7.6426
     8.0120   8.1259   8.3161   8.4487   8.6949   8.9603   9.0080

          k = 0.4714-0.4714-0.0000 ( 10375 PWs)   bands (ev):

    -2.6742  -2.3824  -2.1750  -1.3353  -1.1476   0.0809   0.2611   0.3050
     0.4148   0.6719   1.3809   1.5186   2.5936   2.6209   2.7011   2.7023
     2.8816   2.8862   3.0576   3.0745   3.1519   3.4034   3.8829   4.0559
     4.1924   4.4942   5.0979   5.1826   5.2212   5.5128   5.5186   5.9872
     5.9945   6.6044   7.4037   7.5171   7.6942   7.7768   7.9094   8.0113
     8.0469   8.0588   8.1481   8.3751   8.6729   8.8674   9.0661

          k = 0.0000 0.0000-0.7071 ( 10326 PWs)   bands (ev):

    -2.6066  -2.4713  -1.6417  -1.5556  -1.5556  -1.0750   1.3456   1.3682
     1.3682   1.3958   1.4183   1.5941   1.5941   1.7879   2.3177   2.3255
     2.3874   2.3874   2.5008   2.5008   2.9167   3.3987   4.8645   5.2585
     5.3154   5.3154   5.3553   5.3839   5.3839   5.3945   5.5599   5.7486
     5.7913   6.1999   6.1999   6.3795   7.0941   7.0941   7.1871   7.7777
     8.4148   8.5033   8.5033   8.9032   9.3119   9.3276   9.3741

          k = 0.7071-0.4714-0.2357 ( 10320 PWs)   bands (ev):

    -2.9799  -2.0470  -1.9220  -1.5339  -0.7086  -0.4537  -0.2381   0.6038
     0.7694   1.0107   1.0632   1.3115   1.9409   2.0938   2.3317   2.3784
     2.7116   3.2258   3.4510   3.6099   3.6600   3.7242   3.9226   4.4595
     4.5556   4.6603   4.9165   4.9469   5.4712   5.5068   6.1713   6.1851
     6.3388   6.6549   6.8003   7.0340   7.3734   7.3842   7.5067   7.5827
     7.7097   7.8813   7.9706   8.1992   8.6462   8.7597   9.1450

          k = 0.5893-0.3536-0.1179 ( 10332 PWs)   bands (ev):

    -2.6521  -2.4766  -1.9795  -1.6916  -0.5599  -0.4775   0.1181   0.2623
     0.6825   0.9546   1.4588   1.5571   2.1350   2.1648   2.6505   2.7033
     2.8660   2.9772   3.2162   3.3392   3.5739   3.7712   3.8768   4.0009
     4.2221   4.3428   4.6665   4.7698   4.8336   5.2460   6.3551   6.4721
     6.7230   6.7268   6.9689   7.0725   7.4453   7.5020   7.6567   7.8843
     7.9144   8.0181   8.4275   8.5665   8.8186   8.9545   9.0093

          k = 0.0000 0.2357-0.7071 ( 10362 PWs)   bands (ev):

    -2.4945  -2.4138  -2.1588  -1.8444  -0.8189  -0.5344   0.1739   0.4334
     1.4743   1.4804   1.6375   1.6424   1.8134   1.9272   2.0677   2.3308
     2.7684   2.9009   3.0920   3.1659   3.4534   3.7531   4.1320   4.1410
     4.2354   4.3709   4.4696   5.0111   5.1524   5.3325   6.3472   6.4142
     6.6515   6.6893   6.6933   7.0693   7.1354   7.4008   7.8678   8.1655
     8.2093   8.4473   8.4570   8.5702   8.5808   8.8198   8.8939

     the Fermi energy is     7.5762 ev

!    total energy              =    -173.30015461 Ry
     Harris-Foulkes estimate   =    -173.30015461 Ry
     estimated scf accuracy    <          1.3E-12 Ry

     The total energy is the sum of the following terms:

     one-electron contribution =      73.60924871 Ry
     hartree contribution      =       1.49842795 Ry
     xc contribution           =    -110.48607942 Ry
     ewald contribution        =    -137.74047522 Ry
     smearing contrib. (-TS)   =      -0.18127663 Ry

     convergence has been achieved in  12 iterations

     Forces acting on atoms (Ry/au):

     atom    1 type  1   force =  -0.86736174E-18 -0.39997268E-02 -0.39997268E-02
     atom    2 type  1   force =   0.86736174E-18  0.39997268E-02  0.39997268E-02
     atom    3 type  1   force =  -0.39997268E-02  0.00000000E+00 -0.39997268E-02
     atom    4 type  1   force =  -0.40639251E-03 -0.40639251E-03  0.40639251E-03
     atom    5 type  1   force =  -0.39997268E-02  0.39997268E-02 -0.43368087E-18
     atom    6 type  1   force =   0.39997268E-02  0.43368087E-18  0.39997268E-02
     atom    7 type  1   force =   0.39997268E-02 -0.39997268E-02 -0.43368087E-18
     atom    8 type  1   force =   0.40639251E-03  0.40639251E-03 -0.40639251E-03
     atom    9 type  1   force =  -0.39997268E-02 -0.39997268E-02  0.13010426E-17
     atom   10 type  1   force =  -0.40639251E-03  0.40639251E-03 -0.40639251E-03
     atom   11 type  1   force =  -0.39997268E-02 -0.43368087E-18  0.39997268E-02
     atom   12 type  1   force =   0.40639251E-03 -0.40639251E-03 -0.40639251E-03
     atom   13 type  1   force =   0.40639251E-03  0.40639251E-03  0.40639251E-03
     atom   14 type  1   force =  -0.69357235E-03  0.16072867E-21  0.16072867E-21
     atom   15 type  1   force =   0.43368087E-18 -0.39997268E-02  0.39997268E-02
     atom   16 type  1   force =  -0.54210109E-19 -0.69357235E-03  0.54210109E-19
     atom   17 type  1   force =   0.00000000E+00  0.00000000E+00  0.69357235E-03
     atom   18 type  1   force =   0.39997268E-02  0.39997268E-02 -0.43368087E-18
     atom   19 type  1   force =   0.39997268E-02 -0.86736174E-18 -0.39997268E-02
     atom   20 type  1   force =   0.40639251E-03 -0.40639251E-03  0.40639251E-03
     atom   21 type  1   force =   0.00000000E+00  0.39997268E-02 -0.39997268E-02
     atom   22 type  1   force =   0.00000000E+00  0.00000000E+00 -0.69357235E-03
     atom   23 type  1   force =   0.00000000E+00  0.69357235E-03  0.00000000E+00
     atom   24 type  1   force =  -0.40639251E-03  0.40639251E-03  0.40639251E-03
     atom   25 type  1   force =   0.69357235E-03 -0.13180542E-20 -0.13180542E-20
     atom   26 type  1   force =  -0.40639251E-03 -0.40639251E-03 -0.40639251E-03

     Total force =     0.019769     Total SCF correction =     0.000001


     entering subroutine stress ...

          total   stress  (Ry/bohr**3)                   (kbar)     P=   -6.97
  -0.0000473496  -0.0000000000  -0.0000000000         -6.97     -0.00     -0.00
  -0.0000000000  -0.0000473496   0.0000000000         -0.00     -6.97      0.00
   0.0000000000   0.0000000000  -0.0000473496          0.00      0.00     -6.97


     number of scf cycles    =   3
     number of bfgs steps    =   2

     energy   old            =    -173.2995108460 Ry
     energy   new            =    -173.3001546085 Ry

     CASE: energy  _new < energy  _old

     new trust radius        =       0.0127336707 bohr
     new conv_thr            =            4.0E-12 Ry


ATOMIC_POSITIONS (crystal)
Al       0.000000000   0.000000000   0.331536932
Al       0.000000000   0.000000000   0.668463068
Al       0.000000000   0.331536932   0.000000000
Al      -0.000288670   0.333429557   0.333429557
Al       0.000000000   0.331536932   0.668463068
Al       0.000000000   0.668463068   0.000000000
Al       0.000000000   0.668463068   0.331536932
Al       0.000288670   0.666570443   0.666570443
Al       0.331536932   0.000000000   0.000000000
Al       0.333429557  -0.000288670   0.333429557
Al       0.331536932   0.000000000   0.668463068
Al       0.333429557   0.333429557  -0.000288670
Al       0.333429557   0.333429557   0.333429557
Al       0.333160234   0.333160234   0.666839766
Al       0.331536932   0.668463068   0.000000000
Al       0.333160234   0.666839766   0.333160234
Al       0.333160234   0.666839766   0.666839766
Al       0.668463068  -0.000000000  -0.000000000
Al       0.668463068  -0.000000000   0.331536932
Al       0.666570443   0.000288670   0.666570443
Al       0.668463068   0.331536932  -0.000000000
Al       0.666839766   0.333160234   0.333160234
Al       0.666839766   0.333160234   0.666839766
Al       0.666570443   0.666570443   0.000288670
Al       0.666839766   0.666839766   0.333160234
Al       0.666570443   0.666570443   0.666570443



     Writing output data file Al.scf.in.super.333.vac.relax.save
     NEW-OLD atomic charge density approx. for the potential

     total cpu time spent up to now is     3445.8 secs

     per-process dynamical memory:   136.4 Mb

     Self-consistent Calculation

     iteration #  1     ecut=    35.00 Ry     beta=0.30
     Davidson diagonalization with overlap
     ethr =  1.00E-06,  avg # of iterations =  5.0

     total cpu time spent up to now is     3516.8 secs

     total energy              =    -173.30093050 Ry
     Harris-Foulkes estimate   =    -173.30095540 Ry
     estimated scf accuracy    <       0.00022131 Ry

     iteration #  2     ecut=    35.00 Ry     beta=0.30
     Davidson diagonalization with overlap
     ethr =  2.84E-07,  avg # of iterations =  1.4

     total cpu time spent up to now is     3576.0 secs

     total energy              =    -173.30087700 Ry
     Harris-Foulkes estimate   =    -173.30093464 Ry
     estimated scf accuracy    <       0.00013265 Ry

     iteration #  3     ecut=    35.00 Ry     beta=0.30
     Davidson diagonalization with overlap
     ethr =  1.70E-07,  avg # of iterations =  3.0

     total cpu time spent up to now is     3636.2 secs

     total energy              =    -173.30090982 Ry
     Harris-Foulkes estimate   =    -173.30091088 Ry
     estimated scf accuracy    <       0.00000913 Ry

     iteration #  4     ecut=    35.00 Ry     beta=0.30
     Davidson diagonalization with overlap
     ethr =  1.17E-08,  avg # of iterations =  2.8

     total cpu time spent up to now is     3695.4 secs

     total energy              =    -173.30090993 Ry
     Harris-Foulkes estimate   =    -173.30091028 Ry
     estimated scf accuracy    <       0.00000534 Ry

     iteration #  5     ecut=    35.00 Ry     beta=0.30
     Davidson diagonalization with overlap
     ethr =  6.84E-09,  avg # of iterations =  1.0

     total cpu time spent up to now is     3743.6 secs

     total energy              =    -173.30090849 Ry
     Harris-Foulkes estimate   =    -173.30091000 Ry
     estimated scf accuracy    <       0.00000374 Ry

     iteration #  6     ecut=    35.00 Ry     beta=0.30
     Davidson diagonalization with overlap
     ethr =  4.79E-09,  avg # of iterations =  3.0

     total cpu time spent up to now is     3800.2 secs

     total energy              =    -173.30090940 Ry
     Harris-Foulkes estimate   =    -173.30090942 Ry
     estimated scf accuracy    <       0.00000028 Ry

     iteration #  7     ecut=    35.00 Ry     beta=0.30
     Davidson diagonalization with overlap
     ethr =  3.54E-10,  avg # of iterations =  2.8

     total cpu time spent up to now is     3856.7 secs

     total energy              =    -173.30090941 Ry
     Harris-Foulkes estimate   =    -173.30090941 Ry
     estimated scf accuracy    <       0.00000021 Ry

     iteration #  8     ecut=    35.00 Ry     beta=0.30
     Davidson diagonalization with overlap
     ethr =  2.69E-10,  avg # of iterations =  1.0

     total cpu time spent up to now is     3909.6 secs

     total energy              =    -173.30090938 Ry
     Harris-Foulkes estimate   =    -173.30090941 Ry
     estimated scf accuracy    <       0.00000020 Ry

     iteration #  9     ecut=    35.00 Ry     beta=0.30
     Davidson diagonalization with overlap
     ethr =  2.59E-10,  avg # of iterations =  1.0

     total cpu time spent up to now is     3969.7 secs

     total energy              =    -173.30090934 Ry
     Harris-Foulkes estimate   =    -173.30090939 Ry
     estimated scf accuracy    <       0.00000010 Ry

     iteration # 10     ecut=    35.00 Ry     beta=0.30
     Davidson diagonalization with overlap
     ethr =  1.32E-10,  avg # of iterations =  3.4

     total cpu time spent up to now is     4037.0 secs

     total energy              =    -173.30090937 Ry
     Harris-Foulkes estimate   =    -173.30090938 Ry
     estimated scf accuracy    <       0.00000002 Ry

     iteration # 11     ecut=    35.00 Ry     beta=0.30
     Davidson diagonalization with overlap
     ethr =  2.17E-11,  avg # of iterations =  1.7

     total cpu time spent up to now is     4092.3 secs

     total energy              =    -173.30090937 Ry
     Harris-Foulkes estimate   =    -173.30090937 Ry
     estimated scf accuracy    <          8.0E-09 Ry

     iteration # 12     ecut=    35.00 Ry     beta=0.30
     Davidson diagonalization with overlap
     ethr =  1.02E-11,  avg # of iterations =  3.7

     total cpu time spent up to now is     4172.3 secs

     total energy              =    -173.30090937 Ry
     Harris-Foulkes estimate   =    -173.30090937 Ry
     estimated scf accuracy    <          6.4E-09 Ry

     iteration # 13     ecut=    35.00 Ry     beta=0.30
     Davidson diagonalization with overlap
     ethr =  8.18E-12,  avg # of iterations =  1.0

     total cpu time spent up to now is     4236.8 secs

     total energy              =    -173.30090937 Ry
     Harris-Foulkes estimate   =    -173.30090937 Ry
     estimated scf accuracy    <          2.4E-09 Ry

     iteration # 14     ecut=    35.00 Ry     beta=0.30
     Davidson diagonalization with overlap
     ethr =  3.07E-12,  avg # of iterations =  3.6

     total cpu time spent up to now is     4318.5 secs

     total energy              =    -173.30090937 Ry
     Harris-Foulkes estimate   =    -173.30090937 Ry
     estimated scf accuracy    <          3.9E-10 Ry

     iteration # 15     ecut=    35.00 Ry     beta=0.30
     Davidson diagonalization with overlap
     ethr =  4.95E-13,  avg # of iterations =  2.8

     total cpu time spent up to now is     4393.7 secs

     total energy              =    -173.30090937 Ry
     Harris-Foulkes estimate   =    -173.30090937 Ry
     estimated scf accuracy    <          2.4E-11 Ry

     iteration # 16     ecut=    35.00 Ry     beta=0.30
     Davidson diagonalization with overlap
     ethr =  1.00E-13,  avg # of iterations =  1.4

     total cpu time spent up to now is     4453.9 secs

     total energy              =    -173.30090937 Ry
     Harris-Foulkes estimate   =    -173.30090937 Ry
     estimated scf accuracy    <          1.1E-11 Ry

     iteration # 17     ecut=    35.00 Ry     beta=0.30
     Davidson diagonalization with overlap
     ethr =  1.00E-13,  avg # of iterations =  2.3

     total cpu time spent up to now is     4531.6 secs

     total energy              =    -173.30090937 Ry
     Harris-Foulkes estimate   =    -173.30090937 Ry
     estimated scf accuracy    <          3.0E-11 Ry

     iteration # 18     ecut=    35.00 Ry     beta=0.30
     Davidson diagonalization with overlap
     ethr =  1.00E-13,  avg # of iterations =  1.0

     total cpu time spent up to now is     4606.5 secs

     total energy              =    -173.30090937 Ry
     Harris-Foulkes estimate   =    -173.30090937 Ry
     estimated scf accuracy    <          1.7E-11 Ry

     iteration # 19     ecut=    35.00 Ry     beta=0.30
     Davidson diagonalization with overlap
     ethr =  1.00E-13,  avg # of iterations =  1.0

     total cpu time spent up to now is     4671.4 secs

     total energy              =    -173.30090937 Ry
     Harris-Foulkes estimate   =    -173.30090937 Ry
     estimated scf accuracy    <          1.0E-11 Ry

     iteration # 20     ecut=    35.00 Ry     beta=0.30
     Davidson diagonalization with overlap
     ethr =  1.00E-13,  avg # of iterations =  1.0

     total cpu time spent up to now is     4727.4 secs

     End of self-consistent calculation

          k = 0.0000 0.0000 0.0000 ( 10417 PWs)   bands (ev):

    -3.5205  -0.6420  -0.6089  -0.6089  -0.6089  -0.5045  -0.5045  -0.5045
    -0.1700   0.3897   0.3897   0.5387   0.5387   0.5387   1.5289   4.2686
     4.2686   4.2686   4.3308   4.3308   4.3663   4.3663   4.3663   4.6494
     4.6494   4.6494   5.0101   6.4956   6.4956   6.4956   6.5153   6.5267
     6.5267   6.7018   6.7018   6.7018   7.1556   7.1556   7.1556   8.0305
     8.0305   8.0305   8.0489   8.0489   8.0489   8.0761   8.0761

          k =-0.1179 0.1179 0.1179 ( 10357 PWs)   bands (ev):

    -3.4378  -1.4448  -0.8103  -0.8103  -0.7157  -0.2150  -0.2150  -0.1477
    -0.0349  -0.0349   0.3729   0.6532   1.1996   1.1996   1.8850   3.1465
     3.1465   3.4581   4.3445   4.4252   4.4252   4.6214   4.6214   4.7477
     5.4749   5.4749   5.6996   5.7977   5.7977   6.0400   6.1228   6.2251
     6.2251   6.3089   6.4373   6.4373   6.7407   7.0920   7.0920   7.1625
     7.7579   7.7908   7.7908   8.2137   8.2137   8.2801   8.6015

          k =-0.2357 0.2357 0.2357 ( 10345 PWs)   bands (ev):

    -3.1920  -2.1741  -0.9004  -0.9004  -0.8457  -0.5337  -0.5337  -0.1894
     0.4579   0.4579   0.7817   1.7561   2.0326   2.0326   2.1529   2.1529
     2.3124   2.8118   4.2835   4.2835   4.4191   4.5650   4.6496   4.6496
     4.8566   4.8566   4.9041   4.9984   5.5361   5.6192   5.6192   5.8784
     5.8784   6.1856   6.9688   6.9710   6.9710   7.2473   7.2473   7.4331
     7.5319   7.5319   7.6038   8.6254   8.6254   8.7163   9.6331

          k = 0.3536-0.3536-0.3536 ( 10332 PWs)   bands (ev):

    -2.8697  -2.6589  -0.8874  -0.8806  -0.8806  -0.7159  -0.7159  -0.2580
     1.1475   1.1475   1.2426   1.2426   1.2895   1.7045   2.9504   3.0900
     3.0900   3.1586   3.1694   3.1694   3.6385   3.8870   4.8095   4.9217
     4.9217   4.9986   4.9986   5.0262   5.1560   5.2467   5.2467   5.5584
     5.5584   5.9355   6.9341   7.0503   7.0503   7.2971   7.2971   7.5040
     8.7704   8.7704   8.7993   8.8797   8.9027   8.9027   9.3098

          k = 0.0000 0.0000 0.2357 ( 10337 PWs)   bands (ev):

    -3.4101  -1.1819  -1.1090  -1.1090  -0.9905  -0.5136   0.1497   0.1972
     0.1972   0.3294   0.4999   0.6636   0.6636   1.2898   2.1634   3.1191
     3.2289   3.2289   3.5319   4.4500   4.5553   4.5553   4.6261   5.3406
     5.3797   5.3797   5.6657   5.7591   5.7591   5.9202   5.9883   6.0826
     6.1783   6.3178   6.3178   7.0629   7.1817   7.1817   7.2074   7.2428
     7.3901   7.5399   7.5399   7.6878   7.9114   7.9114   8.2974

          k =-0.1179 0.1179 0.3536 ( 10318 PWs)   bands (ev):

    -3.2181  -1.8853  -1.3229  -1.2473  -1.0032  -0.4428   0.0123   0.0829
     0.3492   0.7543   0.9546   1.3285   1.4182   1.8804   2.0735   2.3037
     2.9093   3.3588   3.4842   3.5920   4.0505   4.5640   4.5769   4.8080
     4.9989   5.1491   5.1545   5.4791   5.6153   5.8671   5.9270   5.9541
     6.0795   6.2460   6.7564   6.7836   7.0221   7.2092   7.2445   7.3092
     7.7435   7.7797   7.8972   8.0179   8.0629   8.2447   8.6441

          k = 0.4714-0.4714-0.2357 ( 10326 PWs)   bands (ev):

    -2.8785  -2.4913  -1.5434  -1.2211  -1.0252  -0.2119  -0.1543   0.1563
     0.3540   1.1061   1.2795   1.4438   1.6550   2.4185   2.4693   2.5272
     2.8284   2.9860   3.6795   3.7401   3.7552   3.9351   3.9733   4.1004
     4.2304   4.5198   5.0382   5.1067   5.3957   5.4681   5.6212   6.2132
     6.3629   6.4436   6.5369   6.6662   6.9550   7.6124   7.9152   7.9301
     7.9858   8.2488   8.3155   8.8208   8.8958   8.9271   9.0883

          k = 0.3536-0.3536-0.1179 ( 10316 PWs)   bands (ev):

    -3.0038  -2.3137  -1.6499  -1.0313  -0.8770  -0.3489  -0.2419   0.3230
     0.3436   0.5905   1.0917   1.6596   1.7650   2.2775   2.3649   2.4894
     2.9125   3.3119   3.5184   3.6098   3.6648   3.7875   4.2076   4.2659
     4.6041   4.9301   4.9339   4.9477   5.6099   5.6197   5.7539   6.1258
     6.2653   6.4075   6.4578   6.6476   7.0026   7.2947   7.4382   7.6020
     8.1708   8.2089   8.7153   8.8260   8.9667   8.9905   9.0318

          k = 0.2357-0.2357 0.0000 ( 10323 PWs)   bands (ev):

    -3.3003  -1.7031  -1.5474  -0.6896  -0.5950  -0.3873  -0.3513  -0.2266
     0.0518   0.7092   0.7539   0.9969   1.3135   1.9771   2.0721   2.4324
     3.2458   3.3165   3.4402   3.5777   4.6150   4.6639   4.7707   4.8001
     4.9187   5.1776   5.5780   5.8126   5.8973   5.9806   6.0026   6.0213
     6.0949   6.1137   6.1532   6.5763   6.5962   6.8192   7.1258   7.1481
     7.5194   8.1675   8.2600   8.3495   8.5048   8.5951   8.5955

          k = 0.0000 0.0000 0.4714 ( 10318 PWs)   bands (ev):

    -3.0810  -1.7921  -1.5165  -1.4403  -1.4403  -0.9655   0.8300   0.9006
     0.9006   0.9438   1.1391   1.2640   1.2640   1.8755   2.1432   2.2718
     2.2718   2.6550   3.6353   3.7133   3.8192   3.8192   4.3278   4.8377
     4.8843   4.8843   5.1611   5.6747   5.7490   5.8681   5.8681   6.1759
     6.3224   6.4357   6.4357   7.0449   7.0689   7.0689   7.3504   7.5169
     7.5208   7.5208   7.7796   8.1826   8.2765   8.2950   8.6836

          k = 0.5893-0.5893-0.1179 ( 10356 PWs)   bands (ev):

    -2.7863  -2.1964  -2.0076  -1.4683  -1.2894  -0.6520   0.5233   0.6161
     1.1889   1.2081   1.4336   1.7600   1.8154   1.9389   2.1502   2.5012
     2.5053   2.5874   2.9554   3.1679   3.4027   3.7825   4.1776   4.4792
     4.5596   4.9042   5.1643   5.2030   5.2623   5.5925   5.6524   6.0807
     6.1256   6.4591   6.8506   7.1328   7.3933   7.4613   7.4629   7.6440
     8.0141   8.1305   8.3190   8.4389   8.6993   8.9510   9.0026

          k = 0.4714-0.4714-0.0000 ( 10375 PWs)   bands (ev):

    -2.6678  -2.3734  -2.1732  -1.3306  -1.1464   0.0818   0.2754   0.3092
     0.4071   0.6719   1.3802   1.5235   2.5942   2.6285   2.7045   2.7048
     2.8923   2.8938   3.0569   3.0645   3.1514   3.4107   3.8879   4.0514
     4.1904   4.4833   5.0934   5.1884   5.2236   5.5226   5.5272   5.9777
     5.9815   6.6012   7.4097   7.5194   7.6911   7.7868   7.9162   8.0121
     8.0535   8.0540   8.1474   8.3790   8.6770   8.8725   9.0554

          k = 0.0000 0.0000-0.7071 ( 10326 PWs)   bands (ev):

    -2.5977  -2.4684  -1.6282  -1.5512  -1.5512  -1.0872   1.3695   1.3733
     1.3733   1.3880   1.4220   1.5899   1.5899   1.7940   2.3275   2.3431
     2.3854   2.3854   2.5033   2.5033   2.8995   3.3874   4.8596   5.2575
     5.3240   5.3240   5.3747   5.3846   5.3846   5.3967   5.5702   5.7443
     5.7808   6.1920   6.1920   6.3796   7.0961   7.0961   7.1854   7.7617
     8.4254   8.5022   8.5022   8.9092   9.3176   9.3432   9.3743

          k = 0.7071-0.4714-0.2357 ( 10320 PWs)   bands (ev):

    -2.9740  -2.0378  -1.9178  -1.5327  -0.6996  -0.4577  -0.2362   0.6136
     0.7724   1.0081   1.0621   1.3155   1.9476   2.0981   2.3303   2.3768
     2.7111   3.2336   3.4459   3.6083   3.6598   3.7305   3.9235   4.4689
     4.5622   4.6644   4.9099   4.9467   5.4661   5.4963   6.1752   6.1869
     6.3458   6.6550   6.7981   7.0423   7.3723   7.3861   7.5098   7.5787
     7.7062   7.8843   7.9705   8.1973   8.6496   8.7599   9.1393

          k = 0.5893-0.3536-0.1179 ( 10332 PWs)   bands (ev):

    -2.6452  -2.4706  -1.9723  -1.6922  -0.5556  -0.4724   0.1200   0.2583
     0.6900   0.9569   1.4610   1.5572   2.1378   2.1683   2.6544   2.7085
     2.8687   2.9725   3.2211   3.3479   3.5740   3.7674   3.8782   4.0069
     4.2227   4.3452   4.6680   4.7671   4.8268   5.2328   6.3594   6.4787
     6.7271   6.7292   6.9668   7.0693   7.4405   7.4990   7.6605   7.8889
     7.9197   8.0191   8.4327   8.5694   8.8122   8.9575   9.0142

          k = 0.0000 0.2357-0.7071 ( 10362 PWs)   bands (ev):

    -2.4855  -2.4096  -2.1497  -1.8470  -0.8100  -0.5403   0.1832   0.4278
     1.4801   1.4941   1.6383   1.6454   1.8168   1.9306   2.0607   2.3268
     2.7790   2.9037   3.0959   3.1755   3.4408   3.7483   4.1355   4.1511
     4.2426   4.3683   4.4650   5.0105   5.1399   5.3298   6.3447   6.4181
     6.6554   6.6895   6.7026   7.0576   7.1390   7.4047   7.8660   8.1688
     8.2232   8.4393   8.4620   8.5723   8.5817   8.8242   8.8834

     the Fermi energy is     7.5765 ev

!    total energy              =    -173.30090937 Ry
     Harris-Foulkes estimate   =    -173.30090937 Ry
     estimated scf accuracy    <          3.6E-12 Ry

     The total energy is the sum of the following terms:

     one-electron contribution =      73.73198219 Ry
[...]
Al       0.666973997   0.333026003   0.666973997
Al       0.666480358   0.666480358   0.000558927
Al       0.666973997   0.666973997   0.333026003
Al       0.666480358   0.666480358   0.666480358



     Writing output data file Al.scf.in.super.333.vac.relax.save
     NEW-OLD atomic charge density approx. for the potential

     total cpu time spent up to now is     8057.7 secs

     per-process dynamical memory:   136.4 Mb

     Self-consistent Calculation

     iteration #  1     ecut=    35.00 Ry     beta=0.30
     Davidson diagonalization with overlap
     ethr =  1.00E-06,  avg # of iterations =  1.4

     Threshold (ethr) on eigenvalues was too large:
     Diagonalizing with lowered threshold

     Davidson diagonalization with overlap
     ethr =  3.93E-12,  avg # of iterations =  9.3

     total cpu time spent up to now is     8175.8 secs

     total energy              =    -173.30171745 Ry
     Harris-Foulkes estimate   =    -173.30171746 Ry
     estimated scf accuracy    <       0.00000009 Ry

     iteration #  2     ecut=    35.00 Ry     beta=0.30
     Davidson diagonalization with overlap
     ethr =  1.10E-10,  avg # of iterations =  1.0

     total cpu time spent up to now is     8221.3 secs

     total energy              =    -173.30171743 Ry
     Harris-Foulkes estimate   =    -173.30171745 Ry
     estimated scf accuracy    <       0.00000005 Ry

     iteration #  3     ecut=    35.00 Ry     beta=0.30
     Davidson diagonalization with overlap
     ethr =  6.29E-11,  avg # of iterations =  2.7

     total cpu time spent up to now is     8273.4 secs

     total energy              =    -173.30171744 Ry
     Harris-Foulkes estimate   =    -173.30171744 Ry
     estimated scf accuracy    <          5.7E-10 Ry

     iteration #  4     ecut=    35.00 Ry     beta=0.30
     Davidson diagonalization with overlap
     ethr =  7.28E-13,  avg # of iterations =  5.8

     total cpu time spent up to now is     8334.5 secs

     total energy              =    -173.30171744 Ry
     Harris-Foulkes estimate   =    -173.30171744 Ry
     estimated scf accuracy    <          5.5E-10 Ry

     iteration #  5     ecut=    35.00 Ry     beta=0.30
     Davidson diagonalization with overlap
     ethr =  6.99E-13,  avg # of iterations =  1.0

     total cpu time spent up to now is     8379.1 secs

     total energy              =    -173.30171744 Ry
     Harris-Foulkes estimate   =    -173.30171744 Ry
     estimated scf accuracy    <          4.9E-10 Ry

     iteration #  6     ecut=    35.00 Ry     beta=0.30
     Davidson diagonalization with overlap
     ethr =  6.25E-13,  avg # of iterations =  3.8

     total cpu time spent up to now is     8432.6 secs

     total energy              =    -173.30171744 Ry
     Harris-Foulkes estimate   =    -173.30171744 Ry
     estimated scf accuracy    <          7.8E-10 Ry

     iteration #  7     ecut=    35.00 Ry     beta=0.30
     Davidson diagonalization with overlap
     ethr =  6.25E-13,  avg # of iterations =  1.0

     total cpu time spent up to now is     8471.4 secs

     total energy              =    -173.30171744 Ry
     Harris-Foulkes estimate   =    -173.30171744 Ry
     estimated scf accuracy    <          7.5E-10 Ry

     iteration #  8     ecut=    35.00 Ry     beta=0.30
     Davidson diagonalization with overlap
     ethr =  6.25E-13,  avg # of iterations =  1.9

     total cpu time spent up to now is     8513.0 secs

     total energy              =    -173.30171744 Ry
     Harris-Foulkes estimate   =    -173.30171744 Ry
     estimated scf accuracy    <          1.5E-10 Ry

     iteration #  9     ecut=    35.00 Ry     beta=0.30
     Davidson diagonalization with overlap
     ethr =  1.90E-13,  avg # of iterations =  3.3

     total cpu time spent up to now is     8564.5 secs

     total energy              =    -173.30171744 Ry
     Harris-Foulkes estimate   =    -173.30171744 Ry
     estimated scf accuracy    <          1.9E-12 Ry

     iteration # 10     ecut=    35.00 Ry     beta=0.30
     Davidson diagonalization with overlap
     ethr =  1.00E-13,  avg # of iterations =  1.0

     total cpu time spent up to now is     8602.6 secs

     total energy              =    -173.30171744 Ry
     Harris-Foulkes estimate   =    -173.30171744 Ry
     estimated scf accuracy    <          1.9E-12 Ry

     iteration # 11     ecut=    35.00 Ry     beta=0.30
     Davidson diagonalization with overlap
     ethr =  1.00E-13,  avg # of iterations =  1.0

     total cpu time spent up to now is     8641.0 secs

     total energy              =    -173.30171744 Ry
     Harris-Foulkes estimate   =    -173.30171744 Ry
     estimated scf accuracy    <          1.7E-12 Ry

     iteration # 12     ecut=    35.00 Ry     beta=0.30
     Davidson diagonalization with overlap
     ethr =  1.00E-13,  avg # of iterations =  1.0

     total cpu time spent up to now is     8682.0 secs

     End of self-consistent calculation

          k = 0.0000 0.0000 0.0000 ( 10417 PWs)   bands (ev):

    -3.5082  -0.6103  -0.5728  -0.5728  -0.5728  -0.5160  -0.5160  -0.5160
    -0.1670   0.4105   0.4105   0.5272   0.5272   0.5272   1.4734   4.2801
     4.2801   4.2801   4.3502   4.3502   4.3502   4.3638   4.3638   4.6541
     4.6541   4.6541   5.0119   6.4940   6.4940   6.4940   6.5122   6.5833
     6.5833   6.7216   6.7216   6.7216   7.1185   7.1185   7.1185   8.0656
     8.0656   8.0656   8.0678   8.0678   8.0678   8.0960   8.0960

          k =-0.1179 0.1179 0.1179 ( 10357 PWs)   bands (ev):

    -3.4252  -1.4274  -0.7954  -0.7954  -0.7015  -0.1934  -0.1934  -0.1338
    -0.0419  -0.0419   0.3643   0.6557   1.2039   1.2039   1.8392   3.1560
     3.1560   3.4536   4.3563   4.4336   4.4336   4.6279   4.6279   4.7411
     5.4852   5.4852   5.7083   5.8141   5.8141   6.0405   6.1243   6.2386
     6.2386   6.3077   6.4549   6.4549   6.7465   7.0777   7.0777   7.1224
     7.7544   7.7970   7.7970   8.2087   8.2087   8.2770   8.6178

          k =-0.2357 0.2357 0.2357 ( 10345 PWs)   bands (ev):

    -3.1786  -2.1600  -0.8852  -0.8852  -0.8271  -0.5257  -0.5257  -0.2000
     0.4633   0.4633   0.7779   1.7732   2.0285   2.0285   2.1717   2.1717
     2.2994   2.7817   4.2913   4.2913   4.4394   4.5786   4.6582   4.6582
     4.8704   4.8704   4.8984   4.9691   5.5381   5.6296   5.6296   5.8863
     5.8863   6.1871   6.9542   6.9710   6.9710   7.2595   7.2595   7.4317
     7.5192   7.5192   7.5734   8.6270   8.6270   8.7175   9.6506

          k = 0.3536-0.3536-0.3536 ( 10332 PWs)   bands (ev):

    -2.8527  -2.6492  -0.8665  -0.8600  -0.8600  -0.7145  -0.7145  -0.2758
     1.1561   1.1561   1.2469   1.2469   1.2941   1.6942   2.9670   3.0972
     3.0972   3.1795   3.1795   3.1874   3.6095   3.8420   4.8318   4.9263
     4.9263   5.0185   5.0216   5.0216   5.1498   5.2525   5.2525   5.5615
     5.5615   5.9364   6.9262   7.0573   7.0573   7.2807   7.2807   7.4681
     8.7784   8.7784   8.7908   8.8722   8.9191   8.9191   9.3094

          k = 0.0000 0.0000 0.2357 ( 10337 PWs)   bands (ev):

    -3.3975  -1.1481  -1.0965  -1.0965  -0.9813  -0.5347   0.1837   0.2130
     0.2130   0.3360   0.5207   0.6488   0.6488   1.2667   2.1385   3.1408
     3.2247   3.2247   3.5438   4.4357   4.5635   4.5635   4.6449   5.3752
     5.3839   5.3839   5.6888   5.7545   5.7545   5.9014   6.0142   6.1008
     6.1740   6.3231   6.3231   7.0349   7.1903   7.1903   7.2204   7.2718
     7.4072   7.5349   7.5349   7.6848   7.8826   7.8826   8.2610

          k =-0.1179 0.1179 0.3536 ( 10318 PWs)   bands (ev):

    -3.2050  -1.8689  -1.3027  -1.2354  -0.9989  -0.4518   0.0315   0.0950
     0.3511   0.7619   0.9523   1.3478   1.4203   1.8560   2.0841   2.3069
     2.8919   3.3669   3.4906   3.5920   4.0668   4.5688   4.5786   4.8154
     5.0098   5.1666   5.1747   5.4681   5.6075   5.8812   5.9089   5.9592
     6.0851   6.2517   6.7579   6.7742   7.0361   7.2177   7.2441   7.3142
     7.7383   7.7652   7.9167   8.0073   8.0506   8.2479   8.6211

          k = 0.4714-0.4714-0.2357 ( 10326 PWs)   bands (ev):

    -2.8633  -2.4786  -1.5272  -1.2090  -1.0245  -0.2016  -0.1385   0.1483
     0.3581   1.1124   1.2822   1.4509   1.6538   2.4269   2.4847   2.5323
     2.8390   2.9724   3.6924   3.7536   3.7644   3.9317   3.9605   4.1164
     4.2184   4.5068   5.0530   5.1202   5.3948   5.4730   5.6106   6.2275
     6.3709   6.4422   6.5177   6.6671   6.9548   7.6205   7.9129   7.9235
     7.9726   8.2432   8.3200   8.8259   8.9104   8.9217   9.0728

          k = 0.3536-0.3536-0.1179 ( 10316 PWs)   bands (ev):

    -2.9897  -2.2992  -1.6375  -1.0183  -0.8724  -0.3372  -0.2330   0.3262
     0.3481   0.5872   1.0927   1.6617   1.7821   2.2834   2.3712   2.4858
     2.9204   3.2878   3.5253   3.6294   3.6710   3.7953   4.2090   4.2703
     4.6091   4.9211   4.9439   4.9472   5.6139   5.6289   5.7579   6.1378
     6.2714   6.3974   6.4308   6.6534   7.0030   7.2890   7.4501   7.6103
     8.1626   8.2048   8.7048   8.8239   8.9568   8.9989   9.0340

          k = 0.2357-0.2357 0.0000 ( 10323 PWs)   bands (ev):

    -3.2874  -1.6799  -1.5425  -0.6736  -0.5834  -0.3512  -0.3415  -0.2505
     0.0497   0.7137   0.7634   1.0049   1.3059   1.9822   2.0796   2.3994
     3.2439   3.3394   3.4337   3.5854   4.6166   4.6666   4.8059   4.8082
     4.9114   5.1929   5.5875   5.8119   5.9119   5.9649   6.0007   6.0287
     6.1030   6.1370   6.1704   6.5535   6.5769   6.8279   7.1079   7.1509
     7.5221   8.1568   8.2775   8.3686   8.5090   8.5742   8.5887

          k = 0.0000 0.0000 0.4714 ( 10318 PWs)   bands (ev):

    -3.0673  -1.7760  -1.4827  -1.4291  -1.4291  -0.9980   0.8505   0.9103
     0.9103   0.9563   1.1731   1.2583   1.2583   1.8424   2.1652   2.2662
     2.2662   2.6608   3.6216   3.7462   3.8242   3.8242   4.3010   4.8266
     4.8939   4.8939   5.1833   5.7012   5.7724   5.8740   5.8740   6.1397
     6.3285   6.4263   6.4263   7.0590   7.0695   7.0695   7.3345   7.5217
     7.5227   7.5227   7.7821   8.2109   8.2578   8.3129   8.6533

          k = 0.5893-0.5893-0.1179 ( 10356 PWs)   bands (ev):

    -2.7711  -2.1790  -1.9951  -1.4571  -1.2839  -0.6607   0.5365   0.6252
     1.1928   1.2157   1.4345   1.7818   1.8229   1.9366   2.1612   2.5017
     2.5076   2.6014   2.9399   3.1707   3.4136   3.7807   4.1695   4.4702
     4.5635   4.9160   5.1813   5.1995   5.2668   5.6087   5.6539   6.0536
     6.1075   6.4717   6.8455   7.1341   7.4067   7.4606   7.4705   7.6466
     8.0195   8.1421   8.3232   8.4150   8.7109   8.9273   8.9893

          k = 0.4714-0.4714-0.0000 ( 10375 PWs)   bands (ev):

    -2.6521  -2.3509  -2.1702  -1.3191  -1.1445   0.0833   0.3116   0.3192
     0.3875   0.6711   1.3776   1.5359   2.5944   2.6486   2.7100   2.7116
     2.9072   2.9269   3.0395   3.0555   3.1485   3.4279   3.9008   4.0396
     4.1859   4.4553   5.0821   5.2031   5.2300   5.5479   5.5497   5.9473
     5.9532   6.5934   7.4255   7.5243   7.6834   7.8124   7.9320   8.0086
     8.0419   8.0739   8.1455   8.3881   8.6872   8.8839   9.0273

          k = 0.0000 0.0000-0.7071 ( 10326 PWs)   bands (ev):

    -2.5753  -2.4621  -1.5944  -1.5402  -1.5402  -1.1197   1.3690   1.3857
     1.3857   1.4304   1.4309   1.5774   1.5774   1.8078   2.3518   2.3808
     2.3808   2.3869   2.5115   2.5115   2.8537   3.3572   4.8468   5.2550
     5.3464   5.3464   5.3854   5.3854   5.3957   5.4246   5.5968   5.7329
     5.7592   6.1709   6.1709   6.3800   7.1022   7.1022   7.1808   7.7204
     8.4540   8.4985   8.4985   8.9225   9.3334   9.3734   9.3844

          k = 0.7071-0.4714-0.2357 ( 10320 PWs)   bands (ev):

    -2.9600  -2.0150  -1.9081  -1.5305  -0.6772  -0.4699  -0.2312   0.6384
     0.7781   1.0012   1.0582   1.3269   1.9648   2.1070   2.3254   2.3722
     2.7111   3.2534   3.4326   3.6033   3.6586   3.7460   3.9272   4.4928
     4.5788   4.6745   4.8923   4.9451   5.4542   5.4695   6.1850   6.1909
     6.3631   6.6553   6.7929   7.0634   7.3675   7.3905   7.5169   7.5678
     7.6986   7.8930   7.9690   8.1924   8.6582   8.7593   9.1235

          k = 0.5893-0.3536-0.1179 ( 10332 PWs)   bands (ev):

    -2.6283  -2.4563  -1.9543  -1.6946  -0.5461  -0.4605   0.1238   0.2488
     0.7087   0.9617   1.4666   1.5570   2.1437   2.1769   2.6647   2.7205
     2.8753   2.9597   3.2329   3.3706   3.5734   3.7564   3.8824   4.0222
     4.2234   4.3509   4.6729   4.7620   4.8094   5.1992   6.3703   6.4954
     6.7343   6.7366   6.9612   7.0612   7.4278   7.4915   7.6705   7.9001
     7.9317   8.0214   8.4458   8.5768   8.7957   8.9644   9.0260

          k = 0.0000 0.2357-0.7071 ( 10362 PWs)   bands (ev):

    -2.4631  -2.3998  -2.1269  -1.8548  -0.7879  -0.5560   0.2061   0.4133
     1.4939   1.5289   1.6402   1.6484   1.8255   1.9421   2.0422   2.3161
     2.8060   2.9111   3.1058   3.2004   3.4079   3.7347   4.1447   4.1763
     4.2574   4.3618   4.4552   5.0099   5.1076   5.3234   6.3382   6.4279
     6.6655   6.6800   6.7369   7.0268   7.1477   7.4145   7.8611   8.1774
     8.2589   8.4168   8.4750   8.5771   8.5834   8.8364   8.8561

     the Fermi energy is     7.5771 ev

!    total energy              =    -173.30171744 Ry
     Harris-Foulkes estimate   =    -173.30171744 Ry
     estimated scf accuracy    <          8.2E-13 Ry

     The total energy is the sum of the following terms:

     one-electron contribution =      74.02679245 Ry
     hartree contribution      =       1.29604234 Ry
     xc contribution           =    -110.46909258 Ry
     ewald contribution        =    -137.97417101 Ry
     smearing contrib. (-TS)   =      -0.18128863 Ry

     convergence has been achieved in  12 iterations

     Forces acting on atoms (Ry/au):

     atom    1 type  1   force =   0.33881318E-20 -0.14877529E-04 -0.14877529E-04
     atom    2 type  1   force =   0.00000000E+00  0.14877529E-04  0.14877529E-04
     atom    3 type  1   force =  -0.14877529E-04 -0.16940659E-20 -0.14877529E-04
     atom    4 type  1   force =   0.82340705E-04  0.82340705E-04 -0.82340705E-04
     atom    5 type  1   force =  -0.14877529E-04  0.14877529E-04  0.00000000E+00
     atom    6 type  1   force =   0.14877529E-04  0.59292306E-20  0.14877529E-04
     atom    7 type  1   force =   0.14877529E-04 -0.14877529E-04 -0.25410988E-20
     atom    8 type  1   force =  -0.82340705E-04 -0.82340705E-04  0.82340705E-04
     atom    9 type  1   force =  -0.14877529E-04 -0.14877529E-04 -0.50821977E-20
     atom   10 type  1   force =   0.82340705E-04 -0.82340705E-04  0.82340705E-04
     atom   11 type  1   force =  -0.14877529E-04 -0.84703295E-21  0.14877529E-04
     atom   12 type  1   force =  -0.82340705E-04  0.82340705E-04  0.82340705E-04
     atom   13 type  1   force =  -0.82340705E-04 -0.82340705E-04 -0.82340705E-04
     atom   14 type  1   force =   0.25456206E-03  0.14384873E-21  0.14384873E-21
     atom   15 type  1   force =  -0.33881318E-20 -0.14877529E-04  0.14877529E-04
     atom   16 type  1   force =   0.00000000E+00  0.25456206E-03  0.00000000E+00
     atom   17 type  1   force =   0.00000000E+00  0.00000000E+00 -0.25456206E-03
     atom   18 type  1   force =   0.14877529E-04  0.14877529E-04  0.59292306E-20
     atom   19 type  1   force =   0.14877529E-04  0.33881318E-20 -0.14877529E-04
     atom   20 type  1   force =  -0.82340705E-04  0.82340705E-04 -0.82340705E-04
     atom   21 type  1   force =   0.00000000E+00  0.14877529E-04 -0.14877529E-04
     atom   22 type  1   force =   0.00000000E+00  0.00000000E+00  0.25456206E-03
     atom   23 type  1   force =  -0.54210109E-19 -0.25456206E-03  0.54210109E-19
     atom   24 type  1   force =   0.82340705E-04 -0.82340705E-04 -0.82340705E-04
     atom   25 type  1   force =  -0.25456206E-03  0.55768085E-22  0.55768085E-22
     atom   26 type  1   force =   0.82340705E-04  0.82340705E-04  0.82340705E-04

     Total force =     0.000746     Total SCF correction =     0.000001


     entering subroutine stress ...

          total   stress  (Ry/bohr**3)                   (kbar)     P=   -7.78
  -0.0000528783  -0.0000000000  -0.0000000000         -7.78     -0.00     -0.00
  -0.0000000000  -0.0000528783  -0.0000000000         -0.00     -7.78     -0.00
  -0.0000000000  -0.0000000000  -0.0000528783         -0.00     -0.00     -7.78


     bfgs converged in   7 scf cycles and   6 bfgs steps
     (criteria: energy <  1.0E-04, force <  1.0E-03)

     End of BFGS Geometry Optimization

     Final energy   =    -173.3017174376 Ry
Begin final coordinates

ATOMIC_POSITIONS (crystal)
Al       0.000000000   0.000000000   0.329495322
Al       0.000000000   0.000000000   0.670504678
Al       0.000000000   0.329495322   0.000000000
Al      -0.000558927   0.333519642   0.333519642
Al       0.000000000   0.329495322   0.670504678
Al       0.000000000   0.670504678   0.000000000
Al       0.000000000   0.670504678   0.329495322
Al       0.000558927   0.666480358   0.666480358
Al       0.329495322   0.000000000   0.000000000
Al       0.333519642  -0.000558927   0.333519642
Al       0.329495322   0.000000000   0.670504678
Al       0.333519642   0.333519642  -0.000558927
Al       0.333519642   0.333519642   0.333519642
Al       0.333026003   0.333026003   0.666973997
Al       0.329495322   0.670504678   0.000000000
Al       0.333026003   0.666973997   0.333026003
Al       0.333026003   0.666973997   0.666973997
Al       0.670504678  -0.000000000  -0.000000000
Al       0.670504678  -0.000000000   0.329495322
Al       0.666480358   0.000558927   0.666480358
Al       0.670504678   0.329495322  -0.000000000
Al       0.666973997   0.333026003   0.333026003
Al       0.666973997   0.333026003   0.666973997
Al       0.666480358   0.666480358   0.000558927
Al       0.666973997   0.666973997   0.333026003
Al       0.666480358   0.666480358   0.666480358
End final coordinates



     Writing output data file Al.scf.in.super.333.vac.relax.save

     init_run     :     19.56s CPU     17.16s WALL (       1 calls)
     electrons    :   8059.61s CPU   7734.91s WALL (       7 calls)
     update_pot   :      9.33s CPU     10.02s WALL (       6 calls)
     forces       :    240.46s CPU    236.69s WALL (       7 calls)
     stress       :    726.47s CPU    731.36s WALL (       7 calls)

     Called by init_run:
     wfcinit      :     13.58s CPU     11.08s WALL (       1 calls)
     potinit      :      0.83s CPU      0.87s WALL (       1 calls)

     Called by electrons:
     c_bands      :   4290.50s CPU   3960.87s WALL (     119 calls)
     sum_band     :   1848.04s CPU   1837.54s WALL (     119 calls)
     v_of_rho     :    131.05s CPU    132.15s WALL (     123 calls)
     newd         :   1381.28s CPU   1392.32s WALL (     123 calls)
     mix_rho      :    148.14s CPU    149.23s WALL (     119 calls)

     Called by c_bands:
     init_us_2    :     59.03s CPU     60.92s WALL (    1012 calls)
     cegterg      :   3566.11s CPU   3220.48s WALL (     476 calls)

     Called by *egterg:
     h_psi        :   2705.07s CPU   2577.39s WALL (    1741 calls)
     s_psi        :    240.35s CPU    150.35s WALL (    1741 calls)
     g_psi        :     12.38s CPU     12.70s WALL (    1261 calls)
     cdiaghg      :     42.39s CPU     51.74s WALL (    1701 calls)

     Called by h_psi:
     add_vuspsi   :    239.93s CPU    150.50s WALL (    1741 calls)

     General routines
     calbec       :    414.51s CPU    292.20s WALL (    2273 calls)
     fft          :     94.86s CPU     96.17s WALL (    2133 calls)
     ffts         :     63.78s CPU     64.39s WALL (    2121 calls)
     fftw         :   1841.85s CPU   1880.76s WALL (  134408 calls)
     interpolate  :     25.65s CPU     26.27s WALL (     242 calls)

     Parallel routines
     fft_scatter  :    686.92s CPU    701.47s WALL (  138662 calls)

     PWSCF        :     2h31m CPU        2h26m WALL


   This run was terminated on:  16:23:37   1Sep2017            

=------------------------------------------------------------------------------=
   JOB DONE.
=------------------------------------------------------------------------------=
