
     Program PWSCF v.5.1 starts on  9Oct2017 at 10:57:50 

     This program is part of the open-source Quantum ESPRESSO suite
     for quantum simulation of materials; please cite
         "P. Giannozzi et al., J. Phys.:Condens. Matter 21 395502 (2009);
          URL http://www.quantum-espresso.org", 
     in publications or presentations arising from this work. More details at
     http://www.quantum-espresso.org/quote

     Parallel version (MPI), running on     8 processors
     R & G space division:  proc/nbgrp/npool/nimage =       8
     Reading input from /tmp/Al.scf.in.super.333.02.1413/Al.scf.in.super.333.02.t
Warning: card &IONS ignored
Warning: card   ION_DYNAMICS='BFGS', ignored
Warning: card / ignored
Warning: card &CELL ignored
Warning: card  CELL_DYNAMICS = 'BFGS' ignored
Warning: card / ignored
     Message from routine read_cards :
     DEPRECATED: no units specified in CELL_PARAMETERS card

     Current dimensions of program PWSCF are:
     Max number of different atomic species (ntypx) = 10
     Max number of k-points (npk) =  40000
     Max angular momentum in pseudopotentials (lmaxx) =  3
 kfg - two_fermi_energies  F

     Subspace diagonalization in iterative solution of the eigenvalue problem:
     a serial algorithm will be used


     Parallelization info
     --------------------
     sticks:   dense  smooth     PW     G-vecs:    dense   smooth      PW
     Min         446     314     87                17656    10334    1524
     Max         447     315     89                17661    10352    1525
     Sum        3571    2515    703               141263    82723   12195



     bravais-lattice index     =            0
     lattice parameter (alat)  =    16.110077237  a.u.
     unit-cell volume          =    2956.4999 (a.u.)^3
     number of atoms/cell      =           27
     number of atomic types    =            1
     number of electrons       =        81.00
     number of Kohn-Sham states=           49
     kinetic-energy cutoff     =      35.0000  Ry
     charge density cutoff     =     200.0000  Ry
     convergence threshold     =      1.0E-09
     mixing beta               =       0.3000
     number of iterations used =            8  local-TF  mixing
     Exchange-correlation      = SLA  PW   PSX  PSC ( 1  4 10  8 0)
     A smooth kinetic-energy cutoff is imposed at      34.5000 Ry
     height of the smooth step-function =             800.0000 Ry
     width of the smooth step-function  =               1.0000 Ry


     celldm(1)=  16.110077  celldm(2)=   0.000000  celldm(3)=   0.000000
     celldm(4)=   0.000000  celldm(5)=   0.000000  celldm(6)=   0.000000

     crystal axes: (cart. coord. in units of alat)
               a(1) = (   0.707106781187   0.707106781187   0.000000000000 )  
               a(2) = (   0.707106781187   0.000000000000   0.707106781187 )  
               a(3) = (  -0.000000000000   0.707106781187   0.707106781187 )  

     reciprocal axes: (cart. coord. in units 2 pi/alat)
               b(1) = (  0.707107  0.707107 -0.707107 )  
               b(2) = (  0.707107 -0.707107  0.707107 )  
               b(3) = ( -0.707107  0.707107  0.707107 )  


     PseudoPot. # 1 for Al read from file:
     /users/kfg/psuedo/gbrv_1.5/al.pbesol.UPF
     MD5 check sum: 6741bacbf7acc11acbeee135211c012e
     Pseudo is Ultrasoft + core correction, Zval =  3.0
     Generated by new atomic code, or converted to UPF format
     Using radial grid of  893 points,  3 beta functions with: 
                l(1) =   0
                l(2) =   1
                l(3) =   2
     Q(r) pseudized with  8 coefficients,  rinner =    0.900   0.900   0.900
                                                       0.900   0.900

     atomic species   valence    mass     pseudopotential
        Al             3.00    26.98154     Al( 1.00)

     No symmetry found



   Cartesian axes

     site n.     atom                  positions (alat units)
         1           Al  tau(   1) = (    0.00188995399    0.00023207949    0.00000437206  )
         2           Al  tau(   2) = (    0.00128666066    0.23275475117    0.23637822522  )
         3           Al  tau(   3) = (   -0.00286480727    0.46965755788    0.46877829994  )
         4           Al  tau(   4) = (    0.23871541376   -0.00078506245    0.23402500597  )
         5           Al  tau(   5) = (    0.23843074809    0.23609532009    0.47069858030  )
         6           Al  tau(   6) = (    0.23504259739    0.47416197131    0.70413477029  )
         7           Al  tau(   7) = (    0.46959083218    0.00173830995    0.47178038806  )
         8           Al  tau(   8) = (    0.46918270364    0.23355384475    0.70513392303  )
         9           Al  tau(   9) = (    0.47382256137    0.47356691566    0.94032734615  )
        10           Al  tau(  10) = (    0.23304997738    0.23768477149    0.00151628831  )
        11           Al  tau(  11) = (    0.23799358807    0.47074067416    0.23589298006  )
        12           Al  tau(  12) = (    0.23771364767    0.70978424678    0.47026243204  )
        13           Al  tau(  13) = (    0.47211474350    0.23414127438    0.23383215431  )
        14           Al  tau(  14) = (    0.47444121673    0.46879897794    0.46991800824  )
        15           Al  tau(  15) = (    0.47345198349    0.70545784151    0.70641532647  )
        16           Al  tau(  16) = (    0.70772920759    0.23601795962    0.46919677028  )
        17           Al  tau(  17) = (    0.70754484911    0.46844846490    0.70733432616  )
        18           Al  tau(  18) = (    0.70597508617    0.70920684823    0.94072511513  )
        19           Al  tau(  19) = (    0.47245506245    0.46859867910    0.00194280120  )
        20           Al  tau(  20) = (    0.47275613734    0.70871558672    0.23822314865  )
        21           Al  tau(  21) = (    0.46904987890    0.94494789093    0.47125880514  )
        22           Al  tau(  22) = (    0.70477833897    0.47349015479    0.23598365462  )
        23           Al  tau(  23) = (    0.70643462552    0.70758135226    0.47017641061  )
        24           Al  tau(  24) = (    0.70679475863    0.94470096718    0.70796819847  )
        25           Al  tau(  25) = (    0.94526621735    0.47238250165    0.46893380169  )
        26           Al  tau(  26) = (    0.94355285455    0.70999662548    0.70880152032  )
        27           Al  tau(  27) = (    0.94048249224    0.94218194980    0.94579352848  )

     number of k points=   112  gaussian smearing, width (Ry)=  0.0500

     Number of k-points >= 100: set verbosity='high' to print them.

     Dense  grid:   141263 G-vectors     FFT dimensions: (  75,  75,  75)

     Smooth grid:    82723 G-vectors     FFT dimensions: (  64,  64,  64)

     Largest allocated arrays     est. size (Mb)     dimensions
        Kohn-Sham Wavefunctions         0.99 Mb     (    1323,   49)
        NL pseudopotentials             4.91 Mb     (    1323,  243)
        Each V/rho on FFT grid          0.86 Mb     (   56250)
        Each G-vector array             0.13 Mb     (   17661)
        G-vector shells                 0.01 Mb     (     874)
     Largest temporary arrays     est. size (Mb)     dimensions
        Auxiliary wavefunctions         3.96 Mb     (    1323,  196)
        Each subspace H/S matrix        0.59 Mb     (     196,  196)
        Each <psi_i|beta_j> matrix      0.18 Mb     (     243,   49)
        Arrays for rho mixing           6.87 Mb     (   56250,    8)

     Initial potential from superposition of free atoms

     starting charge   80.93646, renormalised to   81.00000
     Starting wfc are  108 randomized atomic wfcs

     total cpu time spent up to now is      149.1 secs

     Self-consistent Calculation

     iteration #  1     ecut=    35.00 Ry     beta=0.30
     Davidson diagonalization with overlap
     ethr =  1.00E-02,  avg # of iterations =  3.0

     Threshold (ethr) on eigenvalues was too large:
     Diagonalizing with lowered threshold

     Davidson diagonalization with overlap
     ethr =  1.99E-04,  avg # of iterations =  3.5

     total cpu time spent up to now is      629.2 secs

     total energy              =    -180.06007273 Ry
     Harris-Foulkes estimate   =    -180.08342750 Ry
     estimated scf accuracy    <       0.16203118 Ry

     iteration #  2     ecut=    35.00 Ry     beta=0.30
     Davidson diagonalization with overlap
     ethr =  2.00E-04,  avg # of iterations =  1.1

     total cpu time spent up to now is      796.7 secs

     total energy              =    -180.01904074 Ry
     Harris-Foulkes estimate   =    -180.06106876 Ry
     estimated scf accuracy    <       0.09887984 Ry

     iteration #  3     ecut=    35.00 Ry     beta=0.30
     Davidson diagonalization with overlap
     ethr =  1.22E-04,  avg # of iterations =  1.1

     total cpu time spent up to now is      964.0 secs

     total energy              =    -180.02295574 Ry
     Harris-Foulkes estimate   =    -180.02293292 Ry
     estimated scf accuracy    <       0.00007120 Ry

     iteration #  4     ecut=    35.00 Ry     beta=0.30
     Davidson diagonalization with overlap
     c_bands:  3 eigenvalues not converged
     c_bands:  1 eigenvalues not converged
     c_bands:  3 eigenvalues not converged
     c_bands:  3 eigenvalues not converged
     c_bands:  3 eigenvalues not converged
     ethr =  8.79E-08,  avg # of iterations =  9.9

     total cpu time spent up to now is     1417.3 secs

     total energy              =    -180.02365010 Ry
     Harris-Foulkes estimate   =    -180.02364518 Ry
     estimated scf accuracy    <       0.00023189 Ry

     iteration #  5     ecut=    35.00 Ry     beta=0.30
     Davidson diagonalization with overlap
     c_bands:  1 eigenvalues not converged
     c_bands:  2 eigenvalues not converged
     ethr =  8.79E-08,  avg # of iterations =  1.9

     total cpu time spent up to now is     1593.0 secs

     total energy              =    -180.02388065 Ry
     Harris-Foulkes estimate   =    -180.02365053 Ry
     estimated scf accuracy    <       0.00024797 Ry

     iteration #  6     ecut=    35.00 Ry     beta=0.30
     Davidson diagonalization with overlap
     ethr =  8.79E-08,  avg # of iterations =  5.2

     total cpu time spent up to now is     1928.0 secs

     total energy              =    -180.02357189 Ry
     Harris-Foulkes estimate   =    -180.02400848 Ry
     estimated scf accuracy    <       0.00199134 Ry

     iteration #  7     ecut=    35.00 Ry     beta=0.30
     Davidson diagonalization with overlap
     ethr =  8.79E-08,  avg # of iterations =  4.7

     total cpu time spent up to now is     2247.5 secs

     total energy              =    -180.02355812 Ry
     Harris-Foulkes estimate   =    -180.02367591 Ry
     estimated scf accuracy    <       0.00032562 Ry

     iteration #  8     ecut=    35.00 Ry     beta=0.30
     Davidson diagonalization with overlap
     ethr =  8.79E-08,  avg # of iterations =  4.1

     total cpu time spent up to now is     2524.5 secs

     total energy              =    -180.02361115 Ry
     Harris-Foulkes estimate   =    -180.02361145 Ry
     estimated scf accuracy    <       0.00000098 Ry

     iteration #  9     ecut=    35.00 Ry     beta=0.30
     Davidson diagonalization with overlap
     ethr =  1.21E-09,  avg # of iterations =  3.7

     total cpu time spent up to now is     2797.8 secs

     total energy              =    -180.02361164 Ry
     Harris-Foulkes estimate   =    -180.02361155 Ry
     estimated scf accuracy    <       0.00000002 Ry

     iteration # 10     ecut=    35.00 Ry     beta=0.30
     Davidson diagonalization with overlap
     c_bands:  2 eigenvalues not converged
     c_bands:  3 eigenvalues not converged
     c_bands:  3 eigenvalues not converged
     c_bands:  2 eigenvalues not converged
     ethr =  3.08E-11,  avg # of iterations =  5.8

     total cpu time spent up to now is     3163.0 secs

     total energy              =    -180.02361123 Ry
     Harris-Foulkes estimate   =    -180.02361185 Ry
     estimated scf accuracy    <       0.00000143 Ry

     iteration # 11     ecut=    35.00 Ry     beta=0.30
     Davidson diagonalization with overlap
     c_bands:  2 eigenvalues not converged
     c_bands:  1 eigenvalues not converged
     c_bands:  1 eigenvalues not converged
     c_bands:  2 eigenvalues not converged
     ethr =  3.08E-11,  avg # of iterations =  6.8

     total cpu time spent up to now is     3558.4 secs

     total energy              =    -180.02361154 Ry
     Harris-Foulkes estimate   =    -180.02361158 Ry
     estimated scf accuracy    <       0.00000011 Ry

     iteration # 12     ecut=    35.00 Ry     beta=0.30
     Davidson diagonalization with overlap
     ethr =  3.08E-11,  avg # of iterations =  3.5

     total cpu time spent up to now is     3819.7 secs

     End of self-consistent calculation

     Number of k-points >= 100: set verbosity='high' to print the bands.

     the Fermi energy is     8.0127 ev

!    total energy              =    -180.02361155 Ry
     Harris-Foulkes estimate   =    -180.02361155 Ry
     estimated scf accuracy    <          5.8E-11 Ry

     The total energy is the sum of the following terms:

     one-electron contribution =      81.66106518 Ry
     hartree contribution      =       0.23989880 Ry
     xc contribution           =    -115.06140276 Ry
     ewald contribution        =    -146.68052551 Ry
     smearing contrib. (-TS)   =      -0.18264727 Ry

     convergence has been achieved in  12 iterations

     Forces acting on atoms (Ry/au):

     atom    1 type  1   force =  -0.38260355E-02 -0.69364842E-03 -0.29677353E-02
     atom    2 type  1   force =  -0.20987547E-02  0.36660579E-02 -0.53335232E-03
     atom    3 type  1   force =   0.47681521E-02  0.44683637E-02  0.15888072E-02
     atom    4 type  1   force =  -0.32359344E-02  0.80197801E-03  0.12673953E-02
     atom    5 type  1   force =  -0.60221182E-02  0.45988901E-03 -0.23271157E-03
     atom    6 type  1   force =   0.10004277E-02 -0.45872009E-02  0.22161197E-02
     atom    7 type  1   force =   0.50288296E-02 -0.42057353E-02  0.32663538E-03
     atom    8 type  1   force =   0.36533148E-02  0.41154543E-02  0.57362843E-02
     atom    9 type  1   force =  -0.33089916E-02 -0.59908420E-02  0.27129645E-03
     atom   10 type  1   force =   0.45525376E-02 -0.31186878E-02 -0.31985083E-02
     atom   11 type  1   force =  -0.32289057E-02  0.34531593E-02  0.96373727E-03
     atom   12 type  1   force =  -0.31388629E-02 -0.54328354E-02  0.19915829E-02
     atom   13 type  1   force =  -0.12820654E-02  0.75184151E-03  0.13527926E-02
     atom   14 type  1   force =  -0.37992413E-02  0.33749203E-02  0.23392844E-02
     atom   15 type  1   force =  -0.19786651E-02  0.32020896E-02 -0.36855670E-02
     atom   16 type  1   force =  -0.11442547E-02 -0.11507427E-02  0.35641463E-02
     atom   17 type  1   force =   0.15637847E-02  0.39927057E-02 -0.17029545E-02
     atom   18 type  1   force =   0.33380948E-02 -0.49004552E-02  0.32340039E-02
     atom   19 type  1   force =  -0.24236335E-02  0.70124323E-02 -0.33348678E-02
     atom   20 type  1   force =  -0.23428134E-02 -0.13179246E-02 -0.47202456E-02
     atom   21 type  1   force =   0.32649779E-02 -0.21587159E-02  0.12859141E-02
     atom   22 type  1   force =   0.60311251E-02 -0.17361385E-02 -0.15849863E-02
     atom   23 type  1   force =   0.42110862E-02  0.17424867E-03  0.45863953E-02
     atom   24 type  1   force =   0.23593870E-02 -0.16601060E-02 -0.37722278E-02
     atom   25 type  1   force =  -0.36537187E-02  0.19457102E-02  0.39791914E-02
     atom   26 type  1   force =  -0.23303070E-02 -0.61953018E-02 -0.18026051E-02
     atom   27 type  1   force =   0.40425844E-02  0.57294844E-02 -0.71678250E-02

     Total force =     0.031077     Total SCF correction =     0.000008


     entering subroutine stress ...

          total   stress  (Ry/bohr**3)                   (kbar)     P=    0.78
   0.0000059043  -0.0000004009  -0.0000003292          0.87     -0.06     -0.05
  -0.0000004009   0.0000054840  -0.0000002880         -0.06      0.81     -0.04
  -0.0000003292  -0.0000002880   0.0000046051         -0.05     -0.04      0.68


     Writing output data file Al.scf.in.super.333.022.save

     init_run     :    142.18s CPU    148.93s WALL (       1 calls)
     electrons    :   3358.81s CPU   3670.68s WALL (       1 calls)
     forces       :     25.37s CPU     23.73s WALL (       1 calls)
     stress       :     77.42s CPU     79.00s WALL (       1 calls)

     Called by init_run:
     wfcinit      :    141.20s CPU    147.87s WALL (       1 calls)
     potinit      :      0.22s CPU      0.24s WALL (       1 calls)

     Called by electrons:
     c_bands      :   3013.90s CPU   3294.73s WALL (      13 calls)
     sum_band     :    337.02s CPU    367.25s WALL (      13 calls)
     v_of_rho     :      1.69s CPU      1.91s WALL (      13 calls)
     newd         :      5.02s CPU      5.34s WALL (      13 calls)
     mix_rho      :      1.45s CPU      1.67s WALL (      13 calls)

     Called by c_bands:
     init_us_2    :     21.14s CPU     23.09s WALL (    3248 calls)
     cegterg      :   2947.12s CPU   3223.77s WALL (    1456 calls)

     Called by *egterg:
     h_psi        :   1934.90s CPU   2126.52s WALL (    7669 calls)
     s_psi        :    204.47s CPU    172.78s WALL (    7669 calls)
     g_psi        :      3.23s CPU      3.16s WALL (    6101 calls)
     cdiaghg      :    211.24s CPU    279.97s WALL (    7445 calls)

     Called by h_psi:
     add_vuspsi   :    207.92s CPU    184.25s WALL (    7669 calls)

     General routines
     calbec       :    429.34s CPU    418.78s WALL (    9349 calls)
     fft          :      2.53s CPU      2.79s WALL (     233 calls)
     ffts         :      0.83s CPU      0.94s WALL (     221 calls)
     fftw         :   1459.23s CPU   1688.35s WALL (  551408 calls)
     interpolate  :      0.32s CPU      0.36s WALL (      26 calls)

     Parallel routines
     fft_scatter  :    969.61s CPU   1124.12s WALL (  551862 calls)

     PWSCF        :     1h 0m CPU        1h 5m WALL


   This run was terminated on:  12: 3:23   9Oct2017            

=------------------------------------------------------------------------------=
   JOB DONE.
=------------------------------------------------------------------------------=
