
     Program PWSCF v.5.1 starts on  9Oct2017 at 11:12:40 

     This program is part of the open-source Quantum ESPRESSO suite
     for quantum simulation of materials; please cite
         "P. Giannozzi et al., J. Phys.:Condens. Matter 21 395502 (2009);
          URL http://www.quantum-espresso.org", 
     in publications or presentations arising from this work. More details at
     http://www.quantum-espresso.org/quote

     Parallel version (MPI), running on     8 processors
     R & G space division:  proc/nbgrp/npool/nimage =       8
     Reading input from /tmp/Al.scf.in.super.333.vac.04.14974/Al.scf.in.super.333.vac.04.t
Warning: card &IONS ignored
Warning: card   ION_DYNAMICS='BFGS', ignored
Warning: card / ignored
Warning: card &CELL ignored
Warning: card  CELL_DYNAMICS = 'BFGS' ignored
Warning: card / ignored
     Message from routine read_cards :
     DEPRECATED: no units specified in CELL_PARAMETERS card

     Current dimensions of program PWSCF are:
     Max number of different atomic species (ntypx) = 10
     Max number of k-points (npk) =  40000
     Max angular momentum in pseudopotentials (lmaxx) =  3
 kfg - two_fermi_energies  F

     Subspace diagonalization in iterative solution of the eigenvalue problem:
     a serial algorithm will be used


     Parallelization info
     --------------------
     sticks:   dense  smooth     PW     G-vecs:    dense   smooth      PW
     Min         446     314     87                17656    10334    1524
     Max         447     315     89                17661    10352    1525
     Sum        3571    2515    703               141263    82723   12195



     bravais-lattice index     =            0
     lattice parameter (alat)  =    16.110077237  a.u.
     unit-cell volume          =    2956.4999 (a.u.)^3
     number of atoms/cell      =           26
     number of atomic types    =            1
     number of electrons       =        78.00
     number of Kohn-Sham states=           47
     kinetic-energy cutoff     =      35.0000  Ry
     charge density cutoff     =     200.0000  Ry
     convergence threshold     =      1.0E-09
     mixing beta               =       0.3000
     number of iterations used =            8  local-TF  mixing
     Exchange-correlation      = SLA  PW   PSX  PSC ( 1  4 10  8 0)
     A smooth kinetic-energy cutoff is imposed at      34.5000 Ry
     height of the smooth step-function =             800.0000 Ry
     width of the smooth step-function  =               1.0000 Ry


     celldm(1)=  16.110077  celldm(2)=   0.000000  celldm(3)=   0.000000
     celldm(4)=   0.000000  celldm(5)=   0.000000  celldm(6)=   0.000000

     crystal axes: (cart. coord. in units of alat)
               a(1) = (   0.707106781187   0.707106781187   0.000000000000 )  
               a(2) = (   0.707106781187  -0.000000000000   0.707106781187 )  
               a(3) = (  -0.000000000000   0.707106781187   0.707106781187 )  

     reciprocal axes: (cart. coord. in units 2 pi/alat)
               b(1) = (  0.707107  0.707107 -0.707107 )  
               b(2) = (  0.707107 -0.707107  0.707107 )  
               b(3) = ( -0.707107  0.707107  0.707107 )  


     PseudoPot. # 1 for Al read from file:
     /users/kfg/psuedo/gbrv_1.5/al.pbesol.UPF
     MD5 check sum: 6741bacbf7acc11acbeee135211c012e
     Pseudo is Ultrasoft + core correction, Zval =  3.0
     Generated by new atomic code, or converted to UPF format
     Using radial grid of  893 points,  3 beta functions with: 
                l(1) =   0
                l(2) =   1
                l(3) =   2
     Q(r) pseudized with  8 coefficients,  rinner =    0.900   0.900   0.900
                                                       0.900   0.900

     atomic species   valence    mass     pseudopotential
        Al             3.00    26.98154     Al( 1.00)

     No symmetry found



   Cartesian axes

     site n.     atom                  positions (alat units)
         1           Al  tau(   1) = (   -0.00113675543    0.23616932983    0.23704311947  )
         2           Al  tau(   2) = (   -0.00178796947    0.46890513315    0.46863587257  )
         3           Al  tau(   3) = (    0.23269569726   -0.00075056450    0.23583043443  )
         4           Al  tau(   4) = (    0.23396383439    0.23840086785    0.47059751257  )
         5           Al  tau(   5) = (    0.23656057881    0.46839650753    0.70622913517  )
         6           Al  tau(   6) = (    0.47302226207    0.00021837733    0.46948365576  )
         7           Al  tau(   7) = (    0.47381357741    0.23395601959    0.70994590545  )
         8           Al  tau(   8) = (    0.47422436412    0.47348706763    0.94589079902  )
         9           Al  tau(   9) = (    0.23589902097    0.23636750567    0.00082175947  )
        10           Al  tau(  10) = (    0.23728608808    0.47411873486    0.23505107419  )
        11           Al  tau(  11) = (    0.23722055238    0.70942807294    0.47244669963  )
        12           Al  tau(  12) = (    0.47049034489    0.23772523782    0.23764132289  )
        13           Al  tau(  13) = (    0.47165494213    0.47273069657    0.46848313903  )
        14           Al  tau(  14) = (    0.47253128102    0.70728474286    0.70779617516  )
        15           Al  tau(  15) = (    0.70940776067    0.23484620172    0.47326509292  )
        16           Al  tau(  16) = (    0.70736487526    0.47283831435    0.70783132530  )
        17           Al  tau(  17) = (    0.70724399408    0.70977337793    0.93974675999  )
        18           Al  tau(  18) = (    0.47203715332    0.47034830913    0.00234902920  )
        19           Al  tau(  19) = (    0.47424439665    0.70572597145    0.23721608567  )
        20           Al  tau(  20) = (    0.47184938557    0.94088314269    0.47084907287  )
        21           Al  tau(  21) = (    0.70698007321    0.47162087907    0.23350679848  )
        22           Al  tau(  22) = (    0.70462093873    0.70918373038    0.47167487288  )
        23           Al  tau(  23) = (    0.70564858793    0.94417043723    0.70924654652  )
        24           Al  tau(  24) = (    0.94244425026    0.46997173071    0.47353518869  )
        25           Al  tau(  25) = (    0.94382653140    0.70684075599    0.70431572522  )
        26           Al  tau(  26) = (    0.94345339622    0.93993540708    0.94045815170  )

     number of k points=   112  gaussian smearing, width (Ry)=  0.0500

     Number of k-points >= 100: set verbosity='high' to print them.

     Dense  grid:   141263 G-vectors     FFT dimensions: (  75,  75,  75)

     Smooth grid:    82723 G-vectors     FFT dimensions: (  64,  64,  64)

     Largest allocated arrays     est. size (Mb)     dimensions
        Kohn-Sham Wavefunctions         0.95 Mb     (    1323,   47)
        NL pseudopotentials             4.72 Mb     (    1323,  234)
        Each V/rho on FFT grid          0.86 Mb     (   56250)
        Each G-vector array             0.13 Mb     (   17661)
        G-vector shells                 0.01 Mb     (     874)
     Largest temporary arrays     est. size (Mb)     dimensions
        Auxiliary wavefunctions         3.80 Mb     (    1323,  188)
        Each subspace H/S matrix        0.54 Mb     (     188,  188)
        Each <psi_i|beta_j> matrix      0.17 Mb     (     234,   47)
        Arrays for rho mixing           6.87 Mb     (   56250,    8)

     Initial potential from superposition of free atoms

     starting charge   77.93882, renormalised to   78.00000
     Starting wfc are  104 randomized atomic wfcs

     total cpu time spent up to now is      102.6 secs

     Self-consistent Calculation

     iteration #  1     ecut=    35.00 Ry     beta=0.30
     Davidson diagonalization with overlap
     ethr =  1.00E-02,  avg # of iterations =  3.0

     Threshold (ethr) on eigenvalues was too large:
     Diagonalizing with lowered threshold

     Davidson diagonalization with overlap
     ethr =  2.72E-04,  avg # of iterations =  4.7

     total cpu time spent up to now is      492.9 secs

     total energy              =    -173.33858278 Ry
     Harris-Foulkes estimate   =    -173.36803548 Ry
     estimated scf accuracy    <       0.22991219 Ry

     iteration #  2     ecut=    35.00 Ry     beta=0.30
     Davidson diagonalization with overlap
     ethr =  2.95E-04,  avg # of iterations =  1.0

     total cpu time spent up to now is      620.7 secs

     total energy              =    -173.27883800 Ry
     Harris-Foulkes estimate   =    -173.34022682 Ry
     estimated scf accuracy    <       0.14554039 Ry

     iteration #  3     ecut=    35.00 Ry     beta=0.30
     Davidson diagonalization with overlap
     ethr =  1.87E-04,  avg # of iterations =  2.4

     total cpu time spent up to now is      770.4 secs

     total energy              =    -173.29492252 Ry
     Harris-Foulkes estimate   =    -173.29539088 Ry
     estimated scf accuracy    <       0.00266058 Ry

     iteration #  4     ecut=    35.00 Ry     beta=0.30
     Davidson diagonalization with overlap
     ethr =  3.41E-06,  avg # of iterations =  9.3

     total cpu time spent up to now is     1112.6 secs

     total energy              =    -173.29625030 Ry
     Harris-Foulkes estimate   =    -173.29619966 Ry
     estimated scf accuracy    <       0.00260735 Ry

     iteration #  5     ecut=    35.00 Ry     beta=0.30
     Davidson diagonalization with overlap
     ethr =  3.34E-06,  avg # of iterations =  1.0

     total cpu time spent up to now is     1243.1 secs

     total energy              =    -173.29487598 Ry
     Harris-Foulkes estimate   =    -173.29625735 Ry
     estimated scf accuracy    <       0.00285245 Ry

     iteration #  6     ecut=    35.00 Ry     beta=0.30
     Davidson diagonalization with overlap
     ethr =  3.34E-06,  avg # of iterations =  3.8

     total cpu time spent up to now is     1457.0 secs

     total energy              =    -173.29597905 Ry
     Harris-Foulkes estimate   =    -173.29607048 Ry
     estimated scf accuracy    <       0.00166619 Ry

     iteration #  7     ecut=    35.00 Ry     beta=0.30
     Davidson diagonalization with overlap
     ethr =  2.14E-06,  avg # of iterations =  1.0

     total cpu time spent up to now is     1587.4 secs

     total energy              =    -173.29567292 Ry
     Harris-Foulkes estimate   =    -173.29599071 Ry
     estimated scf accuracy    <       0.00132373 Ry

     iteration #  8     ecut=    35.00 Ry     beta=0.30
     Davidson diagonalization with overlap
     ethr =  1.70E-06,  avg # of iterations =  2.1

     total cpu time spent up to now is     1727.1 secs

     total energy              =    -173.29572251 Ry
     Harris-Foulkes estimate   =    -173.29576971 Ry
     estimated scf accuracy    <       0.00013489 Ry

     iteration #  9     ecut=    35.00 Ry     beta=0.30
     Davidson diagonalization with overlap
     ethr =  1.73E-07,  avg # of iterations =  3.6

     total cpu time spent up to now is     1939.8 secs

     total energy              =    -173.29576646 Ry
     Harris-Foulkes estimate   =    -173.29576373 Ry
     estimated scf accuracy    <       0.00001350 Ry

     iteration # 10     ecut=    35.00 Ry     beta=0.30
     Davidson diagonalization with overlap
     ethr =  1.73E-08,  avg # of iterations =  1.6

     total cpu time spent up to now is     2075.9 secs

     total energy              =    -173.29576439 Ry
     Harris-Foulkes estimate   =    -173.29576712 Ry
     estimated scf accuracy    <       0.00002819 Ry

     iteration # 11     ecut=    35.00 Ry     beta=0.30
     Davidson diagonalization with overlap
     ethr =  1.73E-08,  avg # of iterations =  1.0

     total cpu time spent up to now is     2202.5 secs

     total energy              =    -173.29575815 Ry
     Harris-Foulkes estimate   =    -173.29576474 Ry
     estimated scf accuracy    <       0.00001853 Ry

     iteration # 12     ecut=    35.00 Ry     beta=0.30
     Davidson diagonalization with overlap
     ethr =  1.73E-08,  avg # of iterations =  3.0

     total cpu time spent up to now is     2390.8 secs

     total energy              =    -173.29576161 Ry
     Harris-Foulkes estimate   =    -173.29576158 Ry
     estimated scf accuracy    <       0.00000044 Ry

     iteration # 13     ecut=    35.00 Ry     beta=0.30
     Davidson diagonalization with overlap
     c_bands:  1 eigenvalues not converged
     c_bands:  1 eigenvalues not converged
     c_bands:  1 eigenvalues not converged
     ethr =  5.65E-10,  avg # of iterations =  4.9

     total cpu time spent up to now is     2588.2 secs

     total energy              =    -173.29576167 Ry
     Harris-Foulkes estimate   =    -173.29576166 Ry
     estimated scf accuracy    <       0.00000067 Ry

     iteration # 14     ecut=    35.00 Ry     beta=0.30
     Davidson diagonalization with overlap
     ethr =  5.65E-10,  avg # of iterations =  1.0

     total cpu time spent up to now is     2731.1 secs

     total energy              =    -173.29576162 Ry
     Harris-Foulkes estimate   =    -173.29576167 Ry
     estimated scf accuracy    <       0.00000074 Ry

     iteration # 15     ecut=    35.00 Ry     beta=0.30
     Davidson diagonalization with overlap
     ethr =  5.65E-10,  avg # of iterations =  1.0

     total cpu time spent up to now is     2874.7 secs

     total energy              =    -173.29576144 Ry
     Harris-Foulkes estimate   =    -173.29576163 Ry
     estimated scf accuracy    <       0.00000056 Ry

     iteration # 16     ecut=    35.00 Ry     beta=0.30
     Davidson diagonalization with overlap
     ethr =  5.65E-10,  avg # of iterations =  3.1

     total cpu time spent up to now is     3074.9 secs

     total energy              =    -173.29576153 Ry
     Harris-Foulkes estimate   =    -173.29576154 Ry
     estimated scf accuracy    <       0.00000005 Ry

     iteration # 17     ecut=    35.00 Ry     beta=0.30
     Davidson diagonalization with overlap
     ethr =  5.88E-11,  avg # of iterations =  3.4

     total cpu time spent up to now is     3273.4 secs

     total energy              =    -173.29576153 Ry
     Harris-Foulkes estimate   =    -173.29576154 Ry
     estimated scf accuracy    <       0.00000005 Ry

     iteration # 18     ecut=    35.00 Ry     beta=0.30
     Davidson diagonalization with overlap
     ethr =  5.88E-11,  avg # of iterations =  2.3

     total cpu time spent up to now is     3427.6 secs

     total energy              =    -173.29576153 Ry
     Harris-Foulkes estimate   =    -173.29576154 Ry
     estimated scf accuracy    <          2.8E-09 Ry

     iteration # 19     ecut=    35.00 Ry     beta=0.30
     Davidson diagonalization with overlap
     ethr =  3.61E-12,  avg # of iterations =  4.8

     total cpu time spent up to now is     3678.4 secs

     total energy              =    -173.29576153 Ry
     Harris-Foulkes estimate   =    -173.29576154 Ry
     estimated scf accuracy    <          8.0E-09 Ry

     iteration # 20     ecut=    35.00 Ry     beta=0.30
     Davidson diagonalization with overlap
     ethr =  3.61E-12,  avg # of iterations =  3.9

     total cpu time spent up to now is     3894.8 secs

     total energy              =    -173.29576154 Ry
     Harris-Foulkes estimate   =    -173.29576154 Ry
     estimated scf accuracy    <          1.4E-09 Ry

     iteration # 21     ecut=    35.00 Ry     beta=0.30
     Davidson diagonalization with overlap
     ethr =  1.84E-12,  avg # of iterations =  2.2

     total cpu time spent up to now is     4053.8 secs

     End of self-consistent calculation

     Number of k-points >= 100: set verbosity='high' to print the bands.

     the Fermi energy is     7.5749 ev

!    total energy              =    -173.29576154 Ry
     Harris-Foulkes estimate   =    -173.29576154 Ry
     estimated scf accuracy    <          5.2E-11 Ry

     The total energy is the sum of the following terms:

     one-electron contribution =      73.40273731 Ry
     hartree contribution      =       1.59873392 Ry
     xc contribution           =    -110.49679190 Ry
     ewald contribution        =    -137.61918027 Ry
     smearing contrib. (-TS)   =      -0.18126060 Ry

     convergence has been achieved in  21 iterations

     Forces acting on atoms (Ry/au):

     atom    1 type  1   force =   0.35357261E-02 -0.49592962E-02 -0.86836953E-02
     atom    2 type  1   force =   0.42309701E-02  0.10897717E-01  0.96575491E-02
     atom    3 type  1   force =  -0.15779366E-02  0.21568489E-03 -0.58967540E-02
     atom    4 type  1   force =   0.25772436E-02 -0.49426293E-02  0.21271824E-02
     atom    5 type  1   force =  -0.31376608E-02  0.91635767E-02  0.88654779E-03
     atom    6 type  1   force =   0.26986747E-02  0.13416555E-02  0.85684456E-02
     atom    7 type  1   force =   0.39488436E-02 -0.31787533E-02 -0.49007774E-02
     atom    8 type  1   force =  -0.65725057E-02 -0.20510507E-02 -0.59214648E-02
     atom    9 type  1   force =  -0.48782344E-02 -0.64504672E-02  0.21814550E-02
     atom   10 type  1   force =  -0.48719135E-02 -0.43229314E-05 -0.35938620E-04
     atom   11 type  1   force =  -0.87872308E-02 -0.50325838E-02  0.44297845E-02
     atom   12 type  1   force =   0.51711579E-03 -0.46133814E-02 -0.11498518E-02
     atom   13 type  1   force =   0.18160384E-02 -0.25208718E-02  0.78228065E-02
     atom   14 type  1   force =  -0.51637998E-02 -0.79605188E-03  0.10381456E-02
     atom   15 type  1   force =  -0.34752303E-02 -0.33887045E-02  0.29859232E-02
     atom   16 type  1   force =  -0.10299616E-02 -0.29472146E-02 -0.12332012E-02
     atom   17 type  1   force =   0.20075236E-02 -0.23340990E-02  0.59493618E-02
     atom   18 type  1   force =   0.46824360E-02  0.75481004E-02 -0.56288951E-02
     atom   19 type  1   force =   0.18134021E-02  0.22804001E-02 -0.95786883E-02
     atom   20 type  1   force =  -0.21989409E-02  0.33843329E-02  0.28781759E-02
     atom   21 type  1   force =   0.38189300E-02  0.42780941E-02 -0.68654770E-03
     atom   22 type  1   force =   0.56448041E-02 -0.32102830E-02  0.15181320E-03
     atom   23 type  1   force =   0.15764384E-02 -0.29586084E-03 -0.42019937E-02
     atom   24 type  1   force =   0.28592037E-03  0.21706091E-02 -0.42140024E-02
     atom   25 type  1   force =   0.18480866E-02  0.14333915E-02  0.56615661E-03
     atom   26 type  1   force =   0.69126119E-03  0.40120088E-02  0.28884630E-02

     Total force =     0.039190     Total SCF correction =     0.000009


     entering subroutine stress ...

          total   stress  (Ry/bohr**3)                   (kbar)     P=   -6.05
  -0.0000421279   0.0000000339   0.0000014326         -6.20      0.00      0.21
   0.0000000339  -0.0000403397   0.0000025569          0.00     -5.93      0.38
   0.0000014326   0.0000025569  -0.0000408930          0.21      0.38     -6.02


     Writing output data file Al.scf.in.super.333.vac.044.save

     init_run     :    100.12s CPU    102.49s WALL (       1 calls)
     electrons    :   3665.08s CPU   3951.29s WALL (       1 calls)
     forces       :     22.41s CPU     20.91s WALL (       1 calls)
     stress       :     50.67s CPU     51.49s WALL (       1 calls)

     Called by init_run:
     wfcinit      :     99.25s CPU    101.56s WALL (       1 calls)
     potinit      :      0.16s CPU      0.19s WALL (       1 calls)

     Called by electrons:
     c_bands      :   3193.05s CPU   3436.67s WALL (      22 calls)
     sum_band     :    459.25s CPU    500.72s WALL (      22 calls)
     v_of_rho     :      2.56s CPU      2.89s WALL (      22 calls)
     newd         :      7.89s CPU      8.26s WALL (      22 calls)
     mix_rho      :      2.47s CPU      2.80s WALL (      22 calls)

     Called by c_bands:
     init_us_2    :     28.89s CPU     31.15s WALL (    5264 calls)
     cegterg      :   3097.37s CPU   3335.99s WALL (    2464 calls)

     Called by *egterg:
     h_psi        :   1988.88s CPU   2166.23s WALL (    9754 calls)
     s_psi        :    229.21s CPU    187.14s WALL (    9754 calls)
     g_psi        :      3.00s CPU      3.28s WALL (    7178 calls)
     cdiaghg      :    214.45s CPU    260.88s WALL (    9530 calls)

     Called by h_psi:
     add_vuspsi   :    234.19s CPU    201.33s WALL (    9754 calls)

     General routines
     calbec       :    485.01s CPU    475.24s WALL (   12442 calls)
     fft          :      2.98s CPU      3.37s WALL (     377 calls)
     ffts         :      1.40s CPU      1.59s WALL (     418 calls)
     fftw         :   1532.18s CPU   1768.50s WALL (  724340 calls)
     interpolate  :      0.41s CPU      0.54s WALL (      44 calls)

     Parallel routines
     fft_scatter  :    931.92s CPU   1080.30s WALL (  725135 calls)

     PWSCF        :     1h 4m CPU        1h 8m WALL


   This run was terminated on:  12:21:34   9Oct2017            

=------------------------------------------------------------------------------=
   JOB DONE.
=------------------------------------------------------------------------------=
