
     Program PWSCF v.5.1 starts on  9Oct2017 at 10:58:23 

     This program is part of the open-source Quantum ESPRESSO suite
     for quantum simulation of materials; please cite
         "P. Giannozzi et al., J. Phys.:Condens. Matter 21 395502 (2009);
          URL http://www.quantum-espresso.org", 
     in publications or presentations arising from this work. More details at
     http://www.quantum-espresso.org/quote

     Parallel version (MPI), running on     8 processors
     R & G space division:  proc/nbgrp/npool/nimage =       8
     Reading input from /tmp/Al.scf.in.super.333.03.339/Al.scf.in.super.333.03.t
Warning: card &IONS ignored
Warning: card   ION_DYNAMICS='BFGS', ignored
Warning: card / ignored
Warning: card &CELL ignored
Warning: card  CELL_DYNAMICS = 'BFGS' ignored
Warning: card / ignored
     Message from routine read_cards :
     DEPRECATED: no units specified in CELL_PARAMETERS card

     Current dimensions of program PWSCF are:
     Max number of different atomic species (ntypx) = 10
     Max number of k-points (npk) =  40000
     Max angular momentum in pseudopotentials (lmaxx) =  3
 kfg - two_fermi_energies  F

     Subspace diagonalization in iterative solution of the eigenvalue problem:
     a serial algorithm will be used


     Parallelization info
     --------------------
     sticks:   dense  smooth     PW     G-vecs:    dense   smooth      PW
     Min         446     314     87                17656    10334    1524
     Max         447     315     89                17661    10352    1525
     Sum        3571    2515    703               141263    82723   12195



     bravais-lattice index     =            0
     lattice parameter (alat)  =    16.110077237  a.u.
     unit-cell volume          =    2956.4999 (a.u.)^3
     number of atoms/cell      =           27
     number of atomic types    =            1
     number of electrons       =        81.00
     number of Kohn-Sham states=           49
     kinetic-energy cutoff     =      35.0000  Ry
     charge density cutoff     =     200.0000  Ry
     convergence threshold     =      1.0E-09
     mixing beta               =       0.3000
     number of iterations used =            8  local-TF  mixing
     Exchange-correlation      = SLA  PW   PSX  PSC ( 1  4 10  8 0)
     A smooth kinetic-energy cutoff is imposed at      34.5000 Ry
     height of the smooth step-function =             800.0000 Ry
     width of the smooth step-function  =               1.0000 Ry


     celldm(1)=  16.110077  celldm(2)=   0.000000  celldm(3)=   0.000000
     celldm(4)=   0.000000  celldm(5)=   0.000000  celldm(6)=   0.000000

     crystal axes: (cart. coord. in units of alat)
               a(1) = (   0.707106781187   0.707106781187   0.000000000000 )  
               a(2) = (   0.707106781187  -0.000000000000   0.707106781187 )  
               a(3) = (   0.000000000000   0.707106781187   0.707106781187 )  

     reciprocal axes: (cart. coord. in units 2 pi/alat)
               b(1) = (  0.707107  0.707107 -0.707107 )  
               b(2) = (  0.707107 -0.707107  0.707107 )  
               b(3) = ( -0.707107  0.707107  0.707107 )  


     PseudoPot. # 1 for Al read from file:
     /users/kfg/psuedo/gbrv_1.5/al.pbesol.UPF
     MD5 check sum: 6741bacbf7acc11acbeee135211c012e
     Pseudo is Ultrasoft + core correction, Zval =  3.0
     Generated by new atomic code, or converted to UPF format
     Using radial grid of  893 points,  3 beta functions with: 
                l(1) =   0
                l(2) =   1
                l(3) =   2
     Q(r) pseudized with  8 coefficients,  rinner =    0.900   0.900   0.900
                                                       0.900   0.900

     atomic species   valence    mass     pseudopotential
        Al             3.00    26.98154     Al( 1.00)

     No symmetry found



   Cartesian axes

     site n.     atom                  positions (alat units)
         1           Al  tau(   1) = (    0.00032430150    0.00032666053   -0.00261428707  )
         2           Al  tau(   2) = (    0.00143830966    0.23735446487    0.23584518416  )
         3           Al  tau(   3) = (   -0.00271776295    0.46847914783    0.46845260539  )
         4           Al  tau(   4) = (    0.23668138873    0.00086500800    0.23802212770  )
         5           Al  tau(   5) = (    0.23427700704    0.23701994613    0.47328724083  )
         6           Al  tau(   6) = (    0.23669172439    0.47245489853    0.70842147775  )
         7           Al  tau(   7) = (    0.47305933366   -0.00205734285    0.47056552011  )
         8           Al  tau(   8) = (    0.46950834405    0.23403618422    0.70723745043  )
         9           Al  tau(   9) = (    0.46945438737    0.47046228092    0.94452997302  )
        10           Al  tau(  10) = (    0.23423547691    0.23656353462   -0.00140091252  )
        11           Al  tau(  11) = (    0.23314556009    0.47016855754    0.23489513475  )
        12           Al  tau(  12) = (    0.23356524989    0.70407969205    0.47316509530  )
        13           Al  tau(  13) = (    0.46945770981    0.23686129067    0.23338807809  )
        14           Al  tau(  14) = (    0.47449569497    0.46899068511    0.47262664688  )
        15           Al  tau(  15) = (    0.47397339380    0.70797073962    0.70923637780  )
        16           Al  tau(  16) = (    0.70465211204    0.23602008431    0.47246173993  )
        17           Al  tau(  17) = (    0.70781397850    0.46961842307    0.70895827728  )
        18           Al  tau(  18) = (    0.70649081897    0.70940230352    0.94167800916  )
        19           Al  tau(  19) = (    0.47069146400    0.47373913451   -0.00133329858  )
        20           Al  tau(  20) = (    0.47138836485    0.70738343508    0.23301455496  )
        21           Al  tau(  21) = (    0.47265713744    0.94059365173    0.46940325017  )
        22           Al  tau(  22) = (    0.70570692430    0.47418861082    0.23418682176  )
        23           Al  tau(  23) = (    0.70577376050    0.70434687191    0.47405522095  )
        24           Al  tau(  24) = (    0.70972954532    0.94186247177    0.70621244657  )
        25           Al  tau(  25) = (    0.94308853942    0.46879320937    0.47253321998  )
        26           Al  tau(  26) = (    0.94544723335    0.70921800802    0.70467721409  )
        27           Al  tau(  27) = (    0.94371022047    0.94048892963    0.94293553738  )

     number of k points=   112  gaussian smearing, width (Ry)=  0.0500

     Number of k-points >= 100: set verbosity='high' to print them.

     Dense  grid:   141263 G-vectors     FFT dimensions: (  75,  75,  75)

     Smooth grid:    82723 G-vectors     FFT dimensions: (  64,  64,  64)

     Largest allocated arrays     est. size (Mb)     dimensions
        Kohn-Sham Wavefunctions         0.99 Mb     (    1323,   49)
        NL pseudopotentials             4.91 Mb     (    1323,  243)
        Each V/rho on FFT grid          0.86 Mb     (   56250)
        Each G-vector array             0.13 Mb     (   17661)
        G-vector shells                 0.01 Mb     (     874)
     Largest temporary arrays     est. size (Mb)     dimensions
        Auxiliary wavefunctions         3.96 Mb     (    1323,  196)
        Each subspace H/S matrix        0.59 Mb     (     196,  196)
        Each <psi_i|beta_j> matrix      0.18 Mb     (     243,   49)
        Arrays for rho mixing           6.87 Mb     (   56250,    8)

     Initial potential from superposition of free atoms

     starting charge   80.93646, renormalised to   81.00000
     Starting wfc are  108 randomized atomic wfcs

     total cpu time spent up to now is      109.0 secs

     per-process dynamical memory:   136.8 Mb

     Self-consistent Calculation

     iteration #  1     ecut=    35.00 Ry     beta=0.30
     Davidson diagonalization with overlap
     ethr =  1.00E-02,  avg # of iterations =  3.0

     Threshold (ethr) on eigenvalues was too large:
     Diagonalizing with lowered threshold

     Davidson diagonalization with overlap
     ethr =  1.98E-04,  avg # of iterations =  3.5

     total cpu time spent up to now is      604.8 secs

     total energy              =    -180.06048513 Ry
     Harris-Foulkes estimate   =    -180.08378488 Ry
     estimated scf accuracy    <       0.16175036 Ry

     iteration #  2     ecut=    35.00 Ry     beta=0.30
     Davidson diagonalization with overlap
     ethr =  2.00E-04,  avg # of iterations =  1.2

     total cpu time spent up to now is      811.4 secs

     total energy              =    -180.01960672 Ry
     Harris-Foulkes estimate   =    -180.06149866 Ry
     estimated scf accuracy    <       0.09868790 Ry

     iteration #  3     ecut=    35.00 Ry     beta=0.30
     Davidson diagonalization with overlap
     ethr =  1.22E-04,  avg # of iterations =  1.2

     total cpu time spent up to now is     1006.0 secs

     total energy              =    -180.02345745 Ry
     Harris-Foulkes estimate   =    -180.02343532 Ry
     estimated scf accuracy    <       0.00007125 Ry

     iteration #  4     ecut=    35.00 Ry     beta=0.30
     Davidson diagonalization with overlap
     c_bands:  3 eigenvalues not converged
     c_bands:  3 eigenvalues not converged
     c_bands:  3 eigenvalues not converged
     c_bands:  3 eigenvalues not converged
     ethr =  8.80E-08,  avg # of iterations =  9.9

     total cpu time spent up to now is     1477.7 secs

     total energy              =    -180.02414143 Ry
     Harris-Foulkes estimate   =    -180.02413879 Ry
     estimated scf accuracy    <       0.00023599 Ry

     iteration #  5     ecut=    35.00 Ry     beta=0.30
     Davidson diagonalization with overlap
     c_bands:  1 eigenvalues not converged
     c_bands:  2 eigenvalues not converged
     ethr =  8.80E-08,  avg # of iterations =  1.9

     total cpu time spent up to now is     1636.4 secs

     total energy              =    -180.02435277 Ry
     Harris-Foulkes estimate   =    -180.02414164 Ry
     estimated scf accuracy    <       0.00024495 Ry

     iteration #  6     ecut=    35.00 Ry     beta=0.30
     Davidson diagonalization with overlap
     ethr =  8.80E-08,  avg # of iterations =  5.4

     total cpu time spent up to now is     1946.4 secs

     total energy              =    -180.02408515 Ry
     Harris-Foulkes estimate   =    -180.02447714 Ry
     estimated scf accuracy    <       0.00202785 Ry

     iteration #  7     ecut=    35.00 Ry     beta=0.30
     Davidson diagonalization with overlap
     ethr =  8.80E-08,  avg # of iterations =  4.5

     total cpu time spent up to now is     2225.9 secs

     total energy              =    -180.02403710 Ry
     Harris-Foulkes estimate   =    -180.02417592 Ry
     estimated scf accuracy    <       0.00037733 Ry

     iteration #  8     ecut=    35.00 Ry     beta=0.30
     Davidson diagonalization with overlap
     c_bands:  1 eigenvalues not converged
     ethr =  8.80E-08,  avg # of iterations =  4.5

     total cpu time spent up to now is     2503.0 secs

     total energy              =    -180.02410671 Ry
     Harris-Foulkes estimate   =    -180.02410991 Ry
     estimated scf accuracy    <       0.00001206 Ry

     iteration #  9     ecut=    35.00 Ry     beta=0.30
     Davidson diagonalization with overlap
     ethr =  1.49E-08,  avg # of iterations =  2.4

     total cpu time spent up to now is     2677.0 secs

     total energy              =    -180.02410743 Ry
     Harris-Foulkes estimate   =    -180.02410794 Ry
     estimated scf accuracy    <       0.00000091 Ry

     iteration # 10     ecut=    35.00 Ry     beta=0.30
     Davidson diagonalization with overlap
     c_bands:  1 eigenvalues not converged
     ethr =  1.12E-09,  avg # of iterations =  4.4

     total cpu time spent up to now is     2954.3 secs

     total energy              =    -180.02410750 Ry
     Harris-Foulkes estimate   =    -180.02410854 Ry
     estimated scf accuracy    <       0.00000312 Ry

     iteration # 11     ecut=    35.00 Ry     beta=0.30
     Davidson diagonalization with overlap
     ethr =  1.12E-09,  avg # of iterations =  3.7

     total cpu time spent up to now is     3189.9 secs

     total energy              =    -180.02410796 Ry
     Harris-Foulkes estimate   =    -180.02410796 Ry
     estimated scf accuracy    <          2.3E-09 Ry

     iteration # 12     ecut=    35.00 Ry     beta=0.30
     Davidson diagonalization with overlap
     c_bands:  2 eigenvalues not converged
     c_bands:  1 eigenvalues not converged
     c_bands:  3 eigenvalues not converged
     c_bands:  3 eigenvalues not converged
     ethr =  2.88E-12,  avg # of iterations =  6.0

     total cpu time spent up to now is     3535.6 secs

     total energy              =    -180.02410797 Ry
     Harris-Foulkes estimate   =    -180.02410797 Ry
     estimated scf accuracy    <       0.00000002 Ry

     iteration # 13     ecut=    35.00 Ry     beta=0.30
     Davidson diagonalization with overlap
     ethr =  2.88E-12,  avg # of iterations =  3.9

     total cpu time spent up to now is     3777.3 secs

     total energy              =    -180.02410797 Ry
     Harris-Foulkes estimate   =    -180.02410797 Ry
     estimated scf accuracy    <          1.7E-09 Ry

     iteration # 14     ecut=    35.00 Ry     beta=0.30
     Davidson diagonalization with overlap
     ethr =  2.12E-12,  avg # of iterations =  1.1

     total cpu time spent up to now is     3921.2 secs

     End of self-consistent calculation

     Number of k-points >= 100: set verbosity='high' to print the bands.

     the Fermi energy is     8.0128 ev

!    total energy              =    -180.02410797 Ry
     Harris-Foulkes estimate   =    -180.02410797 Ry
     estimated scf accuracy    <          4.9E-10 Ry

     The total energy is the sum of the following terms:

     one-electron contribution =      81.66469562 Ry
     hartree contribution      =       0.23819113 Ry
     xc contribution           =    -115.06086682 Ry
     ewald contribution        =    -146.68350875 Ry
     smearing contrib. (-TS)   =      -0.18261914 Ry

     convergence has been achieved in  14 iterations

     Forces acting on atoms (Ry/au):

     atom    1 type  1   force =   0.57111167E-03 -0.25546662E-03  0.39003273E-02
     atom    2 type  1   force =  -0.29610503E-02 -0.69082159E-02 -0.13295328E-02
     atom    3 type  1   force =   0.32550862E-02  0.36600990E-02  0.47813594E-02
     atom    4 type  1   force =  -0.27840682E-02 -0.80607237E-04 -0.14194089E-02
     atom    5 type  1   force =   0.31534693E-02 -0.16496377E-02 -0.37622678E-02
     atom    6 type  1   force =  -0.11139806E-02 -0.41335061E-03 -0.52616701E-03
     atom    7 type  1   force =  -0.24599309E-02  0.37842297E-02 -0.14089210E-02
     atom    8 type  1   force =   0.39777449E-02  0.34217286E-02  0.22661559E-03
     atom    9 type  1   force =   0.15115531E-02  0.53173766E-03 -0.40111306E-02
     atom   10 type  1   force =   0.37791564E-02 -0.35831257E-02  0.50632289E-03
     atom   11 type  1   force =   0.51796595E-02  0.48533060E-02  0.17408951E-02
     atom   12 type  1   force =   0.45217752E-02  0.13683405E-02 -0.33903590E-02
     atom   13 type  1   force =   0.19020380E-02  0.84992587E-03  0.24543195E-02
     atom   14 type  1   force =  -0.67192854E-02  0.35509163E-02 -0.18864016E-02
     atom   15 type  1   force =  -0.47426703E-02 -0.15932556E-02 -0.28706818E-02
     atom   16 type  1   force =   0.29665196E-02 -0.11186456E-02 -0.43512589E-02
     atom   17 type  1   force =  -0.19527732E-02  0.33420859E-02 -0.57659607E-03
     atom   18 type  1   force =   0.19648243E-02 -0.29005434E-02  0.16224430E-02
     atom   19 type  1   force =   0.14697590E-02 -0.54762808E-02  0.74269094E-03
     atom   20 type  1   force =  -0.85243135E-04 -0.19100316E-02  0.53513884E-02
     atom   21 type  1   force =  -0.26957019E-02 -0.12977193E-02  0.39160654E-02
     atom   22 type  1   force =   0.29911637E-02 -0.43445196E-02  0.85878895E-03
     atom   23 type  1   force =   0.29047610E-02  0.21658419E-02 -0.43352113E-02
     atom   24 type  1   force =  -0.41051054E-02  0.44197538E-02  0.17468558E-02
     atom   25 type  1   force =  -0.22019802E-02  0.20673219E-02 -0.24648117E-02
     atom   26 type  1   force =  -0.46107233E-02 -0.55216388E-02  0.22915986E-02
     atom   27 type  1   force =  -0.37161089E-02  0.30377512E-02  0.21930776E-02

     Total force =     0.028206     Total SCF correction =     0.000028


     entering subroutine stress ...

          total   stress  (Ry/bohr**3)                   (kbar)     P=    0.71
   0.0000049278  -0.0000001240   0.0000004784          0.72     -0.02      0.07
  -0.0000001240   0.0000046165  -0.0000005766         -0.02      0.68     -0.08
   0.0000004784  -0.0000005766   0.0000050073          0.07     -0.08      0.74


     Writing output data file Al.scf.in.super.333.033.save

     init_run     :    118.43s CPU    108.80s WALL (       1 calls)
     electrons    :   3890.10s CPU   3812.23s WALL (       1 calls)
     forces       :     30.26s CPU     25.72s WALL (       1 calls)
     stress       :    108.85s CPU    107.82s WALL (       1 calls)

     Called by init_run:
     wfcinit      :    117.34s CPU    107.67s WALL (       1 calls)
     potinit      :      0.20s CPU      0.21s WALL (       1 calls)

     Called by electrons:
     c_bands      :   3460.53s CPU   3394.73s WALL (      15 calls)
     sum_band     :    417.79s CPU    405.67s WALL (      15 calls)
     v_of_rho     :      2.32s CPU      2.33s WALL (      15 calls)
     newd         :      7.48s CPU      7.51s WALL (      15 calls)
     mix_rho      :      2.16s CPU      2.16s WALL (      15 calls)

     Called by c_bands:
     init_us_2    :     24.71s CPU     25.45s WALL (    3696 calls)
     cegterg      :   3370.58s CPU   3301.22s WALL (    1680 calls)

     Called by *egterg:
     h_psi        :   2114.36s CPU   2051.16s WALL (    8130 calls)
     s_psi        :    246.21s CPU    193.87s WALL (    8130 calls)
     g_psi        :      3.60s CPU      3.56s WALL (    6338 calls)
     cdiaghg      :    272.18s CPU    308.67s WALL (    7906 calls)

     Called by h_psi:
     add_vuspsi   :    250.44s CPU    205.10s WALL (    8130 calls)

     General routines
     calbec       :    527.04s CPU    481.82s WALL (   10034 calls)
     fft          :      3.68s CPU      3.71s WALL (     265 calls)
     ffts         :      1.11s CPU      1.14s WALL (     255 calls)
     fftw         :   1551.51s CPU   1563.73s WALL (  594840 calls)
     interpolate  :      0.42s CPU      0.43s WALL (      30 calls)

     Parallel routines
     fft_scatter  :   1018.58s CPU   1025.83s WALL (  595360 calls)

     PWSCF        :     1h 9m CPU        1h 7m WALL


   This run was terminated on:  12: 6: 7   9Oct2017            

=------------------------------------------------------------------------------=
   JOB DONE.
=------------------------------------------------------------------------------=
