
     Program PWSCF v.5.1 starts on  1Sep2017 at 13:57: 6 

     This program is part of the open-source Quantum ESPRESSO suite
     for quantum simulation of materials; please cite
         "P. Giannozzi et al., J. Phys.:Condens. Matter 21 395502 (2009);
          URL http://www.quantum-espresso.org", 
     in publications or presentations arising from this work. More details at
     http://www.quantum-espresso.org/quote

     Parallel version (MPI), running on     4 processors
     K-points division:     npool     =       4
     Reading input from /tmp/Al.scf.in.super.333.vac.2006/Al.scf.in.super.333.vac.t
Warning: card &IONS ignored
Warning: card   ION_DYNAMICS='BFGS', ignored
Warning: card / ignored
Warning: card &CELL ignored
Warning: card  CELL_DYNAMICS = 'BFGS' ignored
Warning: card / ignored
     Message from routine read_cards :
     DEPRECATED: no units specified in CELL_PARAMETERS card

     Current dimensions of program PWSCF are:
     Max number of different atomic species (ntypx) = 10
     Max number of k-points (npk) =  40000
     Max angular momentum in pseudopotentials (lmaxx) =  3
 kfg - two_fermi_energies  F

     Subspace diagonalization in iterative solution of the eigenvalue problem:
     a serial algorithm will be used


     G-vector sticks info
     --------------------
     sticks:   dense  smooth     PW     G-vecs:    dense   smooth      PW
     Sum        3571    2515    703               141263    82723   12195



     bravais-lattice index     =            0
     lattice parameter (alat)  =    16.110077237  a.u.
     unit-cell volume          =    2956.4999 (a.u.)^3
     number of atoms/cell      =           26
     number of atomic types    =            1
     number of electrons       =        78.00
     number of Kohn-Sham states=           47
     kinetic-energy cutoff     =      35.0000  Ry
     charge density cutoff     =     200.0000  Ry
     convergence threshold     =      1.0E-10
     mixing beta               =       0.3000
     number of iterations used =            8  local-TF  mixing
     Exchange-correlation      = SLA  PW   PSX  PSC ( 1  4 10  8 0)
     A smooth kinetic-energy cutoff is imposed at      34.5000 Ry
     height of the smooth step-function =             800.0000 Ry
     width of the smooth step-function  =               1.0000 Ry


     celldm(1)=  16.110077  celldm(2)=   0.000000  celldm(3)=   0.000000
     celldm(4)=   0.000000  celldm(5)=   0.000000  celldm(6)=   0.000000

     crystal axes: (cart. coord. in units of alat)
               a(1) = (   0.707106781187   0.707106781187  -0.000000000000 )  
               a(2) = (   0.707106781187  -0.000000000000   0.707106781187 )  
               a(3) = (  -0.000000000000   0.707106781187   0.707106781187 )  

     reciprocal axes: (cart. coord. in units 2 pi/alat)
               b(1) = (  0.707107  0.707107 -0.707107 )  
               b(2) = (  0.707107 -0.707107  0.707107 )  
               b(3) = ( -0.707107  0.707107  0.707107 )  


     PseudoPot. # 1 for Al read from file:
     /users/kfg/psuedo/gbrv_1.5/al.pbesol.UPF
     MD5 check sum: 6741bacbf7acc11acbeee135211c012e
     Pseudo is Ultrasoft + core correction, Zval =  3.0
     Generated by new atomic code, or converted to UPF format
     Using radial grid of  893 points,  3 beta functions with: 
                l(1) =   0
                l(2) =   1
                l(3) =   2
     Q(r) pseudized with  8 coefficients,  rinner =    0.900   0.900   0.900
                                                       0.900   0.900

     atomic species   valence    mass     pseudopotential
        Al             3.00    26.98154     Al( 1.00)

     48 Sym. Ops., with inversion, found



   Cartesian axes

     site n.     atom                  positions (alat units)
         1           Al  tau(   1) = (    0.00000000000    0.23570226040    0.23570226040  )
         2           Al  tau(   2) = (    0.00000000000    0.47140452079    0.47140452079  )
         3           Al  tau(   3) = (    0.23570226040    0.00000000000    0.23570226040  )
         4           Al  tau(   4) = (    0.23570226040    0.23570226040    0.47140452079  )
         5           Al  tau(   5) = (    0.23570226040    0.47140452079    0.70710678119  )
         6           Al  tau(   6) = (    0.47140452079    0.00000000000    0.47140452079  )
         7           Al  tau(   7) = (    0.47140452079    0.23570226040    0.70710678119  )
         8           Al  tau(   8) = (    0.47140452079    0.47140452079    0.94280904158  )
         9           Al  tau(   9) = (    0.23570226040    0.23570226040    0.00000000000  )
        10           Al  tau(  10) = (    0.23570226040    0.47140452079    0.23570226040  )
        11           Al  tau(  11) = (    0.23570226040    0.70710678119    0.47140452079  )
        12           Al  tau(  12) = (    0.47140452079    0.23570226040    0.23570226040  )
        13           Al  tau(  13) = (    0.47140452079    0.47140452079    0.47140452079  )
        14           Al  tau(  14) = (    0.47140452079    0.70710678119    0.70710678119  )
        15           Al  tau(  15) = (    0.70710678119    0.23570226040    0.47140452079  )
        16           Al  tau(  16) = (    0.70710678119    0.47140452079    0.70710678119  )
        17           Al  tau(  17) = (    0.70710678119    0.70710678119    0.94280904158  )
        18           Al  tau(  18) = (    0.47140452079    0.47140452079    0.00000000000  )
        19           Al  tau(  19) = (    0.47140452079    0.70710678119    0.23570226040  )
        20           Al  tau(  20) = (    0.47140452079    0.94280904158    0.47140452079  )
        21           Al  tau(  21) = (    0.70710678119    0.47140452079    0.23570226040  )
        22           Al  tau(  22) = (    0.70710678119    0.70710678119    0.47140452079  )
        23           Al  tau(  23) = (    0.70710678119    0.94280904158    0.70710678119  )
        24           Al  tau(  24) = (    0.94280904158    0.47140452079    0.47140452079  )
        25           Al  tau(  25) = (    0.94280904158    0.70710678119    0.70710678119  )
        26           Al  tau(  26) = (    0.94280904158    0.94280904158    0.94280904158  )

     number of k points=    16  gaussian smearing, width (Ry)=  0.0500
                       cart. coord. in units 2pi/alat
        k(    1) = (   0.0000000   0.0000000   0.0000000), wk =   0.0092593
        k(    2) = (  -0.1178511   0.1178511   0.1178511), wk =   0.0740741
        k(    3) = (  -0.2357023   0.2357023   0.2357023), wk =   0.0740741
        k(    4) = (   0.3535534  -0.3535534  -0.3535534), wk =   0.0370370
        k(    5) = (   0.0000000   0.0000000   0.2357023), wk =   0.0555556
        k(    6) = (  -0.1178511   0.1178511   0.3535534), wk =   0.2222222
        k(    7) = (   0.4714045  -0.4714045  -0.2357023), wk =   0.2222222
        k(    8) = (   0.3535534  -0.3535534  -0.1178511), wk =   0.2222222
        k(    9) = (   0.2357023  -0.2357023   0.0000000), wk =   0.1111111
        k(   10) = (   0.0000000   0.0000000   0.4714045), wk =   0.0555556
        k(   11) = (   0.5892557  -0.5892557  -0.1178511), wk =   0.2222222
        k(   12) = (   0.4714045  -0.4714045  -0.0000000), wk =   0.1111111
        k(   13) = (   0.0000000   0.0000000  -0.7071068), wk =   0.0277778
        k(   14) = (   0.7071068  -0.4714045  -0.2357023), wk =   0.2222222
        k(   15) = (   0.5892557  -0.3535534  -0.1178511), wk =   0.2222222
        k(   16) = (   0.0000000   0.2357023  -0.7071068), wk =   0.1111111

     Dense  grid:   141263 G-vectors     FFT dimensions: (  75,  75,  75)

     Smooth grid:    82723 G-vectors     FFT dimensions: (  64,  64,  64)

     Largest allocated arrays     est. size (Mb)     dimensions
        Kohn-Sham Wavefunctions         7.47 Mb     (   10417,   47)
        NL pseudopotentials            37.19 Mb     (   10417,  234)
        Each V/rho on FFT grid          6.44 Mb     (  421875)
        Each G-vector array             1.08 Mb     (  141263)
        G-vector shells                 0.01 Mb     (     879)
     Largest temporary arrays     est. size (Mb)     dimensions
        Auxiliary wavefunctions        29.88 Mb     (   10417,  188)
        Each subspace H/S matrix        0.54 Mb     (     188,  188)
        Each <psi_i|beta_j> matrix      0.17 Mb     (     234,   47)
        Arrays for rho mixing          51.50 Mb     (  421875,    8)

     Initial potential from superposition of free atoms

     starting charge   77.93882, renormalised to   78.00000
     Starting wfc are  104 randomized atomic wfcs

     total cpu time spent up to now is       17.7 secs

     per-process dynamical memory:   136.4 Mb

     Self-consistent Calculation

     iteration #  1     ecut=    35.00 Ry     beta=0.30
     Davidson diagonalization with overlap
     ethr =  1.00E-02,  avg # of iterations =  3.0

     Threshold (ethr) on eigenvalues was too large:
     Diagonalizing with lowered threshold

     Davidson diagonalization with overlap
     ethr =  2.67E-04,  avg # of iterations =  4.4

     total cpu time spent up to now is      152.9 secs

     total energy              =    -173.34118165 Ry
     Harris-Foulkes estimate   =    -173.37017739 Ry
     estimated scf accuracy    <       0.22517698 Ry

     iteration #  2     ecut=    35.00 Ry     beta=0.30
     Davidson diagonalization with overlap
     ethr =  2.89E-04,  avg # of iterations =  1.0

     total cpu time spent up to now is      211.4 secs

     total energy              =    -173.28275458 Ry
     Harris-Foulkes estimate   =    -173.34278370 Ry
     estimated scf accuracy    <       0.14232909 Ry

     iteration #  3     ecut=    35.00 Ry     beta=0.30
     Davidson diagonalization with overlap
     ethr =  1.82E-04,  avg # of iterations =  2.5

     total cpu time spent up to now is      277.8 secs

     total energy              =    -173.29798286 Ry
     Harris-Foulkes estimate   =    -173.29837246 Ry
     estimated scf accuracy    <       0.00222498 Ry

     iteration #  4     ecut=    35.00 Ry     beta=0.30
     Davidson diagonalization with overlap
     ethr =  2.85E-06,  avg # of iterations =  8.5

     total cpu time spent up to now is      371.0 secs

     total energy              =    -173.29927587 Ry
     Harris-Foulkes estimate   =    -173.29922229 Ry
     estimated scf accuracy    <       0.00235402 Ry

     iteration #  5     ecut=    35.00 Ry     beta=0.30
     Davidson diagonalization with overlap
     ethr =  2.85E-06,  avg # of iterations =  1.0

     total cpu time spent up to now is      426.6 secs

     total energy              =    -173.29799498 Ry
     Harris-Foulkes estimate   =    -173.29928189 Ry
     estimated scf accuracy    <       0.00260567 Ry

     iteration #  6     ecut=    35.00 Ry     beta=0.30
     Davidson diagonalization with overlap
     ethr =  2.85E-06,  avg # of iterations =  3.6

     total cpu time spent up to now is      514.4 secs

     total energy              =    -173.29904586 Ry
     Harris-Foulkes estimate   =    -173.29912600 Ry
     estimated scf accuracy    <       0.00161025 Ry

     iteration #  7     ecut=    35.00 Ry     beta=0.30
     Davidson diagonalization with overlap
     ethr =  2.06E-06,  avg # of iterations =  1.0

     total cpu time spent up to now is      573.4 secs

     total energy              =    -173.29871142 Ry
     Harris-Foulkes estimate   =    -173.29905589 Ry
     estimated scf accuracy    <       0.00130377 Ry

     iteration #  8     ecut=    35.00 Ry     beta=0.30
     Davidson diagonalization with overlap
     ethr =  1.67E-06,  avg # of iterations =  2.1

     total cpu time spent up to now is      654.6 secs

     total energy              =    -173.29879613 Ry
     Harris-Foulkes estimate   =    -173.29882777 Ry
     estimated scf accuracy    <       0.00007767 Ry

     iteration #  9     ecut=    35.00 Ry     beta=0.30
     Davidson diagonalization with overlap
     ethr =  9.96E-08,  avg # of iterations =  4.1

     total cpu time spent up to now is      727.7 secs

     total energy              =    -173.29883235 Ry
     Harris-Foulkes estimate   =    -173.29883053 Ry
     estimated scf accuracy    <       0.00002295 Ry

     iteration # 10     ecut=    35.00 Ry     beta=0.30
     Davidson diagonalization with overlap
     ethr =  2.94E-08,  avg # of iterations =  1.0

     total cpu time spent up to now is      784.0 secs

     total energy              =    -173.29882425 Ry
     Harris-Foulkes estimate   =    -173.29883254 Ry
     estimated scf accuracy    <       0.00003113 Ry

     iteration # 11     ecut=    35.00 Ry     beta=0.30
     Davidson diagonalization with overlap
     ethr =  2.94E-08,  avg # of iterations =  2.1

     total cpu time spent up to now is      855.1 secs

     total energy              =    -173.29882564 Ry
     Harris-Foulkes estimate   =    -173.29882663 Ry
     estimated scf accuracy    <       0.00000266 Ry

     iteration # 12     ecut=    35.00 Ry     beta=0.30
     Davidson diagonalization with overlap
     ethr =  3.41E-09,  avg # of iterations =  3.9

     total cpu time spent up to now is      928.3 secs

     total energy              =    -173.29882651 Ry
     Harris-Foulkes estimate   =    -173.29882649 Ry
     estimated scf accuracy    <       0.00000032 Ry

     iteration # 13     ecut=    35.00 Ry     beta=0.30
     Davidson diagonalization with overlap
     ethr =  4.16E-10,  avg # of iterations =  1.2

     total cpu time spent up to now is      990.7 secs

     total energy              =    -173.29882645 Ry
     Harris-Foulkes estimate   =    -173.29882652 Ry
     estimated scf accuracy    <       0.00000040 Ry

     iteration # 14     ecut=    35.00 Ry     beta=0.30
     Davidson diagonalization with overlap
     ethr =  4.16E-10,  avg # of iterations =  1.0

     total cpu time spent up to now is     1039.8 secs

     total energy              =    -173.29882641 Ry
     Harris-Foulkes estimate   =    -173.29882646 Ry
     estimated scf accuracy    <       0.00000014 Ry

     iteration # 15     ecut=    35.00 Ry     beta=0.30
     Davidson diagonalization with overlap
     ethr =  1.84E-10,  avg # of iterations =  3.1

     total cpu time spent up to now is     1112.3 secs

     total energy              =    -173.29882644 Ry
     Harris-Foulkes estimate   =    -173.29882644 Ry
     estimated scf accuracy    <       0.00000001 Ry

     iteration # 16     ecut=    35.00 Ry     beta=0.30
     Davidson diagonalization with overlap
     ethr =  1.82E-11,  avg # of iterations =  3.1

     total cpu time spent up to now is     1184.9 secs

     total energy              =    -173.29882644 Ry
     Harris-Foulkes estimate   =    -173.29882644 Ry
     estimated scf accuracy    <          4.6E-10 Ry

     iteration # 17     ecut=    35.00 Ry     beta=0.30
     Davidson diagonalization with overlap
     ethr =  5.86E-13,  avg # of iterations =  5.1

     total cpu time spent up to now is     1270.9 secs

     total energy              =    -173.29882644 Ry
     Harris-Foulkes estimate   =    -173.29882644 Ry
     estimated scf accuracy    <          2.2E-09 Ry

     iteration # 18     ecut=    35.00 Ry     beta=0.30
     Davidson diagonalization with overlap
     ethr =  5.86E-13,  avg # of iterations =  3.4

     total cpu time spent up to now is     1356.9 secs

     total energy              =    -173.29882644 Ry
     Harris-Foulkes estimate   =    -173.29882644 Ry
     estimated scf accuracy    <          1.2E-10 Ry

     iteration # 19     ecut=    35.00 Ry     beta=0.30
     Davidson diagonalization with overlap
     ethr =  1.52E-13,  avg # of iterations =  2.8

     total cpu time spent up to now is     1415.5 secs

     End of self-consistent calculation

          k = 0.0000 0.0000 0.0000 ( 10417 PWs)   bands (ev):

    -3.5325  -0.6717  -0.6412  -0.6412  -0.6412  -0.4951  -0.4951  -0.4951
    -0.1778   0.3709   0.3709   0.5493   0.5493   0.5493   1.5776   4.2595
     4.2595   4.2595   4.3032   4.3032   4.3796   4.3796   4.3796   4.6434
     4.6434   4.6434   5.0052   6.4762   6.4762   6.4992   6.4992   6.4992
     6.5149   6.6834   6.6834   6.6834   7.1858   7.1858   7.1858   7.9991
     7.9991   7.9991   8.0326   8.0326   8.0326   8.0590   8.0590

          k =-0.1179 0.1179 0.1179 ( 10357 PWs)   bands (ev):

    -3.4499  -1.4618  -0.8252  -0.8252  -0.7299  -0.2341  -0.2341  -0.1633
    -0.0283  -0.0283   0.3801   0.6501   1.1959   1.1959   1.9256   3.1385
     3.1385   3.4604   4.3351   4.4179   4.4179   4.6146   4.6146   4.7514
     5.4647   5.4647   5.6896   5.7825   5.7825   6.0372   6.1232   6.2150
     6.2150   6.3073   6.4206   6.4206   6.7352   7.1044   7.1044   7.1964
     7.7605   7.7850   7.7850   8.2187   8.2187   8.2813   8.5879

          k =-0.2357 0.2357 0.2357 ( 10345 PWs)   bands (ev):

    -3.2048  -2.1878  -0.9149  -0.9149  -0.8642  -0.5417  -0.5417  -0.1818
     0.4542   0.4542   0.7834   1.7397   2.0367   2.0367   2.1361   2.1361
     2.3214   2.8395   4.2755   4.2755   4.3993   4.5539   4.6421   4.6421
     4.8436   4.8436   4.9076   5.0240   5.5362   5.6110   5.6110   5.8701
     5.8701   6.1817   6.9711   6.9711   6.9794   7.2363   7.2363   7.4323
     7.5443   7.5443   7.6316   8.6239   8.6239   8.7153   9.6164

          k = 0.3536-0.3536-0.3536 ( 10332 PWs)   bands (ev):

    -2.8856  -2.6689  -0.9080  -0.8991  -0.8991  -0.7185  -0.7185  -0.2437
     1.1393   1.1393   1.2404   1.2404   1.2821   1.7129   2.9346   3.0833
     3.0833   3.1322   3.1599   3.1599   3.6641   3.9261   4.7909   4.9174
     4.9174   4.9784   4.9784   5.0316   5.1630   5.2417   5.2417   5.5543
     5.5543   5.9316   6.9387   7.0438   7.0438   7.3129   7.3129   7.5372
     8.7628   8.7628   8.8055   8.8843   8.8887   8.8887   9.3098

          k = 0.0000 0.0000 0.2357 ( 10337 PWs)   bands (ev):

    -3.4223  -1.2128  -1.1210  -1.1210  -1.0008  -0.4951   0.1186   0.1832
     0.1832   0.3209   0.4810   0.6771   0.6771   1.3078   2.1867   3.1016
     3.2321   3.2321   3.5204   4.4616   4.5477   4.5477   4.6093   5.3076
     5.3765   5.3765   5.6464   5.7624   5.7624   5.9327   5.9650   6.0662
     6.1813   6.3126   6.3126   7.0868   7.1721   7.1721   7.1965   7.2191
     7.3748   7.5446   7.5446   7.6897   7.9386   7.9386   8.3288

          k =-0.1179 0.1179 0.3536 ( 10318 PWs)   bands (ev):

    -3.2308  -1.9012  -1.3418  -1.2586  -1.0091  -0.4348  -0.0053   0.0711
     0.3456   0.7477   0.9563   1.3106   1.4164   1.9004   2.0650   2.2999
     2.9252   3.3524   3.4776   3.5916   4.0348   4.5598   4.5749   4.8015
     4.9852   5.1335   5.1379   5.4888   5.6204   5.8542   5.9434   5.9498
     6.0749   6.2404   6.7548   6.7914   7.0097   7.2021   7.2417   7.3046
     7.7480   7.7918   7.8787   8.0286   8.0755   8.2422   8.6637

          k = 0.4714-0.4714-0.2357 ( 10326 PWs)   bands (ev):

    -2.8929  -2.5039  -1.5589  -1.2324  -1.0274  -0.2222  -0.1701   0.1630
     0.3501   1.1011   1.2759   1.4381   1.6551   2.4106   2.4534   2.5231
     2.8180   2.9971   3.6685   3.7243   3.7481   3.9376   3.9856   4.0878
     4.2386   4.5330   5.0249   5.0950   5.3963   5.4633   5.6298   6.2005
     6.3548   6.4455   6.5543   6.6653   6.9528   7.6044   7.9169   7.9366
     7.9970   8.2537   8.3114   8.8163   8.8805   8.9325   9.0768

          k = 0.3536-0.3536-0.1179 ( 10316 PWs)   bands (ev):

    -3.0173  -2.3278  -1.6621  -1.0436  -0.8827  -0.3614  -0.2511   0.3221
     0.3378   0.5927   1.0914   1.6576   1.7486   2.2722   2.3579   2.4915
     2.9051   3.3331   3.5124   3.5916   3.6568   3.7814   4.2088   4.2607
     4.5979   4.9219   4.9251   4.9648   5.6056   5.6111   5.7500   6.1153
     6.2588   6.4165   6.4823   6.6432   7.0004   7.2996   7.4279   7.5937
     8.1764   8.2129   8.7233   8.8288   8.9747   8.9812   9.0310

          k = 0.2357-0.2357 0.0000 ( 10323 PWs)   bands (ev):

    -3.3128  -1.7247  -1.5534  -0.7042  -0.6075  -0.4196  -0.3611  -0.2054
     0.0524   0.7023   0.7454   0.9926   1.3179   1.9722   2.0656   2.4623
     3.2476   3.2973   3.4447   3.5703   4.6123   4.6607   4.7394   4.7917
     4.9264   5.1626   5.5674   5.8131   5.8848   5.9895   6.0032   6.0129
     6.0874   6.0938   6.1443   6.5951   6.6129   6.8122   7.1429   7.1437
     7.5168   8.1757   8.2438   8.3314   8.5002   8.6011   8.6124

          k = 0.0000 0.0000 0.4714 ( 10318 PWs)   bands (ev):

    -3.0941  -1.8074  -1.5473  -1.4509  -1.4509  -0.9381   0.8104   0.8901
     0.8901   0.9311   1.1079   1.2706   1.2706   1.9017   2.1266   2.2764
     2.2764   2.6488   3.6480   3.6828   3.8155   3.8155   4.3495   4.8459
     4.8753   4.8753   5.1410   5.6514   5.7278   5.8621   5.8621   6.2085
     6.3173   6.4432   6.4432   7.0321   7.0691   7.0691   7.3620   7.5138
     7.5189   7.5189   7.7772   8.1588   8.2776   8.2936   8.7105

          k = 0.5893-0.5893-0.1179 ( 10356 PWs)   bands (ev):

    -2.8009  -2.2128  -2.0202  -1.4787  -1.2962  -0.6439   0.5094   0.6067
     1.1867   1.1997   1.4310   1.7402   1.8086   1.9408   2.1391   2.4973
     2.5074   2.5729   2.9699   3.1666   3.3920   3.7829   4.1838   4.4872
     4.5556   4.8933   5.1492   5.1988   5.2641   5.5782   5.6531   6.1043
     6.1414   6.4474   6.8548   7.1313   7.3814   7.4570   7.4619   7.6404
     8.0094   8.1201   8.3114   8.4616   8.6894   8.9720   9.0152

          k = 0.4714-0.4714-0.0000 ( 10375 PWs)   bands (ev):

    -2.6827  -2.3941  -2.1776  -1.3414  -1.1495   0.0794   0.2428   0.2993
     0.4247   0.6717   1.3816   1.5122   2.5924   2.6111   2.6962   2.6989
     2.8666   2.8783   3.0585   3.0873   3.1523   3.3935   3.8766   4.0615
     4.1951   4.5080   5.1035   5.1751   5.2182   5.5005   5.5076   5.9991
     6.0110   6.6085   7.3959   7.5140   7.6983   7.7640   7.9003   8.0077
     8.0406   8.0649   8.1491   8.3698   8.6675   8.8603   9.0793

          k = 0.0000 0.0000-0.7071 ( 10326 PWs)   bands (ev):

    -2.6182  -2.4753  -1.6591  -1.5615  -1.5615  -1.0597   1.3152   1.3616
     1.3616   1.4060   1.4132   1.5990   1.5990   1.7796   2.3028   2.3051
     2.3902   2.3902   2.4981   2.4981   2.9382   3.4126   4.8707   5.2596
     5.3045   5.3045   5.3306   5.3829   5.3829   5.3899   5.5468   5.7539
     5.8061   6.2097   6.2097   6.3795   7.0918   7.0918   7.1891   7.7981
     8.4018   8.5044   8.5044   8.8950   9.3049   9.3080   9.3735

          k = 0.7071-0.4714-0.2357 ( 10320 PWs)   bands (ev):

    -2.9876  -2.0590  -1.9279  -1.5357  -0.7203  -0.4492  -0.2404   0.5910
     0.7651   1.0139   1.0644   1.3067   1.9326   2.0878   2.3332   2.3804
     2.7124   3.2156   3.4574   3.6116   3.6599   3.7159   3.9219   4.4474
     4.5472   4.6549   4.9248   4.9468   5.4781   5.5202   6.1662   6.1827
     6.3298   6.6548   6.8031   7.0235   7.3741   7.3815   7.5024   7.5876
     7.7145   7.8776   7.9706   8.2016   8.6421   8.7592   9.1520

          k = 0.5893-0.3536-0.1179 ( 10332 PWs)   bands (ev):

    -2.6611  -2.4847  -1.9890  -1.6911  -0.5658  -0.4842   0.1153   0.2677
     0.6728   0.9512   1.4561   1.5568   2.1310   2.1603   2.6456   2.6965
     2.8626   2.9828   3.2098   3.3281   3.5734   3.7755   3.8753   3.9933
     4.2209   4.3396   4.6649   4.7737   4.8422   5.2627   6.3495   6.4636
     6.7175   6.7236   6.9715   7.0766   7.4514   7.5060   7.6519   7.8785
     7.9073   8.0166   8.4207   8.5628   8.8267   8.9504   9.0030

          k = 0.0000 0.2357-0.7071 ( 10362 PWs)   bands (ev):

    -2.5061  -2.4195  -2.1707  -1.8416  -0.8303  -0.5272   0.1617   0.4404
     1.4626   1.4667   1.6363   1.6373   1.8091   1.9238   2.0765   2.3356
     2.7550   2.8973   3.0871   3.1539   3.4691   3.7587   4.1276   4.1279
     4.2251   4.3743   4.4758   5.0121   5.1682   5.3363   6.3503   6.4094
     6.6465   6.6724   6.6981   7.0838   7.1307   7.3957   7.8700   8.1611
     8.1917   8.4507   8.4569   8.5673   8.5794   8.8146   8.9072

     the Fermi energy is     7.5757 ev

!    total energy              =    -173.29882644 Ry
     Harris-Foulkes estimate   =    -173.29882644 Ry
     estimated scf accuracy    <          1.4E-11 Ry

     The total energy is the sum of the following terms:

     one-electron contribution =      73.44616142 Ry
     hartree contribution      =       1.57750396 Ry
     xc contribution           =    -110.49327416 Ry
     ewald contribution        =    -137.64795281 Ry
     smearing contrib. (-TS)   =      -0.18126485 Ry

     convergence has been achieved in  19 iterations

     Forces acting on atoms (Ry/au):

     atom    1 type  1   force =   0.00000000E+00 -0.54570092E-02 -0.54570092E-02
     atom    2 type  1   force =   0.17347235E-17  0.54570092E-02  0.54570092E-02
     atom    3 type  1   force =  -0.54570092E-02 -0.17347235E-17 -0.54570092E-02
     atom    4 type  1   force =  -0.61253198E-03 -0.61253198E-03  0.61253198E-03
     atom    5 type  1   force =  -0.54570092E-02  0.54570092E-02 -0.43368087E-18
     atom    6 type  1   force =   0.54570092E-02  0.21684043E-17  0.54570092E-02
     atom    7 type  1   force =   0.54570092E-02 -0.54570092E-02  0.43368087E-18
     atom    8 type  1   force =   0.61253198E-03  0.61253198E-03 -0.61253198E-03
     atom    9 type  1   force =  -0.54570092E-02 -0.54570092E-02  0.30357661E-17
     atom   10 type  1   force =  -0.61253198E-03  0.61253198E-03 -0.61253198E-03
     atom   11 type  1   force =  -0.54570092E-02  0.00000000E+00  0.54570092E-02
     atom   12 type  1   force =   0.61253198E-03 -0.61253198E-03 -0.61253198E-03
     atom   13 type  1   force =   0.61253198E-03  0.61253198E-03  0.61253198E-03
     atom   14 type  1   force =  -0.11499287E-02 -0.10847624E-18  0.10836420E-18
     atom   15 type  1   force =  -0.86736174E-18 -0.54570092E-02  0.54570092E-02
     atom   16 type  1   force =  -0.10842022E-18 -0.11499287E-02  0.10842022E-18
     atom   17 type  1   force =   0.10842022E-18 -0.10842022E-18  0.11499287E-02
     atom   18 type  1   force =   0.54570092E-02  0.54570092E-02 -0.26020852E-17
     atom   19 type  1   force =   0.54570092E-02  0.43368087E-18 -0.54570092E-02
     atom   20 type  1   force =   0.61253198E-03 -0.61253198E-03  0.61253198E-03
     atom   21 type  1   force =   0.43368087E-18  0.54570092E-02 -0.54570092E-02
     atom   22 type  1   force =   0.00000000E+00  0.00000000E+00 -0.11499287E-02
     atom   23 type  1   force =   0.00000000E+00  0.11499287E-02  0.00000000E+00
     atom   24 type  1   force =  -0.61253198E-03  0.61253198E-03  0.61253198E-03
     atom   25 type  1   force =   0.11499287E-02 -0.99444340E-21 -0.99444340E-21
     atom   26 type  1   force =  -0.61253198E-03 -0.61253198E-03 -0.61253198E-03

     Total force =     0.027049     Total SCF correction =     0.000005


     entering subroutine stress ...

          total   stress  (Ry/bohr**3)                   (kbar)     P=   -6.55
  -0.0000444921  -0.0000000000  -0.0000000000         -6.55     -0.00     -0.00
  -0.0000000000  -0.0000444921   0.0000000000         -0.00     -6.55      0.00
   0.0000000000   0.0000000000  -0.0000444921          0.00      0.00     -6.55


     Writing output data file Al.scf.in.super.333.vac.save

     init_run     :     19.47s CPU     17.12s WALL (       1 calls)
     electrons    :   1480.88s CPU   1402.79s WALL (       1 calls)
     forces       :     38.96s CPU     38.01s WALL (       1 calls)
     stress       :    120.23s CPU    120.51s WALL (       1 calls)

     Called by init_run:
     wfcinit      :     13.55s CPU     11.11s WALL (       1 calls)
     potinit      :      0.78s CPU      0.81s WALL (       1 calls)

     Called by electrons:
     c_bands      :    818.33s CPU    741.84s WALL (      20 calls)
     sum_band     :    332.63s CPU    329.21s WALL (      20 calls)
     v_of_rho     :     19.40s CPU     19.50s WALL (      20 calls)
     newd         :    196.66s CPU    197.67s WALL (      20 calls)
     mix_rho      :     28.59s CPU     28.78s WALL (      20 calls)

     Called by c_bands:
     init_us_2    :     12.02s CPU     12.32s WALL (     172 calls)
     cegterg      :    722.30s CPU    644.27s WALL (      80 calls)

     Called by *egterg:
     h_psi        :    567.11s CPU    535.64s WALL (     345 calls)
     s_psi        :     48.14s CPU     28.54s WALL (     345 calls)
     g_psi        :      2.16s CPU      2.21s WALL (     261 calls)
     cdiaghg      :      9.80s CPU     11.92s WALL (     337 calls)

     Called by h_psi:
     add_vuspsi   :     48.62s CPU     28.26s WALL (     345 calls)

     General routines
     calbec       :     75.82s CPU     52.50s WALL (     433 calls)
     fft          :     14.83s CPU     14.94s WALL (     345 calls)
     ffts         :     13.84s CPU     13.96s WALL (     362 calls)
     fftw         :    389.52s CPU    394.29s WALL (   24080 calls)
     interpolate  :      3.80s CPU      3.82s WALL (      40 calls)

     Parallel routines
     fft_scatter  :    155.79s CPU    157.45s WALL (   24787 calls)

     PWSCF        : 27m41.12s CPU    26m20.39s WALL


   This run was terminated on:  14:23:27   1Sep2017            

=------------------------------------------------------------------------------=
   JOB DONE.
=------------------------------------------------------------------------------=
