
     Program PWSCF v.5.1 starts on  9Oct2017 at 10:59:38 

     This program is part of the open-source Quantum ESPRESSO suite
     for quantum simulation of materials; please cite
         "P. Giannozzi et al., J. Phys.:Condens. Matter 21 395502 (2009);
          URL http://www.quantum-espresso.org", 
     in publications or presentations arising from this work. More details at
     http://www.quantum-espresso.org/quote

     Parallel version (MPI), running on     8 processors
     R & G space division:  proc/nbgrp/npool/nimage =       8
     Reading input from /tmp/Al.scf.in.super.333.vac.05.2085/Al.scf.in.super.333.vac.05.t
Warning: card &IONS ignored
Warning: card   ION_DYNAMICS='BFGS', ignored
Warning: card / ignored
Warning: card &CELL ignored
Warning: card  CELL_DYNAMICS = 'BFGS' ignored
Warning: card / ignored
     Message from routine read_cards :
     DEPRECATED: no units specified in CELL_PARAMETERS card

     Current dimensions of program PWSCF are:
     Max number of different atomic species (ntypx) = 10
     Max number of k-points (npk) =  40000
     Max angular momentum in pseudopotentials (lmaxx) =  3
 kfg - two_fermi_energies  F

     Subspace diagonalization in iterative solution of the eigenvalue problem:
     a serial algorithm will be used


     Parallelization info
     --------------------
     sticks:   dense  smooth     PW     G-vecs:    dense   smooth      PW
     Min         446     314     87                17656    10334    1524
     Max         447     315     89                17661    10352    1525
     Sum        3571    2515    703               141263    82723   12195



     bravais-lattice index     =            0
     lattice parameter (alat)  =    16.110077237  a.u.
     unit-cell volume          =    2956.4999 (a.u.)^3
     number of atoms/cell      =           26
     number of atomic types    =            1
     number of electrons       =        78.00
     number of Kohn-Sham states=           47
     kinetic-energy cutoff     =      35.0000  Ry
     charge density cutoff     =     200.0000  Ry
     convergence threshold     =      1.0E-09
     mixing beta               =       0.3000
     number of iterations used =            8  local-TF  mixing
     Exchange-correlation      = SLA  PW   PSX  PSC ( 1  4 10  8 0)
     A smooth kinetic-energy cutoff is imposed at      34.5000 Ry
     height of the smooth step-function =             800.0000 Ry
     width of the smooth step-function  =               1.0000 Ry


     celldm(1)=  16.110077  celldm(2)=   0.000000  celldm(3)=   0.000000
     celldm(4)=   0.000000  celldm(5)=   0.000000  celldm(6)=   0.000000

     crystal axes: (cart. coord. in units of alat)
               a(1) = (   0.707106781187   0.707106781187  -0.000000000000 )  
               a(2) = (   0.707106781187  -0.000000000000   0.707106781187 )  
               a(3) = (  -0.000000000000   0.707106781187   0.707106781187 )  

     reciprocal axes: (cart. coord. in units 2 pi/alat)
               b(1) = (  0.707107  0.707107 -0.707107 )  
               b(2) = (  0.707107 -0.707107  0.707107 )  
               b(3) = ( -0.707107  0.707107  0.707107 )  


     PseudoPot. # 1 for Al read from file:
     /users/kfg/psuedo/gbrv_1.5/al.pbesol.UPF
     MD5 check sum: 6741bacbf7acc11acbeee135211c012e
     Pseudo is Ultrasoft + core correction, Zval =  3.0
     Generated by new atomic code, or converted to UPF format
     Using radial grid of  893 points,  3 beta functions with: 
                l(1) =   0
                l(2) =   1
                l(3) =   2
     Q(r) pseudized with  8 coefficients,  rinner =    0.900   0.900   0.900
                                                       0.900   0.900

     atomic species   valence    mass     pseudopotential
        Al             3.00    26.98154     Al( 1.00)

     No symmetry found



   Cartesian axes

     site n.     atom                  positions (alat units)
         1           Al  tau(   1) = (   -0.00004369541    0.23643708471    0.23740783072  )
         2           Al  tau(   2) = (    0.00151429200    0.47233478269    0.47282728242  )
         3           Al  tau(   3) = (    0.23450068916   -0.00134263012    0.23758619101  )
         4           Al  tau(   4) = (    0.23276205106    0.23686374140    0.47099872585  )
         5           Al  tau(   5) = (    0.23729364933    0.46844628021    0.70834434694  )
         6           Al  tau(   6) = (    0.46832082745   -0.00238324209    0.47065649500  )
         7           Al  tau(   7) = (    0.47054326598    0.23657265579    0.70540898933  )
         8           Al  tau(   8) = (    0.46899801018    0.47212990169    0.94496107315  )
         9           Al  tau(   9) = (    0.23728596561    0.23402238704   -0.00096072007  )
        10           Al  tau(  10) = (    0.23720923036    0.46922211270    0.23704921743  )
        11           Al  tau(  11) = (    0.23723032428    0.70647265060    0.46899171781  )
        12           Al  tau(  12) = (    0.46840738741    0.23694907079    0.23330203738  )
        13           Al  tau(  13) = (    0.47112784615    0.46921042661    0.47179828032  )
        14           Al  tau(  14) = (    0.47449789554    0.70928263244    0.70649418776  )
        15           Al  tau(  15) = (    0.70772086714    0.23811496146    0.47293762347  )
        16           Al  tau(  16) = (    0.70489740827    0.47380887840    0.70501335942  )
        17           Al  tau(  17) = (    0.70694804095    0.70680569632    0.94333282569  )
        18           Al  tau(  18) = (    0.47313729240    0.46857011314   -0.00147221017  )
        19           Al  tau(  19) = (    0.46964702006    0.70701215469    0.23637613733  )
        20           Al  tau(  20) = (    0.47045911814    0.94434977541    0.46874677354  )
        21           Al  tau(  21) = (    0.70776800730    0.47262082939    0.23729834125  )
        22           Al  tau(  22) = (    0.70609588534    0.70715522026    0.47214117884  )
        23           Al  tau(  23) = (    0.70533585074    0.94228911846    0.70953599130  )
        24           Al  tau(  24) = (    0.94399123320    0.47054092308    0.47254080435  )
        25           Al  tau(  25) = (    0.94249708712    0.70547230201    0.70982116278  )
        26           Al  tau(  26) = (    0.94505048026    0.94493831604    0.94176689307  )

     number of k points=   112  gaussian smearing, width (Ry)=  0.0500

     Number of k-points >= 100: set verbosity='high' to print them.

     Dense  grid:   141263 G-vectors     FFT dimensions: (  75,  75,  75)

     Smooth grid:    82723 G-vectors     FFT dimensions: (  64,  64,  64)

     Largest allocated arrays     est. size (Mb)     dimensions
        Kohn-Sham Wavefunctions         0.95 Mb     (    1323,   47)
        NL pseudopotentials             4.72 Mb     (    1323,  234)
        Each V/rho on FFT grid          0.86 Mb     (   56250)
        Each G-vector array             0.13 Mb     (   17661)
        G-vector shells                 0.01 Mb     (     874)
     Largest temporary arrays     est. size (Mb)     dimensions
        Auxiliary wavefunctions         3.80 Mb     (    1323,  188)
        Each subspace H/S matrix        0.54 Mb     (     188,  188)
        Each <psi_i|beta_j> matrix      0.17 Mb     (     234,   47)
        Arrays for rho mixing           6.87 Mb     (   56250,    8)

     Initial potential from superposition of free atoms

     starting charge   77.93882, renormalised to   78.00000
     Starting wfc are  104 randomized atomic wfcs

     total cpu time spent up to now is      106.6 secs

     per-process dynamical memory:   126.7 Mb

     Self-consistent Calculation

     iteration #  1     ecut=    35.00 Ry     beta=0.30
     Davidson diagonalization with overlap
     ethr =  1.00E-02,  avg # of iterations =  3.0

     Threshold (ethr) on eigenvalues was too large:
     Diagonalizing with lowered threshold

     Davidson diagonalization with overlap
     ethr =  2.82E-04,  avg # of iterations =  4.7

     total cpu time spent up to now is      521.7 secs

     total energy              =    -173.33759433 Ry
     Harris-Foulkes estimate   =    -173.36805469 Ry
     estimated scf accuracy    <       0.23888851 Ry

     iteration #  2     ecut=    35.00 Ry     beta=0.30
     Davidson diagonalization with overlap
     ethr =  3.06E-04,  avg # of iterations =  1.0

     total cpu time spent up to now is      660.7 secs

     total energy              =    -173.27503823 Ry
     Harris-Foulkes estimate   =    -173.33931541 Ry
     estimated scf accuracy    <       0.15151708 Ry

     iteration #  3     ecut=    35.00 Ry     beta=0.30
     Davidson diagonalization with overlap
     ethr =  1.94E-04,  avg # of iterations =  2.5

     total cpu time spent up to now is      834.4 secs

     total energy              =    -173.29295151 Ry
     Harris-Foulkes estimate   =    -173.29358071 Ry
     estimated scf accuracy    <       0.00363487 Ry

     iteration #  4     ecut=    35.00 Ry     beta=0.30
     Davidson diagonalization with overlap
     ethr =  4.66E-06,  avg # of iterations =  9.8

     total cpu time spent up to now is     1193.1 secs

     total energy              =    -173.29422973 Ry
     Harris-Foulkes estimate   =    -173.29416606 Ry
     estimated scf accuracy    <       0.00276255 Ry

     iteration #  5     ecut=    35.00 Ry     beta=0.30
     Davidson diagonalization with overlap
     ethr =  3.54E-06,  avg # of iterations =  1.2

     total cpu time spent up to now is     1332.6 secs

     total energy              =    -173.29285734 Ry
     Harris-Foulkes estimate   =    -173.29424158 Ry
     estimated scf accuracy    <       0.00307882 Ry

     iteration #  6     ecut=    35.00 Ry     beta=0.30
     Davidson diagonalization with overlap
     ethr =  3.54E-06,  avg # of iterations =  3.8

     total cpu time spent up to now is     1553.4 secs

     total energy              =    -173.29382501 Ry
     Harris-Foulkes estimate   =    -173.29388589 Ry
     estimated scf accuracy    <       0.00098985 Ry

     iteration #  7     ecut=    35.00 Ry     beta=0.30
     Davidson diagonalization with overlap
     ethr =  1.27E-06,  avg # of iterations =  1.0

     total cpu time spent up to now is     1689.2 secs

     total energy              =    -173.29362085 Ry
     Harris-Foulkes estimate   =    -173.29383578 Ry
     estimated scf accuracy    <       0.00080019 Ry

     iteration #  8     ecut=    35.00 Ry     beta=0.30
     Davidson diagonalization with overlap
     ethr =  1.03E-06,  avg # of iterations =  2.3

     total cpu time spent up to now is     1848.9 secs

     total energy              =    -173.29366111 Ry
     Harris-Foulkes estimate   =    -173.29368677 Ry
     estimated scf accuracy    <       0.00006916 Ry

     iteration #  9     ecut=    35.00 Ry     beta=0.30
     Davidson diagonalization with overlap
     ethr =  8.87E-08,  avg # of iterations =  3.8

     total cpu time spent up to now is     2089.9 secs

     total energy              =    -173.29368753 Ry
     Harris-Foulkes estimate   =    -173.29368684 Ry
     estimated scf accuracy    <       0.00001166 Ry

     iteration # 10     ecut=    35.00 Ry     beta=0.30
     Davidson diagonalization with overlap
     ethr =  1.50E-08,  avg # of iterations =  1.0

     total cpu time spent up to now is     2230.7 secs

     total energy              =    -173.29368356 Ry
     Harris-Foulkes estimate   =    -173.29368764 Ry
     estimated scf accuracy    <       0.00001429 Ry

     iteration # 11     ecut=    35.00 Ry     beta=0.30
     Davidson diagonalization with overlap
     ethr =  1.50E-08,  avg # of iterations =  2.0

     total cpu time spent up to now is     2386.7 secs

     total energy              =    -173.29368434 Ry
     Harris-Foulkes estimate   =    -173.29368473 Ry
     estimated scf accuracy    <       0.00000115 Ry

     iteration # 12     ecut=    35.00 Ry     beta=0.30
     Davidson diagonalization with overlap
     ethr =  1.47E-09,  avg # of iterations =  3.9

     total cpu time spent up to now is     2619.6 secs

     total energy              =    -173.29368470 Ry
     Harris-Foulkes estimate   =    -173.29368466 Ry
     estimated scf accuracy    <       0.00000009 Ry

     iteration # 13     ecut=    35.00 Ry     beta=0.30
     Davidson diagonalization with overlap
     ethr =  1.11E-10,  avg # of iterations =  4.6

     total cpu time spent up to now is     2873.5 secs

     total energy              =    -173.29368458 Ry
     Harris-Foulkes estimate   =    -173.29368478 Ry
     estimated scf accuracy    <       0.00000074 Ry

     iteration # 14     ecut=    35.00 Ry     beta=0.30
     Davidson diagonalization with overlap
     ethr =  1.11E-10,  avg # of iterations =  4.1

     total cpu time spent up to now is     3109.2 secs

     total energy              =    -173.29368464 Ry
     Harris-Foulkes estimate   =    -173.29368465 Ry
     estimated scf accuracy    <       0.00000003 Ry

     iteration # 15     ecut=    35.00 Ry     beta=0.30
     Davidson diagonalization with overlap
     ethr =  3.47E-11,  avg # of iterations =  3.6

     total cpu time spent up to now is     3315.8 secs

     total energy              =    -173.29368465 Ry
     Harris-Foulkes estimate   =    -173.29368465 Ry
     estimated scf accuracy    <          2.4E-09 Ry

     iteration # 16     ecut=    35.00 Ry     beta=0.30
     Davidson diagonalization with overlap
     c_bands:  1 eigenvalues not converged
     ethr =  3.08E-12,  avg # of iterations =  3.6

     total cpu time spent up to now is     3506.1 secs

     total energy              =    -173.29368465 Ry
     Harris-Foulkes estimate   =    -173.29368465 Ry
     estimated scf accuracy    <          4.5E-09 Ry

     iteration # 17     ecut=    35.00 Ry     beta=0.30
     Davidson diagonalization with overlap
     ethr =  3.08E-12,  avg # of iterations =  1.5

     total cpu time spent up to now is     3650.2 secs

     total energy              =    -173.29368465 Ry
     Harris-Foulkes estimate   =    -173.29368465 Ry
     estimated scf accuracy    <          1.7E-09 Ry

     iteration # 18     ecut=    35.00 Ry     beta=0.30
     Davidson diagonalization with overlap
     ethr =  2.23E-12,  avg # of iterations =  3.1

     total cpu time spent up to now is     3840.5 secs

     End of self-consistent calculation

     Number of k-points >= 100: set verbosity='high' to print the bands.

     the Fermi energy is     7.5740 ev

!    total energy              =    -173.29368465 Ry
     Harris-Foulkes estimate   =    -173.29368465 Ry
     estimated scf accuracy    <          9.2E-12 Ry

     The total energy is the sum of the following terms:

     one-electron contribution =      73.20252962 Ry
     hartree contribution      =       1.69566953 Ry
     xc contribution           =    -110.50561396 Ry
     ewald contribution        =    -137.50504780 Ry
     smearing contrib. (-TS)   =      -0.18122205 Ry

     convergence has been achieved in  18 iterations

     Forces acting on atoms (Ry/au):

     atom    1 type  1   force =  -0.16328615E-02 -0.44922403E-02 -0.10237195E-01
     atom    2 type  1   force =  -0.18931939E-02  0.58209823E-02  0.49420843E-02
     atom    3 type  1   force =  -0.46376661E-02  0.23698532E-02 -0.90876895E-02
     atom    4 type  1   force =   0.21399470E-02 -0.54536164E-02  0.34628531E-02
     atom    5 type  1   force =  -0.66878137E-02  0.11664626E-01 -0.18448807E-02
     atom    6 type  1   force =   0.90504151E-02  0.64239326E-02  0.68619635E-02
     atom    7 type  1   force =   0.74050291E-02 -0.89975290E-02  0.20348653E-02
     atom    8 type  1   force =   0.68648146E-02  0.11721437E-02 -0.55538031E-02
     atom    9 type  1   force =  -0.98199002E-02 -0.46390509E-02  0.92512451E-03
     atom   10 type  1   force =  -0.43772906E-02  0.31514312E-02 -0.49984327E-02
     atom   11 type  1   force =  -0.65758771E-02  0.72050290E-03  0.94746609E-02
     atom   12 type  1   force =   0.53163579E-02 -0.43510080E-02  0.56181736E-02
     atom   13 type  1   force =   0.16112587E-03  0.39879743E-02 -0.72772072E-03
     atom   14 type  1   force =  -0.83350975E-02 -0.41102893E-02  0.48135039E-03
     atom   15 type  1   force =  -0.11299257E-02 -0.11016549E-01  0.12022201E-02
     atom   16 type  1   force =   0.38184873E-02 -0.55488566E-02  0.64998826E-02
     atom   17 type  1   force =  -0.35806004E-03  0.13760405E-02  0.38937552E-02
     atom   18 type  1   force =   0.35292695E-02  0.10352638E-01  0.24483808E-02
     atom   19 type  1   force =   0.89179910E-02 -0.83348245E-03 -0.76267828E-02
     atom   20 type  1   force =   0.35441044E-02 -0.34848345E-02  0.35868777E-02
     atom   21 type  1   force =  -0.18667926E-02  0.37579099E-02 -0.67802950E-02
     atom   22 type  1   force =   0.11124521E-02  0.13942206E-02 -0.21348901E-02
     atom   23 type  1   force =   0.43004737E-02  0.23132677E-02 -0.24586949E-02
     atom   24 type  1   force =  -0.44230039E-02  0.16621666E-02  0.21506557E-02
     atom   25 type  1   force =   0.17980656E-02  0.14200533E-02 -0.31753588E-02
     atom   26 type  1   force =  -0.62210505E-02 -0.46602861E-02  0.10428953E-02

     Total force =     0.046293     Total SCF correction =     0.000003


     entering subroutine stress ...

          total   stress  (Ry/bohr**3)                   (kbar)     P=   -5.51
  -0.0000361172  -0.0000012108  -0.0000002910         -5.31     -0.18     -0.04
  -0.0000012108  -0.0000380274  -0.0000008666         -0.18     -5.59     -0.13
  -0.0000002910  -0.0000008666  -0.0000382875         -0.04     -0.13     -5.63


     Writing output data file Al.scf.in.super.333.vac.055.save

     init_run     :    115.72s CPU    106.45s WALL (       1 calls)
     electrons    :   3804.65s CPU   3733.99s WALL (       1 calls)
     forces       :     27.71s CPU     24.15s WALL (       1 calls)
     stress       :     98.96s CPU     98.55s WALL (       1 calls)

     Called by init_run:
     wfcinit      :    114.61s CPU    105.27s WALL (       1 calls)
     potinit      :      0.18s CPU      0.20s WALL (       1 calls)

     Called by electrons:
     c_bands      :   3334.66s CPU   3275.43s WALL (      19 calls)
     sum_band     :    455.76s CPU    444.27s WALL (      19 calls)
     v_of_rho     :      2.96s CPU      2.98s WALL (      19 calls)
     newd         :      8.68s CPU      8.71s WALL (      19 calls)
     mix_rho      :      2.75s CPU      2.74s WALL (      19 calls)

     Called by c_bands:
     init_us_2    :     28.69s CPU     29.44s WALL (    4592 calls)
     cegterg      :   3236.10s CPU   3172.59s WALL (    2128 calls)

     Called by *egterg:
     h_psi        :   2041.87s CPU   1975.31s WALL (    9013 calls)
     s_psi        :    244.88s CPU    187.39s WALL (    9013 calls)
     g_psi        :      3.74s CPU      3.69s WALL (    6773 calls)
     cdiaghg      :    256.78s CPU    299.16s WALL (    8789 calls)

     Called by h_psi:
     add_vuspsi   :    250.57s CPU    197.65s WALL (    9013 calls)

     General routines
     calbec       :    515.25s CPU    473.38s WALL (   11365 calls)
     fft          :      4.16s CPU      4.15s WALL (     329 calls)
     ffts         :      1.36s CPU      1.35s WALL (     361 calls)
     fftw         :   1542.21s CPU   1553.74s WALL (  636908 calls)
     interpolate  :      0.47s CPU      0.47s WALL (      38 calls)

     Parallel routines
     fft_scatter  :   1041.47s CPU   1050.14s WALL (  637598 calls)

     PWSCF        :     1h 7m CPU        1h 6m WALL


   This run was terminated on:  12: 5:50   9Oct2017            

=------------------------------------------------------------------------------=
   JOB DONE.
=------------------------------------------------------------------------------=
