
     Program PWSCF v.5.1 starts on  9Oct2017 at 11: 0:42 

     This program is part of the open-source Quantum ESPRESSO suite
     for quantum simulation of materials; please cite
         "P. Giannozzi et al., J. Phys.:Condens. Matter 21 395502 (2009);
          URL http://www.quantum-espresso.org", 
     in publications or presentations arising from this work. More details at
     http://www.quantum-espresso.org/quote

     Parallel version (MPI), running on     8 processors
     R & G space division:  proc/nbgrp/npool/nimage =       8
     Reading input from /tmp/Al.scf.in.super.333.05.14900/Al.scf.in.super.333.05.t
Warning: card &IONS ignored
Warning: card   ION_DYNAMICS='BFGS', ignored
Warning: card / ignored
Warning: card &CELL ignored
Warning: card  CELL_DYNAMICS = 'BFGS' ignored
Warning: card / ignored
     Message from routine read_cards :
     DEPRECATED: no units specified in CELL_PARAMETERS card

     Current dimensions of program PWSCF are:
     Max number of different atomic species (ntypx) = 10
     Max number of k-points (npk) =  40000
     Max angular momentum in pseudopotentials (lmaxx) =  3
 kfg - two_fermi_energies  F

     Subspace diagonalization in iterative solution of the eigenvalue problem:
     a serial algorithm will be used


     Parallelization info
     --------------------
     sticks:   dense  smooth     PW     G-vecs:    dense   smooth      PW
     Min         446     314     87                17656    10334    1524
     Max         447     315     89                17661    10352    1525
     Sum        3571    2515    703               141263    82723   12195



     bravais-lattice index     =            0
     lattice parameter (alat)  =    16.110077237  a.u.
     unit-cell volume          =    2956.4999 (a.u.)^3
     number of atoms/cell      =           27
     number of atomic types    =            1
     number of electrons       =        81.00
     number of Kohn-Sham states=           49
     kinetic-energy cutoff     =      35.0000  Ry
     charge density cutoff     =     200.0000  Ry
     convergence threshold     =      1.0E-09
     mixing beta               =       0.3000
     number of iterations used =            8  local-TF  mixing
     Exchange-correlation      = SLA  PW   PSX  PSC ( 1  4 10  8 0)
     A smooth kinetic-energy cutoff is imposed at      34.5000 Ry
     height of the smooth step-function =             800.0000 Ry
     width of the smooth step-function  =               1.0000 Ry


     celldm(1)=  16.110077  celldm(2)=   0.000000  celldm(3)=   0.000000
     celldm(4)=   0.000000  celldm(5)=   0.000000  celldm(6)=   0.000000

     crystal axes: (cart. coord. in units of alat)
               a(1) = (   0.707106781187   0.707106781187   0.000000000000 )  
               a(2) = (   0.707106781187   0.000000000000   0.707106781187 )  
               a(3) = (  -0.000000000000   0.707106781187   0.707106781187 )  

     reciprocal axes: (cart. coord. in units 2 pi/alat)
               b(1) = (  0.707107  0.707107 -0.707107 )  
               b(2) = (  0.707107 -0.707107  0.707107 )  
               b(3) = ( -0.707107  0.707107  0.707107 )  


     PseudoPot. # 1 for Al read from file:
     /users/kfg/psuedo/gbrv_1.5/al.pbesol.UPF
     MD5 check sum: 6741bacbf7acc11acbeee135211c012e
     Pseudo is Ultrasoft + core correction, Zval =  3.0
     Generated by new atomic code, or converted to UPF format
     Using radial grid of  893 points,  3 beta functions with: 
                l(1) =   0
                l(2) =   1
                l(3) =   2
     Q(r) pseudized with  8 coefficients,  rinner =    0.900   0.900   0.900
                                                       0.900   0.900

     atomic species   valence    mass     pseudopotential
        Al             3.00    26.98154     Al( 1.00)

     No symmetry found



   Cartesian axes

     site n.     atom                  positions (alat units)
         1           Al  tau(   1) = (   -0.00188464192    0.00139920748   -0.00303503003  )
         2           Al  tau(   2) = (   -0.00186411104    0.23761407600    0.23593179568  )
         3           Al  tau(   3) = (    0.00089566704    0.47318463167    0.47170803484  )
         4           Al  tau(   4) = (    0.23570883570   -0.00095116279    0.23315179540  )
         5           Al  tau(   5) = (    0.23839211474    0.23485596501    0.47178632328  )
         6           Al  tau(   6) = (    0.23316281813    0.46981172980    0.70928409487  )
         7           Al  tau(   7) = (    0.46996163250   -0.00023566346    0.46903719924  )
         8           Al  tau(   8) = (    0.46881009547    0.23584652099    0.70444298419  )
         9           Al  tau(   9) = (    0.46926010830    0.46994182094    0.94196065906  )
        10           Al  tau(  10) = (    0.23503371201    0.23730360564   -0.00074613847  )
        11           Al  tau(  11) = (    0.23673226196    0.47238226643    0.23775157880  )
        12           Al  tau(  12) = (    0.23423611072    0.70493543882    0.46932823382  )
        13           Al  tau(  13) = (    0.46870019240    0.23720660367    0.23492404980  )
        14           Al  tau(  14) = (    0.47125629275    0.47216261555    0.46983691665  )
        15           Al  tau(  15) = (    0.47059167150    0.70899830715    0.70898817197  )
        16           Al  tau(  16) = (    0.70840019048    0.23712083627    0.46865571969  )
        17           Al  tau(  17) = (    0.70587685384    0.46859405482    0.70930436999  )
        18           Al  tau(  18) = (    0.70663952772    0.70503522366    0.94208126226  )
        19           Al  tau(  19) = (    0.46915121969    0.47264864933   -0.00022552299  )
        20           Al  tau(  20) = (    0.47328787511    0.70527183357    0.23868906305  )
        21           Al  tau(  21) = (    0.47407613790    0.94563150486    0.47197805792  )
        22           Al  tau(  22) = (    0.70566923864    0.47035128548    0.23529109851  )
        23           Al  tau(  23) = (    0.70715226418    0.70695689413    0.47347411061  )
        24           Al  tau(  24) = (    0.70790952091    0.93998662057    0.70725488952  )
        25           Al  tau(  25) = (    0.94554974205    0.47313547563    0.46872027097  )
        26           Al  tau(  26) = (    0.94482627951    0.70530853471    0.70747553100  )
        27           Al  tau(  27) = (    0.94197098833    0.94511430865    0.94470970375  )

     number of k points=   112  gaussian smearing, width (Ry)=  0.0500

     Number of k-points >= 100: set verbosity='high' to print them.

     Dense  grid:   141263 G-vectors     FFT dimensions: (  75,  75,  75)

     Smooth grid:    82723 G-vectors     FFT dimensions: (  64,  64,  64)

     Largest allocated arrays     est. size (Mb)     dimensions
        Kohn-Sham Wavefunctions         0.99 Mb     (    1323,   49)
        NL pseudopotentials             4.91 Mb     (    1323,  243)
        Each V/rho on FFT grid          0.86 Mb     (   56250)
        Each G-vector array             0.13 Mb     (   17661)
        G-vector shells                 0.01 Mb     (     874)
     Largest temporary arrays     est. size (Mb)     dimensions
        Auxiliary wavefunctions         3.96 Mb     (    1323,  196)
        Each subspace H/S matrix        0.59 Mb     (     196,  196)
        Each <psi_i|beta_j> matrix      0.18 Mb     (     243,   49)
        Arrays for rho mixing           6.87 Mb     (   56250,    8)

     Initial potential from superposition of free atoms

     starting charge   80.93646, renormalised to   81.00000
     Starting wfc are  108 randomized atomic wfcs

     total cpu time spent up to now is      107.1 secs

     Self-consistent Calculation

     iteration #  1     ecut=    35.00 Ry     beta=0.30
     Davidson diagonalization with overlap
     ethr =  1.00E-02,  avg # of iterations =  3.0

     Threshold (ethr) on eigenvalues was too large:
     Diagonalizing with lowered threshold

     Davidson diagonalization with overlap
     ethr =  1.98E-04,  avg # of iterations =  3.5

     total cpu time spent up to now is      489.5 secs

     total energy              =    -180.06060821 Ry
     Harris-Foulkes estimate   =    -180.08389758 Ry
     estimated scf accuracy    <       0.16144981 Ry

     iteration #  2     ecut=    35.00 Ry     beta=0.30
     Davidson diagonalization with overlap
     ethr =  1.99E-04,  avg # of iterations =  1.1

     total cpu time spent up to now is      616.0 secs

     total energy              =    -180.01973769 Ry
     Harris-Foulkes estimate   =    -180.06158873 Ry
     estimated scf accuracy    <       0.09848477 Ry

     iteration #  3     ecut=    35.00 Ry     beta=0.30
     Davidson diagonalization with overlap
     ethr =  1.22E-04,  avg # of iterations =  1.1

     total cpu time spent up to now is      741.2 secs

     total energy              =    -180.02357424 Ry
     Harris-Foulkes estimate   =    -180.02355194 Ry
     estimated scf accuracy    <       0.00006564 Ry

     iteration #  4     ecut=    35.00 Ry     beta=0.30
     Davidson diagonalization with overlap
     c_bands:  3 eigenvalues not converged
     c_bands:  3 eigenvalues not converged
     c_bands:  3 eigenvalues not converged
     c_bands:  3 eigenvalues not converged
     c_bands:  1 eigenvalues not converged
     c_bands:  1 eigenvalues not converged
     ethr =  8.10E-08,  avg # of iterations = 10.3

     total cpu time spent up to now is     1134.7 secs

     total energy              =    -180.02424984 Ry
     Harris-Foulkes estimate   =    -180.02424624 Ry
     estimated scf accuracy    <       0.00018434 Ry

     iteration #  5     ecut=    35.00 Ry     beta=0.30
     Davidson diagonalization with overlap
     c_bands:  1 eigenvalues not converged
     ethr =  8.10E-08,  avg # of iterations =  1.9

     total cpu time spent up to now is     1271.4 secs

     total energy              =    -180.02452070 Ry
     Harris-Foulkes estimate   =    -180.02425008 Ry
     estimated scf accuracy    <       0.00019579 Ry

     iteration #  6     ecut=    35.00 Ry     beta=0.30
     Davidson diagonalization with overlap
     ethr =  8.10E-08,  avg # of iterations =  5.2

     total cpu time spent up to now is     1565.2 secs

     total energy              =    -180.02414610 Ry
     Harris-Foulkes estimate   =    -180.02470884 Ry
     estimated scf accuracy    <       0.00239050 Ry

     iteration #  7     ecut=    35.00 Ry     beta=0.30
     Davidson diagonalization with overlap
     ethr =  8.10E-08,  avg # of iterations =  4.8

     total cpu time spent up to now is     1864.7 secs

     total energy              =    -180.02415046 Ry
     Harris-Foulkes estimate   =    -180.02428770 Ry
     estimated scf accuracy    <       0.00032596 Ry

     iteration #  8     ecut=    35.00 Ry     beta=0.30
     Davidson diagonalization with overlap
     ethr =  8.10E-08,  avg # of iterations =  4.4

     total cpu time spent up to now is     2109.4 secs

     total energy              =    -180.02422255 Ry
     Harris-Foulkes estimate   =    -180.02422481 Ry
     estimated scf accuracy    <       0.00001759 Ry

     iteration #  9     ecut=    35.00 Ry     beta=0.30
     Davidson diagonalization with overlap
     ethr =  2.17E-08,  avg # of iterations =  1.1

     total cpu time spent up to now is     2236.7 secs

     total energy              =    -180.02421953 Ry
     Harris-Foulkes estimate   =    -180.02422298 Ry
     estimated scf accuracy    <       0.00000948 Ry

     iteration # 10     ecut=    35.00 Ry     beta=0.30
     Davidson diagonalization with overlap
     ethr =  1.17E-08,  avg # of iterations =  3.0

     total cpu time spent up to now is     2416.9 secs

     total energy              =    -180.02422133 Ry
     Harris-Foulkes estimate   =    -180.02422142 Ry
     estimated scf accuracy    <       0.00000014 Ry

     iteration # 11     ecut=    35.00 Ry     beta=0.30
     Davidson diagonalization with overlap
     ethr =  1.72E-10,  avg # of iterations =  4.4

     total cpu time spent up to now is     2649.2 secs

     total energy              =    -180.02422140 Ry
     Harris-Foulkes estimate   =    -180.02422144 Ry
     estimated scf accuracy    <       0.00000011 Ry

     iteration # 12     ecut=    35.00 Ry     beta=0.30
     Davidson diagonalization with overlap
     ethr =  1.33E-10,  avg # of iterations =  2.7

     total cpu time spent up to now is     2821.4 secs

     End of self-consistent calculation

     Number of k-points >= 100: set verbosity='high' to print the bands.

     the Fermi energy is     8.0128 ev

!    total energy              =    -180.02422142 Ry
     Harris-Foulkes estimate   =    -180.02422142 Ry
     estimated scf accuracy    <          5.9E-10 Ry

     The total energy is the sum of the following terms:

     one-electron contribution =      81.66667055 Ry
     hartree contribution      =       0.23721784 Ry
     xc contribution           =    -115.06067621 Ry
     ewald contribution        =    -146.68480097 Ry
     smearing contrib. (-TS)   =      -0.18263263 Ry

     convergence has been achieved in  12 iterations

     Forces acting on atoms (Ry/au):

     atom    1 type  1   force =   0.72697501E-03  0.96031262E-04  0.38840201E-02
     atom    2 type  1   force =   0.34273552E-02 -0.44694635E-02  0.39163498E-03
     atom    3 type  1   force =  -0.17252474E-02 -0.37943666E-02  0.75802208E-03
     atom    4 type  1   force =  -0.46833131E-02  0.32370410E-02  0.18456320E-02
     atom    5 type  1   force =  -0.63222210E-02  0.72932561E-03 -0.18982329E-02
     atom    6 type  1   force =   0.19538095E-02  0.26983543E-02 -0.48129637E-02
     atom    7 type  1   force =   0.37303227E-02  0.13714994E-02  0.10569590E-03
     atom    8 type  1   force =   0.31061974E-02 -0.14757477E-02  0.38007336E-02
     atom    9 type  1   force =   0.33913886E-02  0.21918025E-02 -0.72734090E-03
     atom   10 type  1   force =  -0.59314034E-03 -0.19688008E-02 -0.13415548E-02
     atom   11 type  1   force =  -0.29999493E-02 -0.25897044E-02 -0.33482445E-02
     atom   12 type  1   force =   0.40011222E-02  0.57044097E-02  0.48399596E-02
     atom   13 type  1   force =   0.39184764E-02 -0.21012901E-02 -0.13358329E-03
     atom   14 type  1   force =   0.90620277E-03 -0.34122645E-03  0.63225278E-02
     atom   15 type  1   force =  -0.10276511E-02 -0.36537275E-02 -0.46195893E-02
     atom   16 type  1   force =  -0.26837117E-02 -0.15151827E-02  0.27470820E-02
     atom   17 type  1   force =   0.11199978E-02  0.39213981E-02 -0.48232948E-02
     atom   18 type  1   force =  -0.57772529E-03  0.29477720E-02 -0.14814677E-03
     atom   19 type  1   force =   0.46162520E-02 -0.16209632E-02  0.17079150E-03
     atom   20 type  1   force =  -0.18382271E-02  0.63680441E-02 -0.45315147E-02
     atom   21 type  1   force =  -0.37472992E-02 -0.43586055E-02  0.44987186E-03
     atom   22 type  1   force =   0.56104449E-03  0.25616588E-02 -0.11322062E-02
     atom   23 type  1   force =   0.23080709E-02 -0.10501674E-02 -0.19610656E-02
     atom   24 type  1   force =  -0.76169237E-03  0.36444976E-02  0.60761585E-03
     atom   25 type  1   force =  -0.60107835E-02 -0.10376596E-02  0.44757879E-02
     atom   26 type  1   force =  -0.32166391E-02  0.17604210E-02  0.17303422E-02
     atom   27 type  1   force =   0.24203857E-02 -0.72553501E-02 -0.26519800E-02

     Total force =     0.028275     Total SCF correction =     0.000023


     entering subroutine stress ...

          total   stress  (Ry/bohr**3)                   (kbar)     P=    0.68
   0.0000051342  -0.0000002021  -0.0000004469          0.76     -0.03     -0.07
  -0.0000002021   0.0000043367  -0.0000001878         -0.03      0.64     -0.03
  -0.0000004469  -0.0000001878   0.0000044628         -0.07     -0.03      0.66


     Writing output data file Al.scf.in.super.333.055.save

     init_run     :    101.98s CPU    106.99s WALL (       1 calls)
     electrons    :   2484.11s CPU   2714.24s WALL (       1 calls)
     forces       :     22.27s CPU     21.16s WALL (       1 calls)
     stress       :     64.25s CPU     65.14s WALL (       1 calls)

     Called by init_run:
     wfcinit      :    101.11s CPU    106.08s WALL (       1 calls)
     potinit      :      0.16s CPU      0.18s WALL (       1 calls)

     Called by electrons:
     c_bands      :   2207.75s CPU   2412.86s WALL (      13 calls)
     sum_band     :    269.66s CPU    294.14s WALL (      13 calls)
     v_of_rho     :      1.46s CPU      1.61s WALL (      13 calls)
     newd         :      4.29s CPU      4.50s WALL (      13 calls)
     mix_rho      :      1.17s CPU      1.36s WALL (      13 calls)

     Called by c_bands:
     init_us_2    :     16.28s CPU     17.60s WALL (    3248 calls)
     cegterg      :   2150.63s CPU   2352.37s WALL (    1456 calls)

     Called by *egterg:
     h_psi        :   1334.74s CPU   1465.51s WALL (    6772 calls)
     s_psi        :    162.27s CPU    137.75s WALL (    6772 calls)
     g_psi        :      2.42s CPU      2.35s WALL (    5204 calls)
     cdiaghg      :    167.79s CPU    218.84s WALL (    6548 calls)

     Called by h_psi:
     add_vuspsi   :    165.63s CPU    150.79s WALL (    6772 calls)

     General routines
     calbec       :    358.11s CPU    356.76s WALL (    8452 calls)
     fft          :      1.57s CPU      1.79s WALL (     233 calls)
     ffts         :      0.73s CPU      0.85s WALL (     225 calls)
     fftw         :    983.85s CPU   1140.06s WALL (  510232 calls)
     interpolate  :      0.26s CPU      0.29s WALL (      26 calls)

     Parallel routines
     fft_scatter  :    579.62s CPU    675.00s WALL (  510690 calls)

     PWSCF        : 44m40.36s CPU    48m37.85s WALL


   This run was terminated on:  11:49:20   9Oct2017            

=------------------------------------------------------------------------------=
   JOB DONE.
=------------------------------------------------------------------------------=
