       N       E                     dE             d eps       ncg     rms          rms(c)
DAV:   1     0.508501708793E+03    0.50850E+03   -0.65035E+04  4032   0.906E+02
DAV:   2    -0.225697913539E+03   -0.73420E+03   -0.70029E+03  4896   0.157E+02
DAV:   3    -0.273571184602E+03   -0.47873E+02   -0.47180E+02  4992   0.386E+01
DAV:   4    -0.274622425575E+03   -0.10512E+01   -0.10454E+01  5088   0.653E+00
DAV:   5    -0.274643151314E+03   -0.20726E-01   -0.20706E-01  4976   0.930E-01    0.226E+01
DAV:   6    -0.271563631167E+03    0.30795E+01   -0.18234E+00  4704   0.247E+00    0.138E+01
DAV:   7    -0.270251950929E+03    0.13117E+01   -0.37411E+00  4624   0.351E+00    0.101E+00
DAV:   8    -0.270265898518E+03   -0.13948E-01   -0.27005E-01  4720   0.116E+00    0.608E-01
DAV:   9    -0.270274728604E+03   -0.88301E-02   -0.28053E-02  5024   0.344E-01    0.318E-01
DAV:  10    -0.270275611258E+03   -0.88265E-03   -0.29717E-03  4592   0.104E-01    0.178E-01
DAV:  11    -0.270276549707E+03   -0.93845E-03   -0.10177E-03  4464   0.742E-02    0.655E-02
DAV:  12    -0.270276643123E+03   -0.93416E-04   -0.17973E-04  4928   0.285E-02    0.197E-02
DAV:  13    -0.270276647698E+03   -0.45754E-05   -0.14264E-05  4832   0.872E-03    0.876E-03
DAV:  14    -0.270276648316E+03   -0.61728E-06   -0.46621E-06  5040   0.467E-03    0.290E-03
DAV:  15    -0.270276650045E+03   -0.17296E-05   -0.16012E-06  4624   0.261E-03    0.129E-03
DAV:  16    -0.270276649912E+03    0.13320E-06   -0.89323E-08  2720   0.718E-04    0.863E-04
DAV:  17    -0.270276649856E+03    0.55890E-07   -0.32781E-08  2640   0.431E-04
   1 F= -.27027665E+03 E0= -.27027665E+03  d E =-.608607E-09
