 vasp.5.4.1 24Jun15 (build Jan 30 2017 21:57:38) complex                         
 executed on           IFC91_ompi date 2018.07.26  12:09:44
 running on   16 total cores
 distrk:  each k-point on   16 cores,    1 groups
 distr:  one band on NCORES_PER_BAND=   1 cores,   16 groups


--------------------------------------------------------------------------------------------------------


 INCAR:
 POTCAR:    PAW_PBE Si 05Jan2001                  
 POTCAR:    PAW_PBE Ge 05Jan2001                  

 ----------------------------------------------------------------------------- 
|                                                                             |
|           W    W    AA    RRRRR   N    N  II  N    N   GGGG   !!!           |
|           W    W   A  A   R    R  NN   N  II  NN   N  G    G  !!!           |
|           W    W  A    A  R    R  N N  N  II  N N  N  G       !!!           |
|           W WW W  AAAAAA  RRRRR   N  N N  II  N  N N  G  GGG   !            |
|           WW  WW  A    A  R   R   N   NN  II  N   NN  G    G                |
|           W    W  A    A  R    R  N    N  II  N    N   GGGG   !!!           |
|                                                                             |
|      For optimal performance we recommend to set                            |
|        NCORE= 4 - approx SQRT( number of cores)                             |
|      NCORE specifies how many cores store one orbital (NPAR=cpu/NCORE).     |
|      This setting can  greatly improve the performance of VASP for DFT.     |
|      The default, NPAR=number of cores might be grossly inefficient         |
|      on modern multi-core architectures or massively parallel machines.     |
|      Do your own testing !!!!                                               |
|      Unfortunately you need to use the default for GW and RPA calculations. |
|      (for HF NCORE is supported but not extensively tested yet)             |
|                                                                             |
 ----------------------------------------------------------------------------- 

 POTCAR:    PAW_PBE Si 05Jan2001                  
   VRHFIN =Si: s2p2                                                             
   LEXCH  = PE                                                                  
   EATOM  =   103.0669 eV,    7.5752 Ry                                         
                                                                                
   TITEL  = PAW_PBE Si 05Jan2001                                                
   LULTRA =        F    use ultrasoft PP ?                                      
   IUNSCR =        1    unscreen: 0-lin 1-nonlin 2-no                           
   RPACOR =    1.500    partial core radius                                     
   POMASS =   28.085; ZVAL   =    4.000    mass and valenz                      
   RCORE  =    1.900    outmost cutoff radius                                   
   RWIGS  =    2.480; RWIGS  =    1.312    wigner-seitz radius (au A)           
   ENMAX  =  245.345; ENMIN  =  184.009 eV                                      
   ICORE  =        2    local potential                                         
   LCOR   =        T    correct aug charges                                     
   LPAW   =        T    paw PP                                                  
   EAUG   =  322.069                                                            
   DEXC   =    0.000                                                            
   RMAX   =    1.950    core radius for proj-oper                               
   RAUG   =    1.300    factor for augmentation sphere                          
   RDEP   =    1.993    radius for radial grids                                 
   RDEPT  =    1.837    core radius for aug-charge                              
                                                                                
   Atomic configuration                                                         
    6 entries                                                                   
     n  l   j            E        occ.                                          
     1  0  0.50     -1785.8828   2.0000                                         
     2  0  0.50      -139.4969   2.0000                                         
     2  1  1.50       -95.5546   6.0000                                         
     3  0  0.50       -10.8127   2.0000                                         
     3  1  0.50        -4.0811   2.0000                                         
     3  2  1.50        -4.0817   0.0000                                         
   Description                                                                  
     l       E           TYP  RCUT    TYP  RCUT                                 
     0    -10.8127223     23  1.900                                             
     0     -7.6451159     23  1.900                                             
     1     -4.0811372     23  1.900                                             
     1      2.4879257     23  1.900                                             
     2     -4.0817478      7  1.900                                             
  local pseudopotential read in
  partial core-charges read in
  partial kinetic energy density read in
  atomic valenz-charges read in
  non local Contribution for L=           0  read in
    real space projection operators read in
  non local Contribution for L=           0  read in
    real space projection operators read in
  non local Contribution for L=           1  read in
    real space projection operators read in
  non local Contribution for L=           1  read in
    real space projection operators read in
    PAW grid and wavefunctions read in

   number of l-projection  operators is LMAX  =           4
   number of lm-projection operators is LMMAX =           8

 POTCAR:    PAW_PBE Ge 05Jan2001                  
   VRHFIN =Ge: s2p2                                                             
   LEXCH  = PE                                                                  
   EATOM  =   104.9960 eV,    7.7170 Ry                                         
                                                                                
   TITEL  = PAW_PBE Ge 05Jan2001                                                
   LULTRA =        F    use ultrasoft PP ?                                      
   IUNSCR =        1    unscreen: 0-lin 1-nonlin 2-no                           
   RPACOR =    2.170    partial core radius                                     
   POMASS =   72.610; ZVAL   =    4.000    mass and valenz                      
   RCORE  =    2.300    outmost cutoff radius                                   
   RWIGS  =    2.300; RWIGS  =    1.217    wigner-seitz radius (au A)           
   ENMAX  =  173.807; ENMIN  =  130.355 eV                                      
   ICORE  =        3    local potential                                         
   LCOR   =        T    correct aug charges                                     
   LPAW   =        T    paw PP                                                  
   EAUG   =  385.843                                                            
   DEXC   =    0.000                                                            
   RMAX   =    2.342    core radius for proj-oper                               
   RAUG   =    1.300    factor for augmentation sphere                          
   RDEP   =    2.318    radius for radial grids                                 
   RDEPT  =    2.103    core radius for aug-charge                              
                                                                                
   Atomic configuration                                                         
   10 entries                                                                   
     n  l   j            E        occ.                                          
     1  0  0.50    -10959.8463   2.0000                                         
     2  0  0.50     -1371.6056   2.0000                                         
     2  1  1.50     -1198.4791   6.0000                                         
     3  0  0.50      -168.4733   2.0000                                         
     3  1  1.50      -115.6019   6.0000                                         
     3  2  2.50       -29.3106  10.0000                                         
     4  0  0.50       -11.7309   2.0000                                         
     4  1  0.50        -3.8952   2.0000                                         
     4  2  1.50        -4.0817   0.0000                                         
     4  3  2.50        -4.0817   0.0000                                         
   Description                                                                  
     l       E           TYP  RCUT    TYP  RCUT                                 
     0    -11.7309493     23  2.300                                             
     0     -7.4578696     23  2.300                                             
     1     -3.8952261     23  2.300                                             
     1      6.1178114     23  2.300                                             
     2     -4.0817478     23  2.300                                             
     3     -1.3605826      7  2.300                                             
  local pseudopotential read in
  partial core-charges read in
  partial kinetic energy density read in
  atomic valenz-charges read in
  non local Contribution for L=           0  read in
    real space projection operators read in
  non local Contribution for L=           0  read in
    real space projection operators read in
  non local Contribution for L=           1  read in
    real space projection operators read in
  non local Contribution for L=           1  read in
    real space projection operators read in
  non local Contribution for L=           2  read in
    real space projection operators read in
    PAW grid and wavefunctions read in

   number of l-projection  operators is LMAX  =           5
   number of lm-projection operators is LMMAX =          13


 ----------------------------------------------------------------------------- 
|                                                                             |
|  ADVICE TO THIS USER RUNNING 'VASP/VAMP'   (HEAR YOUR MASTER'S VOICE ...):  |
|                                                                             |
|      You have a (more or less) 'large supercell' and for larger cells       |
|      it might be more efficient to use real space projection opertators     |
|      So try LREAL= Auto  in the INCAR   file.                               |
|      Mind: At the moment your POTCAR file does not contain real space       |
|       projectors, and has to be modified,  BUT if you                       |
|      want to do an extremely  accurate calculation you might also keep the  |
|      reciprocal projection scheme          (i.e. LREAL=.FALSE.)             |
|                                                                             |
 ----------------------------------------------------------------------------- 

  PAW_PBE Si 05Jan2001                  :
 energy of atom  1       EATOM= -103.0669
 kinetic energy error for atom=    0.0013 (will be added to EATOM!!)
  PAW_PBE Ge 05Jan2001                  :
 energy of atom  2       EATOM= -104.9960
 kinetic energy error for atom=    0.0005 (will be added to EATOM!!)


 POSCAR: supercell                               
  positions in direct lattice
  No initial velocities read in
 exchange correlation table for  LEXCH =        8
   RHO(1)=    0.500       N(1)  =     2000
   RHO(2)=  100.500       N(2)  =     4000



--------------------------------------------------------------------------------------------------------


 ion  position               nearest neighbor table
   1  0.003  0.002  0.329-  36 2.30  26 2.35  37 2.35   9 2.40
   2  0.081  0.423  0.082-   7 2.25   3 2.35  16 2.38  40 2.42
   3  0.003  0.333  0.329-   2 2.35  51 2.38   4 2.38  37 2.42
   4  0.086  0.415  0.416-  18 2.31   3 2.38  41 2.39   5 2.40
   5  0.003  0.336  0.669-   6 2.29  39 2.37  52 2.40   4 2.40
   6  0.083  0.417  0.749-   5 2.29  19 2.32  42 2.32  40 2.38
   7  0.002  0.661  0.001-   2 2.25  10 2.38  32 2.41   8 2.43
   8  0.082  0.748  0.090-  41 2.27  20 2.38  35 2.42   7 2.43
   9  0.089  0.749  0.413-  47 2.28  41 2.37   1 2.40  42 2.48
  10  0.079  0.752  0.750-  42 2.33  22 2.37   7 2.38  38 2.38
  11  0.335  0.996  0.998-  15 2.32  46 2.35  36 2.35  12 2.43
  12  0.420  0.085  0.080-  48 2.27  16 2.31  43 2.43  11 2.43
  13  0.418  0.085  0.417-  18 2.35  14 2.36  25 2.37  43 2.41
  14  0.340  0.996  0.666-  23 2.35  13 2.36  15 2.37  39 2.40
  15  0.414  0.086  0.753-  11 2.32  27 2.36  19 2.37  14 2.37
  16  0.332  0.329  0.006-  12 2.31  17 2.37   2 2.38  45 2.39
  17  0.421  0.413  0.084-  50 2.29  18 2.36  16 2.37  20 2.45
  18  0.329  0.334  0.333-   4 2.31  13 2.35  17 2.36  44 2.40
  19  0.328  0.336  0.668-   6 2.32  15 2.37  44 2.38  45 2.43
  20  0.334  0.672  0.001-  46 2.33  23 2.34   8 2.38  17 2.45
  21  0.422  0.747  0.414-  33 2.27  43 2.38  47 2.42  22 2.44
  22  0.329  0.666  0.672-  23 2.35  45 2.36  10 2.37  21 2.44
  23  0.413  0.748  0.754-  20 2.34  22 2.35  14 2.35  53 2.44
  24  0.752  0.087  0.079-  35 2.33  50 2.37  48 2.42  25 2.43
  25  0.668  0.993  0.336-  34 2.29  13 2.37  24 2.43  26 2.46
  26  0.755  0.084  0.417-   1 2.35  27 2.38  29 2.38  25 2.46
  27  0.663  0.002  0.668-  54 2.34  15 2.36  26 2.38  49 2.40
  28  0.749  0.414  0.089-  29 2.26  31 2.38  40 2.38  50 2.39
  29  0.667  0.335  0.328-  28 2.26  44 2.33  26 2.38  51 2.42
  30  0.668  0.334  0.668-  45 2.37  49 2.38  52 2.38  51 2.39
  31  0.665  0.666  0.006-  46 2.28  32 2.36  28 2.38  54 2.43
  32  0.747  0.756  0.083-  48 2.34  31 2.36   7 2.41  33 2.41
  33  0.662  0.669  0.337-  21 2.27  34 2.30  51 2.38  32 2.41
  34  0.744  0.751  0.416-  25 2.29  33 2.30  53 2.31  41 2.46
  35  0.998  0.004  1.000-  24 2.33  36 2.37  39 2.37   8 2.42
  36  0.087  0.079  0.086-   1 2.30  11 2.35  35 2.37  40 2.37
  37  0.085  0.077  0.419-  38 2.31  43 2.34   1 2.35   3 2.42
  38  0.002  0.004  0.663-  37 2.31  49 2.35  10 2.38  39 2.39
  39  0.086  0.086  0.749-   5 2.37  35 2.37  38 2.39  14 2.40
  40  0.000  0.330  1.000-  36 2.37   6 2.38  28 2.38   2 2.42
  41  0.004  0.667  0.330-   8 2.27   9 2.37   4 2.39  34 2.46
  42  0.998  0.662  0.674-   6 2.32  10 2.33  54 2.36   9 2.48
  43  0.332  0.998  0.337-  37 2.34  21 2.38  13 2.41  12 2.43
  44  0.421  0.410  0.418-  29 2.33  19 2.38  18 2.40  47 2.43
  45  0.419  0.417  0.753-  22 2.36  30 2.37  16 2.39  19 2.43
  46  0.424  0.747  0.081-  31 2.28  20 2.33  11 2.35  47 2.37
  47  0.330  0.667  0.331-   9 2.28  46 2.37  21 2.42  44 2.43
  48  0.659  0.002  0.002-  12 2.27  32 2.34  49 2.39  24 2.42
  49  0.753  0.083  0.750-  38 2.35  30 2.38  48 2.39  27 2.40
  50  0.662  0.338  1.000-  17 2.29  52 2.35  24 2.37  28 2.39
  51  0.752  0.418  0.415-   3 2.38  33 2.38  30 2.39  29 2.42
  52  0.749  0.421  0.752-  53 2.34  50 2.35  30 2.38   5 2.40
  53  0.670  0.668  0.660-  34 2.31  52 2.34  54 2.42  23 2.44
  54  0.749  0.755  0.749-  27 2.34  42 2.36  53 2.42  31 2.43

  LATTYP: Found a face centered cubic cell.
 ALAT       =    16.3988509804
  
  Lattice vectors:
  
 A1 = (   0.0000000000,   8.1994254902,   8.1994254902)
 A2 = (   8.1994254902,   0.0000000000,   8.1994254902)
 A3 = (   8.1994254902,   8.1994254902,   0.0000000000)


Analysis of symmetry for initial positions (statically):
=====================================================================
 Subroutine PRICEL returns:
 Original cell was already a primitive cell.
 

 Routine SETGRP: Setting up the symmetry group for a 
 face centered cubic supercell.


 Subroutine GETGRP returns: Found  1 space group operations
 (whereof  1 operations were pure point group operations)
 out of a pool of 48 trial point group operations.


The static configuration has the point symmetry C_1 .


Analysis of symmetry for dynamics (positions and initial velocities):
=====================================================================
 Subroutine PRICEL returns:
 Original cell was already a primitive cell.
 

 Routine SETGRP: Setting up the symmetry group for a 
 face centered cubic supercell.


 Subroutine GETGRP returns: Found  1 space group operations
 (whereof  1 operations were pure point group operations)
 out of a pool of 48 trial point group operations.


The dynamic configuration has the point symmetry C_1 .


 KPOINTS: Automatic kpoint scheme                 

Automatic generation of k-mesh.
Space group operators:
 irot       det(A)        alpha          n_x          n_y          n_z        tau_x        tau_y        tau_z
    1     1.000000     0.000001     1.000000     0.000000     0.000000     0.000000     0.000000     0.000000
 
 Subroutine IBZKPT returns following result:
 ===========================================
 
 Found     14 irreducible k-points:
 
 Following reciprocal coordinates:
            Coordinates               Weight
  0.000000  0.000000  0.000000      1.000000
  0.333333  0.000000  0.000000      2.000000
  0.000000  0.333333  0.000000      2.000000
  0.333333  0.333333  0.000000      2.000000
 -0.333333  0.333333  0.000000      2.000000
  0.000000  0.000000  0.333333      2.000000
  0.333333  0.000000  0.333333      2.000000
 -0.333333  0.000000  0.333333      2.000000
  0.000000  0.333333  0.333333      2.000000
  0.333333  0.333333  0.333333      2.000000
 -0.333333  0.333333  0.333333      2.000000
  0.000000 -0.333333  0.333333      2.000000
  0.333333 -0.333333  0.333333      2.000000
 -0.333333 -0.333333  0.333333      2.000000
 
 Following cartesian coordinates:
            Coordinates               Weight
  0.000000  0.000000  0.000000      1.000000
 -0.020327  0.020327  0.020327      2.000000
  0.020327 -0.020327  0.020327      2.000000
  0.000000  0.000000  0.040653      2.000000
  0.040653 -0.040653  0.000000      2.000000
  0.020327  0.020327 -0.020327      2.000000
  0.000000  0.040653  0.000000      2.000000
  0.040653  0.000000 -0.040653      2.000000
  0.040653  0.000000  0.000000      2.000000
  0.020327  0.020327  0.020327      2.000000
  0.060980 -0.020327 -0.020327      2.000000
  0.000000  0.040653 -0.040653      2.000000
 -0.020327  0.060980 -0.020327      2.000000
  0.020327  0.020327 -0.060980      2.000000
 


--------------------------------------------------------------------------------------------------------




 Dimension of arrays:
   k-points           NKPTS =       14   k-points in BZ     NKDIM =       14   number of bands    NBANDS=    144
   number of dos      NEDOS =    301   number of ions     NIONS =     54
   non local maximal  LDIM  =      5   non local SUM 2l+1 LMDIM =     13
   total plane-waves  NPLWV = 373248
   max r-space proj   IRMAX =      1   max aug-charges    IRDMAX=  18597
   dimension x,y,z NGX =    72 NGY =   72 NGZ =   72
   dimension x,y,z NGXF=   144 NGYF=  144 NGZF=  144
   support grid    NGXF=   144 NGYF=  144 NGZF=  144
   ions per type =              34  20
 NGX,Y,Z   is equivalent  to a cutoff of  10.32, 10.32, 10.32 a.u.
 NGXF,Y,Z  is equivalent  to a cutoff of  20.65, 20.65, 20.65 a.u.


 I would recommend the setting:
   dimension x,y,z NGX =    71 NGY =   71 NGZ =   71
 SYSTEM =  unknown system                          
 POSCAR =  supercell                               

 Startparameter for this run:
   NWRITE =      2    write-flag & timer
   PREC   = accura    normal or accurate (medium, high low for compatibility)
   ISTART =      0    job   : 0-new  1-cont  2-samecut
   ICHARG =      2    charge: 1-file 2-atom 10-const
   ISPIN  =      1    spin polarized calculation?
   LNONCOLLINEAR =      F non collinear calculations
   LSORBIT =      F    spin-orbit coupling
   INIWAV =      1    electr: 0-lowe 1-rand  2-diag
   LASPH  =      F    aspherical Exc in radial PAW
   METAGGA=      F    non-selfconsistent MetaGGA calc.

 Electronic Relaxation 1
   ENCUT  =  350.0 eV  25.72 Ry    5.07 a.u.  17.69 17.69 17.69*2*pi/ulx,y,z
   ENINI  =  350.0     initial cutoff
   ENAUG  =  385.8 eV  augmentation charge cutoff
   NELM   =     60;   NELMIN=  2; NELMDL= -5     # of ELM steps 
   EDIFF  = 0.1E-06   stopping-criterion for ELM
   LREAL  =      F    real-space projection
   NLSPLINE    = F    spline interpolate recip. space projectors
   LCOMPAT=      F    compatible to vasp.4.4
   GGA_COMPAT  = T    GGA compatible to vasp.4.4-vasp.4.6
   LMAXPAW     = -100 max onsite density
   LMAXMIX     =    2 max onsite mixed and CHGCAR
   VOSKOWN=      0    Vosko Wilk Nusair interpolation
   ROPT   =    0.00000   0.00000
 Ionic relaxation
   EDIFFG = 0.1E-05   stopping-criterion for IOM
   NSW    =      0    number of steps for IOM
   NBLOCK =      1;   KBLOCK =      1    inner block; outer block 
   IBRION =     -1    ionic relax: 0-MD 1-quasi-New 2-CG
   NFREE  =      0    steps in history (QN), initial steepest desc. (CG)
   ISIF   =      2    stress and relaxation
   IWAVPR =     10    prediction:  0-non 1-charg 2-wave 3-comb
   ISYM   =      2    0-nonsym 1-usesym 2-fastsym
   LCORR  =      T    Harris-Foulkes like correction to forces

   POTIM  = 0.5000    time-step for ionic-motion
   TEIN   =    0.0    initial temperature
   TEBEG  =    0.0;   TEEND  =   0.0 temperature during run
   SMASS  =  -3.00    Nose mass-parameter (am)
   estimated Nose-frequenzy (Omega)   =  0.10E-29 period in steps =****** mass=  -0.307E-26a.u.
   SCALEE = 1.0000    scale energy and forces
   NPACO  =    256;   APACO  = 16.0  distance and # of slots for P.C.
   PSTRESS=    0.0 pullay stress

  Mass of Ions in am
   POMASS =  28.09 72.61
  Ionic Valenz
   ZVAL   =   4.00  4.00
  Atomic Wigner-Seitz radii
   RWIGS  =  -1.00 -1.00
  virtual crystal weights 
   VCA    =   1.00  1.00
   NELECT =     216.0000    total number of electrons
   NUPDOWN=      -1.0000    fix difference up-down

 DOS related values:
   EMIN   =  10.00;   EMAX   =-10.00  energy-range for DOS
   EFERMI =   0.00
   ISMEAR =     0;   SIGMA  =   0.05  broadening in eV -4-tet -1-fermi 0-gaus

 Electronic relaxation 2 (details)
   IALGO  =     38    algorithm
   LDIAG  =      T    sub-space diagonalisation (order eigenvalues)
   LSUBROT=      F    optimize rotation matrix (better conditioning)
   TURBO    =      0    0=normal 1=particle mesh
   IRESTART =      0    0=no restart 2=restart with 2 vectors
   NREBOOT  =      0    no. of reboots
   NMIN     =      0    reboot dimension
   EREF     =   0.00    reference energy to select bands
   IMIX   =      4    mixing-type and parameters
     AMIX     =   0.40;   BMIX     =  1.00
     AMIX_MAG =   1.60;   BMIX_MAG =  1.00
     AMIN     =   0.10
     WC   =   100.;   INIMIX=   1;  MIXPRE=   1;  MAXMIX= -45

 Intra band minimization:
   WEIMIN = 0.0000     energy-eigenvalue tresh-hold
   EBREAK =  0.17E-09  absolut break condition
   DEPER  =   0.30     relativ break condition  

   TIME   =   0.40     timestep for ELM

  volume/ion in A,a.u.               =      20.42       137.78
  Fermi-wavevector in a.u.,A,eV,Ry     =   0.950822  1.796793 12.300523  0.904063
  Thomas-Fermi vector in A             =   2.079235

 Write flags
   LWAVE  =      T    write WAVECAR
   LCHARG =      T    write CHGCAR
   LVTOT  =      F    write LOCPOT, total local potential
   LVHAR  =      F    write LOCPOT, Hartree potential only
   LELF   =      F    write electronic localiz. function (ELF)
   LORBIT =      0    0 simple, 1 ext, 2 COOP (PROOUT)


 Dipole corrections
   LMONO  =      F    monopole corrections only (constant potential shift)
   LDIPOL =      F    correct potential (dipole corrections)
   IDIPOL =      0    1-x, 2-y, 3-z, 4-all directions 
   EPSILON=  1.0000000 bulk dielectric constant

 Exchange correlation treatment:
   GGA     =    --    GGA type
   LEXCH   =     8    internal setting for exchange type
   VOSKOWN=      0    Vosko Wilk Nusair interpolation
   LHFCALC =     F    Hartree Fock is set to
   LHFONE  =     F    Hartree Fock one center treatment
   AEXX    =    0.0000 exact exchange contribution

 Linear response parameters
   LEPSILON=     F    determine dielectric tensor
   LRPA    =     F    only Hartree local field effects (RPA)
   LNABLA  =     F    use nabla operator in PAW spheres
   LVEL    =     F    velocity operator in full k-point grid
   LINTERFAST=   F  fast interpolation
   KINTER  =     0    interpolate to denser k-point grid
   CSHIFT  =0.1000    complex shift for real part using Kramers Kronig
   OMEGAMAX=  -1.0    maximum frequency
   DEG_THRESHOLD= 0.2000000E-02 threshold for treating states as degnerate
   RTIME   =    0.100 relaxation time in fs

 Orbital magnetization related:
   ORBITALMAG=     F  switch on orbital magnetization
   LCHIMAG   =     F  perturbation theory with respect to B field
   DQ        =  0.001000  dq finite difference perturbation B field



--------------------------------------------------------------------------------------------------------


 Static calculation
 charge density and potential will be updated during run
 non-spin polarized calculation
 Variant of blocked Davidson
 Davidson routine will perform the subspace rotation
 perform sub-space diagonalisation
    after iterative eigenvector-optimisation
 modified Broyden-mixing scheme, WC =      100.0
 initial mixing is a Kerker type mixing with AMIX =  0.4000 and BMIX =      1.0000
 Hartree-type preconditioning will be used
 using additional bands           36
 reciprocal scheme for non local part
 use partial core corrections
 calculate Harris-corrections to forces   (improved forces if not selfconsistent)
 use gradient corrections 
 use of overlap-Matrix (Vanderbilt PP)
 Gauss-broadening in eV      SIGMA  =   0.05


--------------------------------------------------------------------------------------------------------


  energy-cutoff  :      350.00
  volume of cell :     1102.50
      direct lattice vectors                 reciprocal lattice vectors
     0.000000000  8.199425490  8.199425490    -0.060979882  0.060979882  0.060979882
     8.199425490  0.000000000  8.199425490     0.060979882 -0.060979882  0.060979882
     8.199425490  8.199425490  0.000000000     0.060979882  0.060979882 -0.060979882

  length of vectors
    11.595738732 11.595738732 11.595738732     0.105620254  0.105620254  0.105620254



 k-points in units of 2pi/SCALE and weight: Automatic kpoint scheme                 
   0.00000000  0.00000000  0.00000000       0.037
  -0.02032663  0.02032663  0.02032663       0.074
   0.02032663 -0.02032663  0.02032663       0.074
   0.00000000  0.00000000  0.04065325       0.074
   0.04065325 -0.04065325  0.00000000       0.074
   0.02032663  0.02032663 -0.02032663       0.074
   0.00000000  0.04065325  0.00000000       0.074
   0.04065325  0.00000000 -0.04065325       0.074
   0.04065325  0.00000000  0.00000000       0.074
   0.02032663  0.02032663  0.02032663       0.074
   0.06097988 -0.02032663 -0.02032663       0.074
   0.00000000  0.04065325 -0.04065325       0.074
  -0.02032663  0.06097988 -0.02032663       0.074
   0.02032663  0.02032663 -0.06097988       0.074

 k-points in reciprocal lattice and weights: Automatic kpoint scheme                 
   0.00000000  0.00000000  0.00000000       0.037
   0.33333333  0.00000000  0.00000000       0.074
   0.00000000  0.33333333  0.00000000       0.074
   0.33333333  0.33333333  0.00000000       0.074
  -0.33333333  0.33333333  0.00000000       0.074
   0.00000000  0.00000000  0.33333333       0.074
   0.33333333  0.00000000  0.33333333       0.074
  -0.33333333  0.00000000  0.33333333       0.074
   0.00000000  0.33333333  0.33333333       0.074
   0.33333333  0.33333333  0.33333333       0.074
  -0.33333333  0.33333333  0.33333333       0.074
   0.00000000 -0.33333333  0.33333333       0.074
   0.33333333 -0.33333333  0.33333333       0.074
  -0.33333333 -0.33333333  0.33333333       0.074

 position of ions in fractional coordinates (direct lattice) 
   0.00275718  0.00235427  0.32874597
   0.08056778  0.42334344  0.08158493
   0.00316452  0.33268078  0.32921363
   0.08554862  0.41490678  0.41593761
   0.00255040  0.33576570  0.66909479
   0.08273266  0.41726520  0.74880317
   0.00162694  0.66136050  0.00094171
   0.08249464  0.74771021  0.09023551
   0.08937232  0.74894702  0.41276716
   0.07881607  0.75201941  0.74952097
   0.33487875  0.99551743  0.99809181
   0.41979179  0.08544901  0.08019889
   0.41826057  0.08524843  0.41747411
   0.34015244  0.99584985  0.66621630
   0.41370145  0.08597881  0.75282555
   0.33216096  0.32923640  0.00573031
   0.42060046  0.41325283  0.08363820
   0.32944643  0.33376733  0.33251582
   0.32757830  0.33611681  0.66844788
   0.33397130  0.67182999  0.00050378
   0.42227387  0.74660556  0.41449413
   0.32912271  0.66574708  0.67210592
   0.41266618  0.74803624  0.75403493
   0.75217982  0.08742500  0.07921760
   0.66791173  0.99287931  0.33615924
   0.75475198  0.08440276  0.41739381
   0.66272145  0.00226192  0.66818794
   0.74898692  0.41432297  0.08868534
   0.66675524  0.33513056  0.32768380
   0.66844180  0.33449041  0.66771166
   0.66513672  0.66569000  0.00582851
   0.74726757  0.75567228  0.08262771
   0.66184316  0.66871412  0.33727272
   0.74442795  0.75056466  0.41611221
   0.99830866  0.00376443  0.99985226
   0.08672305  0.07916740  0.08616975
   0.08514681  0.07739385  0.41941861
   0.00159782  0.00380977  0.66291220
   0.08619937  0.08567074  0.74921929
   0.00043896  0.32986754  0.99983799
   0.00399357  0.66710596  0.32968537
   0.99795583  0.66231134  0.67440447
   0.33199461  0.99776812  0.33690536
   0.42070488  0.41048815  0.41757259
   0.41850388  0.41696754  0.75297778
   0.42434554  0.74743004  0.08056931
   0.33018092  0.66699587  0.33097250
   0.65928116  0.00234126  0.00210922
   0.75342532  0.08325714  0.74965196
   0.66234522  0.33796018  0.99969056
   0.75215138  0.41776424  0.41516959
   0.74930566  0.42124922  0.75161171
   0.67010477  0.66793169  0.65999441
   0.74876467  0.75516912  0.74919325

 position of ions in cartesian coordinates  (Angst):
   2.71483178  2.71813538  0.04191093
   4.14012254  1.32955900  4.13178250
   5.42715397  2.72530990  2.75373855
   6.81244668  4.11189896  4.10344680
   8.23927871  5.50710465  2.77399765
   9.56109071  6.81811612  4.09969517
   5.43049766  0.02106147  5.43611612
   6.87067352  1.41628804  6.80720280
   9.52538887  4.11725526  6.87373691
  12.31176850  6.79188783  6.81237360
  16.34645044 10.92959277 10.90848431
   1.35821763  4.09963636  4.14268426
   4.12203606  6.85254426  4.12848457
  13.62798757  8.25164547 10.95445126
   6.87771379  9.56485120  4.09709104
   2.74653458  2.77051430  5.42307839
   4.07422100  4.13446734  6.83711789
   5.46313902  5.42771010  5.43797180
   8.23685333  8.16684243  5.44191866
   5.51275071  2.74250354  8.24699280
   9.52035040  6.86101687  9.58413981
  10.96962599  8.20949954  8.15736077
  12.31612065  9.56627883  9.51709300
   1.36637358  6.81698114  6.88427715
  10.89735257  8.23280509 13.61753242
   4.11444354  9.61092204  6.88058673
   5.49730367 10.91269236  5.45248159
   4.12437910  6.86843124  9.53847273
   5.43469701  8.15382885  8.21488801
   8.21748123 10.95569079  8.22346793
   5.50606599  5.50152938 10.91201454
   6.87357826  6.80466447 12.32324331
   8.24851412  8.19217620 10.90980527
   9.56608009  9.51576262 12.25808053
   8.22908025 16.38377158  8.21642364
   1.35566965  1.41762165  1.36020637
   4.07357674  4.13714652  1.33274001
   5.46673708  5.44860037  0.04433909
   6.84561863  6.84995309  1.40923620
  10.90282139  8.20169630  2.70832352
   8.17311626  2.73597564  5.50263058
  10.96030167 13.71239366 13.61323697
  10.94355580  5.48459552 10.90329046
   6.78962236  6.87339362  6.81530531
   9.59287953  9.60547662  6.85038570
   6.78911897  4.14001165  9.60788656
   8.18276732  5.42107822  8.17627685
   0.03649144  5.42302120  5.42492380
   6.82937611 12.32437015  6.86031542
  10.96796755 13.62773850  8.20192955
   6.82957880  9.57136128  9.59263592
   9.61678581 12.30666018  9.59787754
  10.88823112 10.90604909 10.97113023
  12.33490720 12.28239434 12.33139308



--------------------------------------------------------------------------------------------------------


 k-point  1 :   0.0000 0.0000 0.0000  plane waves:   16361
 k-point  2 :   0.3333 0.0000 0.0000  plane waves:   16382
 k-point  3 :   0.0000 0.3333 0.0000  plane waves:   16382
 k-point  4 :   0.3333 0.3333 0.0000  plane waves:   16349
 k-point  5 :  -0.3333 0.3333 0.0000  plane waves:   16406
 k-point  6 :   0.0000 0.0000 0.3333  plane waves:   16382
 k-point  7 :   0.3333 0.0000 0.3333  plane waves:   16349
 k-point  8 :  -0.3333 0.0000 0.3333  plane waves:   16406
 k-point  9 :   0.0000 0.3333 0.3333  plane waves:   16349
 k-point 10 :   0.3333 0.3333 0.3333  plane waves:   16382
 k-point 11 :  -0.3333 0.3333 0.3333  plane waves:   16406
 k-point 12 :   0.0000-0.3333 0.3333  plane waves:   16406
 k-point 13 :   0.3333-0.3333 0.3333  plane waves:   16406
 k-point 14 :  -0.3333-0.3333 0.3333  plane waves:   16406

 maximum and minimum number of plane-waves per node :     16406    16349

 maximum number of plane-waves:     16406
 maximum index in each direction: 
   IXMAX=   18   IYMAX=   18   IZMAX=   17
   IXMIN=  -18   IYMIN=  -18   IZMIN=  -18

 WARNING: aliasing errors must be expected set NGX to  74 to avoid them
 WARNING: aliasing errors must be expected set NGY to  74 to avoid them
 NGZ is ok and might be reduce to  72
 aliasing errors are usually negligible using standard VASP settings
 and one can safely disregard these warnings

 serial   3D FFT for wavefunctions
 parallel 3D FFT for charge:
    minimum data exchange during FFTs selected (reduces bandwidth)


 total amount of memory used by VASP on root node   172025. kBytes
========================================================================

   base      :      30000. kBytes
   nonl-proj :      61986. kBytes
   fftplans  :      15551. kBytes
   grid      :      29859. kBytes
   one-center:        438. kBytes
   wavefun   :      34191. kBytes

     INWAV:  cpu time    0.0000: real time    0.0000
 Broyden mixing: mesh for mixing (old mesh)
   NGX = 35   NGY = 35   NGZ = 35
  (NGX  =144   NGY  =144   NGZ  =144)
  gives a total of  42875 points

 initial charge density was supplied:
 charge density of overlapping atoms calculated
 number of electron     216.0000000 magnetization 
 keeping initial charge density in first step


--------------------------------------------------------------------------------------------------------


 Maximum index for augmentation-charges         1131 (set IRDMAX)


--------------------------------------------------------------------------------------------------------


 First call to EWALD:  gamma=   0.172
 Maximum number of real-space cells 3x 3x 3
 Maximum number of reciprocal cells 3x 3x 3

 FEWALD executed in parallel
    FEWALD:  cpu time    0.0080: real time    0.0060


----------------------------------------- Iteration    1(   1)  ---------------------------------------


    POTLOK:  cpu time    0.4280: real time    0.4281
    SETDIJ:  cpu time    0.0240: real time    0.0253
     EDDAV:  cpu time   52.7760: real time   52.8400
       DOS:  cpu time    0.0000: real time    0.0015
    --------------------------------------------
      LOOP:  cpu time   53.2320: real time   53.2959

 eigenvalue-minimisations  :  4032
 total energy-change (2. order) : 0.5085017E+03  (-0.6503495E+04)
 number of electron     216.0000000 magnetization 
 augmentation part      216.0000000 magnetization 

 Free energy of the ion-electron system (eV)
  ---------------------------------------------------
  alpha Z        PSCENC =       243.29013955
  Ewald energy   TEWEN  =     -6126.43215788
  -Hartree energ DENC   =      -304.49538220
  -exchange      EXHF   =         0.00000000
  -V(xc)+E(xc)   XCENC  =      -464.40334906
  PAW double counting   =      4759.11309089    -3871.19010580
  entropy T*S    EENTRO =        -0.01779038
  eigenvalues    EBANDS =       668.49644302
  atomic energy  EATOM  =      5604.14082068
  Solvation  Ediel_sol  =         0.00000000
  ---------------------------------------------------
  free energy    TOTEN  =       508.50170879 eV

  energy without entropy =      508.51949918  energy(sigma->0) =      508.51060399


--------------------------------------------------------------------------------------------------------




----------------------------------------- Iteration    1(   2)  ---------------------------------------


     EDDAV:  cpu time   63.3160: real time   63.2984
       DOS:  cpu time    0.0040: real time    0.0008
    --------------------------------------------
      LOOP:  cpu time   63.3240: real time   63.2998

 eigenvalue-minimisations  :  4896
 total energy-change (2. order) :-0.7341996E+03  (-0.7002948E+03)
 number of electron     216.0000000 magnetization 
 augmentation part      216.0000000 magnetization 

 Free energy of the ion-electron system (eV)
  ---------------------------------------------------
  alpha Z        PSCENC =       243.29013955
  Ewald energy   TEWEN  =     -6126.43215788
  -Hartree energ DENC   =      -304.49538220
  -exchange      EXHF   =         0.00000000
  -V(xc)+E(xc)   XCENC  =      -464.40334906
  PAW double counting   =      4759.11309089    -3871.19010580
  entropy T*S    EENTRO =        -0.00000000
  eigenvalues    EBANDS =       -65.72096970
  atomic energy  EATOM  =      5604.14082068
  Solvation  Ediel_sol  =         0.00000000
  ---------------------------------------------------
  free energy    TOTEN  =      -225.69791354 eV

  energy without entropy =     -225.69791354  energy(sigma->0) =     -225.69791354


--------------------------------------------------------------------------------------------------------




----------------------------------------- Iteration    1(   3)  ---------------------------------------


     EDDAV:  cpu time   65.6320: real time   65.7027
       DOS:  cpu time    0.0000: real time    0.0009
    --------------------------------------------
      LOOP:  cpu time   65.6320: real time   65.7040

 eigenvalue-minimisations  :  4992
 total energy-change (2. order) :-0.4787327E+02  (-0.4718039E+02)
 number of electron     216.0000000 magnetization 
 augmentation part      216.0000000 magnetization 

 Free energy of the ion-electron system (eV)
  ---------------------------------------------------
  alpha Z        PSCENC =       243.29013955
  Ewald energy   TEWEN  =     -6126.43215788
  -Hartree energ DENC   =      -304.49538220
  -exchange      EXHF   =         0.00000000
  -V(xc)+E(xc)   XCENC  =      -464.40334906
  PAW double counting   =      4759.11309089    -3871.19010580
  entropy T*S    EENTRO =        -0.00000000
  eigenvalues    EBANDS =      -113.59424076
  atomic energy  EATOM  =      5604.14082068
  Solvation  Ediel_sol  =         0.00000000
  ---------------------------------------------------
  free energy    TOTEN  =      -273.57118460 eV

  energy without entropy =     -273.57118460  energy(sigma->0) =     -273.57118460


--------------------------------------------------------------------------------------------------------




----------------------------------------- Iteration    1(   4)  ---------------------------------------


     EDDAV:  cpu time   66.8120: real time   66.8175
       DOS:  cpu time    0.0040: real time    0.0007
    --------------------------------------------
      LOOP:  cpu time   66.8160: real time   66.8186

 eigenvalue-minimisations  :  5088
 total energy-change (2. order) :-0.1051241E+01  (-0.1045376E+01)
 number of electron     216.0000000 magnetization 
 augmentation part      216.0000000 magnetization 

 Free energy of the ion-electron system (eV)
  ---------------------------------------------------
  alpha Z        PSCENC =       243.29013955
  Ewald energy   TEWEN  =     -6126.43215788
  -Hartree energ DENC   =      -304.49538220
  -exchange      EXHF   =         0.00000000
  -V(xc)+E(xc)   XCENC  =      -464.40334906
  PAW double counting   =      4759.11309089    -3871.19010580
  entropy T*S    EENTRO =        -0.00000000
  eigenvalues    EBANDS =      -114.64548173
  atomic energy  EATOM  =      5604.14082068
  Solvation  Ediel_sol  =         0.00000000
  ---------------------------------------------------
  free energy    TOTEN  =      -274.62242557 eV

  energy without entropy =     -274.62242557  energy(sigma->0) =     -274.62242557


--------------------------------------------------------------------------------------------------------




----------------------------------------- Iteration    1(   5)  ---------------------------------------


     EDDAV:  cpu time   77.0320: real time   77.0086
       DOS:  cpu time    0.0000: real time    0.0009
    CHARGE:  cpu time    2.0600: real time    2.0581
    MIXING:  cpu time    0.0160: real time    0.0180
    --------------------------------------------
      LOOP:  cpu time   79.1080: real time   79.0860

 eigenvalue-minimisations  :  4976
 total energy-change (2. order) :-0.2072574E-01  (-0.2070629E-01)
 number of electron     216.0000000 magnetization 
 augmentation part      -21.0264138 magnetization 

 Broyden mixing:
  rms(total) = 0.22588E+01    rms(broyden)= 0.22588E+01
  rms(prec ) = 0.26174E+01
  weight for this iteration     100.00

 Free energy of the ion-electron system (eV)
  ---------------------------------------------------
  alpha Z        PSCENC =       243.29013955
  Ewald energy   TEWEN  =     -6126.43215788
  -Hartree energ DENC   =      -304.49538220
  -exchange      EXHF   =         0.00000000
  -V(xc)+E(xc)   XCENC  =      -464.40334906
  PAW double counting   =      4759.11309089    -3871.19010580
  entropy T*S    EENTRO =        -0.00000000
  eigenvalues    EBANDS =      -114.66620747
  atomic energy  EATOM  =      5604.14082068
  Solvation  Ediel_sol  =         0.00000000
  ---------------------------------------------------
  free energy    TOTEN  =      -274.64315131 eV

  energy without entropy =     -274.64315131  energy(sigma->0) =     -274.64315131


--------------------------------------------------------------------------------------------------------




----------------------------------------- Iteration    1(   6)  ---------------------------------------


    POTLOK:  cpu time    0.6320: real time    0.6311
    SETDIJ:  cpu time    0.0320: real time    0.0294
     EDDAV:  cpu time   75.9240: real time   75.9029
       DOS:  cpu time    0.0000: real time    0.0009
    CHARGE:  cpu time    1.9200: real time    1.9194
    MIXING:  cpu time    0.0160: real time    0.0149
    --------------------------------------------
      LOOP:  cpu time   78.5240: real time   78.4991

 eigenvalue-minimisations  :  4704
 total energy-change (2. order) : 0.3079520E+01  (-0.1823360E+00)
 number of electron     216.0000000 magnetization 
 augmentation part      -20.8460100 magnetization 

 Broyden mixing:
  rms(total) = 0.13775E+01    rms(broyden)= 0.13775E+01
  rms(prec ) = 0.15830E+01
  weight for this iteration     100.00

 eigenvalues of (default mixing * dielectric matrix)
  average eigenvalue GAMMA=   2.5434
  2.5434

 Free energy of the ion-electron system (eV)
  ---------------------------------------------------
  alpha Z        PSCENC =       243.29013955
  Ewald energy   TEWEN  =     -6126.43215788
  -Hartree energ DENC   =      -341.54591453
  -exchange      EXHF   =         0.00000000
  -V(xc)+E(xc)   XCENC  =      -458.17296902
  PAW double counting   =      9264.60862035    -8380.36613580
  entropy T*S    EENTRO =        -0.00000000
  eigenvalues    EBANDS =       -77.08603450
  atomic energy  EATOM  =      5604.14082068
  Solvation  Ediel_sol  =         0.00000000
  ---------------------------------------------------
  free energy    TOTEN  =      -271.56363117 eV

  energy without entropy =     -271.56363117  energy(sigma->0) =     -271.56363117


--------------------------------------------------------------------------------------------------------




----------------------------------------- Iteration    1(   7)  ---------------------------------------


    POTLOK:  cpu time    0.6000: real time    0.5988
    SETDIJ:  cpu time    0.0280: real time    0.0298
     EDDAV:  cpu time   74.2800: real time   74.2545
       DOS:  cpu time    0.0000: real time    0.0010
    CHARGE:  cpu time    2.0440: real time    2.0425
    MIXING:  cpu time    0.0160: real time    0.0192
    --------------------------------------------
      LOOP:  cpu time   76.9680: real time   76.9466

 eigenvalue-minimisations  :  4624
 total energy-change (2. order) : 0.1311680E+01  (-0.3741069E+00)
 number of electron     216.0000000 magnetization 
 augmentation part      -20.6028525 magnetization 

 Broyden mixing:
  rms(total) = 0.10066E+00    rms(broyden)= 0.10066E+00
  rms(prec ) = 0.13980E+00
  weight for this iteration     100.00

 eigenvalues of (default mixing * dielectric matrix)
  average eigenvalue GAMMA=   1.9906
  1.4858  2.4954

 Free energy of the ion-electron system (eV)
  ---------------------------------------------------
  alpha Z        PSCENC =       243.29013955
  Ewald energy   TEWEN  =     -6126.43215788
  -Hartree energ DENC   =      -403.23557325
  -exchange      EXHF   =         0.00000000
  -V(xc)+E(xc)   XCENC  =      -447.49777998
  PAW double counting   =     19773.24847699   -18894.04613645
  entropy T*S    EENTRO =        -0.00000000
  eigenvalues    EBANDS =       -19.71974057
  atomic energy  EATOM  =      5604.14082068
  Solvation  Ediel_sol  =         0.00000000
  ---------------------------------------------------
  free energy    TOTEN  =      -270.25195093 eV

  energy without entropy =     -270.25195093  energy(sigma->0) =     -270.25195093


--------------------------------------------------------------------------------------------------------




----------------------------------------- Iteration    1(   8)  ---------------------------------------


    POTLOK:  cpu time    0.6040: real time    0.6053
    SETDIJ:  cpu time    0.0320: real time    0.0340
     EDDAV:  cpu time   75.9720: real time   75.9465
       DOS:  cpu time    0.0000: real time    0.0012
    CHARGE:  cpu time    2.0400: real time    2.0386
    MIXING:  cpu time    0.0200: real time    0.0194
    --------------------------------------------
      LOOP:  cpu time   78.6720: real time   78.6459

 eigenvalue-minimisations  :  4720
 total energy-change (2. order) :-0.1394759E-01  (-0.2700542E-01)
 number of electron     216.0000000 magnetization 
 augmentation part      -20.6373872 magnetization 

 Broyden mixing:
  rms(total) = 0.60801E-01    rms(broyden)= 0.60800E-01
  rms(prec ) = 0.67015E-01
  weight for this iteration     100.00

 eigenvalues of (default mixing * dielectric matrix)
  average eigenvalue GAMMA=   2.0860
  2.6620  1.7980  1.7980

 Free energy of the ion-electron system (eV)
  ---------------------------------------------------
  alpha Z        PSCENC =       243.29013955
  Ewald energy   TEWEN  =     -6126.43215788
  -Hartree energ DENC   =      -400.71727976
  -exchange      EXHF   =         0.00000000
  -V(xc)+E(xc)   XCENC  =      -447.52013442
  PAW double counting   =     19805.22451171   -18925.40489306
  entropy T*S    EENTRO =        -0.00000000
  eigenvalues    EBANDS =       -22.84690533
  atomic energy  EATOM  =      5604.14082068
  Solvation  Ediel_sol  =         0.00000000
  ---------------------------------------------------
  free energy    TOTEN  =      -270.26589852 eV

  energy without entropy =     -270.26589852  energy(sigma->0) =     -270.26589852


--------------------------------------------------------------------------------------------------------




----------------------------------------- Iteration    1(   9)  ---------------------------------------


    POTLOK:  cpu time    0.6480: real time    0.6461
    SETDIJ:  cpu time    0.0240: real time    0.0261
     EDDAV:  cpu time   76.0280: real time   76.0021
       DOS:  cpu time    0.0000: real time    0.0009
    CHARGE:  cpu time    2.2520: real time    2.2500
    MIXING:  cpu time    0.0200: real time    0.0222
    --------------------------------------------
      LOOP:  cpu time   78.9720: real time   78.9481

 eigenvalue-minimisations  :  5024
 total energy-change (2. order) :-0.8830086E-02  (-0.2805275E-02)
 number of electron     216.0000000 magnetization 
 augmentation part      -20.6309288 magnetization 

 Broyden mixing:
  rms(total) = 0.31835E-01    rms(broyden)= 0.31835E-01
  rms(prec ) = 0.35500E-01
  weight for this iteration     100.00

 eigenvalues of (default mixing * dielectric matrix)
  average eigenvalue GAMMA=   1.7788
  2.4755  1.9459  1.9459  0.7480

 Free energy of the ion-electron system (eV)
  ---------------------------------------------------
  alpha Z        PSCENC =       243.29013955
  Ewald energy   TEWEN  =     -6126.43215788
  -Hartree energ DENC   =      -402.19987284
  -exchange      EXHF   =         0.00000000
  -V(xc)+E(xc)   XCENC  =      -447.24098514
  PAW double counting   =     20077.63372942   -19197.82526835
  entropy T*S    EENTRO =        -0.00000000
  eigenvalues    EBANDS =       -21.64113404
  atomic energy  EATOM  =      5604.14082068
  Solvation  Ediel_sol  =         0.00000000
  ---------------------------------------------------
  free energy    TOTEN  =      -270.27472860 eV

  energy without entropy =     -270.27472860  energy(sigma->0) =     -270.27472860


--------------------------------------------------------------------------------------------------------




----------------------------------------- Iteration    1(  10)  ---------------------------------------


    POTLOK:  cpu time    0.6360: real time    0.6337
    SETDIJ:  cpu time    0.0320: real time    0.0317
     EDDAV:  cpu time   75.2320: real time   75.2092
       DOS:  cpu time    0.0000: real time    0.0010
    CHARGE:  cpu time    2.0320: real time    2.0322
    MIXING:  cpu time    0.0200: real time    0.0196
    --------------------------------------------
      LOOP:  cpu time   77.9520: real time   77.9281

 eigenvalue-minimisations  :  4592
 total energy-change (2. order) :-0.8826539E-03  (-0.2971696E-03)
 number of electron     216.0000000 magnetization 
 augmentation part      -20.6365813 magnetization 

 Broyden mixing:
  rms(total) = 0.17775E-01    rms(broyden)= 0.17775E-01
  rms(prec ) = 0.19195E-01
  weight for this iteration     100.00

 eigenvalues of (default mixing * dielectric matrix)
  average eigenvalue GAMMA=   1.8937
  2.6439  2.1880  2.1880  1.2243  1.2243

 Free energy of the ion-electron system (eV)
  ---------------------------------------------------
  alpha Z        PSCENC =       243.29013955
  Ewald energy   TEWEN  =     -6126.43215788
  -Hartree energ DENC   =      -401.47784568
  -exchange      EXHF   =         0.00000000
  -V(xc)+E(xc)   XCENC  =      -447.32549795
  PAW double counting   =     19905.48082709   -19025.55312968
  entropy T*S    EENTRO =        -0.00000000
  eigenvalues    EBANDS =       -22.39876737
  atomic energy  EATOM  =      5604.14082068
  Solvation  Ediel_sol  =         0.00000000
  ---------------------------------------------------
  free energy    TOTEN  =      -270.27561126 eV

  energy without entropy =     -270.27561126  energy(sigma->0) =     -270.27561126


--------------------------------------------------------------------------------------------------------




----------------------------------------- Iteration    1(  11)  ---------------------------------------


    POTLOK:  cpu time    0.5800: real time    0.5793
    SETDIJ:  cpu time    0.0320: real time    0.0329
     EDDAV:  cpu time   73.3960: real time   73.3709
       DOS:  cpu time    0.0000: real time    0.0010
    CHARGE:  cpu time    2.0720: real time    2.0702
    MIXING:  cpu time    0.0160: real time    0.0167
    --------------------------------------------
      LOOP:  cpu time   76.0960: real time   76.0717

 eigenvalue-minimisations  :  4464
 total energy-change (2. order) :-0.9384495E-03  (-0.1017652E-03)
 number of electron     216.0000000 magnetization 
 augmentation part      -20.6370396 magnetization 

 Broyden mixing:
  rms(total) = 0.65514E-02    rms(broyden)= 0.65514E-02
  rms(prec ) = 0.69252E-02
  weight for this iteration     100.00

 eigenvalues of (default mixing * dielectric matrix)
  average eigenvalue GAMMA=   1.8478
  2.8018  2.3526  1.9444  1.9444  1.1177  0.9258

 Free energy of the ion-electron system (eV)
  ---------------------------------------------------
  alpha Z        PSCENC =       243.29013955
  Ewald energy   TEWEN  =     -6126.43215788
  -Hartree energ DENC   =      -401.74749134
  -exchange      EXHF   =         0.00000000
  -V(xc)+E(xc)   XCENC  =      -447.26626878
  PAW double counting   =     19815.74889904   -18935.79511372
  entropy T*S    EENTRO =        -0.00000000
  eigenvalues    EBANDS =       -22.21537725
  atomic energy  EATOM  =      5604.14082068
  Solvation  Ediel_sol  =         0.00000000
  ---------------------------------------------------
  free energy    TOTEN  =      -270.27654971 eV

  energy without entropy =     -270.27654971  energy(sigma->0) =     -270.27654971


--------------------------------------------------------------------------------------------------------




----------------------------------------- Iteration    1(  12)  ---------------------------------------


    POTLOK:  cpu time    0.5600: real time    0.5611
    SETDIJ:  cpu time    0.0320: real time    0.0296
     EDDAV:  cpu time   76.7360: real time   76.7108
       DOS:  cpu time    0.0000: real time    0.0009
    CHARGE:  cpu time    1.9920: real time    1.9914
    MIXING:  cpu time    0.0200: real time    0.0191
    --------------------------------------------
      LOOP:  cpu time   79.3400: real time   79.3136

 eigenvalue-minimisations  :  4928
 total energy-change (2. order) :-0.9341571E-04  (-0.1797305E-04)
 number of electron     216.0000000 magnetization 
 augmentation part      -20.6379487 magnetization 

 Broyden mixing:
  rms(total) = 0.19703E-02    rms(broyden)= 0.19702E-02
  rms(prec ) = 0.22500E-02
  weight for this iteration     100.00

 eigenvalues of (default mixing * dielectric matrix)
  average eigenvalue GAMMA=   1.6917
  2.8396  2.4621  1.9357  1.9357  1.0653  0.8019  0.8019

 Free energy of the ion-electron system (eV)
  ---------------------------------------------------
  alpha Z        PSCENC =       243.29013955
  Ewald energy   TEWEN  =     -6126.43215788
  -Hartree energ DENC   =      -401.81825055
  -exchange      EXHF   =         0.00000000
  -V(xc)+E(xc)   XCENC  =      -447.25211228
  PAW double counting   =     19781.30657835   -18901.34400376
  entropy T*S    EENTRO =        -0.00000000
  eigenvalues    EBANDS =       -22.16765722
  atomic energy  EATOM  =      5604.14082068
  Solvation  Ediel_sol  =         0.00000000
  ---------------------------------------------------
  free energy    TOTEN  =      -270.27664312 eV

  energy without entropy =     -270.27664312  energy(sigma->0) =     -270.27664312


--------------------------------------------------------------------------------------------------------




----------------------------------------- Iteration    1(  13)  ---------------------------------------


    POTLOK:  cpu time    0.6080: real time    0.6082
    SETDIJ:  cpu time    0.0320: real time    0.0329
     EDDAV:  cpu time   77.0720: real time   77.0470
       DOS:  cpu time    0.0000: real time    0.0011
    CHARGE:  cpu time    2.0320: real time    2.0300
    MIXING:  cpu time    0.0160: real time    0.0181
    --------------------------------------------
      LOOP:  cpu time   79.7600: real time   79.7380

 eigenvalue-minimisations  :  4832
 total energy-change (2. order) :-0.4575377E-05  (-0.1426360E-05)
 number of electron     216.0000000 magnetization 
 augmentation part      -20.6378555 magnetization 

 Broyden mixing:
  rms(total) = 0.87649E-03    rms(broyden)= 0.87649E-03
  rms(prec ) = 0.10201E-02
  weight for this iteration     100.00

 eigenvalues of (default mixing * dielectric matrix)
  average eigenvalue GAMMA=   1.7900
  3.0244  2.4582  1.9333  1.9333  1.5164  1.5164  0.9922  0.9457

 Free energy of the ion-electron system (eV)
  ---------------------------------------------------
  alpha Z        PSCENC =       243.29013955
  Ewald energy   TEWEN  =     -6126.43215788
  -Hartree energ DENC   =      -401.84384358
  -exchange      EXHF   =         0.00000000
  -V(xc)+E(xc)   XCENC  =      -447.25141873
  PAW double counting   =     19767.08746461   -18887.12328884
  entropy T*S    EENTRO =        -0.00000000
  eigenvalues    EBANDS =       -22.14436350
  atomic energy  EATOM  =      5604.14082068
  Solvation  Ediel_sol  =         0.00000000
  ---------------------------------------------------
  free energy    TOTEN  =      -270.27664770 eV

  energy without entropy =     -270.27664770  energy(sigma->0) =     -270.27664770


--------------------------------------------------------------------------------------------------------




----------------------------------------- Iteration    1(  14)  ---------------------------------------


    POTLOK:  cpu time    0.6160: real time    0.6143
    SETDIJ:  cpu time    0.0280: real time    0.0290
     EDDAV:  cpu time   79.5160: real time   79.4916
       DOS:  cpu time    0.0040: real time    0.0012
    CHARGE:  cpu time    1.8680: real time    1.8701
    MIXING:  cpu time    0.0160: real time    0.0164
    --------------------------------------------
      LOOP:  cpu time   82.0480: real time   82.0232

 eigenvalue-minimisations  :  5040
 total energy-change (2. order) :-0.6172795E-06  (-0.4662082E-06)
 number of electron     216.0000000 magnetization 
 augmentation part      -20.6376792 magnetization 

 Broyden mixing:
  rms(total) = 0.29042E-03    rms(broyden)= 0.29042E-03
  rms(prec ) = 0.34709E-03
  weight for this iteration     100.00

 eigenvalues of (default mixing * dielectric matrix)
  average eigenvalue GAMMA=   1.7884
  3.1347  2.3889  2.3889  1.7674  1.7674  1.3541  1.3541  0.9703  0.9703

 Free energy of the ion-electron system (eV)
  ---------------------------------------------------
  alpha Z        PSCENC =       243.29013955
  Ewald energy   TEWEN  =     -6126.43215788
  -Hartree energ DENC   =      -401.86069093
  -exchange      EXHF   =         0.00000000
  -V(xc)+E(xc)   XCENC  =      -447.25014980
  PAW double counting   =     19769.75001084   -18889.78619667
  entropy T*S    EENTRO =        -0.00000000
  eigenvalues    EBANDS =       -22.12842410
  atomic energy  EATOM  =      5604.14082068
  Solvation  Ediel_sol  =         0.00000000
  ---------------------------------------------------
  free energy    TOTEN  =      -270.27664832 eV

  energy without entropy =     -270.27664832  energy(sigma->0) =     -270.27664832


--------------------------------------------------------------------------------------------------------




----------------------------------------- Iteration    1(  15)  ---------------------------------------


    POTLOK:  cpu time    0.4640: real time    0.4639
    SETDIJ:  cpu time    0.0280: real time    0.0279
     EDDAV:  cpu time   73.5760: real time   73.5552
       DOS:  cpu time    0.0040: real time    0.0011
    CHARGE:  cpu time    2.0680: real time    2.0680
    MIXING:  cpu time    0.0200: real time    0.0219
    --------------------------------------------
      LOOP:  cpu time   76.1640: real time   76.1388

 eigenvalue-minimisations  :  4624
 total energy-change (2. order) :-0.1729599E-05  (-0.1601208E-06)
 number of electron     216.0000000 magnetization 
 augmentation part      -20.6375165 magnetization 

 Broyden mixing:
  rms(total) = 0.12897E-03    rms(broyden)= 0.12897E-03
  rms(prec ) = 0.14293E-03
  weight for this iteration     100.00

 eigenvalues of (default mixing * dielectric matrix)
  average eigenvalue GAMMA=   1.7207
  3.1926  2.3672  2.3672  1.8386  1.8386  1.3946  1.3946  0.9869  0.9869  0.8399

 Free energy of the ion-electron system (eV)
  ---------------------------------------------------
  alpha Z        PSCENC =       243.29013955
  Ewald energy   TEWEN  =     -6126.43215788
  -Hartree energ DENC   =      -401.87583577
  -exchange      EXHF   =         0.00000000
  -V(xc)+E(xc)   XCENC  =      -447.24917978
  PAW double counting   =     19768.40939220   -18888.44658398
  entropy T*S    EENTRO =        -0.00000000
  eigenvalues    EBANDS =       -22.11324505
  atomic energy  EATOM  =      5604.14082068
  Solvation  Ediel_sol  =         0.00000000
  ---------------------------------------------------
  free energy    TOTEN  =      -270.27665005 eV

  energy without entropy =     -270.27665004  energy(sigma->0) =     -270.27665005


--------------------------------------------------------------------------------------------------------




----------------------------------------- Iteration    1(  16)  ---------------------------------------


    POTLOK:  cpu time    0.6120: real time    0.6100
    SETDIJ:  cpu time    0.0280: real time    0.0290
     EDDAV:  cpu time   50.9960: real time   50.9780
       DOS:  cpu time    0.0000: real time    0.0016
    CHARGE:  cpu time    2.0520: real time    2.0495
    MIXING:  cpu time    0.0200: real time    0.0231
    --------------------------------------------
      LOOP:  cpu time   53.7080: real time   53.6921

 eigenvalue-minimisations  :  2720
 total energy-change (2. order) : 0.1332046E-06  (-0.8932283E-08)
 number of electron     216.0000000 magnetization 
 augmentation part      -20.6375159 magnetization 

 Broyden mixing:
  rms(total) = 0.86323E-04    rms(broyden)= 0.86323E-04
  rms(prec ) = 0.93342E-04
  weight for this iteration     100.00

 eigenvalues of (default mixing * dielectric matrix)
  average eigenvalue GAMMA=   1.7713
  3.1891  2.5215  2.3192  2.3192  1.6634  1.6634  1.7136  0.9271  1.0657  1.0510
  1.0510

 Free energy of the ion-electron system (eV)
  ---------------------------------------------------
  alpha Z        PSCENC =       243.29013955
  Ewald energy   TEWEN  =     -6126.43215788
  -Hartree energ DENC   =      -401.87609316
  -exchange      EXHF   =         0.00000000
  -V(xc)+E(xc)   XCENC  =      -447.24917607
  PAW double counting   =     19768.54716378   -18888.58417093
  entropy T*S    EENTRO =        -0.00000000
  eigenvalues    EBANDS =       -22.11317586
  atomic energy  EATOM  =      5604.14082068
  Solvation  Ediel_sol  =         0.00000000
  ---------------------------------------------------
  free energy    TOTEN  =      -270.27664991 eV

  energy without entropy =     -270.27664991  energy(sigma->0) =     -270.27664991


--------------------------------------------------------------------------------------------------------




----------------------------------------- Iteration    1(  17)  ---------------------------------------


    POTLOK:  cpu time    0.6040: real time    0.6049
    SETDIJ:  cpu time    0.0320: real time    0.0321
     EDDAV:  cpu time   46.1320: real time   46.1204
       DOS:  cpu time    0.0040: real time    0.0008
    --------------------------------------------
      LOOP:  cpu time   46.7760: real time   46.7589

 eigenvalue-minimisations  :  2640
 total energy-change (2. order) : 0.5589027E-07  (-0.3278058E-08)
 number of electron     216.0000000 magnetization 
 augmentation part      -20.6375159 magnetization 

 Free energy of the ion-electron system (eV)
  ---------------------------------------------------
  alpha Z        PSCENC =       243.29013955
  Ewald energy   TEWEN  =     -6126.43215788
  -Hartree energ DENC   =      -401.87518251
  -exchange      EXHF   =         0.00000000
  -V(xc)+E(xc)   XCENC  =      -447.24927627
  PAW double counting   =     19769.02336056   -18889.06023864
  entropy T*S    EENTRO =        -0.00000000
  eigenvalues    EBANDS =       -22.11411534
  atomic energy  EATOM  =      5604.14082068
  Solvation  Ediel_sol  =         0.00000000
  ---------------------------------------------------
  free energy    TOTEN  =      -270.27664986 eV

  energy without entropy =     -270.27664986  energy(sigma->0) =     -270.27664986


--------------------------------------------------------------------------------------------------------




 average (electrostatic) potential at core
  the test charge radii are     0.9892  1.1631
  (the norm of the test charge is              1.0000)
       1 -84.1213       2 -84.0762       3 -84.1182       4 -84.0598       5 -84.1152
       6 -84.1458       7 -84.0483       8 -84.1135       9 -84.1778      10 -84.1179
      11 -84.1340      12 -84.1050      13 -83.9757      14 -83.9808      15 -83.9900
      16 -84.0325      17 -84.0512      18 -83.9933      19 -84.1416      20 -84.0555
      21 -84.0429      22 -84.0101      23 -83.9930      24 -84.1412      25 -83.9621
      26 -84.0214      27 -84.1094      28 -84.1353      29 -84.1248      30 -84.1849
      31 -84.1337      32 -84.0929      33 -83.9927      34 -84.0921      35 -31.1283
      36 -31.1940      37 -31.1734      38 -31.2535      39 -31.1296      40 -31.1504
      41 -31.0314      42 -31.1257      43 -31.0200      44 -31.0745      45 -30.9921
      46 -31.0953      47 -31.1148      48 -31.0764      49 -31.0665      50 -31.1117
      51 -31.0132      52 -31.1589      53 -31.1159      54 -31.1595



 E-fermi :   5.5766     XC(G=0):  -9.4132     alpha+bet :-11.1570


 k-point     1 :       0.0000    0.0000    0.0000
  band No.  band energies     occupation 
      1      -7.2950      2.00000
      2      -6.2632      2.00000
      3      -6.1863      2.00000
      4      -6.0890      2.00000
      5      -5.9740      2.00000
      6      -5.8863      2.00000
      7      -5.8356      2.00000
      8      -5.6772      2.00000
      9      -5.5828      2.00000
     10      -5.5087      2.00000
     11      -5.4547      2.00000
     12      -5.3749      2.00000
     13      -5.2401      2.00000
     14      -5.1817      2.00000
     15      -5.1109      2.00000
     16      -4.3359      2.00000
     17      -4.2256      2.00000
     18      -4.0850      2.00000
     19      -4.0454      2.00000
     20      -4.0041      2.00000
     21      -3.9803      2.00000
     22      -3.9488      2.00000
     23      -3.8839      2.00000
     24      -3.8527      2.00000
     25      -3.7642      2.00000
     26      -3.6669      2.00000
     27      -3.5477      2.00000
     28      -2.3235      2.00000
     29      -2.2480      2.00000
     30      -2.1627      2.00000
     31      -2.1046      2.00000
     32      -2.0257      2.00000
     33      -1.9535      2.00000
     34      -1.8842      2.00000
     35      -1.8449      2.00000
     36      -1.8274      2.00000
     37      -1.7659      2.00000
     38      -1.7460      2.00000
     39      -1.6839      2.00000
     40      -0.6151      2.00000
     41      -0.5675      2.00000
     42      -0.5354      2.00000
     43      -0.4654      2.00000
     44      -0.4132      2.00000
     45      -0.3542      2.00000
     46      -0.3056      2.00000
     47      -0.2835      2.00000
     48      -0.2435      2.00000
     49      -0.1770      2.00000
     50      -0.1066      2.00000
     51      -0.0457      2.00000
     52      -0.0076      2.00000
     53       0.0153      2.00000
     54       0.6073      2.00000
     55       0.6295      2.00000
     56       0.6512      2.00000
     57       0.6672      2.00000
     58       0.6703      2.00000
     59       0.6831      2.00000
     60       0.7042      2.00000
     61       0.7308      2.00000
     62       0.7462      2.00000
     63       0.7536      2.00000
     64       0.7661      2.00000
     65       0.7670      2.00000
     66       2.5838      2.00000
     67       2.6105      2.00000
     68       2.6279      2.00000
     69       2.6432      2.00000
     70       2.6543      2.00000
     71       2.6765      2.00000
     72       2.6903      2.00000
     73       2.7033      2.00000
     74       2.7128      2.00000
     75       2.7413      2.00000
     76       2.7558      2.00000
     77       2.7842      2.00000
     78       2.9237      2.00000
     79       2.9457      2.00000
     80       2.9704      2.00000
     81       2.9791      2.00000
     82       2.9977      2.00000
     83       3.0200      2.00000
     84       3.0266      2.00000
     85       3.0428      2.00000
     86       3.0718      2.00000
     87       3.0885      2.00000
     88       3.0987      2.00000
     89       3.1024      2.00000
     90       3.9720      2.00000
     91       4.0376      2.00000
     92       4.0649      2.00000
     93       4.0748      2.00000
     94       4.0987      2.00000
     95       4.1073      2.00000
     96       4.1412      2.00000
     97       4.1528      2.00000
     98       4.2058      2.00000
     99       4.2132      2.00000
    100       4.2374      2.00000
    101       4.2701      2.00000
    102       4.2994      2.00000
    103       4.3299      2.00000
    104       4.3598      2.00000
    105       4.3820      2.00000
    106       5.2093      2.00000
    107       5.2917      2.00000
    108       5.3827      2.00000
    109       5.7732      0.00000
    110       5.8442      0.00000
    111       5.8843      0.00000
    112       5.9237      0.00000
    113       5.9397      0.00000
    114       6.0326      0.00000
    115       6.3590      0.00000
    116       6.4189      0.00000
    117       6.4508      0.00000
    118       6.4733      0.00000
    119       6.5532      0.00000
    120       6.6313      0.00000
    121       6.6717      0.00000
    122       6.6946      0.00000
    123       6.6985      0.00000
    124       6.7155      0.00000
    125       6.7568      0.00000
    126       6.7720      0.00000
    127       6.8323      0.00000
    128       6.8404      0.00000
    129       6.8648      0.00000
    130       6.8783      0.00000
    131       6.8931      0.00000
    132       6.9033      0.00000
    133       6.9602      0.00000
    134       7.0054      0.00000
    135       7.1927      0.00000
    136       7.2501      0.00000
    137       7.2786      0.00000
    138       7.2867      0.00000
    139       7.2905      0.00000
    140       7.3925      0.00000
    141       7.7115      0.00000
    142       7.7656      0.00000
    143       7.8237      0.00000
    144       7.9131      0.00000

 k-point     2 :       0.3333    0.0000    0.0000
  band No.  band energies     occupation 
      1      -7.1476      2.00000
      2      -6.6864      2.00000
      3      -6.2209      2.00000
      4      -6.1430      2.00000
      5      -6.0175      2.00000
      6      -5.9389      2.00000
      7      -5.8563      2.00000
      8      -5.7162      2.00000
      9      -5.5486      2.00000
     10      -5.4599      2.00000
     11      -5.3758      2.00000
     12      -5.0511      2.00000
     13      -4.8903      2.00000
     14      -4.8322      2.00000
     15      -4.7074      2.00000
     16      -4.5978      2.00000
     17      -4.5156      2.00000
     18      -4.4480      2.00000
     19      -4.2332      2.00000
     20      -4.0977      2.00000
     21      -3.9791      2.00000
     22      -3.9020      2.00000
     23      -3.8864      2.00000
     24      -3.8198      2.00000
     25      -3.7095      2.00000
     26      -3.6235      2.00000
     27      -3.5215      2.00000
     28      -2.4232      2.00000
     29      -2.2971      2.00000
     30      -2.2429      2.00000
     31      -2.1536      2.00000
     32      -2.0172      2.00000
     33      -1.9961      2.00000
     34      -1.9259      2.00000
     35      -1.8872      2.00000
     36      -1.8366      2.00000
     37      -1.7620      2.00000
     38      -1.4707      2.00000
     39      -1.3833      2.00000
     40      -1.3046      2.00000
     41      -1.2308      2.00000
     42      -1.1638      2.00000
     43      -1.1350      2.00000
     44      -0.9200      2.00000
     45      -0.8676      2.00000
     46      -0.8047      2.00000
     47       0.1704      2.00000
     48       0.2583      2.00000
     49       0.3174      2.00000
     50       0.4825      2.00000
     51       0.5668      2.00000
     52       0.6420      2.00000
     53       0.8903      2.00000
     54       0.9215      2.00000
     55       0.9718      2.00000
     56       0.9879      2.00000
     57       1.0063      2.00000
     58       1.0371      2.00000
     59       1.0446      2.00000
     60       1.0707      2.00000
     61       1.1004      2.00000
     62       1.2867      2.00000
     63       1.3300      2.00000
     64       1.3497      2.00000
     65       1.5365      2.00000
     66       1.9366      2.00000
     67       1.9502      2.00000
     68       1.9886      2.00000
     69       2.4427      2.00000
     70       2.4551      2.00000
     71       2.4776      2.00000
     72       2.4841      2.00000
     73       2.5021      2.00000
     74       2.5175      2.00000
     75       2.5363      2.00000
     76       2.5497      2.00000
     77       2.5854      2.00000
     78       2.6333      2.00000
     79       2.6733      2.00000
     80       2.6951      2.00000
     81       2.7165      2.00000
     82       2.7540      2.00000
     83       2.7811      2.00000
     84       2.8239      2.00000
     85       2.8537      2.00000
     86       2.8759      2.00000
     87       3.1024      2.00000
     88       3.1476      2.00000
     89       3.1727      2.00000
     90       3.5049      2.00000
     91       3.5093      2.00000
     92       3.5397      2.00000
     93       3.5620      2.00000
     94       3.6023      2.00000
     95       3.6256      2.00000
     96       3.6996      2.00000
     97       3.7417      2.00000
     98       3.7622      2.00000
     99       3.7916      2.00000
    100       3.9539      2.00000
    101       4.0386      2.00000
    102       4.1237      2.00000
    103       4.1773      2.00000
    104       4.2183      2.00000
    105       4.5500      2.00000
    106       4.6224      2.00000
    107       5.0207      2.00000
    108       5.1055      2.00000
    109       6.1074      0.00000
    110       6.1501      0.00000
    111       6.2180      0.00000
    112       6.3626      0.00000
    113       6.4027      0.00000
    114       6.4282      0.00000
    115       6.4667      0.00000
    116       6.6363      0.00000
    117       6.6782      0.00000
    118       6.7170      0.00000
    119       6.9924      0.00000
    120       7.1464      0.00000
    121       7.1838      0.00000
    122       7.2305      0.00000
    123       7.2763      0.00000
    124       7.2878      0.00000
    125       7.3692      0.00000
    126       7.3838      0.00000
    127       7.4149      0.00000
    128       7.4407      0.00000
    129       7.4695      0.00000
    130       7.5067      0.00000
    131       7.5272      0.00000
    132       7.5894      0.00000
    133       7.6735      0.00000
    134       7.7014      0.00000
    135       7.7317      0.00000
    136       7.7748      0.00000
    137       7.8457      0.00000
    138       7.8807      0.00000
    139       8.1146      0.00000
    140       8.1927      0.00000
    141       8.3460      0.00000
    142       8.3868      0.00000
    143       8.4564      0.00000
    144       8.6266      0.00000

 k-point     3 :       0.0000    0.3333    0.0000
  band No.  band energies     occupation 
      1      -7.1443      2.00000
      2      -6.7091      2.00000
      3      -6.2293      2.00000
      4      -6.0925      2.00000
      5      -6.0168      2.00000
      6      -5.8973      2.00000
      7      -5.8277      2.00000
      8      -5.7672      2.00000
      9      -5.5705      2.00000
     10      -5.5175      2.00000
     11      -5.3423      2.00000
     12      -5.0926      2.00000
     13      -4.8566      2.00000
     14      -4.7703      2.00000
     15      -4.7063      2.00000
     16      -4.6396      2.00000
     17      -4.5816      2.00000
     18      -4.4893      2.00000
     19      -4.1453      2.00000
     20      -4.0582      2.00000
     21      -3.9742      2.00000
     22      -3.9164      2.00000
     23      -3.9001      2.00000
     24      -3.8062      2.00000
     25      -3.7299      2.00000
     26      -3.6105      2.00000
     27      -3.5319      2.00000
     28      -2.4142      2.00000
     29      -2.3036      2.00000
     30      -2.2202      2.00000
     31      -2.1287      2.00000
     32      -2.0599      2.00000
     33      -1.9893      2.00000
     34      -1.9295      2.00000
     35      -1.9003      2.00000
     36      -1.8177      2.00000
     37      -1.7836      2.00000
     38      -1.4439      2.00000
     39      -1.3403      2.00000
     40      -1.3086      2.00000
     41      -1.2646      2.00000
     42      -1.1974      2.00000
     43      -1.1180      2.00000
     44      -0.9455      2.00000
     45      -0.8222      2.00000
     46      -0.7770      2.00000
     47       0.1294      2.00000
     48       0.2281      2.00000
     49       0.2839      2.00000
     50       0.4596      2.00000
     51       0.5701      2.00000
     52       0.6141      2.00000
     53       0.9008      2.00000
     54       0.9258      2.00000
     55       0.9335      2.00000
     56       0.9651      2.00000
     57       0.9836      2.00000
     58       1.0115      2.00000
     59       1.0404      2.00000
     60       1.0767      2.00000
     61       1.1074      2.00000
     62       1.3121      2.00000
     63       1.3430      2.00000
     64       1.3631      2.00000
     65       1.5663      2.00000
     66       1.9115      2.00000
     67       1.9578      2.00000
     68       1.9985      2.00000
     69       2.4455      2.00000
     70       2.4658      2.00000
     71       2.4820      2.00000
     72       2.5028      2.00000
     73       2.5153      2.00000
     74       2.5317      2.00000
     75       2.5497      2.00000
     76       2.5653      2.00000
     77       2.5923      2.00000
     78       2.6384      2.00000
     79       2.6502      2.00000
     80       2.6924      2.00000
     81       2.7567      2.00000
     82       2.8033      2.00000
     83       2.8272      2.00000
     84       2.8493      2.00000
     85       2.8737      2.00000
     86       2.9041      2.00000
     87       3.0882      2.00000
     88       3.1178      2.00000
     89       3.1717      2.00000
     90       3.5300      2.00000
     91       3.5371      2.00000
     92       3.5586      2.00000
     93       3.5987      2.00000
     94       3.6088      2.00000
     95       3.6245      2.00000
     96       3.6804      2.00000
     97       3.7107      2.00000
     98       3.7613      2.00000
     99       3.8051      2.00000
    100       3.9405      2.00000
    101       4.0141      2.00000
    102       4.0946      2.00000
    103       4.1405      2.00000
    104       4.1951      2.00000
    105       4.5125      2.00000
    106       4.6304      2.00000
    107       4.9740      2.00000
    108       5.1059      2.00000
    109       6.0730      0.00000
    110       6.1588      0.00000
    111       6.2311      0.00000
    112       6.3318      0.00000
    113       6.3526      0.00000
    114       6.3807      0.00000
    115       6.4610      0.00000
    116       6.6383      0.00000
    117       6.6749      0.00000
    118       6.7025      0.00000
    119       6.9595      0.00000
    120       7.1474      0.00000
    121       7.1853      0.00000
    122       7.2426      0.00000
    123       7.2712      0.00000
[...]
    101       3.9378      2.00000
    102       4.0316      2.00000
    103       4.0418      2.00000
    104       4.0996      2.00000
    105       4.1393      2.00000
    106       4.1668      2.00000
    107       4.2685      2.00000
    108       4.9729      2.00000
    109       5.9840      0.00000
    110       6.7052      0.00000
    111       6.8147      0.00000
    112       6.8419      0.00000
    113       6.8804      0.00000
    114       6.9203      0.00000
    115       7.1007      0.00000
    116       7.1231      0.00000
    117       7.1909      0.00000
    118       7.2351      0.00000
    119       7.3067      0.00000
    120       7.3843      0.00000
    121       7.4353      0.00000
    122       7.4644      0.00000
    123       7.4716      0.00000
    124       7.5204      0.00000
    125       7.5809      0.00000
    126       7.6078      0.00000
    127       7.7547      0.00000
    128       7.8484      0.00000
    129       7.8704      0.00000
    130       7.9362      0.00000
    131       7.9687      0.00000
    132       7.9927      0.00000
    133       8.0425      0.00000
    134       8.0816      0.00000
    135       8.1068      0.00000
    136       8.1275      0.00000
    137       8.2945      0.00000
    138       8.3861      0.00000
    139       8.4182      0.00000
    140       8.4741      0.00000
    141       8.4853      0.00000
    142       8.5597      0.00000
    143       8.5904      0.00000
    144       8.6252      0.00000


--------------------------------------------------------------------------------------------------------


 soft charge-density along one line, spin component           1
         0         1         2         3         4         5         6         7         8         9
 total charge-density along one line

 pseudopotential strength for first ion, spin component:           1
 18.519   0.000  25.838   0.000  -0.002   0.000   0.004   0.000  -0.001   0.000  -0.004   0.000   0.008   0.000  -0.001   0.000
 25.838   0.000  36.054   0.000  -0.003   0.000   0.006   0.000  -0.001   0.000  -0.005   0.000   0.011   0.000  -0.001   0.000
 -0.002   0.000  -0.003   0.000   4.195   0.000  -0.000   0.000   0.001   0.000   7.818   0.000  -0.000   0.000   0.002   0.000
  0.004   0.000   0.006   0.000  -0.000   0.000   4.195   0.000  -0.000   0.000  -0.000   0.000   7.818   0.000  -0.001   0.000
 -0.001   0.000  -0.001   0.000   0.001   0.000  -0.000   0.000   4.195   0.000   0.002   0.000  -0.001   0.000   7.818   0.000
 -0.004   0.000  -0.005   0.000   7.818   0.000  -0.000   0.000   0.002   0.000  14.580   0.000  -0.000   0.000   0.003   0.000
  0.008   0.000   0.011   0.000  -0.000   0.000   7.818   0.000  -0.001   0.000  -0.000   0.000  14.580   0.000  -0.001   0.000
 -0.001   0.000  -0.001   0.000   0.002   0.000  -0.001   0.000   7.818   0.000   0.003   0.000  -0.001   0.000  14.580   0.000
 total augmentation occupancy for first ion, spin component:           1
  5.710  -2.177  -0.079   0.084  -0.012   0.024  -0.029   0.004
 -2.177   0.961   0.038  -0.047   0.005  -0.012   0.018  -0.003
 -0.079   0.038   2.989  -0.009   0.049  -0.676   0.003  -0.018
  0.084  -0.047  -0.009   2.957  -0.104   0.003  -0.665   0.033
 -0.012   0.005   0.049  -0.104   3.023  -0.018   0.033  -0.689
  0.024  -0.012  -0.676   0.003  -0.018   0.163  -0.001   0.007
 -0.029   0.018   0.003  -0.665   0.033  -0.001   0.159  -0.010
  0.004  -0.003  -0.018   0.033  -0.689   0.007  -0.010   0.167


------------------------ aborting loop because EDIFF is reached ----------------------------------------


    CHARGE:  cpu time    1.6960: real time    1.6953
    FORLOC:  cpu time    0.1640: real time    0.1620
    FORNL :  cpu time   27.7480: real time   27.7390
    STRESS:  cpu time   63.0920: real time   63.0692
    FORCOR:  cpu time    0.5320: real time    0.5311
    FORHAR:  cpu time    0.2600: real time    0.2592
    MIXING:  cpu time    0.0160: real time    0.0160
    OFIELD:  cpu time    0.0000: real time    0.0000

  FORCE on cell =-STRESS in cart. coord.  units (eV):
  Direction    XX          YY          ZZ          XY          YZ          ZX
  --------------------------------------------------------------------------------------
  Alpha Z   243.29014   243.29014   243.29014
  Ewald   -2042.04605 -2041.07688 -2043.34845   -31.51675    -1.37664   -24.50647
  Hartree   133.97315   134.31444   133.58802    -3.48044    -0.23186    -2.25907
  E(xc)    -713.70618  -713.70666  -713.68125     0.36426    -0.00500     0.37818
  Local    -736.35711  -737.69106  -734.86669    31.85653     1.80499    22.97533
  n-local  1742.14417  1742.23638  1741.95726    -5.96227    -0.39634    -4.50653
  augment  -174.72113  -174.73471  -174.71784     0.14421     0.01661    -0.03217
  Kinetic  1586.24800  1586.27002  1586.36954     4.31818     0.14201     3.31580
  Fock        0.00000     0.00000     0.00000     0.00000     0.00000     0.00000
  -------------------------------------------------------------------------------------
  Total      38.82500    38.90167    38.59074    -4.27629    -0.04622    -4.63495
  in kB      56.42112    56.53254    56.08070    -6.21438    -0.06717    -6.73559
  external pressure =       56.34 kB  Pullay stress =        0.00 kB


 VOLUME and BASIS-vectors are now :
 -----------------------------------------------------------------------------
  energy-cutoff  :      350.00
  volume of cell :     1102.50
      direct lattice vectors                 reciprocal lattice vectors
     0.000000000  8.199425490  8.199425490    -0.060979882  0.060979882  0.060979882
     8.199425490  0.000000000  8.199425490     0.060979882 -0.060979882  0.060979882
     8.199425490  8.199425490  0.000000000     0.060979882  0.060979882 -0.060979882

  length of vectors
    11.595738732 11.595738732 11.595738732     0.105620254  0.105620254  0.105620254


 FORCES acting on ions
    electron-ion (+dipol)            ewald-force                    non-local-force                 convergence-correction
 -----------------------------------------------------------------------------------------------
   -.132E+01 -.115E+01 0.289E+01   0.137E+01 0.127E+01 -.338E+01   0.131E+00 0.583E+00 -.788E+00   -.431E-04 0.300E-04 0.224E-04
   0.410E+01 -.116E+00 0.217E+01   -.330E+01 0.313E+00 -.182E+01   -.161E+01 0.635E+00 -.874E+00   -.361E-04 0.348E-04 -.355E-05
   -.175E-01 -.182E+01 0.329E+01   0.137E+00 0.163E+01 -.253E+01   0.527E-01 0.497E+00 -.472E+00   0.627E-05 0.111E-04 -.160E-04
   -.342E+01 0.194E+01 0.383E+01   0.273E+01 -.158E+01 -.381E+01   0.821E+00 -.395E+00 -.608E+00   0.178E-04 -.323E-04 0.385E-04
   0.255E+01 0.456E+01 0.336E+01   -.225E+01 -.406E+01 -.264E+01   -.833E+00 -.123E+01 -.608E+00   0.298E-05 -.421E-04 -.464E-04
   -.317E+01 -.128E+01 -.101E+01   0.207E+01 0.102E+01 0.816E+00   0.914E+00 0.725E+00 0.739E-01   0.224E-04 0.917E-05 0.722E-05
   -.480E+01 0.284E+01 -.437E+01   0.425E+01 -.257E+01 0.422E+01   0.168E+01 -.935E+00 0.107E+01   0.395E-04 0.246E-04 0.341E-04
   0.234E+01 0.649E+01 -.145E+01   -.247E+01 -.600E+01 0.136E+01   -.121E+01 -.162E+01 0.896E+00   0.334E-04 0.385E-04 -.114E-05
   -.619E+01 -.859E+00 0.502E+01   0.610E+01 0.510E+00 -.437E+01   0.155E+01 -.251E+00 -.127E+01   -.639E-04 0.614E-05 0.373E-05
   -.272E+01 0.142E+01 -.224E+01   0.233E+01 -.656E+00 0.220E+01   0.604E+00 0.322E+00 0.336E+00   -.728E-05 -.632E-05 0.360E-04
   -.260E+01 -.143E+01 0.938E-01   0.231E+01 0.127E+01 0.785E+00   0.840E+00 0.625E+00 0.151E+00   0.111E-04 0.541E-04 -.416E-04
   -.130E+01 0.852E+00 0.500E+01   0.153E+01 -.145E+01 -.475E+01   0.233E+00 -.350E+00 -.183E+01   0.177E-04 0.382E-04 -.134E-04
   0.791E+00 0.786E+00 -.887E-01   -.455E+00 -.476E+00 0.270E+00   -.426E+00 -.188E+00 -.233E+00   -.547E-04 -.395E-04 -.711E-05
   0.156E+00 0.102E+01 0.994E+00   -.518E+00 -.792E+00 -.690E+00   0.524E+00 -.278E+00 -.141E+00   -.231E-04 -.954E-05 -.250E-04
   -.158E+00 0.175E+01 -.320E+01   0.975E-01 -.170E+01 0.276E+01   -.271E+00 -.337E+00 0.490E+00   0.213E-04 0.118E-04 -.162E-05
   -.117E+01 0.328E+01 0.364E-01   0.108E+01 -.269E+01 -.730E-01   0.565E+00 -.817E+00 0.332E+00   -.269E-04 0.111E-04 0.265E-04
   -.189E+01 0.339E+01 -.693E+00   0.199E+01 -.346E+01 0.155E+00   0.998E+00 -.111E+01 -.457E-01   -.818E-05 0.177E-04 0.199E-04
   -.456E+00 -.123E+01 -.111E+01   0.216E+00 0.995E+00 0.728E+00   -.162E+00 0.609E+00 0.588E+00   -.350E-05 -.261E-05 0.502E-04
   -.387E+00 -.195E+01 -.514E+01   0.458E+00 0.191E+01 0.440E+01   -.213E+00 0.655E+00 0.763E+00   0.696E-05 0.161E-04 0.804E-04
   0.117E+01 0.479E+00 0.308E+01   -.144E+01 -.101E+01 -.305E+01   -.485E+00 0.355E+00 -.114E+01   0.295E-04 0.409E-04 -.465E-05
   -.256E+01 0.202E+01 0.613E+01   0.232E+01 -.133E+01 -.553E+01   0.105E+01 -.670E+00 -.160E+01   -.155E-04 -.297E-04 -.736E-05
   0.159E+01 0.279E+01 0.229E+00   -.113E+01 -.284E+01 -.349E-01   -.509E+00 -.667E+00 0.390E+00   -.599E-04 0.264E-04 0.207E-04
   0.248E+01 -.963E+00 -.351E+00   -.202E+01 0.513E+00 -.390E-01   -.576E+00 0.400E+00 0.688E+00   -.435E-04 0.270E-04 0.446E-05
   0.208E+00 -.184E-01 0.143E+01   -.114E+00 0.407E+00 -.161E+01   0.462E+00 -.185E+00 -.971E+00   0.128E-04 -.388E-04 -.966E-05
   -.158E+01 -.169E+00 -.549E+01   0.139E+01 0.111E+00 0.502E+01   0.755E+00 -.383E+00 0.165E+01   -.358E-04 -.427E-04 -.123E-04
   0.363E+00 0.153E+00 0.225E+01   -.293E+00 -.127E+00 -.219E+01   -.379E+00 -.563E+00 -.681E+00   -.140E-04 -.247E-04 -.165E-05
   -.352E-01 0.761E+00 -.214E+01   0.174E+00 -.995E+00 0.236E+01   0.885E-01 -.222E+00 0.421E+00   0.200E-05 0.286E-04 -.303E-04
   0.428E+01 0.150E+01 -.358E+01   -.323E+01 -.126E+01 0.301E+01   -.109E+01 -.960E+00 0.115E+01   -.767E-05 -.514E-04 -.127E-04
   -.409E+01 -.484E+01 0.224E+01   0.304E+01 0.452E+01 -.190E+01   0.104E+01 0.150E+01 -.560E+00   0.720E-04 -.464E-04 0.953E-05
   0.175E+01 0.677E+00 -.581E+00   -.188E+01 -.438E+00 0.446E+00   -.778E-01 -.250E+00 0.199E+00   0.564E-04 -.285E-04 0.966E-05
   0.518E+01 -.127E+01 -.329E+01   -.473E+01 0.181E+01 0.331E+01   -.130E+01 0.269E+00 0.754E+00   0.561E-05 -.409E-04 -.536E-04
   0.448E+00 -.316E+01 -.370E+01   -.686E+00 0.313E+01 0.293E+01   -.214E+00 0.972E+00 0.114E+00   0.527E-04 -.127E-04 -.205E-04
   0.552E+01 -.173E+01 -.195E+00   -.461E+01 0.130E+01 0.338E+00   -.172E+01 0.199E+00 0.546E+00   0.667E-05 0.471E-05 -.401E-04
   0.347E+01 -.512E+01 -.378E+01   -.303E+01 0.391E+01 0.341E+01   -.109E+01 0.133E+01 0.106E+01   -.180E-04 0.245E-04 -.862E-05
   0.295E+01 0.687E+00 0.118E+01   -.305E+01 -.680E+00 -.193E+01   -.417E+00 0.376E+00 -.669E-01   -.658E-05 0.865E-05 -.154E-04
   0.271E+00 0.153E+01 -.124E+01   -.355E+00 -.109E+01 0.123E+01   -.175E+00 -.380E+00 0.359E+00   -.211E-04 0.816E-05 0.380E-05
   -.137E+01 0.406E+00 -.509E+00   0.115E+01 -.133E+01 0.699E+00   0.192E+00 -.534E+00 0.444E+00   -.281E-04 0.372E-04 0.392E-04
   -.236E+01 -.218E+01 -.223E+00   0.231E+01 0.265E+01 -.263E+00   0.178E+00 0.531E+00 -.211E+00   0.570E-05 0.102E-04 0.249E-04
   0.190E+01 0.535E+00 0.219E+01   -.202E+01 -.314E+00 -.140E+01   -.216E+00 -.533E-01 -.108E+00   -.171E-05 -.258E-05 -.320E-04
   -.452E-01 -.108E+01 -.833E-01   0.408E+00 0.881E+00 0.507E+00   0.249E+00 0.854E-01 0.145E+00   -.367E-05 0.606E-05 -.225E-04
   -.475E+01 -.454E+00 0.481E+01   0.477E+01 0.557E+00 -.486E+01   0.815E+00 0.223E+00 -.103E+01   -.946E-06 -.391E-05 0.187E-04
   0.934E+00 0.426E+01 -.145E+01   -.121E+01 -.415E+01 0.200E+01   -.449E+00 -.738E+00 0.469E+00   -.825E-05 -.458E-04 0.963E-06
   -.319E+00 0.747E-01 -.432E+00   -.139E+00 0.496E+00 0.968E+00   -.261E+00 0.129E-01 0.472E+00   -.278E-04 0.700E-08 0.358E-05
   -.220E+01 -.141E+01 0.139E+00   0.202E+01 0.125E+01 -.511E+00   0.353E+00 -.315E+00 -.768E-01   0.240E-04 -.392E-04 0.568E-04
   0.229E+01 0.701E+00 0.442E+00   -.216E+01 -.697E+00 -.529E+00   -.275E+00 -.154E+00 -.418E+00   -.958E-05 0.158E-04 0.291E-04
   -.143E+01 -.763E+00 0.862E+00   0.122E+01 0.423E+00 -.722E+00   0.549E+00 -.244E+00 -.318E+00   0.256E-04 0.355E-04 -.413E-04
   0.533E+00 -.396E+01 0.362E+00   -.544E-01 0.433E+01 -.322E+00   -.449E+00 0.801E+00 0.472E+00   -.389E-04 0.653E-05 0.234E-04
   0.162E+01 -.201E+01 -.433E+01   -.142E+01 0.246E+01 0.456E+01   -.336E+00 0.504E+00 0.818E+00   0.492E-04 0.233E-06 0.428E-05
   0.543E+00 -.102E+01 -.719E+00   -.413E+00 0.133E+00 0.549E+00   0.109E+00 -.733E-01 -.217E+00   0.539E-04 0.176E-04 0.919E-05
   0.199E+01 -.954E+00 -.190E+01   -.170E+01 0.154E+01 0.153E+01   -.226E+00 0.513E+00 0.386E+00   -.117E-04 -.224E-04 -.105E-05
   0.430E+00 -.116E+01 0.180E+01   -.397E+00 0.122E+01 -.184E+01   -.997E-01 -.170E+00 -.202E+00   0.495E-04 -.239E-04 -.103E-04
   0.143E+01 -.681E+00 -.419E+00   -.228E+01 0.491E+00 0.473E+00   -.376E+00 0.294E+00 -.167E-01   0.327E-04 -.237E-04 -.303E-04
   -.258E+01 -.157E+01 -.767E+00   0.286E+01 0.100E+01 0.703E+00   0.864E+00 0.544E-01 -.245E+00   -.823E-05 0.156E-04 -.261E-04
   0.153E+01 0.260E+00 0.674E+00   -.996E+00 -.365E+00 -.919E+00   -.869E-01 0.174E+00 -.521E+00   -.245E-04 -.427E-05 -.500E-04
 -----------------------------------------------------------------------------------------------
   -.808E-01 0.828E+00 0.195E-01   -.555E-13 0.643E-13 -.129E-12   0.808E-01 -.828E+00 -.195E-01   0.540E-05 0.278E-05 -.906E-05


 POSITION                                       TOTAL-FORCE (eV/Angst)
 -----------------------------------------------------------------------------------
      2.71483      2.71814      0.04191         0.183098      0.701464     -1.277264
      4.14012      1.32956      4.13178        -0.812198      0.831968     -0.517981
      5.42715      2.72531      2.75374         0.171745      0.308980      0.286621
      6.81245      4.11190      4.10345         0.128352     -0.033651     -0.585444
      8.23928      5.50710      2.77400        -0.531285     -0.733957      0.111283
      9.56109      6.81812      4.09970        -0.188236      0.468861     -0.124636
      5.43050      0.02106      5.43612         1.136770     -0.658471      0.910989
      6.87067      1.41629      6.80720        -1.345081     -1.124503      0.802219
      9.52539      4.11726      6.87374         1.457251     -0.600359     -0.615943
     12.31177      6.79189      6.81237         0.217166      1.080953      0.293353
     16.34645     10.92959     10.90848         0.549929      0.470144      1.029728
      1.35822      4.09964      4.14268         0.464004     -0.944163     -1.581563
      4.12204      6.85254      4.12848        -0.090369      0.120691     -0.051632
     13.62799      8.25165     10.95445         0.161425     -0.049753      0.162135
      6.87771      9.56485      4.09709        -0.331229     -0.283347      0.045587
      2.74653      2.77051      5.42308         0.470058     -0.231863      0.295914
      4.07422      4.13447      6.83712         1.098970     -1.183822     -0.584096
      5.46314      5.42771      5.43797        -0.402390      0.371838      0.207985
      8.23685      8.16684      5.44192        -0.141826      0.616854      0.030443
      5.51275      2.74250      8.24699        -0.756166     -0.175777     -1.117463
      9.52035      6.86102      9.58414         0.811206      0.012611     -1.001978
     10.96963      8.20950      8.15736        -0.045532     -0.714438      0.584301
     12.31612      9.56628      9.51709        -0.118788     -0.049032      0.297400
      1.36637      6.81698      6.88428         0.556960      0.203305     -1.156275
     10.89735      8.23281     13.61753         0.568070     -0.441424      1.182030
      4.11444      9.61092      6.88059        -0.309435     -0.537278     -0.618778
      5.49730     10.91269      5.45248         0.226967     -0.456733      0.645179
      4.12438      6.86843      9.53847        -0.039225     -0.721957      0.589206
      5.43470      8.15383      8.21489        -0.006735      1.184124     -0.222662
      8.21748     10.95569      8.22347        -0.205968     -0.011394      0.063805
      5.50607      5.50153     10.91201        -0.862742      0.810712      0.769545
      6.87358      6.80466     12.32324        -0.452048      0.935546     -0.659207
      8.24851      8.19218     10.90981        -0.806061     -0.238173      0.689045
      9.56608      9.51576     12.25808        -0.647558      0.129817      0.690962
      8.22908     16.38377      8.21642        -0.524456      0.383232     -0.813006
      1.35567      1.41762      1.36021        -0.258585      0.060602      0.341709
      4.07358      4.13715      1.33274        -0.027259     -1.452660      0.633166
      5.46674      5.44860      0.04434         0.131470      1.002354     -0.697210
      6.84562      6.84995      1.40924        -0.328946      0.167951      0.676955
     10.90282      8.20170      2.70832         0.612010     -0.109979      0.568895
      8.17312      2.73598      5.50263         0.840832      0.325641     -1.078929
     10.96030     13.71239     13.61324        -0.724949     -0.629537      1.020418
     10.94356      5.48460     10.90329        -0.719446      0.583180      1.007604
      6.78962      6.87339      6.81531         0.173004     -0.474185     -0.448762
      9.59288      9.60548      6.85039        -0.144541     -0.150113     -0.505015
      6.78912      4.14001      9.60789         0.345163     -0.583829     -0.178818
      8.18277      5.42108      8.17628         0.029624      1.170209      0.511560
      0.03649      5.42302      5.42492        -0.131137      0.946520      1.045836
      6.82938     12.32437      6.86032         0.239010     -0.955632     -0.386813
     10.96797     13.62774      8.20193         0.064225      1.101492      0.016065
      6.82958      9.57136      9.59264        -0.066172     -0.105371     -0.249510
      9.61679     12.30666      9.59788        -1.219677      0.104199      0.037760
     10.88823     10.90605     10.97113         1.149878     -0.509961     -0.308473
     12.33491     12.28239     12.33139         0.450854      0.068116     -0.766237
 -----------------------------------------------------------------------------------
    total drift:                               -0.000046     -0.000084     -0.000041


--------------------------------------------------------------------------------------------------------



  FREE ENERGIE OF THE ION-ELECTRON SYSTEM (eV)
  ---------------------------------------------------
  free  energy   TOTEN  =      -270.27664986 eV

  energy  without entropy=     -270.27664986  energy(sigma->0) =     -270.27664986



--------------------------------------------------------------------------------------------------------


    POTLOK:  cpu time    0.4040: real time    0.4063


--------------------------------------------------------------------------------------------------------


 writing wavefunctions
     LOOP+:  cpu time 1313.5440: real time 1313.3324
    4ORBIT:  cpu time    0.0000: real time    0.0000

 total amount of memory used by VASP on root node   172025. kBytes
========================================================================

   base      :      30000. kBytes
   nonl-proj :      61986. kBytes
   fftplans  :      15551. kBytes
   grid      :      29859. kBytes
   one-center:        438. kBytes
   wavefun   :      34191. kBytes

  
  
 General timing and accounting informations for this job:
 ========================================================
  
                  Total CPU time used (sec):     1326.216
                            User time (sec):     1284.112
                          System time (sec):       42.104
                         Elapsed time (sec):     1326.100
  
                   Maximum memory used (kb):      200508.
                   Average memory used (kb):           0.
  
                          Minor page faults:     12537356
                          Major page faults:           36
                 Voluntary context switches:          687
