       N       E                     dE             d eps       ncg     rms          rms(c)
DAV:   1     0.508616420842E+03    0.50862E+03   -0.65026E+04  4032   0.906E+02
DAV:   2    -0.225582394956E+03   -0.73420E+03   -0.70058E+03  4896   0.157E+02
DAV:   3    -0.273571352380E+03   -0.47989E+02   -0.47330E+02  5024   0.386E+01
DAV:   4    -0.274567122354E+03   -0.99577E+00   -0.99059E+00  5072   0.643E+00
DAV:   5    -0.274586946301E+03   -0.19824E-01   -0.19805E-01  4976   0.914E-01    0.226E+01
DAV:   6    -0.271537815912E+03    0.30491E+01   -0.17632E+00  4672   0.240E+00    0.138E+01
DAV:   7    -0.270225156799E+03    0.13127E+01   -0.36304E+00  4672   0.345E+00    0.974E-01
DAV:   8    -0.270241332456E+03   -0.16176E-01   -0.25010E-01  4704   0.110E+00    0.555E-01
DAV:   9    -0.270249441769E+03   -0.81093E-02   -0.23837E-02  5008   0.319E-01    0.301E-01
DAV:  10    -0.270250466473E+03   -0.10247E-02   -0.24344E-03  4592   0.933E-02    0.172E-01
DAV:  11    -0.270251335790E+03   -0.86932E-03   -0.82338E-04  4448   0.667E-02    0.753E-02
DAV:  12    -0.270251431023E+03   -0.95232E-04   -0.17182E-04  4896   0.275E-02    0.218E-02
DAV:  13    -0.270251438239E+03   -0.72167E-05   -0.17796E-05  4736   0.944E-03    0.963E-03
DAV:  14    -0.270251437214E+03    0.10254E-05   -0.29857E-06  5072   0.416E-03    0.318E-03
DAV:  15    -0.270251439115E+03   -0.19005E-05   -0.15926E-06  4640   0.256E-03    0.123E-03
DAV:  16    -0.270251439043E+03    0.71024E-07   -0.98872E-08  2816   0.724E-04
   1 F= -.27025144E+03 E0= -.27025144E+03  d E =-.159333E-08
