 vasp.5.4.1 24Jun15 (build Jan 30 2017 21:57:38) complex                         
 executed on           IFC91_ompi date 2018.07.26  12:09:51
 running on   16 total cores
 distrk:  each k-point on   16 cores,    1 groups
 distr:  one band on NCORES_PER_BAND=   1 cores,   16 groups


--------------------------------------------------------------------------------------------------------


 INCAR:
 POTCAR:    PAW_PBE Si 05Jan2001                  
 POTCAR:    PAW_PBE Ge 05Jan2001                  

 ----------------------------------------------------------------------------- 
|                                                                             |
|           W    W    AA    RRRRR   N    N  II  N    N   GGGG   !!!           |
|           W    W   A  A   R    R  NN   N  II  NN   N  G    G  !!!           |
|           W    W  A    A  R    R  N N  N  II  N N  N  G       !!!           |
|           W WW W  AAAAAA  RRRRR   N  N N  II  N  N N  G  GGG   !            |
|           WW  WW  A    A  R   R   N   NN  II  N   NN  G    G                |
|           W    W  A    A  R    R  N    N  II  N    N   GGGG   !!!           |
|                                                                             |
|      For optimal performance we recommend to set                            |
|        NCORE= 4 - approx SQRT( number of cores)                             |
|      NCORE specifies how many cores store one orbital (NPAR=cpu/NCORE).     |
|      This setting can  greatly improve the performance of VASP for DFT.     |
|      The default, NPAR=number of cores might be grossly inefficient         |
|      on modern multi-core architectures or massively parallel machines.     |
|      Do your own testing !!!!                                               |
|      Unfortunately you need to use the default for GW and RPA calculations. |
|      (for HF NCORE is supported but not extensively tested yet)             |
|                                                                             |
 ----------------------------------------------------------------------------- 

 POTCAR:    PAW_PBE Si 05Jan2001                  
   VRHFIN =Si: s2p2                                                             
   LEXCH  = PE                                                                  
   EATOM  =   103.0669 eV,    7.5752 Ry                                         
                                                                                
   TITEL  = PAW_PBE Si 05Jan2001                                                
   LULTRA =        F    use ultrasoft PP ?                                      
   IUNSCR =        1    unscreen: 0-lin 1-nonlin 2-no                           
   RPACOR =    1.500    partial core radius                                     
   POMASS =   28.085; ZVAL   =    4.000    mass and valenz                      
   RCORE  =    1.900    outmost cutoff radius                                   
   RWIGS  =    2.480; RWIGS  =    1.312    wigner-seitz radius (au A)           
   ENMAX  =  245.345; ENMIN  =  184.009 eV                                      
   ICORE  =        2    local potential                                         
   LCOR   =        T    correct aug charges                                     
   LPAW   =        T    paw PP                                                  
   EAUG   =  322.069                                                            
   DEXC   =    0.000                                                            
   RMAX   =    1.950    core radius for proj-oper                               
   RAUG   =    1.300    factor for augmentation sphere                          
   RDEP   =    1.993    radius for radial grids                                 
   RDEPT  =    1.837    core radius for aug-charge                              
                                                                                
   Atomic configuration                                                         
    6 entries                                                                   
     n  l   j            E        occ.                                          
     1  0  0.50     -1785.8828   2.0000                                         
     2  0  0.50      -139.4969   2.0000                                         
     2  1  1.50       -95.5546   6.0000                                         
     3  0  0.50       -10.8127   2.0000                                         
     3  1  0.50        -4.0811   2.0000                                         
     3  2  1.50        -4.0817   0.0000                                         
   Description                                                                  
     l       E           TYP  RCUT    TYP  RCUT                                 
     0    -10.8127223     23  1.900                                             
     0     -7.6451159     23  1.900                                             
     1     -4.0811372     23  1.900                                             
     1      2.4879257     23  1.900                                             
     2     -4.0817478      7  1.900                                             
  local pseudopotential read in
  partial core-charges read in
  partial kinetic energy density read in
  atomic valenz-charges read in
  non local Contribution for L=           0  read in
    real space projection operators read in
  non local Contribution for L=           0  read in
    real space projection operators read in
  non local Contribution for L=           1  read in
    real space projection operators read in
  non local Contribution for L=           1  read in
    real space projection operators read in
    PAW grid and wavefunctions read in

   number of l-projection  operators is LMAX  =           4
   number of lm-projection operators is LMMAX =           8

 POTCAR:    PAW_PBE Ge 05Jan2001                  
   VRHFIN =Ge: s2p2                                                             
   LEXCH  = PE                                                                  
   EATOM  =   104.9960 eV,    7.7170 Ry                                         
                                                                                
   TITEL  = PAW_PBE Ge 05Jan2001                                                
   LULTRA =        F    use ultrasoft PP ?                                      
   IUNSCR =        1    unscreen: 0-lin 1-nonlin 2-no                           
   RPACOR =    2.170    partial core radius                                     
   POMASS =   72.610; ZVAL   =    4.000    mass and valenz                      
   RCORE  =    2.300    outmost cutoff radius                                   
   RWIGS  =    2.300; RWIGS  =    1.217    wigner-seitz radius (au A)           
   ENMAX  =  173.807; ENMIN  =  130.355 eV                                      
   ICORE  =        3    local potential                                         
   LCOR   =        T    correct aug charges                                     
   LPAW   =        T    paw PP                                                  
   EAUG   =  385.843                                                            
   DEXC   =    0.000                                                            
   RMAX   =    2.342    core radius for proj-oper                               
   RAUG   =    1.300    factor for augmentation sphere                          
   RDEP   =    2.318    radius for radial grids                                 
   RDEPT  =    2.103    core radius for aug-charge                              
                                                                                
   Atomic configuration                                                         
   10 entries                                                                   
     n  l   j            E        occ.                                          
     1  0  0.50    -10959.8463   2.0000                                         
     2  0  0.50     -1371.6056   2.0000                                         
     2  1  1.50     -1198.4791   6.0000                                         
     3  0  0.50      -168.4733   2.0000                                         
     3  1  1.50      -115.6019   6.0000                                         
     3  2  2.50       -29.3106  10.0000                                         
     4  0  0.50       -11.7309   2.0000                                         
     4  1  0.50        -3.8952   2.0000                                         
     4  2  1.50        -4.0817   0.0000                                         
     4  3  2.50        -4.0817   0.0000                                         
   Description                                                                  
     l       E           TYP  RCUT    TYP  RCUT                                 
     0    -11.7309493     23  2.300                                             
     0     -7.4578696     23  2.300                                             
     1     -3.8952261     23  2.300                                             
     1      6.1178114     23  2.300                                             
     2     -4.0817478     23  2.300                                             
     3     -1.3605826      7  2.300                                             
  local pseudopotential read in
  partial core-charges read in
  partial kinetic energy density read in
  atomic valenz-charges read in
  non local Contribution for L=           0  read in
    real space projection operators read in
  non local Contribution for L=           0  read in
    real space projection operators read in
  non local Contribution for L=           1  read in
    real space projection operators read in
  non local Contribution for L=           1  read in
    real space projection operators read in
  non local Contribution for L=           2  read in
    real space projection operators read in
    PAW grid and wavefunctions read in

   number of l-projection  operators is LMAX  =           5
   number of lm-projection operators is LMMAX =          13


 ----------------------------------------------------------------------------- 
|                                                                             |
|  ADVICE TO THIS USER RUNNING 'VASP/VAMP'   (HEAR YOUR MASTER'S VOICE ...):  |
|                                                                             |
|      You have a (more or less) 'large supercell' and for larger cells       |
|      it might be more efficient to use real space projection opertators     |
|      So try LREAL= Auto  in the INCAR   file.                               |
|      Mind: At the moment your POTCAR file does not contain real space       |
|       projectors, and has to be modified,  BUT if you                       |
|      want to do an extremely  accurate calculation you might also keep the  |
|      reciprocal projection scheme          (i.e. LREAL=.FALSE.)             |
|                                                                             |
 ----------------------------------------------------------------------------- 

  PAW_PBE Si 05Jan2001                  :
 energy of atom  1       EATOM= -103.0669
 kinetic energy error for atom=    0.0013 (will be added to EATOM!!)
  PAW_PBE Ge 05Jan2001                  :
 energy of atom  2       EATOM= -104.9960
 kinetic energy error for atom=    0.0005 (will be added to EATOM!!)


 POSCAR: supercell                               
  positions in direct lattice
  No initial velocities read in
 exchange correlation table for  LEXCH =        8
   RHO(1)=    0.500       N(1)  =     2000
   RHO(2)=  100.500       N(2)  =     4000



--------------------------------------------------------------------------------------------------------


 ion  position               nearest neighbor table
   1  0.087  0.079  0.081-   2 2.36  40 2.36  13 2.40   5 2.45
   2  1.000  0.003  0.330-  31 2.35   1 2.36  10 2.38   3 2.39
   3  0.081  0.087  0.417-  43 2.33  41 2.34  15 2.36   2 2.39
   4  0.080  0.086  0.750-  40 2.32  41 2.34   7 2.36  17 2.38
   5  0.996  0.338  0.002-  51 2.33  42 2.36  44 2.40   1 2.45
   6  0.085  0.420  0.413-  20 2.29  43 2.34   7 2.36   9 2.37
   7  0.003  0.335  0.662-   4 2.36   6 2.36  35 2.39  44 2.40
   8  0.003  0.668  0.996-  12 2.29  53 2.35  42 2.38  45 2.42
   9  0.996  0.670  0.331-  54 2.33  45 2.34   6 2.37  10 2.45
  10  0.087  0.751  0.419-  11 2.28  26 2.34   2 2.38   9 2.45
  11  0.003  0.667  0.660-  10 2.28  44 2.30  39 2.40  12 2.41
  12  0.082  0.748  0.754-   8 2.29  47 2.34  11 2.41  41 2.43
  13  0.340  0.999  0.998-  14 2.32  18 2.36  25 2.37   1 2.40
  14  0.417  0.082  0.083-  29 2.31  13 2.32  19 2.34  15 2.42
  15  0.331  0.999  0.339-  16 2.32  27 2.34   3 2.36  14 2.42
  16  0.418  0.081  0.415-  15 2.32  30 2.37  17 2.38  20 2.43
  17  0.331  0.001  0.667-  18 2.31   4 2.38  16 2.38  28 2.38
  18  0.410  0.083  0.750-  17 2.31  13 2.36  49 2.40  22 2.41
  19  0.333  0.329  0.000-  14 2.34  23 2.36  42 2.40  46 2.48
  20  0.327  0.338  0.335-   6 2.29  46 2.36  21 2.37  16 2.43
  21  0.412  0.417  0.420-  22 2.29  20 2.37  26 2.38  52 2.42
  22  0.334  0.338  0.662-  21 2.29  23 2.32  44 2.40  18 2.41
  23  0.411  0.417  0.751-  22 2.32  19 2.36  47 2.36  34 2.43
  24  0.335  0.666  0.996-  28 2.27  46 2.35  45 2.39  25 2.40
  25  0.420  0.748  0.081-  36 2.36  13 2.37  26 2.39  24 2.40
  26  0.333  0.669  0.333-  10 2.34  21 2.38  25 2.39  27 2.41
  27  0.421  0.752  0.417-  15 2.34  37 2.35  47 2.39  26 2.41
  28  0.414  0.750  0.757-  24 2.27  17 2.38  38 2.42  47 2.43
  29  0.661  0.003  0.999-  14 2.31  32 2.32  48 2.36  53 2.43
  30  0.668  0.004  0.334-  31 2.30  16 2.37  48 2.42  54 2.44
  31  0.751  0.081  0.417-  30 2.30   2 2.35  49 2.37  52 2.42
  32  0.744  0.084  0.755-  29 2.32  49 2.37  34 2.37  41 2.43
  33  0.752  0.421  0.412-  37 2.27  34 2.35  52 2.38  43 2.39
  34  0.668  0.335  0.660-  33 2.35  32 2.37  35 2.42  23 2.43
  35  0.751  0.419  0.747-  38 2.34  50 2.38   7 2.39  34 2.42
  36  0.669  0.660  0.002-  51 2.27  39 2.33  25 2.36  53 2.43
  37  0.669  0.661  0.335-  33 2.27  27 2.35  53 2.37  54 2.41
  38  0.670  0.667  0.663-  54 2.29  35 2.34  39 2.38  28 2.42
  39  0.750  0.746  0.756-  36 2.33  38 2.38  11 2.40  49 2.42
  40  0.999  0.004  0.995-   4 2.32  45 2.35  48 2.36   1 2.36
  41  1.000  0.005  0.664-   3 2.34   4 2.34  12 2.43  32 2.43
  42  0.080  0.417  0.089-  43 2.31   5 2.36   8 2.38  19 2.40
  43  0.005  0.333  0.333-  42 2.31   3 2.33   6 2.34  33 2.39
  44  0.081  0.425  0.748-  11 2.30  22 2.40   7 2.40   5 2.40
  45  0.082  0.756  0.084-   9 2.34  40 2.35  24 2.39   8 2.42
  46  0.420  0.418  0.086-  50 2.33  24 2.35  20 2.36  19 2.48
  47  0.329  0.666  0.669-  12 2.34  23 2.36  27 2.39  28 2.43
  48  0.749  0.085  0.079-  29 2.36  40 2.36  50 2.40  30 2.42
  49  0.663  0.001  0.667-  31 2.37  32 2.37  18 2.40  39 2.42
  50  0.666  0.338  0.998-  46 2.33  51 2.36  35 2.38  48 2.40
  51  0.750  0.419  0.082-  36 2.27   5 2.33  52 2.34  50 2.36
  52  0.668  0.336  0.329-  51 2.34  33 2.38  31 2.42  21 2.42
  53  0.755  0.747  0.084-   8 2.35  37 2.37  29 2.43  36 2.43
  54  0.751  0.746  0.422-  38 2.29   9 2.33  37 2.41  30 2.44

  LATTYP: Found a face centered cubic cell.
 ALAT       =    16.3988509804
  
  Lattice vectors:
  
 A1 = (   0.0000000000,   8.1994254902,   8.1994254902)
 A2 = (   8.1994254902,   0.0000000000,   8.1994254902)
 A3 = (   8.1994254902,   8.1994254902,   0.0000000000)


Analysis of symmetry for initial positions (statically):
=====================================================================
 Subroutine PRICEL returns:
 Original cell was already a primitive cell.
 

 Routine SETGRP: Setting up the symmetry group for a 
 face centered cubic supercell.


 Subroutine GETGRP returns: Found  1 space group operations
 (whereof  1 operations were pure point group operations)
 out of a pool of 48 trial point group operations.


The static configuration has the point symmetry C_1 .


Analysis of symmetry for dynamics (positions and initial velocities):
=====================================================================
 Subroutine PRICEL returns:
 Original cell was already a primitive cell.
 

 Routine SETGRP: Setting up the symmetry group for a 
 face centered cubic supercell.


 Subroutine GETGRP returns: Found  1 space group operations
 (whereof  1 operations were pure point group operations)
 out of a pool of 48 trial point group operations.


The dynamic configuration has the point symmetry C_1 .


 KPOINTS: Automatic kpoint scheme                 

Automatic generation of k-mesh.
Space group operators:
 irot       det(A)        alpha          n_x          n_y          n_z        tau_x        tau_y        tau_z
    1     1.000000     0.000001     1.000000     0.000000     0.000000     0.000000     0.000000     0.000000
 
 Subroutine IBZKPT returns following result:
 ===========================================
 
 Found     14 irreducible k-points:
 
 Following reciprocal coordinates:
            Coordinates               Weight
  0.000000  0.000000  0.000000      1.000000
  0.333333  0.000000  0.000000      2.000000
  0.000000  0.333333  0.000000      2.000000
  0.333333  0.333333  0.000000      2.000000
 -0.333333  0.333333  0.000000      2.000000
  0.000000  0.000000  0.333333      2.000000
  0.333333  0.000000  0.333333      2.000000
 -0.333333  0.000000  0.333333      2.000000
  0.000000  0.333333  0.333333      2.000000
  0.333333  0.333333  0.333333      2.000000
 -0.333333  0.333333  0.333333      2.000000
  0.000000 -0.333333  0.333333      2.000000
  0.333333 -0.333333  0.333333      2.000000
 -0.333333 -0.333333  0.333333      2.000000
 
 Following cartesian coordinates:
            Coordinates               Weight
  0.000000  0.000000  0.000000      1.000000
 -0.020327  0.020327  0.020327      2.000000
  0.020327 -0.020327  0.020327      2.000000
  0.000000  0.000000  0.040653      2.000000
  0.040653 -0.040653  0.000000      2.000000
  0.020327  0.020327 -0.020327      2.000000
  0.000000  0.040653  0.000000      2.000000
  0.040653  0.000000 -0.040653      2.000000
  0.040653  0.000000  0.000000      2.000000
  0.020327  0.020327  0.020327      2.000000
  0.060980 -0.020327 -0.020327      2.000000
  0.000000  0.040653 -0.040653      2.000000
 -0.020327  0.060980 -0.020327      2.000000
  0.020327  0.020327 -0.060980      2.000000
 


--------------------------------------------------------------------------------------------------------




 Dimension of arrays:
   k-points           NKPTS =       14   k-points in BZ     NKDIM =       14   number of bands    NBANDS=    144
   number of dos      NEDOS =    301   number of ions     NIONS =     54
   non local maximal  LDIM  =      5   non local SUM 2l+1 LMDIM =     13
   total plane-waves  NPLWV = 373248
   max r-space proj   IRMAX =      1   max aug-charges    IRDMAX=  18597
   dimension x,y,z NGX =    72 NGY =   72 NGZ =   72
   dimension x,y,z NGXF=   144 NGYF=  144 NGZF=  144
   support grid    NGXF=   144 NGYF=  144 NGZF=  144
   ions per type =              39  15
 NGX,Y,Z   is equivalent  to a cutoff of  10.32, 10.32, 10.32 a.u.
 NGXF,Y,Z  is equivalent  to a cutoff of  20.65, 20.65, 20.65 a.u.


 I would recommend the setting:
   dimension x,y,z NGX =    71 NGY =   71 NGZ =   71
 SYSTEM =  unknown system                          
 POSCAR =  supercell                               

 Startparameter for this run:
   NWRITE =      2    write-flag & timer
   PREC   = accura    normal or accurate (medium, high low for compatibility)
   ISTART =      0    job   : 0-new  1-cont  2-samecut
   ICHARG =      2    charge: 1-file 2-atom 10-const
   ISPIN  =      1    spin polarized calculation?
   LNONCOLLINEAR =      F non collinear calculations
   LSORBIT =      F    spin-orbit coupling
   INIWAV =      1    electr: 0-lowe 1-rand  2-diag
   LASPH  =      F    aspherical Exc in radial PAW
   METAGGA=      F    non-selfconsistent MetaGGA calc.

 Electronic Relaxation 1
   ENCUT  =  350.0 eV  25.72 Ry    5.07 a.u.  17.69 17.69 17.69*2*pi/ulx,y,z
   ENINI  =  350.0     initial cutoff
   ENAUG  =  385.8 eV  augmentation charge cutoff
   NELM   =     60;   NELMIN=  2; NELMDL= -5     # of ELM steps 
   EDIFF  = 0.1E-06   stopping-criterion for ELM
   LREAL  =      F    real-space projection
   NLSPLINE    = F    spline interpolate recip. space projectors
   LCOMPAT=      F    compatible to vasp.4.4
   GGA_COMPAT  = T    GGA compatible to vasp.4.4-vasp.4.6
   LMAXPAW     = -100 max onsite density
   LMAXMIX     =    2 max onsite mixed and CHGCAR
   VOSKOWN=      0    Vosko Wilk Nusair interpolation
   ROPT   =    0.00000   0.00000
 Ionic relaxation
   EDIFFG = 0.1E-05   stopping-criterion for IOM
   NSW    =      0    number of steps for IOM
   NBLOCK =      1;   KBLOCK =      1    inner block; outer block 
   IBRION =     -1    ionic relax: 0-MD 1-quasi-New 2-CG
   NFREE  =      0    steps in history (QN), initial steepest desc. (CG)
   ISIF   =      2    stress and relaxation
   IWAVPR =     10    prediction:  0-non 1-charg 2-wave 3-comb
   ISYM   =      2    0-nonsym 1-usesym 2-fastsym
   LCORR  =      T    Harris-Foulkes like correction to forces

   POTIM  = 0.5000    time-step for ionic-motion
   TEIN   =    0.0    initial temperature
   TEBEG  =    0.0;   TEEND  =   0.0 temperature during run
   SMASS  =  -3.00    Nose mass-parameter (am)
   estimated Nose-frequenzy (Omega)   =  0.10E-29 period in steps =****** mass=  -0.307E-26a.u.
   SCALEE = 1.0000    scale energy and forces
   NPACO  =    256;   APACO  = 16.0  distance and # of slots for P.C.
   PSTRESS=    0.0 pullay stress

  Mass of Ions in am
   POMASS =  28.09 72.61
  Ionic Valenz
   ZVAL   =   4.00  4.00
  Atomic Wigner-Seitz radii
   RWIGS  =  -1.00 -1.00
  virtual crystal weights 
   VCA    =   1.00  1.00
   NELECT =     216.0000    total number of electrons
   NUPDOWN=      -1.0000    fix difference up-down

 DOS related values:
   EMIN   =  10.00;   EMAX   =-10.00  energy-range for DOS
   EFERMI =   0.00
   ISMEAR =     0;   SIGMA  =   0.05  broadening in eV -4-tet -1-fermi 0-gaus

 Electronic relaxation 2 (details)
   IALGO  =     38    algorithm
   LDIAG  =      T    sub-space diagonalisation (order eigenvalues)
   LSUBROT=      F    optimize rotation matrix (better conditioning)
   TURBO    =      0    0=normal 1=particle mesh
   IRESTART =      0    0=no restart 2=restart with 2 vectors
   NREBOOT  =      0    no. of reboots
   NMIN     =      0    reboot dimension
   EREF     =   0.00    reference energy to select bands
   IMIX   =      4    mixing-type and parameters
     AMIX     =   0.40;   BMIX     =  1.00
     AMIX_MAG =   1.60;   BMIX_MAG =  1.00
     AMIN     =   0.10
     WC   =   100.;   INIMIX=   1;  MIXPRE=   1;  MAXMIX= -45

 Intra band minimization:
   WEIMIN = 0.0000     energy-eigenvalue tresh-hold
   EBREAK =  0.17E-09  absolut break condition
   DEPER  =   0.30     relativ break condition  

   TIME   =   0.40     timestep for ELM

  volume/ion in A,a.u.               =      20.42       137.78
  Fermi-wavevector in a.u.,A,eV,Ry     =   0.950822  1.796793 12.300523  0.904063
  Thomas-Fermi vector in A             =   2.079235

 Write flags
   LWAVE  =      T    write WAVECAR
   LCHARG =      T    write CHGCAR
   LVTOT  =      F    write LOCPOT, total local potential
   LVHAR  =      F    write LOCPOT, Hartree potential only
   LELF   =      F    write electronic localiz. function (ELF)
   LORBIT =      0    0 simple, 1 ext, 2 COOP (PROOUT)


 Dipole corrections
   LMONO  =      F    monopole corrections only (constant potential shift)
   LDIPOL =      F    correct potential (dipole corrections)
   IDIPOL =      0    1-x, 2-y, 3-z, 4-all directions 
   EPSILON=  1.0000000 bulk dielectric constant

 Exchange correlation treatment:
   GGA     =    --    GGA type
   LEXCH   =     8    internal setting for exchange type
   VOSKOWN=      0    Vosko Wilk Nusair interpolation
   LHFCALC =     F    Hartree Fock is set to
   LHFONE  =     F    Hartree Fock one center treatment
   AEXX    =    0.0000 exact exchange contribution

 Linear response parameters
   LEPSILON=     F    determine dielectric tensor
   LRPA    =     F    only Hartree local field effects (RPA)
   LNABLA  =     F    use nabla operator in PAW spheres
   LVEL    =     F    velocity operator in full k-point grid
   LINTERFAST=   F  fast interpolation
   KINTER  =     0    interpolate to denser k-point grid
   CSHIFT  =0.1000    complex shift for real part using Kramers Kronig
   OMEGAMAX=  -1.0    maximum frequency
   DEG_THRESHOLD= 0.2000000E-02 threshold for treating states as degnerate
   RTIME   =    0.100 relaxation time in fs

 Orbital magnetization related:
   ORBITALMAG=     F  switch on orbital magnetization
   LCHIMAG   =     F  perturbation theory with respect to B field
   DQ        =  0.001000  dq finite difference perturbation B field



--------------------------------------------------------------------------------------------------------


 Static calculation
 charge density and potential will be updated during run
 non-spin polarized calculation
 Variant of blocked Davidson
 Davidson routine will perform the subspace rotation
 perform sub-space diagonalisation
    after iterative eigenvector-optimisation
 modified Broyden-mixing scheme, WC =      100.0
 initial mixing is a Kerker type mixing with AMIX =  0.4000 and BMIX =      1.0000
 Hartree-type preconditioning will be used
 using additional bands           36
 reciprocal scheme for non local part
 use partial core corrections
 calculate Harris-corrections to forces   (improved forces if not selfconsistent)
 use gradient corrections 
 use of overlap-Matrix (Vanderbilt PP)
 Gauss-broadening in eV      SIGMA  =   0.05


--------------------------------------------------------------------------------------------------------


  energy-cutoff  :      350.00
  volume of cell :     1102.50
      direct lattice vectors                 reciprocal lattice vectors
     0.000000000  8.199425490  8.199425490    -0.060979882  0.060979882  0.060979882
     8.199425490  0.000000000  8.199425490     0.060979882 -0.060979882  0.060979882
     8.199425490  8.199425490  0.000000000     0.060979882  0.060979882 -0.060979882

  length of vectors
    11.595738732 11.595738732 11.595738732     0.105620254  0.105620254  0.105620254



 k-points in units of 2pi/SCALE and weight: Automatic kpoint scheme                 
   0.00000000  0.00000000  0.00000000       0.037
  -0.02032663  0.02032663  0.02032663       0.074
   0.02032663 -0.02032663  0.02032663       0.074
   0.00000000  0.00000000  0.04065325       0.074
   0.04065325 -0.04065325  0.00000000       0.074
   0.02032663  0.02032663 -0.02032663       0.074
   0.00000000  0.04065325  0.00000000       0.074
   0.04065325  0.00000000 -0.04065325       0.074
   0.04065325  0.00000000  0.00000000       0.074
   0.02032663  0.02032663  0.02032663       0.074
   0.06097988 -0.02032663 -0.02032663       0.074
   0.00000000  0.04065325 -0.04065325       0.074
  -0.02032663  0.06097988 -0.02032663       0.074
   0.02032663  0.02032663 -0.06097988       0.074

 k-points in reciprocal lattice and weights: Automatic kpoint scheme                 
   0.00000000  0.00000000  0.00000000       0.037
   0.33333333  0.00000000  0.00000000       0.074
   0.00000000  0.33333333  0.00000000       0.074
   0.33333333  0.33333333  0.00000000       0.074
  -0.33333333  0.33333333  0.00000000       0.074
   0.00000000  0.00000000  0.33333333       0.074
   0.33333333  0.00000000  0.33333333       0.074
  -0.33333333  0.00000000  0.33333333       0.074
   0.00000000  0.33333333  0.33333333       0.074
   0.33333333  0.33333333  0.33333333       0.074
  -0.33333333  0.33333333  0.33333333       0.074
   0.00000000 -0.33333333  0.33333333       0.074
   0.33333333 -0.33333333  0.33333333       0.074
  -0.33333333 -0.33333333  0.33333333       0.074

 position of ions in fractional coordinates (direct lattice) 
   0.08665616  0.07929319  0.08132563
   0.99952134  0.00287941  0.33041625
   0.08144378  0.08685291  0.41693298
   0.07984613  0.08607341  0.75041034
   0.99613302  0.33758363  0.00178081
   0.08469806  0.41988436  0.41255893
   0.00327574  0.33491662  0.66162000
   0.00258437  0.66832118  0.99576808
   0.99646451  0.67039602  0.33112078
   0.08652467  0.75113584  0.41926879
   0.00281170  0.66701191  0.66019850
   0.08196291  0.74845734  0.75362526
   0.33971269  0.99883770  0.99823527
   0.41698276  0.08179873  0.08317562
   0.33105160  0.99856807  0.33898452
   0.41761024  0.08100091  0.41540681
   0.33072727  0.00146328  0.66705209
   0.41038688  0.08329277  0.74986633
   0.33300025  0.32893382  0.00029638
   0.32705476  0.33771817  0.33515189
   0.41238285  0.41727189  0.42027348
   0.33371494  0.33819274  0.66178665
   0.41082790  0.41707951  0.75101823
   0.33476016  0.66573095  0.99575090
   0.41957748  0.74842453  0.08124602
   0.33325074  0.66911459  0.33342643
   0.42078445  0.75190850  0.41715890
   0.41445846  0.74970546  0.75656605
   0.66086710  0.00336372  0.99940569
   0.66794762  0.00411075  0.33431922
   0.75149555  0.08060053  0.41699520
   0.74359868  0.08414530  0.75457171
   0.75214085  0.42071268  0.41175925
   0.66755054  0.33451595  0.65968750
   0.75089032  0.41942494  0.74663216
   0.66858022  0.65973135  0.00171864
   0.66881274  0.66058828  0.33464757
   0.66997794  0.66687962  0.66337154
   0.74971440  0.74554164  0.75566089
   0.99866602  0.00405921  0.99498276
   0.99991599  0.00473771  0.66426054
   0.07970455  0.41669502  0.08864291
   0.00504093  0.33294743  0.33251758
   0.08063865  0.42463707  0.74794522
   0.08248031  0.75569276  0.08401944
   0.41989541  0.41830115  0.08603924
   0.32882106  0.66644459  0.66906141
   0.74908698  0.08457248  0.07886738
   0.66349563  0.00078105  0.66741756
   0.66552264  0.33775020  0.99843118
   0.75010819  0.41946715  0.08179774
   0.66827192  0.33628949  0.32853237
   0.75487004  0.74727238  0.08437638
   0.75052881  0.74647597  0.42193506

 position of ions in cartesian coordinates  (Angst):
   1.31698206  1.37735415  1.36068937
   2.73283298 10.90472418  8.21911026
   4.13075482  4.08640310  1.37993617
   6.85868624  6.80762608  1.36044494
   2.78259350  8.18232016 10.93571034
   6.82555677  4.07722169  4.13728603
   8.17102775  5.45176304  2.77298304
  13.64457588  8.18591657  5.50104006
   8.21186242 10.88543668 13.66729876
   9.59664553  4.14721574  6.86833490
  10.88236288  5.43630276  5.49216882
  12.31621440  6.85134295  6.80896900
  16.37485101 10.97040460 10.97534422
   1.35269483  4.10101137  4.08972165
  10.96716282  5.49391127 10.90211740
   4.07025812  6.83026123  4.08832496
   5.48144200  8.18121755  2.72377169
   6.83142602  9.51340979  4.04788957
   2.69949847  2.73284084  5.42747909
   5.51714785  5.42971407  5.45075608
   6.86739086  6.82730354  6.80269230
   8.19925649  8.16254117  5.50925694
   9.57773042  9.52647079  6.78836518
  13.62319666 10.90942635  8.20345234
   6.80282182  4.10646494  9.57694539
   8.22026037  5.46636971  8.21881982
   9.58568104  6.87065402  9.61540847
  12.35056104  9.60172827  9.54547533
   8.22213304 13.61328304  5.44631114
   2.77493136  8.21801228  5.51049254
   4.07999917  9.58095285  6.82270984
   6.87699761 12.28413647  6.78702507
   6.82579163  9.54331218  9.61672517
   8.15189714 10.88258945  8.21636955
   9.56099829 12.27882400  9.59591276
   5.42350988  5.49606559 10.89139173
   8.16036217  8.22779803 10.90032461
  10.90729530 10.93269974 10.96146400
  12.30899833 12.34321257 12.26024053
   8.19157018 16.34677458  8.22177079
   5.48540133 13.64529150  8.23758321
   4.14348070  1.38035241  4.07019126
   5.45643077  2.76778589  2.77131040
   9.61450114  6.79391171  4.14297063
   6.88515759  1.36520233  6.87253764
   4.13530145  4.14837344  6.87273019
  10.95038193  8.18206293  8.16060653
   1.34011295  6.78875010  6.83552858
   5.47884472 10.91272354  5.44668707
  10.95591965 13.64346539  8.22626089
   4.11008415  6.82115070  9.58984592
   5.45115735  8.17322248  8.23682643
   6.81904201  6.88133849 12.31670487
   9.58029916  9.61353011 12.27457908



--------------------------------------------------------------------------------------------------------


 k-point  1 :   0.0000 0.0000 0.0000  plane waves:   16361
 k-point  2 :   0.3333 0.0000 0.0000  plane waves:   16382
 k-point  3 :   0.0000 0.3333 0.0000  plane waves:   16382
 k-point  4 :   0.3333 0.3333 0.0000  plane waves:   16349
 k-point  5 :  -0.3333 0.3333 0.0000  plane waves:   16406
 k-point  6 :   0.0000 0.0000 0.3333  plane waves:   16382
 k-point  7 :   0.3333 0.0000 0.3333  plane waves:   16349
 k-point  8 :  -0.3333 0.0000 0.3333  plane waves:   16406
 k-point  9 :   0.0000 0.3333 0.3333  plane waves:   16349
 k-point 10 :   0.3333 0.3333 0.3333  plane waves:   16382
 k-point 11 :  -0.3333 0.3333 0.3333  plane waves:   16406
 k-point 12 :   0.0000-0.3333 0.3333  plane waves:   16406
 k-point 13 :   0.3333-0.3333 0.3333  plane waves:   16406
 k-point 14 :  -0.3333-0.3333 0.3333  plane waves:   16406

 maximum and minimum number of plane-waves per node :     16406    16349

 maximum number of plane-waves:     16406
 maximum index in each direction: 
   IXMAX=   18   IYMAX=   18   IZMAX=   17
   IXMIN=  -18   IYMIN=  -18   IZMIN=  -18

 WARNING: aliasing errors must be expected set NGX to  74 to avoid them
 WARNING: aliasing errors must be expected set NGY to  74 to avoid them
 NGZ is ok and might be reduce to  72
 aliasing errors are usually negligible using standard VASP settings
 and one can safely disregard these warnings

 serial   3D FFT for wavefunctions
 parallel 3D FFT for charge:
    minimum data exchange during FFTs selected (reduces bandwidth)


 total amount of memory used by VASP on root node   171960. kBytes
========================================================================

   base      :      30000. kBytes
   nonl-proj :      61986. kBytes
   fftplans  :      15551. kBytes
   grid      :      29859. kBytes
   one-center:        438. kBytes
   wavefun   :      34126. kBytes

     INWAV:  cpu time    0.0000: real time    0.0001
 Broyden mixing: mesh for mixing (old mesh)
   NGX = 35   NGY = 35   NGZ = 35
  (NGX  =144   NGY  =144   NGZ  =144)
  gives a total of  42875 points

 initial charge density was supplied:
 charge density of overlapping atoms calculated
 number of electron     216.0000000 magnetization 
 keeping initial charge density in first step


--------------------------------------------------------------------------------------------------------


 Maximum index for augmentation-charges         1144 (set IRDMAX)


--------------------------------------------------------------------------------------------------------


 First call to EWALD:  gamma=   0.172
 Maximum number of real-space cells 3x 3x 3
 Maximum number of reciprocal cells 3x 3x 3

 FEWALD executed in parallel
    FEWALD:  cpu time    0.0040: real time    0.0070


----------------------------------------- Iteration    1(   1)  ---------------------------------------


    POTLOK:  cpu time    0.5280: real time    0.5281
    SETDIJ:  cpu time    0.0240: real time    0.0260
     EDDAV:  cpu time   54.1080: real time   54.0893
       DOS:  cpu time    0.0000: real time    0.0011
    --------------------------------------------
      LOOP:  cpu time   54.6640: real time   54.6454

 eigenvalue-minimisations  :  4032
 total energy-change (2. order) : 0.4830486E+03  (-0.6507978E+04)
 number of electron     216.0000000 magnetization 
 augmentation part      216.0000000 magnetization 

 Free energy of the ion-electron system (eV)
  ---------------------------------------------------
  alpha Z        PSCENC =       204.72640563
  Ewald energy   TEWEN  =     -6126.56725877
  -Hartree energ DENC   =      -305.18554569
  -exchange      EXHF   =         0.00000000
  -V(xc)+E(xc)   XCENC  =      -474.37334147
  PAW double counting   =      4759.00611296    -3855.55456952
  entropy T*S    EENTRO =        -0.01632961
  eigenvalues    EBANDS =       686.52153268
  atomic energy  EATOM  =      5594.49158097
  Solvation  Ediel_sol  =         0.00000000
  ---------------------------------------------------
  free energy    TOTEN  =       483.04858720 eV

  energy without entropy =      483.06491680  energy(sigma->0) =      483.05675200


--------------------------------------------------------------------------------------------------------




----------------------------------------- Iteration    1(   2)  ---------------------------------------


     EDDAV:  cpu time   63.2240: real time   63.2025
       DOS:  cpu time    0.0000: real time    0.0010
    --------------------------------------------
      LOOP:  cpu time   63.2240: real time   63.2039

 eigenvalue-minimisations  :  4944
 total energy-change (2. order) :-0.7170019E+03  (-0.6839993E+03)
 number of electron     216.0000000 magnetization 
 augmentation part      216.0000000 magnetization 

 Free energy of the ion-electron system (eV)
  ---------------------------------------------------
  alpha Z        PSCENC =       204.72640563
  Ewald energy   TEWEN  =     -6126.56725877
  -Hartree energ DENC   =      -305.18554569
  -exchange      EXHF   =         0.00000000
  -V(xc)+E(xc)   XCENC  =      -474.37334147
  PAW double counting   =      4759.00611296    -3855.55456952
  entropy T*S    EENTRO =        -0.00000000
  eigenvalues    EBANDS =       -30.49664978
  atomic energy  EATOM  =      5594.49158097
  Solvation  Ediel_sol  =         0.00000000
  ---------------------------------------------------
  free energy    TOTEN  =      -233.95326566 eV

  energy without entropy =     -233.95326566  energy(sigma->0) =     -233.95326566


--------------------------------------------------------------------------------------------------------




----------------------------------------- Iteration    1(   3)  ---------------------------------------


     EDDAV:  cpu time   64.4080: real time   64.3989
       DOS:  cpu time    0.0000: real time    0.0008
    --------------------------------------------
      LOOP:  cpu time   64.4080: real time   64.4001

 eigenvalue-minimisations  :  4992
 total energy-change (2. order) :-0.4528066E+02  (-0.4465233E+02)
 number of electron     216.0000000 magnetization 
 augmentation part      216.0000000 magnetization 

 Free energy of the ion-electron system (eV)
  ---------------------------------------------------
  alpha Z        PSCENC =       204.72640563
  Ewald energy   TEWEN  =     -6126.56725877
  -Hartree energ DENC   =      -305.18554569
  -exchange      EXHF   =         0.00000000
  -V(xc)+E(xc)   XCENC  =      -474.37334147
  PAW double counting   =      4759.00611296    -3855.55456952
  entropy T*S    EENTRO =        -0.00000000
  eigenvalues    EBANDS =       -75.77731429
  atomic energy  EATOM  =      5594.49158097
  Solvation  Ediel_sol  =         0.00000000
  ---------------------------------------------------
  free energy    TOTEN  =      -279.23393017 eV

  energy without entropy =     -279.23393017  energy(sigma->0) =     -279.23393017


--------------------------------------------------------------------------------------------------------




----------------------------------------- Iteration    1(   4)  ---------------------------------------


     EDDAV:  cpu time   65.2680: real time   65.2693
       DOS:  cpu time    0.0000: real time    0.0009
    --------------------------------------------
      LOOP:  cpu time   65.2680: real time   65.2706

 eigenvalue-minimisations  :  5072
 total energy-change (2. order) :-0.9937336E+00  (-0.9885929E+00)
 number of electron     216.0000000 magnetization 
 augmentation part      216.0000000 magnetization 

 Free energy of the ion-electron system (eV)
  ---------------------------------------------------
  alpha Z        PSCENC =       204.72640563
  Ewald energy   TEWEN  =     -6126.56725877
  -Hartree energ DENC   =      -305.18554569
  -exchange      EXHF   =         0.00000000
  -V(xc)+E(xc)   XCENC  =      -474.37334147
  PAW double counting   =      4759.00611296    -3855.55456952
  entropy T*S    EENTRO =        -0.00000000
  eigenvalues    EBANDS =       -76.77104794
  atomic energy  EATOM  =      5594.49158097
  Solvation  Ediel_sol  =         0.00000000
  ---------------------------------------------------
  free energy    TOTEN  =      -280.22766381 eV

  energy without entropy =     -280.22766381  energy(sigma->0) =     -280.22766381


--------------------------------------------------------------------------------------------------------




----------------------------------------- Iteration    1(   5)  ---------------------------------------


     EDDAV:  cpu time   77.7960: real time   77.7731
       DOS:  cpu time    0.0000: real time    0.0011
    CHARGE:  cpu time    2.0960: real time    2.0935
    MIXING:  cpu time    0.0200: real time    0.0217
    --------------------------------------------
      LOOP:  cpu time   79.9120: real time   79.8898

 eigenvalue-minimisations  :  4992
 total energy-change (2. order) :-0.2009895E-01  (-0.2008067E-01)
 number of electron     215.9999999 magnetization 
 augmentation part      -18.9316279 magnetization 

 Broyden mixing:
  rms(total) = 0.23185E+01    rms(broyden)= 0.23185E+01
  rms(prec ) = 0.26782E+01
  weight for this iteration     100.00

 Free energy of the ion-electron system (eV)
  ---------------------------------------------------
  alpha Z        PSCENC =       204.72640563
  Ewald energy   TEWEN  =     -6126.56725877
  -Hartree energ DENC   =      -305.18554569
  -exchange      EXHF   =         0.00000000
  -V(xc)+E(xc)   XCENC  =      -474.37334147
  PAW double counting   =      4759.00611296    -3855.55456952
  entropy T*S    EENTRO =        -0.00000000
  eigenvalues    EBANDS =       -76.79114688
  atomic energy  EATOM  =      5594.49158097
  Solvation  Ediel_sol  =         0.00000000
  ---------------------------------------------------
  free energy    TOTEN  =      -280.24776276 eV

  energy without entropy =     -280.24776276  energy(sigma->0) =     -280.24776276


--------------------------------------------------------------------------------------------------------




----------------------------------------- Iteration    1(   6)  ---------------------------------------


    POTLOK:  cpu time    0.5440: real time    0.5456
    SETDIJ:  cpu time    0.0280: real time    0.0298
     EDDAV:  cpu time   74.5440: real time   74.5202
       DOS:  cpu time    0.0000: real time    0.0008
    CHARGE:  cpu time    2.0000: real time    2.0002
    MIXING:  cpu time    0.0160: real time    0.0178
    --------------------------------------------
      LOOP:  cpu time   77.1400: real time   77.1151

 eigenvalue-minimisations  :  4688
 total energy-change (2. order) : 0.3112656E+01  (-0.1827901E+00)
 number of electron     215.9999999 magnetization 
 augmentation part      -18.7604001 magnetization 

 Broyden mixing:
  rms(total) = 0.14157E+01    rms(broyden)= 0.14157E+01
  rms(prec ) = 0.16217E+01
  weight for this iteration     100.00

 eigenvalues of (default mixing * dielectric matrix)
  average eigenvalue GAMMA=   2.5502
  2.5502

 Free energy of the ion-electron system (eV)
  ---------------------------------------------------
  alpha Z        PSCENC =       204.72640563
  Ewald energy   TEWEN  =     -6126.56725877
  -Hartree energ DENC   =      -342.91307055
  -exchange      EXHF   =         0.00000000
  -V(xc)+E(xc)   XCENC  =      -468.12783004
  PAW double counting   =      9471.60160034    -8571.61468033
  entropy T*S    EENTRO =        -0.00000000
  eigenvalues    EBANDS =       -38.73185447
  atomic energy  EATOM  =      5594.49158097
  Solvation  Ediel_sol  =         0.00000000
  ---------------------------------------------------
  free energy    TOTEN  =      -277.13510722 eV

  energy without entropy =     -277.13510722  energy(sigma->0) =     -277.13510722


--------------------------------------------------------------------------------------------------------




----------------------------------------- Iteration    1(   7)  ---------------------------------------


    POTLOK:  cpu time    0.6480: real time    0.6450
    SETDIJ:  cpu time    0.0280: real time    0.0298
     EDDAV:  cpu time   72.5200: real time   72.4972
       DOS:  cpu time    0.0000: real time    0.0011
    CHARGE:  cpu time    2.1000: real time    2.0988
    MIXING:  cpu time    0.0200: real time    0.0206
    --------------------------------------------
      LOOP:  cpu time   75.3160: real time   75.2933

 eigenvalue-minimisations  :  4608
 total energy-change (2. order) : 0.1345562E+01  (-0.3785640E+00)
 number of electron     215.9999999 magnetization 
 augmentation part      -18.5294420 magnetization 

 Broyden mixing:
  rms(total) = 0.98530E-01    rms(broyden)= 0.98529E-01
  rms(prec ) = 0.13555E+00
  weight for this iteration     100.00

 eigenvalues of (default mixing * dielectric matrix)
  average eigenvalue GAMMA=   1.9834
  1.4896  2.4771

 Free energy of the ion-electron system (eV)
  ---------------------------------------------------
  alpha Z        PSCENC =       204.72640563
  Ewald energy   TEWEN  =     -6126.56725877
  -Hartree energ DENC   =      -406.01245814
  -exchange      EXHF   =         0.00000000
  -V(xc)+E(xc)   XCENC  =      -457.40393933
  PAW double counting   =     20639.83199120   -19744.55992632
  entropy T*S    EENTRO =        -0.00000000
  eigenvalues    EBANDS =        19.70405943
  atomic energy  EATOM  =      5594.49158097
  Solvation  Ediel_sol  =         0.00000000
  ---------------------------------------------------
  free energy    TOTEN  =      -275.78954534 eV

  energy without entropy =     -275.78954534  energy(sigma->0) =     -275.78954534


--------------------------------------------------------------------------------------------------------




----------------------------------------- Iteration    1(   8)  ---------------------------------------


    POTLOK:  cpu time    0.5680: real time    0.5683
    SETDIJ:  cpu time    0.0240: real time    0.0258
     EDDAV:  cpu time   73.6600: real time   73.6352
       DOS:  cpu time    0.0000: real time    0.0013
    CHARGE:  cpu time    2.0520: real time    2.0526
    MIXING:  cpu time    0.0160: real time    0.0159
    --------------------------------------------
      LOOP:  cpu time   76.3240: real time   76.2999

 eigenvalue-minimisations  :  4720
 total energy-change (2. order) :-0.1524987E-01  (-0.2628189E-01)
 number of electron     215.9999999 magnetization 
 augmentation part      -18.5634044 magnetization 

 Broyden mixing:
  rms(total) = 0.60005E-01    rms(broyden)= 0.60004E-01
  rms(prec ) = 0.66587E-01
  weight for this iteration     100.00

 eigenvalues of (default mixing * dielectric matrix)
  average eigenvalue GAMMA=   2.0184
  2.6317  1.7117  1.7117

 Free energy of the ion-electron system (eV)
  ---------------------------------------------------
  alpha Z        PSCENC =       204.72640563
  Ewald energy   TEWEN  =     -6126.56725877
  -Hartree energ DENC   =      -403.10729900
  -exchange      EXHF   =         0.00000000
  -V(xc)+E(xc)   XCENC  =      -457.52391697
  PAW double counting   =     20579.62396452   -19683.70599877
  entropy T*S    EENTRO =        -0.00000000
  eigenvalues    EBANDS =        16.25772718
  atomic energy  EATOM  =      5594.49158097
  Solvation  Ediel_sol  =         0.00000000
  ---------------------------------------------------
  free energy    TOTEN  =      -275.80479521 eV

  energy without entropy =     -275.80479521  energy(sigma->0) =     -275.80479521


--------------------------------------------------------------------------------------------------------




----------------------------------------- Iteration    1(   9)  ---------------------------------------


    POTLOK:  cpu time    0.6760: real time    0.6767
    SETDIJ:  cpu time    0.0320: real time    0.0297
     EDDAV:  cpu time   73.2800: real time   73.2562
       DOS:  cpu time    0.0000: real time    0.0017
    CHARGE:  cpu time    2.2760: real time    2.2737
    MIXING:  cpu time    0.0200: real time    0.0196
    --------------------------------------------
      LOOP:  cpu time   76.2840: real time   76.2582

 eigenvalue-minimisations  :  5024
 total energy-change (2. order) :-0.8580270E-02  (-0.2534853E-02)
 number of electron     215.9999999 magnetization 
 augmentation part      -18.5601287 magnetization 

 Broyden mixing:
  rms(total) = 0.31296E-01    rms(broyden)= 0.31296E-01
  rms(prec ) = 0.34731E-01
  weight for this iteration     100.00

 eigenvalues of (default mixing * dielectric matrix)
  average eigenvalue GAMMA=   1.7672
  2.3723  1.9242  1.9242  0.8482

 Free energy of the ion-electron system (eV)
  ---------------------------------------------------
  alpha Z        PSCENC =       204.72640563
  Ewald energy   TEWEN  =     -6126.56725877
  -Hartree energ DENC   =      -404.48461611
  -exchange      EXHF   =         0.00000000
  -V(xc)+E(xc)   XCENC  =      -457.26015400
  PAW double counting   =     20815.77732955   -19919.85011857
  entropy T*S    EENTRO =        -0.00000000
  eigenvalues    EBANDS =        17.35345582
  atomic energy  EATOM  =      5594.49158097
  Solvation  Ediel_sol  =         0.00000000
  ---------------------------------------------------
  free energy    TOTEN  =      -275.81337548 eV

  energy without entropy =     -275.81337548  energy(sigma->0) =     -275.81337548


--------------------------------------------------------------------------------------------------------




----------------------------------------- Iteration    1(  10)  ---------------------------------------


    POTLOK:  cpu time    0.5920: real time    0.5946
    SETDIJ:  cpu time    0.0320: real time    0.0300
     EDDAV:  cpu time   72.1840: real time   72.1639
       DOS:  cpu time    0.0000: real time    0.0009
    CHARGE:  cpu time    2.1040: real time    2.1027
    MIXING:  cpu time    0.0200: real time    0.0215
    --------------------------------------------
      LOOP:  cpu time   74.9360: real time   74.9142

 eigenvalue-minimisations  :  4560
 total energy-change (2. order) :-0.1260134E-02  (-0.2855576E-03)
 number of electron     215.9999999 magnetization 
 augmentation part      -18.5646421 magnetization 

 Broyden mixing:
  rms(total) = 0.16917E-01    rms(broyden)= 0.16917E-01
  rms(prec ) = 0.18483E-01
  weight for this iteration     100.00

 eigenvalues of (default mixing * dielectric matrix)
  average eigenvalue GAMMA=   1.8860
  2.7261  2.1793  2.1793  1.1726  1.1726

 Free energy of the ion-electron system (eV)
  ---------------------------------------------------
  alpha Z        PSCENC =       204.72640563
  Ewald energy   TEWEN  =     -6126.56725877
  -Hartree energ DENC   =      -403.81382052
  -exchange      EXHF   =         0.00000000
  -V(xc)+E(xc)   XCENC  =      -457.33937517
  PAW double counting   =     20629.76824675   -19733.72694567
  entropy T*S    EENTRO =        -0.00000000
  eigenvalues    EBANDS =        16.64653117
  atomic energy  EATOM  =      5594.49158097
  Solvation  Ediel_sol  =         0.00000000
  ---------------------------------------------------
  free energy    TOTEN  =      -275.81463561 eV

  energy without entropy =     -275.81463561  energy(sigma->0) =     -275.81463561


--------------------------------------------------------------------------------------------------------




----------------------------------------- Iteration    1(  11)  ---------------------------------------


    POTLOK:  cpu time    0.6400: real time    0.6394
    SETDIJ:  cpu time    0.0280: real time    0.0292
     EDDAV:  cpu time   71.3520: real time   71.3278
       DOS:  cpu time    0.0000: real time    0.0009
    CHARGE:  cpu time    1.9880: real time    1.9864
    MIXING:  cpu time    0.0160: real time    0.0173
    --------------------------------------------
      LOOP:  cpu time   74.0240: real time   74.0018

 eigenvalue-minimisations  :  4464
 total energy-change (2. order) :-0.9627460E-03  (-0.9281039E-04)
 number of electron     215.9999999 magnetization 
 augmentation part      -18.5647043 magnetization 

 Broyden mixing:
  rms(total) = 0.80764E-02    rms(broyden)= 0.80764E-02
  rms(prec ) = 0.84051E-02
  weight for this iteration     100.00

 eigenvalues of (default mixing * dielectric matrix)
  average eigenvalue GAMMA=   1.8274
  2.7886  2.3448  1.8668  1.8668  0.9232  1.1742

 Free energy of the ion-electron system (eV)
  ---------------------------------------------------
  alpha Z        PSCENC =       204.72640563
  Ewald energy   TEWEN  =     -6126.56725877
  -Hartree energ DENC   =      -404.17604053
  -exchange      EXHF   =         0.00000000
  -V(xc)+E(xc)   XCENC  =      -457.26716032
  PAW double counting   =     20566.32763356   -19670.26694154
  entropy T*S    EENTRO =        -0.00000000
  eigenvalues    EBANDS =        16.91618264
  atomic energy  EATOM  =      5594.49158097
  Solvation  Ediel_sol  =         0.00000000
  ---------------------------------------------------
  free energy    TOTEN  =      -275.81559836 eV

  energy without entropy =     -275.81559836  energy(sigma->0) =     -275.81559836


--------------------------------------------------------------------------------------------------------




----------------------------------------- Iteration    1(  12)  ---------------------------------------


    POTLOK:  cpu time    0.6480: real time    0.6470
    SETDIJ:  cpu time    0.0240: real time    0.0259
     EDDAV:  cpu time   74.4480: real time   74.4243
       DOS:  cpu time    0.0000: real time    0.0009
    CHARGE:  cpu time    1.9680: real time    1.9656
    MIXING:  cpu time    0.0240: real time    0.0248
    --------------------------------------------
      LOOP:  cpu time   77.1120: real time   77.0891

 eigenvalue-minimisations  :  4896
 total energy-change (2. order) :-0.9590145E-04  (-0.1840656E-04)
 number of electron     215.9999999 magnetization 
 augmentation part      -18.5655087 magnetization 

 Broyden mixing:
  rms(total) = 0.22480E-02    rms(broyden)= 0.22480E-02
  rms(prec ) = 0.24682E-02
  weight for this iteration     100.00

 eigenvalues of (default mixing * dielectric matrix)
  average eigenvalue GAMMA=   1.7324
  2.8754  2.4252  1.8910  1.8910  1.1410  0.9518  0.9518

 Free energy of the ion-electron system (eV)
  ---------------------------------------------------
  alpha Z        PSCENC =       204.72640563
  Ewald energy   TEWEN  =     -6126.56725877
  -Hartree energ DENC   =      -404.22785454
  -exchange      EXHF   =         0.00000000
  -V(xc)+E(xc)   XCENC  =      -457.25729898
  PAW double counting   =     20520.64351157   -19624.57240363
  entropy T*S    EENTRO =        -0.00000000
  eigenvalues    EBANDS =        16.94762349
  atomic energy  EATOM  =      5594.49158097
  Solvation  Ediel_sol  =         0.00000000
  ---------------------------------------------------
  free energy    TOTEN  =      -275.81569426 eV

  energy without entropy =     -275.81569426  energy(sigma->0) =     -275.81569426


--------------------------------------------------------------------------------------------------------




----------------------------------------- Iteration    1(  13)  ---------------------------------------


    POTLOK:  cpu time    0.6080: real time    0.6063
    SETDIJ:  cpu time    0.0240: real time    0.0247
     EDDAV:  cpu time   74.5200: real time   74.4986
       DOS:  cpu time    0.0040: real time    0.0010
    CHARGE:  cpu time    2.0760: real time    2.0757
    MIXING:  cpu time    0.0200: real time    0.0196
    --------------------------------------------
      LOOP:  cpu time   77.2520: real time   77.2265

 eigenvalue-minimisations  :  4768
 total energy-change (2. order) :-0.8942967E-05  (-0.2046266E-05)
 number of electron     215.9999999 magnetization 
 augmentation part      -18.5654564 magnetization 

 Broyden mixing:
  rms(total) = 0.95829E-03    rms(broyden)= 0.95829E-03
  rms(prec ) = 0.10580E-02
  weight for this iteration     100.00

 eigenvalues of (default mixing * dielectric matrix)
  average eigenvalue GAMMA=   1.7948
  3.0418  2.5228  1.9736  1.9736  1.4715  1.4715  0.9519  0.9519

 Free energy of the ion-electron system (eV)
  ---------------------------------------------------
  alpha Z        PSCENC =       204.72640563
  Ewald energy   TEWEN  =     -6126.56725877
  -Hartree energ DENC   =      -404.26816317
  -exchange      EXHF   =         0.00000000
  -V(xc)+E(xc)   XCENC  =      -457.25508574
  PAW double counting   =     20502.07329110   -19606.00169324
  entropy T*S    EENTRO =        -0.00000000
  eigenvalues    EBANDS =        16.98522001
  atomic energy  EATOM  =      5594.49158097
  Solvation  Ediel_sol  =         0.00000000
  ---------------------------------------------------
  free energy    TOTEN  =      -275.81570320 eV

  energy without entropy =     -275.81570320  energy(sigma->0) =     -275.81570320


--------------------------------------------------------------------------------------------------------




----------------------------------------- Iteration    1(  14)  ---------------------------------------


    POTLOK:  cpu time    0.6160: real time    0.6157
    SETDIJ:  cpu time    0.0280: real time    0.0277
     EDDAV:  cpu time   78.3520: real time   78.3269
       DOS:  cpu time    0.0000: real time    0.0011
    CHARGE:  cpu time    1.9880: real time    1.9898
    MIXING:  cpu time    0.0240: real time    0.0233
    --------------------------------------------
      LOOP:  cpu time   81.0080: real time   80.9852

 eigenvalue-minimisations  :  5056
 total energy-change (2. order) : 0.1586261E-05  (-0.3607362E-06)
 number of electron     215.9999999 magnetization 
 augmentation part      -18.5654016 magnetization 

 Broyden mixing:
  rms(total) = 0.30081E-03    rms(broyden)= 0.30081E-03
  rms(prec ) = 0.36015E-03
  weight for this iteration     100.00

 eigenvalues of (default mixing * dielectric matrix)
  average eigenvalue GAMMA=   1.7762
  3.0703  2.3425  2.3425  1.8302  1.8302  1.3173  1.3173  0.9680  0.9680

 Free energy of the ion-electron system (eV)
  ---------------------------------------------------
  alpha Z        PSCENC =       204.72640563
  Ewald energy   TEWEN  =     -6126.56725877
  -Hartree energ DENC   =      -404.26802710
  -exchange      EXHF   =         0.00000000
  -V(xc)+E(xc)   XCENC  =      -457.25572054
  PAW double counting   =     20504.83573313   -19608.76321156
  entropy T*S    EENTRO =        -0.00000000
  eigenvalues    EBANDS =        16.98479662
  atomic energy  EATOM  =      5594.49158097
  Solvation  Ediel_sol  =         0.00000000
  ---------------------------------------------------
  free energy    TOTEN  =      -275.81570161 eV

  energy without entropy =     -275.81570161  energy(sigma->0) =     -275.81570161


--------------------------------------------------------------------------------------------------------




----------------------------------------- Iteration    1(  15)  ---------------------------------------


    POTLOK:  cpu time    0.6200: real time    0.6179
    SETDIJ:  cpu time    0.0320: real time    0.0313
     EDDAV:  cpu time   72.2680: real time   72.2454
       DOS:  cpu time    0.0000: real time    0.0009
    CHARGE:  cpu time    2.0560: real time    2.0570
    MIXING:  cpu time    0.0280: real time    0.0252
    --------------------------------------------
      LOOP:  cpu time   75.0040: real time   74.9784

 eigenvalue-minimisations  :  4720
 total energy-change (2. order) :-0.1978455E-05  (-0.1492123E-06)
 number of electron     215.9999999 magnetization 
 augmentation part      -18.5652396 magnetization 

 Broyden mixing:
  rms(total) = 0.10559E-03    rms(broyden)= 0.10559E-03
  rms(prec ) = 0.12118E-03
  weight for this iteration     100.00

 eigenvalues of (default mixing * dielectric matrix)
  average eigenvalue GAMMA=   1.7267
  3.2153  2.4093  2.0383  1.8619  1.8619  1.4823  1.4823  0.9983  0.9983  0.9193

 Free energy of the ion-electron system (eV)
  ---------------------------------------------------
  alpha Z        PSCENC =       204.72640563
  Ewald energy   TEWEN  =     -6126.56725877
  -Hartree energ DENC   =      -404.28387243
  -exchange      EXHF   =         0.00000000
  -V(xc)+E(xc)   XCENC  =      -457.25456384
  PAW double counting   =     20505.29059991   -19609.21942439
  entropy T*S    EENTRO =        -0.00000000
  eigenvalues    EBANDS =        17.00082933
  atomic energy  EATOM  =      5594.49158097
  Solvation  Ediel_sol  =         0.00000000
  ---------------------------------------------------
  free energy    TOTEN  =      -275.81570359 eV

  energy without entropy =     -275.81570359  energy(sigma->0) =     -275.81570359


--------------------------------------------------------------------------------------------------------




----------------------------------------- Iteration    1(  16)  ---------------------------------------


    POTLOK:  cpu time    0.6160: real time    0.6162
    SETDIJ:  cpu time    0.0280: real time    0.0281
     EDDAV:  cpu time   54.6560: real time   54.6377
       DOS:  cpu time    0.0000: real time    0.0009
    CHARGE:  cpu time    2.0360: real time    2.0362
    MIXING:  cpu time    0.0240: real time    0.0224
    --------------------------------------------
      LOOP:  cpu time   57.3600: real time   57.3423

 eigenvalue-minimisations  :  3120
 total energy-change (2. order) : 0.1421013E-06  (-0.1096311E-07)
 number of electron     215.9999999 magnetization 
 augmentation part      -18.5652376 magnetization 

 Broyden mixing:
  rms(total) = 0.86574E-04    rms(broyden)= 0.86574E-04
  rms(prec ) = 0.91166E-04
  weight for this iteration     100.00

 eigenvalues of (default mixing * dielectric matrix)
  average eigenvalue GAMMA=   1.7609
  3.1501  2.4393  2.2919  2.2919  1.6466  1.6466  1.8042  1.0403  1.0403  1.0012
  1.0178

 Free energy of the ion-electron system (eV)
  ---------------------------------------------------
  alpha Z        PSCENC =       204.72640563
  Ewald energy   TEWEN  =     -6126.56725877
  -Hartree energ DENC   =      -404.28473262
  -exchange      EXHF   =         0.00000000
  -V(xc)+E(xc)   XCENC  =      -457.25452157
  PAW double counting   =     20504.93496164   -19608.86358941
  entropy T*S    EENTRO =        -0.00000000
  eigenvalues    EBANDS =        17.00145069
  atomic energy  EATOM  =      5594.49158097
  Solvation  Ediel_sol  =         0.00000000
  ---------------------------------------------------
  free energy    TOTEN  =      -275.81570345 eV

  energy without entropy =     -275.81570345  energy(sigma->0) =     -275.81570345


--------------------------------------------------------------------------------------------------------




----------------------------------------- Iteration    1(  17)  ---------------------------------------


    POTLOK:  cpu time    0.6080: real time    0.6087
    SETDIJ:  cpu time    0.0240: real time    0.0261
     EDDAV:  cpu time   47.1080: real time   47.0905
       DOS:  cpu time    0.0000: real time    0.0009
    --------------------------------------------
      LOOP:  cpu time   47.7400: real time   47.7269

 eigenvalue-minimisations  :  2640
 total energy-change (2. order) :-0.2239722E-07  (-0.2545966E-08)
 number of electron     215.9999999 magnetization 
 augmentation part      -18.5652376 magnetization 

 Free energy of the ion-electron system (eV)
  ---------------------------------------------------
  alpha Z        PSCENC =       204.72640563
  Ewald energy   TEWEN  =     -6126.56725877
  -Hartree energ DENC   =      -404.28426753
  -exchange      EXHF   =         0.00000000
  -V(xc)+E(xc)   XCENC  =      -457.25458844
  PAW double counting   =     20505.62419570   -19609.55278298
  entropy T*S    EENTRO =        -0.00000000
  eigenvalues    EBANDS =        17.00101194
  atomic energy  EATOM  =      5594.49158097
  Solvation  Ediel_sol  =         0.00000000
  ---------------------------------------------------
  free energy    TOTEN  =      -275.81570347 eV

  energy without entropy =     -275.81570347  energy(sigma->0) =     -275.81570347


--------------------------------------------------------------------------------------------------------




 average (electrostatic) potential at core
  the test charge radii are     0.9892  1.1631
  (the norm of the test charge is              1.0000)
       1 -83.9738       2 -83.9090       3 -84.0855       4 -83.9711       5 -84.0310
       6 -83.9200       7 -83.9015       8 -84.0073       9 -84.0363      10 -83.8665
      11 -83.8715      12 -83.9383      13 -83.8992      14 -83.8841      15 -83.9552
      16 -83.9379      17 -83.8605      18 -83.8989      19 -83.9565      20 -83.9434
      21 -83.8970      22 -83.8304      23 -83.8562      24 -83.9388      25 -83.8679
      26 -83.8742      27 -83.9671      28 -83.8904      29 -83.9905      30 -83.9996
      31 -83.9810      32 -83.9520      33 -83.9672      34 -83.8214      35 -83.8565
      36 -83.9362      37 -84.0067      38 -83.8718      39 -83.8685      40 -31.0416
      41 -30.9083      42 -30.9458      43 -31.0133      44 -30.8422      45 -30.9711
      46 -30.9656      47 -30.8535      48 -31.0116      49 -30.8684      50 -31.0319
      51 -30.9658      52 -30.9538      53 -30.9133      54 -30.9047



 E-fermi :   5.6797     XC(G=0):  -9.3930     alpha+bet :-11.3046


 k-point     1 :       0.0000    0.0000    0.0000
  band No.  band energies     occupation 
      1      -7.0503      2.00000
      2      -6.0027      2.00000
      3      -5.9622      2.00000
      4      -5.7813      2.00000
      5      -5.6575      2.00000
      6      -5.6429      2.00000
      7      -5.5737      2.00000
      8      -5.5417      2.00000
      9      -5.3556      2.00000
     10      -5.2249      2.00000
     11      -5.1544      2.00000
     12      -5.0583      2.00000
     13      -4.9814      2.00000
     14      -4.9671      2.00000
     15      -4.8273      2.00000
     16      -4.1300      2.00000
     17      -3.9714      2.00000
     18      -3.8825      2.00000
     19      -3.8024      2.00000
     20      -3.7647      2.00000
     21      -3.7185      2.00000
     22      -3.6717      2.00000
     23      -3.6286      2.00000
     24      -3.5951      2.00000
     25      -3.5044      2.00000
     26      -3.4373      2.00000
     27      -3.4089      2.00000
     28      -2.1324      2.00000
     29      -1.9958      2.00000
     30      -1.8956      2.00000
     31      -1.8589      2.00000
     32      -1.8014      2.00000
     33      -1.7637      2.00000
     34      -1.6792      2.00000
     35      -1.6714      2.00000
     36      -1.6243      2.00000
     37      -1.5254      2.00000
     38      -1.5153      2.00000
     39      -1.4758      2.00000
     40      -0.4002      2.00000
     41      -0.3355      2.00000
     42      -0.3088      2.00000
     43      -0.2419      2.00000
     44      -0.2192      2.00000
     45      -0.1699      2.00000
     46      -0.1530      2.00000
     47      -0.1028      2.00000
     48      -0.0497      2.00000
     49       0.0153      2.00000
     50       0.1054      2.00000
     51       0.1202      2.00000
     52       0.1744      2.00000
     53       0.1976      2.00000
     54       0.7840      2.00000
     55       0.7878      2.00000
     56       0.7953      2.00000
     57       0.8185      2.00000
     58       0.8266      2.00000
     59       0.8392      2.00000
     60       0.8428      2.00000
     61       0.8772      2.00000
     62       0.8887      2.00000
     63       0.8926      2.00000
     64       0.9029      2.00000
     65       0.9534      2.00000
     66       2.7404      2.00000
     67       2.7613      2.00000
     68       2.7677      2.00000
     69       2.7822      2.00000
     70       2.8052      2.00000
     71       2.8211      2.00000
     72       2.8312      2.00000
     73       2.8413      2.00000
     74       2.8685      2.00000
     75       2.8773      2.00000
     76       2.9033      2.00000
     77       2.9089      2.00000
     78       3.0722      2.00000
     79       3.0827      2.00000
     80       3.1006      2.00000
     81       3.1219      2.00000
     82       3.1271      2.00000
     83       3.1502      2.00000
     84       3.1565      2.00000
     85       3.1717      2.00000
     86       3.1907      2.00000
     87       3.1989      2.00000
     88       3.2329      2.00000
     89       3.2580      2.00000
     90       4.1117      2.00000
     91       4.1554      2.00000
     92       4.2059      2.00000
     93       4.2133      2.00000
     94       4.2310      2.00000
     95       4.2480      2.00000
     96       4.2578      2.00000
     97       4.2901      2.00000
     98       4.3035      2.00000
     99       4.3381      2.00000
    100       4.3597      2.00000
    101       4.3756      2.00000
    102       4.4016      2.00000
    103       4.4171      2.00000
    104       4.4281      2.00000
    105       4.4498      2.00000
    106       5.2604      2.00000
    107       5.4181      2.00000
    108       5.4650      2.00000
    109       5.9163      0.00000
    110       5.9501      0.00000
    111       6.0184      0.00000
    112       6.0252      0.00000
    113       6.0480      0.00000
    114       6.1097      0.00000
    115       6.5587      0.00000
    116       6.6435      0.00000
    117       6.6657      0.00000
    118       6.6864      0.00000
    119       6.7159      0.00000
    120       6.7364      0.00000
    121       6.7883      0.00000
    122       6.8072      0.00000
    123       6.8288      0.00000
    124       6.8499      0.00000
    125       6.8554      0.00000
    126       6.8988      0.00000
    127       6.9124      0.00000
    128       6.9444      0.00000
    129       6.9548      0.00000
    130       6.9980      0.00000
    131       7.0066      0.00000
    132       7.0289      0.00000
    133       7.0370      0.00000
    134       7.1129      0.00000
    135       7.3153      0.00000
    136       7.3473      0.00000
    137       7.3709      0.00000
    138       7.3911      0.00000
    139       7.4121      0.00000
    140       7.4628      0.00000
    141       7.8627      0.00000
    142       7.8905      0.00000
    143       7.9818      0.00000
    144       7.9869      0.00000

 k-point     2 :       0.3333    0.0000    0.0000
  band No.  band energies     occupation 
      1      -6.9098      2.00000
      2      -6.4134      2.00000
      3      -6.0130      2.00000
      4      -5.9269      2.00000
      5      -5.6655      2.00000
      6      -5.6547      2.00000
      7      -5.6162      2.00000
      8      -5.4563      2.00000
      9      -5.2730      2.00000
     10      -5.1873      2.00000
     11      -5.0548      2.00000
     12      -4.8787      2.00000
     13      -4.6846      2.00000
     14      -4.5884      2.00000
     15      -4.4520      2.00000
     16      -4.3691      2.00000
     17      -4.2697      2.00000
     18      -4.1755      2.00000
     19      -3.9563      2.00000
     20      -3.7852      2.00000
     21      -3.7603      2.00000
     22      -3.7115      2.00000
     23      -3.6040      2.00000
     24      -3.5711      2.00000
     25      -3.4963      2.00000
     26      -3.4286      2.00000
     27      -3.3460      2.00000
     28      -2.1637      2.00000
     29      -2.0375      2.00000
     30      -2.0041      2.00000
     31      -1.9008      2.00000
     32      -1.8425      2.00000
     33      -1.8070      2.00000
     34      -1.7413      2.00000
     35      -1.6985      2.00000
     36      -1.5962      2.00000
     37      -1.5303      2.00000
     38      -1.2366      2.00000
     39      -1.1436      2.00000
     40      -1.1004      2.00000
     41      -1.0332      2.00000
     42      -0.9475      2.00000
     43      -0.8846      2.00000
     44      -0.7713      2.00000
     45      -0.6432      2.00000
     46      -0.5935      2.00000
     47       0.3110      2.00000
     48       0.4190      2.00000
     49       0.4398      2.00000
     50       0.6467      2.00000
     51       0.7410      2.00000
     52       0.8039      2.00000
     53       1.0481      2.00000
     54       1.0595      2.00000
     55       1.1012      2.00000
     56       1.1132      2.00000
     57       1.1438      2.00000
     58       1.1556      2.00000
     59       1.1756      2.00000
     60       1.2222      2.00000
     61       1.2555      2.00000
     62       1.4667      2.00000
     63       1.4948      2.00000
     64       1.5405      2.00000
     65       1.7539      2.00000
     66       2.0574      2.00000
     67       2.1088      2.00000
     68       2.1382      2.00000
     69       2.6051      2.00000
     70       2.6226      2.00000
     71       2.6311      2.00000
     72       2.6454      2.00000
     73       2.6676      2.00000
     74       2.6766      2.00000
     75       2.7004      2.00000
     76       2.7055      2.00000
     77       2.7335      2.00000
     78       2.7660      2.00000
     79       2.7736      2.00000
     80       2.8340      2.00000
     81       2.9315      2.00000
     82       2.9507      2.00000
     83       2.9742      2.00000
     84       3.0173      2.00000
     85       3.0337      2.00000
     86       3.0463      2.00000
     87       3.2257      2.00000
     88       3.2473      2.00000
     89       3.2924      2.00000
     90       3.6470      2.00000
     91       3.6564      2.00000
     92       3.6890      2.00000
     93       3.7290      2.00000
     94       3.7418      2.00000
     95       3.7553      2.00000
     96       3.8207      2.00000
     97       3.8345      2.00000
     98       3.8794      2.00000
     99       3.9469      2.00000
    100       4.0382      2.00000
    101       4.1574      2.00000
    102       4.2074      2.00000
    103       4.2325      2.00000
    104       4.2885      2.00000
    105       4.5967      2.00000
    106       4.7300      2.00000
    107       5.0424      2.00000
    108       5.1973      2.00000
    109       6.2232      0.00000
    110       6.2425      0.00000
    111       6.3076      0.00000
    112       6.4517      0.00000
    113       6.4687      0.00000
    114       6.5539      0.00000
    115       6.5625      0.00000
    116       6.7353      0.00000
    117       6.7783      0.00000
    118       6.7939      0.00000
    119       7.1482      0.00000
    120       7.3021      0.00000
    121       7.3266      0.00000
    122       7.3603      0.00000
    123       7.4051      0.00000
    124       7.4090      0.00000
    125       7.4592      0.00000
    126       7.4736      0.00000
    127       7.5051      0.00000
    128       7.5365      0.00000
    129       7.5887      0.00000
    130       7.6399      0.00000
    131       7.6898      0.00000
    132       7.7280      0.00000
    133       7.8054      0.00000
    134       7.8205      0.00000
    135       7.8428      0.00000
    136       7.8918      0.00000
    137       7.9140      0.00000
    138       7.9638      0.00000
    139       8.1962      0.00000
    140       8.3178      0.00000
    141       8.4605      0.00000
    142       8.5040      0.00000
    143       8.5315      0.00000
    144       8.6721      0.00000

 k-point     3 :       0.0000    0.3333    0.0000
  band No.  band energies     occupation 
      1      -6.9020      2.00000
      2      -6.4438      2.00000
      3      -6.0385      2.00000
      4      -5.8174      2.00000
      5      -5.7363      2.00000
      6      -5.6664      2.00000
      7      -5.5581      2.00000
      8      -5.4787      2.00000
      9      -5.2846      2.00000
     10      -5.1779      2.00000
     11      -5.0895      2.00000
     12      -4.8576      2.00000
     13      -4.6756      2.00000
     14      -4.5429      2.00000
     15      -4.4424      2.00000
     16      -4.4008      2.00000
     17      -4.3002      2.00000
     18      -4.2058      2.00000
     19      -3.9094      2.00000
     20      -3.8550      2.00000
     21      -3.7676      2.00000
     22      -3.7009      2.00000
     23      -3.6192      2.00000
     24      -3.5384      2.00000
     25      -3.4635      2.00000
     26      -3.4023      2.00000
     27      -3.3768      2.00000
     28      -2.1053      2.00000
     29      -2.0654      2.00000
     30      -1.9515      2.00000
     31      -1.9363      2.00000
     32      -1.9078      2.00000
     33      -1.8083      2.00000
     34      -1.6999      2.00000
     35      -1.6616      2.00000
     36      -1.6284      2.00000
     37      -1.5584      2.00000
     38      -1.2432      2.00000
     39      -1.1420      2.00000
     40      -1.0850      2.00000
     41      -1.0232      2.00000
     42      -0.9500      2.00000
     43      -0.8823      2.00000
     44      -0.7427      2.00000
     45      -0.6526      2.00000
     46      -0.6228      2.00000
     47       0.3096      2.00000
     48       0.3888      2.00000
     49       0.4516      2.00000
     50       0.6719      2.00000
     51       0.7249      2.00000
     52       0.7668      2.00000
     53       1.0491      2.00000
     54       1.0692      2.00000
     55       1.0808      2.00000
     56       1.1005      2.00000
     57       1.1486      2.00000
     58       1.1718      2.00000
     59       1.1783      2.00000
     60       1.2242      2.00000
     61       1.2592      2.00000
     62       1.4633      2.00000
     63       1.5082      2.00000
     64       1.5425      2.00000
     65       1.7615      2.00000
     66       2.0565      2.00000
     67       2.1095      2.00000
     68       2.1433      2.00000
     69       2.5905      2.00000
     70       2.6202      2.00000
     71       2.6308      2.00000
     72       2.6593      2.00000
     73       2.6712      2.00000
     74       2.6787      2.00000
     75       2.6989      2.00000
     76       2.7179      2.00000
     77       2.7553      2.00000
     78       2.7693      2.00000
     79       2.7793      2.00000
     80       2.8166      2.00000
     81       2.9196      2.00000
     82       2.9495      2.00000
     83       2.9846      2.00000
     84       3.0245      2.00000
     85       3.0490      2.00000
     86       3.0782      2.00000
     87       3.2300      2.00000
     88       3.2475      2.00000
     89       3.2700      2.00000
     90       3.6277      2.00000
     91       3.6512      2.00000
     92       3.6823      2.00000
     93       3.7102      2.00000
     94       3.7418      2.00000
     95       3.7849      2.00000
     96       3.8284      2.00000
     97       3.8609      2.00000
     98       3.8990      2.00000
     99       3.9236      2.00000
    100       4.0383      2.00000
    101       4.1339      2.00000
    102       4.1966      2.00000
    103       4.2242      2.00000
    104       4.2780      2.00000
    105       4.5964      2.00000
    106       4.7096      2.00000
    107       5.0453      2.00000
    108       5.2066      2.00000
    109       6.2113      0.00000
    110       6.2543      0.00000
    111       6.3071      0.00000
    112       6.4047      0.00000
    113       6.4934      0.00000
    114       6.5388      0.00000
    115       6.5799      0.00000
    116       6.7370      0.00000
    117       6.7596      0.00000
    118       6.8032      0.00000
    119       7.1227      0.00000
    120       7.2877      0.00000
    121       7.3337      0.00000
    122       7.3625      0.00000
    123       7.3792      0.00000
[...]
    101       4.0753      2.00000
    102       4.1106      2.00000
    103       4.1379      2.00000
    104       4.1812      2.00000
    105       4.2328      2.00000
    106       4.3167      2.00000
    107       4.3752      2.00000
    108       5.1643      2.00000
    109       6.1544      0.00000
    110       6.8751      0.00000
    111       6.9040      0.00000
    112       6.9428      0.00000
    113       6.9669      0.00000
    114       7.0685      0.00000
    115       7.2248      0.00000
    116       7.2847      0.00000
    117       7.3402      0.00000
    118       7.3610      0.00000
    119       7.4224      0.00000
    120       7.5047      0.00000
    121       7.5343      0.00000
    122       7.5473      0.00000
    123       7.5954      0.00000
    124       7.6207      0.00000
    125       7.6954      0.00000
    126       7.7533      0.00000
    127       7.9260      0.00000
    128       7.9590      0.00000
    129       7.9838      0.00000
    130       8.0117      0.00000
    131       8.0654      0.00000
    132       8.0783      0.00000
    133       8.1274      0.00000
    134       8.1593      0.00000
    135       8.1928      0.00000
    136       8.2211      0.00000
    137       8.3272      0.00000
    138       8.4633      0.00000
    139       8.4855      0.00000
    140       8.5482      0.00000
    141       8.6015      0.00000
    142       8.6464      0.00000
    143       8.6834      0.00000
    144       8.7307      0.00000


--------------------------------------------------------------------------------------------------------


 soft charge-density along one line, spin component           1
         0         1         2         3         4         5         6         7         8         9
 total charge-density along one line

 pseudopotential strength for first ion, spin component:           1
 18.492   0.000  25.800   0.000  -0.001   0.000  -0.002   0.000  -0.002   0.000  -0.002   0.000  -0.004   0.000  -0.005   0.000
 25.800   0.000  36.001   0.000  -0.001   0.000  -0.003   0.000  -0.003   0.000  -0.002   0.000  -0.006   0.000  -0.006   0.000
 -0.001   0.000  -0.001   0.000   4.188   0.000   0.000   0.000   0.001   0.000   7.804   0.000   0.000   0.000   0.001   0.000
 -0.002   0.000  -0.003   0.000   0.000   0.000   4.188   0.000   0.000   0.000   0.000   0.000   7.804   0.000   0.000   0.000
 -0.002   0.000  -0.003   0.000   0.001   0.000   0.000   0.000   4.188   0.000   0.001   0.000   0.000   0.000   7.804   0.000
 -0.002   0.000  -0.002   0.000   7.804   0.000   0.000   0.000   0.001   0.000  14.555   0.000   0.001   0.000   0.002   0.000
 -0.004   0.000  -0.006   0.000   0.000   0.000   7.804   0.000   0.000   0.000   0.001   0.000  14.555   0.000   0.001   0.000
 -0.005   0.000  -0.006   0.000   0.001   0.000   0.000   0.000   7.804   0.000   0.002   0.000   0.001   0.000  14.555   0.000
 total augmentation occupancy for first ion, spin component:           1
  5.303  -1.945   0.046  -0.115   0.024  -0.014   0.038  -0.008
 -1.945   0.839  -0.020   0.068  -0.026   0.004  -0.021   0.004
  0.046  -0.020   2.834   0.051   0.066  -0.630  -0.016  -0.022
 -0.115   0.068   0.051   2.806  -0.067  -0.016  -0.620   0.019
  0.024  -0.026   0.066  -0.067   2.829  -0.022   0.019  -0.629
 -0.014   0.004  -0.630  -0.016  -0.022   0.149   0.005   0.007
  0.038  -0.021  -0.016  -0.620   0.019   0.005   0.146  -0.005
 -0.008   0.004  -0.022   0.019  -0.629   0.007  -0.005   0.148


------------------------ aborting loop because EDIFF is reached ----------------------------------------


    CHARGE:  cpu time    1.7720: real time    1.7722
    FORLOC:  cpu time    0.1800: real time    0.1810
    FORNL :  cpu time   26.4400: real time   26.4297
    STRESS:  cpu time   62.5960: real time   62.5757
    FORCOR:  cpu time    0.5960: real time    0.5944
    FORHAR:  cpu time    0.2840: real time    0.2855
    MIXING:  cpu time    0.0200: real time    0.0186
    OFIELD:  cpu time    0.0000: real time    0.0000

  FORCE on cell =-STRESS in cart. coord.  units (eV):
  Direction    XX          YY          ZZ          XY          YZ          ZX
  --------------------------------------------------------------------------------------
  Alpha Z   204.72641   204.72641   204.72641
  Ewald   -2043.22336 -2041.19316 -2042.18994    16.39074   -26.19527   -31.66164
  Hartree   134.57012   135.14906   134.56528     2.11752    -2.56410    -3.70845
  E(xc)    -705.76773  -705.78893  -705.80330    -0.15154     0.30747     0.35327
  Local    -751.17433  -753.84947  -751.90374   -17.30415    26.03997    32.31118
  n-local  1830.09590  1830.51269  1830.36456     3.19427    -5.21215    -5.89807
  augment  -209.84163  -209.86982  -209.85010    -0.14406     0.12987     0.13596
  Kinetic  1569.74145  1569.66826  1569.50403    -2.06868     3.49809     4.27266
  Fock        0.00000     0.00000     0.00000     0.00000     0.00000     0.00000
  -------------------------------------------------------------------------------------
  Total      29.12683    29.35503    29.41321     2.03411    -3.99611    -4.19509
  in kB      42.32760    42.65922    42.74376     2.95601    -5.80721    -6.09637
  external pressure =       42.58 kB  Pullay stress =        0.00 kB


 VOLUME and BASIS-vectors are now :
 -----------------------------------------------------------------------------
  energy-cutoff  :      350.00
  volume of cell :     1102.50
      direct lattice vectors                 reciprocal lattice vectors
     0.000000000  8.199425490  8.199425490    -0.060979882  0.060979882  0.060979882
     8.199425490  0.000000000  8.199425490     0.060979882 -0.060979882  0.060979882
     8.199425490  8.199425490  0.000000000     0.060979882  0.060979882 -0.060979882

  length of vectors
    11.595738732 11.595738732 11.595738732     0.105620254  0.105620254  0.105620254


 FORCES acting on ions
    electron-ion (+dipol)            ewald-force                    non-local-force                 convergence-correction
 -----------------------------------------------------------------------------------------------
   0.150E+00 0.876E+00 -.191E+01   0.210E+00 -.577E+00 0.204E+01   0.338E+00 -.255E+00 0.684E+00   -.132E-05 -.665E-05 0.226E-04
   -.123E+00 -.650E-01 -.101E+01   -.968E-02 -.923E-01 0.753E+00   0.710E-01 0.525E+00 0.229E+00   0.311E-04 0.142E-04 -.113E-04
   0.179E+01 0.979E+00 0.250E+01   -.221E+01 -.962E+00 -.251E+01   -.626E+00 -.384E-01 -.225E+00   -.610E-05 0.177E-04 -.189E-04
   -.168E+00 0.290E+00 0.233E+00   0.905E-01 -.303E+00 0.433E+00   -.270E+00 -.711E-01 0.478E+00   -.259E-04 0.149E-04 -.156E-05
   0.543E+01 -.261E+01 0.451E+00   -.519E+01 0.284E+01 -.762E+00   -.130E+01 0.408E+00 0.113E+00   -.302E-04 -.131E-04 0.304E-04
   -.186E+01 0.195E+01 0.103E+00   0.187E+01 -.135E+01 0.395E+00   0.785E+00 -.499E+00 -.348E+00   0.152E-04 0.443E-05 0.220E-04
   -.138E+01 -.179E+01 0.416E+00   0.120E+01 0.147E+01 -.899E+00   0.388E+00 0.654E-01 0.139E+00   0.117E-04 0.260E-04 0.265E-04
   -.204E+01 -.308E+01 -.748E+00   0.171E+01 0.252E+01 0.123E+01   0.534E+00 0.108E+01 -.352E+00   -.205E-04 -.527E-05 0.190E-04
   -.150E+01 0.174E+00 -.341E+01   0.149E+01 0.282E+00 0.311E+01   0.219E+00 0.976E+00 0.678E+00   0.192E-04 0.115E-04 -.130E-04
   0.154E+01 0.503E+01 -.187E+01   -.129E+01 -.454E+01 0.190E+01   -.787E+00 -.156E+01 0.341E-01   -.451E-05 0.300E-04 -.116E-04
   -.502E+01 0.184E+01 -.935E+00   0.496E+01 -.200E+01 0.116E+01   0.170E+01 0.172E-01 -.321E-01   -.167E-04 0.275E-04 0.845E-05
   -.144E+01 0.506E+01 -.215E+01   0.128E+01 -.458E+01 0.144E+01   -.609E-01 -.150E+01 0.545E+00   -.330E-04 0.229E-04 0.268E-04
   -.779E+00 0.644E+00 0.114E+01   0.674E+00 -.565E+00 -.101E+01   0.164E-01 -.483E+00 -.680E+00   -.255E-04 -.338E-04 0.265E-04
   -.372E+01 -.217E+01 0.258E+01   0.334E+01 0.185E+01 -.198E+01   0.967E+00 0.520E+00 -.907E+00   0.353E-05 -.146E-04 -.120E-04
   0.184E+01 0.237E+01 -.529E+00   -.171E+01 -.187E+01 0.514E+00   -.571E+00 -.990E+00 0.317E+00   0.182E-04 0.188E-04 -.225E-04
   0.187E+00 -.791E+00 -.343E+01   -.379E+00 0.786E+00 0.318E+01   0.875E+00 0.700E-01 0.681E+00   0.138E-04 0.384E-05 -.181E-06
   0.307E+01 0.144E+01 0.358E+00   -.262E+01 -.121E+01 -.305E+00   -.733E+00 -.409E+00 -.412E+00   0.241E-05 0.624E-05 0.908E-05
   -.131E+01 0.405E-01 -.284E+01   0.128E+01 -.369E+00 0.240E+01   0.567E+00 0.261E+00 0.992E+00   -.616E-05 0.101E-04 0.148E-04
   -.305E+01 -.178E+01 -.274E+01   0.226E+01 0.163E+01 0.249E+01   0.935E+00 0.306E+00 0.693E+00   0.515E-05 -.246E-04 0.389E-04
   0.476E+01 -.322E+01 -.799E+00   -.395E+01 0.312E+01 0.470E+00   -.111E+01 0.109E+01 0.201E+00   -.119E-05 0.298E-04 0.152E-04
   0.459E+01 -.686E+00 -.336E+01   -.382E+01 0.543E+00 0.267E+01   -.101E+01 -.376E+00 0.119E+01   0.218E-04 0.288E-06 0.555E-05
   0.918E+00 -.313E+01 0.435E+01   -.986E+00 0.321E+01 -.352E+01   0.806E-02 0.531E+00 -.159E+01   0.925E-05 -.121E-04 0.250E-05
   -.822E+00 -.434E+01 -.254E+01   0.332E+00 0.424E+01 0.204E+01   -.585E-01 0.897E+00 0.764E+00   0.315E-04 -.470E-04 0.189E-04
   -.281E+01 -.587E+00 0.437E+01   0.237E+01 0.451E+00 -.327E+01   0.146E+01 0.650E+00 -.829E+00   -.343E-04 -.931E-05 -.601E-05
   -.214E+01 0.605E+00 0.116E+01   0.189E+01 -.659E+00 -.111E+01   0.288E+00 -.355E-01 -.267E+00   -.178E-04 -.376E-05 -.470E-05
   0.799E+00 0.802E-01 -.324E+01   -.665E+00 -.443E-01 0.297E+01   -.300E+00 0.254E+00 0.529E+00   0.149E-04 0.526E-04 -.304E-04
   -.184E+00 -.102E+01 -.116E+00   -.956E-01 0.555E+00 0.337E+00   -.212E+00 0.576E-01 -.615E+00   0.145E-04 0.229E-04 -.527E-04
   0.494E+01 0.309E+01 -.281E+01   -.425E+01 -.255E+01 0.255E+01   -.146E+01 -.100E+01 0.110E+01   -.105E-04 -.143E-04 -.318E-04
   0.934E+00 -.457E+01 0.141E+01   -.762E+00 0.351E+01 -.125E+01   -.526E+00 0.126E+01 -.363E+00   -.324E-04 -.462E-05 0.343E-06
   0.405E+01 0.249E+01 0.105E+01   -.318E+01 -.219E+01 -.717E+00   -.127E+01 -.655E+00 -.893E+00   0.228E-04 0.116E-04 -.193E-04
   -.388E+01 -.118E+01 -.138E+01   0.294E+01 0.928E+00 0.123E+01   0.103E+01 0.212E+00 0.693E+00   0.292E-04 0.187E-04 -.157E-04
   0.291E+01 -.220E+00 -.148E+01   -.213E+01 0.433E-01 0.139E+01   -.770E+00 0.588E-02 0.742E+00   -.410E-04 -.163E-04 -.170E-04
   0.391E+01 -.271E+01 0.310E+01   -.281E+01 0.236E+01 -.311E+01   -.121E+01 0.882E+00 -.580E+00   0.570E-06 -.175E-04 -.128E-04
   -.200E+01 -.264E+00 0.169E+01   0.190E+01 0.367E+00 -.172E+01   0.831E+00 0.709E-01 -.236E+00   0.539E-05 -.258E-04 -.211E-04
   0.175E+01 -.798E+00 0.467E+01   -.182E+01 0.242E+00 -.399E+01   -.575E+00 0.234E+00 -.673E+00   0.182E-04 -.918E-05 0.125E-05
   -.542E+01 0.153E+00 -.350E+01   0.507E+01 -.724E+00 0.327E+01   0.135E+01 -.161E+00 0.103E+01   0.435E-05 -.117E-04 0.168E-04
   -.405E+01 0.298E+01 -.426E+01   0.369E+01 -.260E+01 0.332E+01   0.113E+01 -.611E+00 0.126E+01   0.210E-04 -.428E-05 -.147E-04
   -.324E+01 0.287E+01 0.142E+01   0.318E+01 -.198E+01 -.165E+01   0.127E+01 -.210E+00 -.733E+00   0.117E-04 -.169E-04 -.120E-05
   -.221E+01 0.180E+01 -.417E+01   0.177E+01 -.159E+01 0.361E+01   -.120E+00 -.408E+00 0.866E+00   0.163E-04 -.142E-04 0.180E-04
   -.257E+01 0.525E-01 0.155E+01   0.261E+01 0.230E-02 -.949E+00   0.277E+00 0.204E+00 -.141E+00   -.206E-04 -.343E-05 0.177E-04
   0.562E+00 0.124E+01 0.380E+01   -.425E+00 -.115E+01 -.409E+01   -.537E-01 -.337E-01 -.691E+00   -.204E-04 0.348E-05 -.939E-05
   0.145E+01 -.654E+00 -.198E+01   -.211E+01 0.151E+00 0.250E+01   -.273E+00 -.153E+00 0.491E+00   -.951E-05 -.185E-04 0.263E-04
   0.141E+00 -.201E+00 0.174E+01   0.367E+00 0.498E+00 -.207E+01   0.375E+00 -.160E+00 -.391E+00   -.116E-05 0.499E-05 -.218E-04
   0.103E+01 -.382E+01 0.424E+01   -.126E+01 0.391E+01 -.418E+01   -.428E+00 0.514E+00 -.638E+00   0.424E-06 0.150E-04 0.280E-04
   -.468E+00 0.475E-01 -.490E+00   -.148E+00 0.886E-01 0.118E+00   -.457E+00 -.670E-01 -.591E-01   -.348E-04 0.533E-05 0.153E-05
   0.312E+01 0.775E+00 0.332E+01   -.289E+01 -.130E+01 -.376E+01   -.333E+00 -.546E+00 -.702E+00   0.147E-04 -.239E-04 0.713E-05
   0.143E+00 -.145E+01 -.310E+01   -.214E-01 0.160E+01 0.309E+01   -.429E-01 0.259E+00 0.560E+00   -.155E-04 -.329E-05 -.154E-04
   -.139E+01 -.726E+00 0.110E+01   0.167E+01 0.633E+00 -.165E+01   0.358E+00 0.237E+00 -.908E-01   0.658E-05 0.942E-05 -.378E-05
   0.649E+00 -.340E-01 -.309E+00   -.540E+00 0.148E+00 0.134E+00   -.188E+00 0.534E-01 -.186E+00   0.947E-05 -.135E-04 0.629E-06
   0.299E+01 -.808E+00 0.185E+01   -.354E+01 0.687E+00 -.150E+01   -.386E+00 0.123E+00 0.108E+00   0.162E-04 -.262E-04 -.168E-05
   0.314E+01 -.194E+01 0.435E+01   -.333E+01 0.192E+01 -.374E+01   -.426E+00 0.225E+00 -.544E+00   0.540E-05 0.192E-05 0.170E-05
   0.171E+00 -.116E+01 0.407E+01   0.192E+00 0.159E+01 -.452E+01   0.237E+00 0.179E+00 -.564E+00   0.261E-04 0.822E-05 -.329E-04
   -.292E+01 0.265E+01 -.171E+01   0.274E+01 -.279E+01 0.167E+01   0.254E+00 -.620E+00 -.136E+00   -.118E-04 0.860E-06 -.293E-05
   -.105E+01 0.594E+01 -.178E+01   0.103E+01 -.618E+01 0.188E+01   -.142E+00 -.986E+00 0.350E+00   -.456E-06 0.343E-05 0.141E-05
 -----------------------------------------------------------------------------------------------
   -.555E+00 -.344E+00 -.159E+01   0.768E-13 0.195E-13 -.981E-13   0.555E+00 0.344E+00 0.159E+01   -.853E-06 0.283E-05 0.153E-05


 POSITION                                       TOTAL-FORCE (eV/Angst)
 -----------------------------------------------------------------------------------
      1.31698      1.37735      1.36069         0.696954      0.043647      0.815912
      2.73283     10.90472      8.21911        -0.061950      0.367535     -0.031034
      4.13075      4.08640      1.37994        -1.040818     -0.021306     -0.233805
      6.85869      6.80763      1.36044        -0.347364     -0.084542      1.142799
      2.78259      8.18232     10.93571        -1.060985      0.639136     -0.197482
      6.82556      4.07722      4.13729         0.793052      0.103235      0.150642
      8.17103      5.45176      2.77298         0.204172     -0.250757     -0.343555
     13.64458      8.18592      5.50104         0.212128      0.514904      0.133756
      8.21186     10.88544     13.66730         0.206170      1.432919      0.372187
      9.59665      4.14722      6.86833        -0.532433     -1.070838      0.061979
     10.88236      5.43630      5.49217         1.640322     -0.139609      0.187963
     12.31621      6.85134      6.80897        -0.222331     -1.016672     -0.162167
     16.37485     10.97040     10.97534        -0.088464     -0.403442     -0.553920
      1.35269      4.10101      4.08972         0.590659      0.191489     -0.314558
     10.96716      5.49391     10.90212        -0.444933     -0.485909      0.302045
      4.07026      6.83026      4.08832         0.682556      0.065170      0.430211
      5.48144      8.18122      2.72377        -0.284137     -0.174054     -0.359807
      6.83143      9.51341      4.04789         0.534241     -0.067078      0.546842
      2.69950      2.73284      5.42748         0.141447      0.157145      0.449910
      5.51715      5.42971      5.45076        -0.299033      0.993932     -0.127956
      6.86739      6.82730      6.80269        -0.242114     -0.518140      0.494353
      8.19926      8.16254      5.50926        -0.060710      0.613445     -0.754677
      9.57773      9.52647      6.78837        -0.548883      0.793322      0.263762
     13.62320     10.90943      8.20345         1.027750      0.514280      0.275353
      6.80282      4.10646      9.57695         0.032712     -0.089501     -0.212418
      8.22026      5.46637      8.21882        -0.166008      0.289795      0.252460
      9.58568      6.87065      9.61541        -0.491488     -0.408167     -0.393730
     12.35056      9.60173      9.54548        -0.764999     -0.467435      0.838816
      8.22213     13.61328      5.44631        -0.354019      0.198808     -0.207284
      2.77493      8.21801      5.51049        -0.397175     -0.357545     -0.562198
      4.08000      9.58095      6.82271         0.090709     -0.035696      0.543776
      6.87700     12.28414      6.78703         0.012183     -0.170508      0.657769
      6.82579      9.54331      9.61673        -0.104685      0.530128     -0.593731
      8.15190     10.88259      8.21637         0.727808      0.174605     -0.271630
      9.56100     12.27882      9.59591        -0.637990     -0.322646      0.002513
      5.42351      5.49607     10.89139         0.996985     -0.732042      0.799243
      8.16036      8.22780     10.90032         0.769195     -0.222980      0.321536
     10.90730     10.93270     10.96146         1.209286      0.680871     -0.960533
     12.30900     12.34321     12.26024        -0.556801     -0.202875      0.304752
      8.19157     16.34677      8.22177         0.317031      0.258906      0.456803
      5.48540     13.64529      8.23758         0.082584      0.055460     -0.979740
      4.14348      1.38035      4.07019        -0.932429     -0.656614      1.007627
      5.45643      2.76779      2.77131         0.882677      0.136543     -0.724487
      9.61450      6.79391      4.14297        -0.661558      0.595366     -0.576286
      6.88516      1.36520      6.87254        -1.073491      0.069066     -0.430772
      4.13530      4.14837      6.87273        -0.098342     -1.073827     -1.150454
     10.95038      8.18206      8.16061         0.079084      0.407842      0.546105
      1.34011      6.78875      6.83553         0.637145      0.143429     -0.638884
      5.47884     10.91272      5.44669        -0.079269      0.167295     -0.361063
     10.95592     13.64347      8.22626        -0.932858      0.001959      0.463474
      4.11008      6.82115      9.58985        -0.606412      0.199926      0.062192
      5.45116      8.17322      8.23683         0.600055      0.613231     -1.013447
      6.81904      6.88134     12.31670         0.080981     -0.764658     -0.176804
      9.58030      9.61353     12.27458        -0.156208     -1.216551      0.447645
 -----------------------------------------------------------------------------------
    total drift:                               -0.000082     -0.000063      0.000001


--------------------------------------------------------------------------------------------------------



  FREE ENERGIE OF THE ION-ELECTRON SYSTEM (eV)
  ---------------------------------------------------
  free  energy   TOTEN  =      -275.81570347 eV

  energy  without entropy=     -275.81570347  energy(sigma->0) =     -275.81570347



--------------------------------------------------------------------------------------------------------


    POTLOK:  cpu time    0.4760: real time    0.4765


--------------------------------------------------------------------------------------------------------


 writing wavefunctions
     LOOP+:  cpu time 1295.9960: real time 1295.6270
    4ORBIT:  cpu time    0.0000: real time    0.0000

 total amount of memory used by VASP on root node   171960. kBytes
========================================================================

   base      :      30000. kBytes
   nonl-proj :      61986. kBytes
   fftplans  :      15551. kBytes
   grid      :      29859. kBytes
   one-center:        438. kBytes
   wavefun   :      34126. kBytes

  
  
 General timing and accounting informations for this job:
 ========================================================
  
                  Total CPU time used (sec):     1313.228
                            User time (sec):     1268.372
                          System time (sec):       44.856
                         Elapsed time (sec):     1312.981
  
                   Maximum memory used (kb):      201072.
                   Average memory used (kb):           0.
  
                          Minor page faults:     13057885
                          Major page faults:            7
                 Voluntary context switches:          583
