       N       E                     dE             d eps       ncg     rms          rms(c)
DAV:   1     0.417168689070E+03    0.41717E+03   -0.65176E+04  1152   0.905E+02
DAV:   2    -0.254587869773E+03   -0.67176E+03   -0.64000E+03  1424   0.155E+02
DAV:   3    -0.295532258717E+03   -0.40944E+02   -0.40440E+02  1456   0.353E+01
DAV:   4    -0.296310886989E+03   -0.77863E+00   -0.77527E+00  1456   0.618E+00
DAV:   5    -0.296327805637E+03   -0.16919E-01   -0.16904E-01  1408   0.885E-01    0.248E+01
DAV:   6    -0.293184351442E+03    0.31435E+01   -0.17133E+00  1328   0.218E+00    0.152E+01
DAV:   7    -0.291745686120E+03    0.14387E+01   -0.37136E+00  1312   0.333E+00    0.880E-01
DAV:   8    -0.291769214178E+03   -0.23528E-01   -0.20408E-01  1328   0.885E-01    0.334E-01
DAV:   9    -0.291774773399E+03   -0.55592E-02   -0.99348E-03  1408   0.216E-01    0.297E-01
DAV:  10    -0.291776385457E+03   -0.16121E-02   -0.16997E-03  1312   0.824E-02    0.629E-02
DAV:  11    -0.291776563485E+03   -0.17803E-03   -0.27320E-04  1328   0.361E-02    0.352E-02
DAV:  12    -0.291776579892E+03   -0.16407E-04   -0.27604E-05  1440   0.113E-02    0.126E-02
DAV:  13    -0.291776580153E+03   -0.26034E-06   -0.26817E-06  1328   0.341E-03    0.570E-03
DAV:  14    -0.291776580805E+03   -0.65291E-06   -0.52636E-07  1376   0.159E-03    0.173E-03
DAV:  15    -0.291776580429E+03    0.37623E-06   -0.12568E-07   912   0.813E-04    0.777E-04
DAV:  16    -0.291776580513E+03   -0.83599E-07   -0.24973E-08   768   0.320E-04
   1 F= -.29177658E+03 E0= -.29177658E+03  d E =-.291777E+03
       N       E                     dE             d eps       ncg     rms          rms(c)
DAV:   1    -0.291817354424E+03   -0.40774E-01   -0.83548E-01  1216   0.176E+00    0.514E-01
DAV:   2    -0.291818940458E+03   -0.15860E-02   -0.58369E-02  1456   0.490E-01    0.305E-01
DAV:   3    -0.291816871804E+03    0.20687E-02   -0.31220E-03  1392   0.121E-01    0.112E-01
DAV:   4    -0.291816521336E+03    0.35047E-03   -0.11955E-03  1408   0.615E-02    0.564E-02
DAV:   5    -0.291816476281E+03    0.45055E-04   -0.68592E-05  1392   0.181E-02    0.388E-02
DAV:   6    -0.291816453255E+03    0.23026E-04   -0.38381E-05  1392   0.114E-02    0.125E-02
DAV:   7    -0.291816452897E+03    0.35784E-06   -0.46068E-06  1296   0.388E-03    0.760E-03
DAV:   8    -0.291816452098E+03    0.79875E-06   -0.35088E-07  1200   0.148E-03    0.346E-03
DAV:   9    -0.291816452325E+03   -0.22665E-06   -0.42653E-07  1280   0.122E-03    0.103E-03
DAV:  10    -0.291816452223E+03    0.10199E-06   -0.61873E-08   784   0.513E-04    0.723E-04
DAV:  11    -0.291816452195E+03    0.27978E-07   -0.19470E-08   720   0.264E-04
   2 F= -.29181645E+03 E0= -.29181645E+03  d E =-.398717E-01
       N       E                     dE             d eps       ncg     rms          rms(c)
DAV:   1    -0.291823884492E+03   -0.74323E-02   -0.96754E-02  1248   0.592E-01    0.244E-01
DAV:   2    -0.291823530105E+03    0.35439E-03   -0.62243E-03  1408   0.157E-01    0.145E-01
DAV:   3    -0.291823048600E+03    0.48151E-03   -0.62439E-04  1328   0.488E-02    0.332E-02
DAV:   4    -0.291823027318E+03    0.21282E-04   -0.14438E-04  1392   0.211E-02    0.247E-02
DAV:   5    -0.291823031493E+03   -0.41755E-05   -0.86852E-06  1520   0.632E-03    0.152E-02
DAV:   6    -0.291823039060E+03   -0.75661E-05   -0.38336E-06  1472   0.373E-03    0.342E-03
DAV:   7    -0.291823039869E+03   -0.80924E-06   -0.35241E-07  1264   0.127E-03    0.227E-03
DAV:   8    -0.291823039861E+03    0.79490E-08   -0.13932E-07   928   0.673E-04
   3 F= -.29182304E+03 E0= -.29182304E+03  d E =-.658767E-02
       N       E                     dE             d eps       ncg     rms          rms(c)
DAV:   1    -0.291825119102E+03   -0.20792E-02   -0.27822E-02  1264   0.325E-01    0.879E-02
DAV:   2    -0.291825226693E+03   -0.10759E-03   -0.20264E-03  1424   0.928E-02    0.473E-02
DAV:   3    -0.291825180839E+03    0.45854E-04   -0.65422E-05  1392   0.189E-02    0.227E-02
DAV:   4    -0.291825163694E+03    0.17145E-04   -0.36629E-05  1392   0.111E-02    0.781E-03
DAV:   5    -0.291825160219E+03    0.34753E-05   -0.39941E-06  1456   0.436E-03    0.556E-03
DAV:   6    -0.291825158408E+03    0.18109E-05   -0.72592E-07  1392   0.159E-03    0.288E-03
DAV:   7    -0.291825157760E+03    0.64777E-06   -0.10937E-07   784   0.683E-04    0.634E-04
DAV:   8    -0.291825157680E+03    0.79539E-07   -0.31532E-08   720   0.348E-04
   4 F= -.29182516E+03 E0= -.29182516E+03  d E =-.211782E-02
       N       E                     dE             d eps       ncg     rms          rms(c)
DAV:   1    -0.291825813682E+03   -0.65592E-03   -0.11653E-02  1312   0.212E-01    0.561E-02
DAV:   2    -0.291825881760E+03   -0.68078E-04   -0.86699E-04  1424   0.614E-02    0.254E-02
DAV:   3    -0.291825874058E+03    0.77020E-05   -0.24382E-05  1472   0.119E-02    0.130E-02
DAV:   4    -0.291825874795E+03   -0.73683E-06   -0.11494E-05  1408   0.647E-03    0.411E-03
DAV:   5    -0.291825876016E+03   -0.12210E-05   -0.17099E-06  1440   0.286E-03    0.271E-03
DAV:   6    -0.291825876530E+03   -0.51466E-06   -0.28494E-07  1216   0.103E-03    0.159E-03
DAV:   7    -0.291825876705E+03   -0.17427E-06   -0.45615E-08   720   0.434E-04    0.311E-04
DAV:   8    -0.291825876769E+03   -0.64325E-07   -0.10015E-08   720   0.213E-04
   5 F= -.29182588E+03 E0= -.29182588E+03  d E =-.719088E-03
       N       E                     dE             d eps       ncg     rms          rms(c)
DAV:   1    -0.291826054684E+03   -0.17798E-03   -0.29823E-03  1216   0.107E-01    0.309E-02
DAV:   2    -0.291826060193E+03   -0.55092E-05   -0.21806E-04  1440   0.303E-02    0.175E-02
DAV:   3    -0.291826052317E+03    0.78754E-05   -0.76686E-06  1392   0.632E-03    0.802E-03
DAV:   4    -0.291826048144E+03    0.41730E-05   -0.41109E-06  1440   0.368E-03    0.275E-03
DAV:   5    -0.291826046977E+03    0.11677E-05   -0.31713E-07  1136   0.134E-03    0.189E-03
DAV:   6    -0.291826046163E+03    0.81368E-06   -0.11656E-07   800   0.742E-04    0.713E-04
DAV:   7    -0.291826045993E+03    0.17027E-06   -0.33721E-08   720   0.379E-04    0.283E-04
DAV:   8    -0.291826045980E+03    0.12622E-07   -0.51094E-09   720   0.184E-04
   6 F= -.29182605E+03 E0= -.29182605E+03  d E =-.169211E-03
       N       E                     dE             d eps       ncg     rms          rms(c)
DAV:   1    -0.291826084166E+03   -0.38174E-04   -0.45857E-04  1216   0.414E-02    0.154E-02
DAV:   2    -0.291826085496E+03   -0.13296E-05   -0.31972E-05  1424   0.114E-02    0.901E-03
DAV:   3    -0.291826085496E+03    0.16371E-10   -0.19125E-06  1360   0.289E-03    0.295E-03
DAV:   4    -0.291826086566E+03   -0.10699E-05   -0.69367E-07  1344   0.146E-03    0.140E-03
DAV:   5    -0.291826087143E+03   -0.57729E-06   -0.32548E-08   720   0.482E-04    0.735E-04
DAV:   6    -0.291826087599E+03   -0.45557E-06   -0.34286E-08   720   0.369E-04    0.265E-04
DAV:   7    -0.291826087613E+03   -0.14717E-07   -0.65622E-09   720   0.200E-04
   7 F= -.29182609E+03 E0= -.29182609E+03  d E =-.416333E-04
       N       E                     dE             d eps       ncg     rms          rms(c)
DAV:   1    -0.291826105995E+03   -0.18397E-04   -0.22078E-04  1232   0.293E-02    0.792E-03
DAV:   2    -0.291826106167E+03   -0.17173E-06   -0.16322E-05  1456   0.842E-03    0.412E-03
DAV:   3    -0.291826105519E+03    0.64785E-06   -0.49281E-07  1344   0.164E-03    0.215E-03
DAV:   4    -0.291826104899E+03    0.62016E-06   -0.23278E-07   976   0.955E-04    0.536E-04
DAV:   5    -0.291826104628E+03    0.27108E-06   -0.40297E-08   720   0.491E-04    0.469E-04
DAV:   6    -0.291826104507E+03    0.12034E-06   -0.11723E-08   720   0.280E-04    0.274E-04
DAV:   7    -0.291826104470E+03    0.37100E-07   -0.56549E-09   720   0.154E-04
   8 F= -.29182610E+03 E0= -.29182610E+03  d E =-.168570E-04
       N       E                     dE             d eps       ncg     rms          rms(c)
DAV:   1    -0.291826111288E+03   -0.67803E-05   -0.12828E-04  1280   0.224E-02    0.618E-03
DAV:   2    -0.291826112302E+03   -0.10143E-05   -0.95046E-06  1440   0.650E-03    0.269E-03
DAV:   3    -0.291826112428E+03   -0.12641E-06   -0.23875E-07  1024   0.125E-03    0.145E-03
DAV:   4    -0.291826112743E+03   -0.31401E-06   -0.19350E-07   768   0.893E-04    0.371E-04
DAV:   5    -0.291826112870E+03   -0.12730E-06   -0.39090E-08   720   0.523E-04    0.268E-04
DAV:   6    -0.291826112919E+03   -0.49495E-07   -0.12875E-08   720   0.243E-04
   9 F= -.29182611E+03 E0= -.29182611E+03  d E =-.844894E-05
       N       E                     dE             d eps       ncg     rms          rms(c)
DAV:   1    -0.291826115310E+03   -0.24406E-05   -0.32131E-05  1216   0.112E-02    0.338E-03
DAV:   2    -0.291826115012E+03    0.29861E-06   -0.22978E-06  1456   0.314E-03    0.189E-03
DAV:   3    -0.291826114720E+03    0.29165E-06   -0.72226E-08   736   0.655E-04    0.913E-04
DAV:   4    -0.291826114404E+03    0.31564E-06   -0.68049E-08   720   0.501E-04    0.239E-04
DAV:   5    -0.291826114293E+03    0.11109E-06   -0.12312E-08   720   0.300E-04    0.171E-04
DAV:   6    -0.291826114243E+03    0.50111E-07   -0.40596E-09   720   0.137E-04
  10 F= -.29182611E+03 E0= -.29182611E+03  d E =-.132399E-05
