 vasp.5.4.1 24Jun15 (build Jan 30 2017 21:57:38) complex                         
 executed on           IFC91_ompi date 2018.07.26  12:14:03
 running on   16 total cores
 distrk:  each k-point on   16 cores,    1 groups
 distr:  one band on NCORES_PER_BAND=   1 cores,   16 groups


--------------------------------------------------------------------------------------------------------


 INCAR:
 POTCAR:    PAW_PBE Si 05Jan2001                  
 POTCAR:    PAW_PBE Ge 05Jan2001                  

 ----------------------------------------------------------------------------- 
|                                                                             |
|           W    W    AA    RRRRR   N    N  II  N    N   GGGG   !!!           |
|           W    W   A  A   R    R  NN   N  II  NN   N  G    G  !!!           |
|           W    W  A    A  R    R  N N  N  II  N N  N  G       !!!           |
|           W WW W  AAAAAA  RRRRR   N  N N  II  N  N N  G  GGG   !            |
|           WW  WW  A    A  R   R   N   NN  II  N   NN  G    G                |
|           W    W  A    A  R    R  N    N  II  N    N   GGGG   !!!           |
|                                                                             |
|      For optimal performance we recommend to set                            |
|        NCORE= 4 - approx SQRT( number of cores)                             |
|      NCORE specifies how many cores store one orbital (NPAR=cpu/NCORE).     |
|      This setting can  greatly improve the performance of VASP for DFT.     |
|      The default, NPAR=number of cores might be grossly inefficient         |
|      on modern multi-core architectures or massively parallel machines.     |
|      Do your own testing !!!!                                               |
|      Unfortunately you need to use the default for GW and RPA calculations. |
|      (for HF NCORE is supported but not extensively tested yet)             |
|                                                                             |
 ----------------------------------------------------------------------------- 

 POTCAR:    PAW_PBE Si 05Jan2001                  
   VRHFIN =Si: s2p2                                                             
   LEXCH  = PE                                                                  
   EATOM  =   103.0669 eV,    7.5752 Ry                                         
                                                                                
   TITEL  = PAW_PBE Si 05Jan2001                                                
   LULTRA =        F    use ultrasoft PP ?                                      
   IUNSCR =        1    unscreen: 0-lin 1-nonlin 2-no                           
   RPACOR =    1.500    partial core radius                                     
   POMASS =   28.085; ZVAL   =    4.000    mass and valenz                      
   RCORE  =    1.900    outmost cutoff radius                                   
   RWIGS  =    2.480; RWIGS  =    1.312    wigner-seitz radius (au A)           
   ENMAX  =  245.345; ENMIN  =  184.009 eV                                      
   ICORE  =        2    local potential                                         
   LCOR   =        T    correct aug charges                                     
   LPAW   =        T    paw PP                                                  
   EAUG   =  322.069                                                            
   DEXC   =    0.000                                                            
   RMAX   =    1.950    core radius for proj-oper                               
   RAUG   =    1.300    factor for augmentation sphere                          
   RDEP   =    1.993    radius for radial grids                                 
   RDEPT  =    1.837    core radius for aug-charge                              
                                                                                
   Atomic configuration                                                         
    6 entries                                                                   
     n  l   j            E        occ.                                          
     1  0  0.50     -1785.8828   2.0000                                         
     2  0  0.50      -139.4969   2.0000                                         
     2  1  1.50       -95.5546   6.0000                                         
     3  0  0.50       -10.8127   2.0000                                         
     3  1  0.50        -4.0811   2.0000                                         
     3  2  1.50        -4.0817   0.0000                                         
   Description                                                                  
     l       E           TYP  RCUT    TYP  RCUT                                 
     0    -10.8127223     23  1.900                                             
     0     -7.6451159     23  1.900                                             
     1     -4.0811372     23  1.900                                             
     1      2.4879257     23  1.900                                             
     2     -4.0817478      7  1.900                                             
  local pseudopotential read in
  partial core-charges read in
  partial kinetic energy density read in
  atomic valenz-charges read in
  non local Contribution for L=           0  read in
    real space projection operators read in
  non local Contribution for L=           0  read in
    real space projection operators read in
  non local Contribution for L=           1  read in
    real space projection operators read in
  non local Contribution for L=           1  read in
    real space projection operators read in
    PAW grid and wavefunctions read in

   number of l-projection  operators is LMAX  =           4
   number of lm-projection operators is LMMAX =           8

 POTCAR:    PAW_PBE Ge 05Jan2001                  
   VRHFIN =Ge: s2p2                                                             
   LEXCH  = PE                                                                  
   EATOM  =   104.9960 eV,    7.7170 Ry                                         
                                                                                
   TITEL  = PAW_PBE Ge 05Jan2001                                                
   LULTRA =        F    use ultrasoft PP ?                                      
   IUNSCR =        1    unscreen: 0-lin 1-nonlin 2-no                           
   RPACOR =    2.170    partial core radius                                     
   POMASS =   72.610; ZVAL   =    4.000    mass and valenz                      
   RCORE  =    2.300    outmost cutoff radius                                   
   RWIGS  =    2.300; RWIGS  =    1.217    wigner-seitz radius (au A)           
   ENMAX  =  173.807; ENMIN  =  130.355 eV                                      
   ICORE  =        3    local potential                                         
   LCOR   =        T    correct aug charges                                     
   LPAW   =        T    paw PP                                                  
   EAUG   =  385.843                                                            
   DEXC   =    0.000                                                            
   RMAX   =    2.342    core radius for proj-oper                               
   RAUG   =    1.300    factor for augmentation sphere                          
   RDEP   =    2.318    radius for radial grids                                 
   RDEPT  =    2.103    core radius for aug-charge                              
                                                                                
   Atomic configuration                                                         
   10 entries                                                                   
     n  l   j            E        occ.                                          
     1  0  0.50    -10959.8463   2.0000                                         
     2  0  0.50     -1371.6056   2.0000                                         
     2  1  1.50     -1198.4791   6.0000                                         
     3  0  0.50      -168.4733   2.0000                                         
     3  1  1.50      -115.6019   6.0000                                         
     3  2  2.50       -29.3106  10.0000                                         
     4  0  0.50       -11.7309   2.0000                                         
     4  1  0.50        -3.8952   2.0000                                         
     4  2  1.50        -4.0817   0.0000                                         
     4  3  2.50        -4.0817   0.0000                                         
   Description                                                                  
     l       E           TYP  RCUT    TYP  RCUT                                 
     0    -11.7309493     23  2.300                                             
     0     -7.4578696     23  2.300                                             
     1     -3.8952261     23  2.300                                             
     1      6.1178114     23  2.300                                             
     2     -4.0817478     23  2.300                                             
     3     -1.3605826      7  2.300                                             
  local pseudopotential read in
  partial core-charges read in
  partial kinetic energy density read in
  atomic valenz-charges read in
  non local Contribution for L=           0  read in
    real space projection operators read in
  non local Contribution for L=           0  read in
    real space projection operators read in
  non local Contribution for L=           1  read in
    real space projection operators read in
  non local Contribution for L=           1  read in
    real space projection operators read in
  non local Contribution for L=           2  read in
    real space projection operators read in
    PAW grid and wavefunctions read in

   number of l-projection  operators is LMAX  =           5
   number of lm-projection operators is LMMAX =          13


 ----------------------------------------------------------------------------- 
|                                                                             |
|  ADVICE TO THIS USER RUNNING 'VASP/VAMP'   (HEAR YOUR MASTER'S VOICE ...):  |
|                                                                             |
|      You have a (more or less) 'large supercell' and for larger cells       |
|      it might be more efficient to use real space projection opertators     |
|      So try LREAL= Auto  in the INCAR   file.                               |
|      Mind: At the moment your POTCAR file does not contain real space       |
|       projectors, and has to be modified,  BUT if you                       |
|      want to do an extremely  accurate calculation you might also keep the  |
|      reciprocal projection scheme          (i.e. LREAL=.FALSE.)             |
|                                                                             |
 ----------------------------------------------------------------------------- 

  PAW_PBE Si 05Jan2001                  :
 energy of atom  1       EATOM= -103.0669
 kinetic energy error for atom=    0.0013 (will be added to EATOM!!)
  PAW_PBE Ge 05Jan2001                  :
 energy of atom  2       EATOM= -104.9960
 kinetic energy error for atom=    0.0005 (will be added to EATOM!!)


 POSCAR: supercell                               
  positions in direct lattice
  No initial velocities read in
 exchange correlation table for  LEXCH =        8
   RHO(1)=    0.500       N(1)  =     2000
   RHO(2)=  100.500       N(2)  =     4000



--------------------------------------------------------------------------------------------------------


 ion  position               nearest neighbor table
   1  0.083  0.083  0.083-   6 2.37  18 2.37   2 2.37  54 2.37
   2  0.000  0.000  0.333-  15 2.37  39 2.37   1 2.37   3 2.37
   3  0.083  0.083  0.417-   8 2.37  20 2.37   2 2.37   4 2.37
   4  0.000  0.000  0.667-  17 2.37  41 2.37   3 2.37   5 2.37
   5  0.083  0.083  0.750-  10 2.37  22 2.37  54 2.37   4 2.37
   6  0.000  0.333  0.000-   1 2.37   7 2.37  11 2.37  43 2.37
   7  0.083  0.417  0.083-   6 2.37   8 2.37  12 2.37  24 2.37
   8  0.000  0.333  0.333-   9 2.37   7 2.37   3 2.37  45 2.37
   9  0.083  0.417  0.417-   8 2.37  10 2.37  14 2.37  26 2.37
  10  0.000  0.333  0.667-   5 2.37   9 2.37  11 2.37  47 2.37
  11  0.083  0.417  0.750-   6 2.37  10 2.37  16 2.37  28 2.37
  12  0.000  0.667  0.000-   7 2.37  49 2.37  17 2.37  13 2.37
  13  0.083  0.750  0.083-  30 2.37  54 2.37  14 2.37  12 2.37
  14  0.000  0.667  0.333-   9 2.37  51 2.37  15 2.37  13 2.37
  15  0.083  0.750  0.417-   2 2.37  32 2.37  16 2.37  14 2.37
  16  0.000  0.667  0.667-  11 2.37  53 2.37  15 2.37  17 2.37
  17  0.083  0.750  0.750-   4 2.37  34 2.37  12 2.37  16 2.37
  18  0.333  0.000  0.000-   1 2.37  19 2.37  23 2.37  31 2.37
  19  0.417  0.083  0.083-  18 2.37  20 2.37  36 2.37  24 2.37
  20  0.333  0.000  0.333-  21 2.37  19 2.37   3 2.37  33 2.37
  21  0.417  0.083  0.417-  20 2.37  22 2.37  38 2.37  26 2.37
  22  0.333  0.000  0.667-   5 2.37  21 2.37  23 2.37  35 2.37
  23  0.417  0.083  0.750-  18 2.37  22 2.37  40 2.37  28 2.37
  24  0.333  0.333  0.000-  25 2.37  19 2.37   7 2.37  29 2.37
  25  0.417  0.417  0.083-  24 2.37  26 2.37  30 2.37  42 2.37
  26  0.333  0.333  0.333-  27 2.37  21 2.37  25 2.37   9 2.37
  27  0.417  0.417  0.417-  26 2.37  28 2.37  32 2.37  44 2.37
  28  0.333  0.333  0.667-  29 2.37  23 2.37  27 2.37  11 2.37
  29  0.417  0.417  0.750-  28 2.37  24 2.37  34 2.37  46 2.37
  30  0.333  0.667  0.000-  13 2.37  31 2.37  35 2.37  25 2.37
  31  0.417  0.750  0.083-  30 2.37  32 2.37  48 2.37  18 2.37
  32  0.333  0.667  0.333-  33 2.37  31 2.37  15 2.37  27 2.37
  33  0.417  0.750  0.417-  32 2.37  34 2.37  50 2.37  20 2.37
  34  0.333  0.667  0.667-  17 2.37  33 2.37  35 2.37  29 2.37
  35  0.417  0.750  0.750-  30 2.37  34 2.37  52 2.37  22 2.37
  36  0.667  0.000  0.000-  19 2.37  49 2.37  41 2.37  37 2.37
  37  0.750  0.083  0.083-  42 2.37  54 2.37  38 2.37  36 2.37
  38  0.667  0.000  0.333-  21 2.37  51 2.37  39 2.37  37 2.37
  39  0.750  0.083  0.417-   2 2.37  44 2.37  40 2.37  38 2.37
  40  0.667  0.000  0.667-  23 2.37  53 2.37  39 2.37  41 2.37
  41  0.750  0.083  0.750-   4 2.37  46 2.37  36 2.37  40 2.37
  42  0.667  0.333  0.000-  37 2.37  43 2.37  47 2.37  25 2.37
  43  0.750  0.417  0.083-  42 2.37  44 2.37  48 2.37   6 2.37
  44  0.667  0.333  0.333-  45 2.37  43 2.37  39 2.37  27 2.37
  45  0.750  0.417  0.417-  44 2.37  46 2.37  50 2.37   8 2.37
  46  0.667  0.333  0.667-  41 2.37  45 2.37  47 2.37  29 2.37
  47  0.750  0.417  0.750-  42 2.37  46 2.37  52 2.37  10 2.37
  48  0.667  0.667  0.000-  31 2.37  43 2.37  53 2.37  49 2.37
  49  0.750  0.750  0.083-  12 2.37  36 2.37  50 2.37  48 2.37
  50  0.667  0.667  0.333-  33 2.37  45 2.37  49 2.37  51 2.37
  51  0.750  0.750  0.417-  14 2.37  38 2.37  50 2.37  52 2.37
  52  0.667  0.667  0.667-  35 2.37  47 2.37  51 2.37  53 2.37
  53  0.750  0.750  0.750-  16 2.37  40 2.37  48 2.37  52 2.37
  54  0.000  0.000  0.000-  13 2.37  37 2.37   5 2.37   1 2.37

  LATTYP: Found a face centered cubic cell.
 ALAT       =    16.3988509804
  
  Lattice vectors:
  
 A1 = (   0.0000000000,   8.1994254902,   8.1994254902)
 A2 = (   8.1994254902,   0.0000000000,   8.1994254902)
 A3 = (   8.1994254902,   8.1994254902,   0.0000000000)


Analysis of symmetry for initial positions (statically):
=====================================================================
 Subroutine PRICEL returns:
 Original cell was already a primitive cell.
 

 Routine SETGRP: Setting up the symmetry group for a 
 face centered cubic supercell.


 Subroutine GETGRP returns: Found 24 space group operations
 (whereof 24 operations were pure point group operations)
 out of a pool of 48 trial point group operations.


The static configuration has the point symmetry T_d .


Analysis of symmetry for dynamics (positions and initial velocities):
=====================================================================
 Subroutine PRICEL returns:
 Original cell was already a primitive cell.
 

 Routine SETGRP: Setting up the symmetry group for a 
 face centered cubic supercell.


 Subroutine GETGRP returns: Found 24 space group operations
 (whereof 24 operations were pure point group operations)
 out of a pool of 48 trial point group operations.


The dynamic configuration has the point symmetry T_d .


 KPOINTS: Automatic kpoint scheme                 

Automatic generation of k-mesh.
Space group operators:
 irot       det(A)        alpha          n_x          n_y          n_z        tau_x        tau_y        tau_z
    1     1.000000     0.000000     1.000000     0.000000     0.000000     0.000000     0.000000     0.000000
    2     1.000000   120.000000    -0.577350    -0.577350    -0.577350     0.000000     0.000000     0.000000
    3     1.000000   120.000000     0.577350     0.577350     0.577350     0.000000     0.000000     0.000000
    4    -1.000000    90.000000     0.000000     0.000000    -1.000000     0.000000     0.000000     0.000000
    5    -1.000000   180.000000     0.000000     0.707107     0.707107     0.000000     0.000000     0.000000
    6    -1.000000    90.000000     0.000000     1.000000     0.000000     0.000000     0.000000     0.000000
    7     1.000000   180.000000     0.000000     0.000000     1.000000     0.000000     0.000000     0.000000
    8     1.000000   120.000000    -0.577350     0.577350     0.577350     0.000000     0.000000     0.000000
    9     1.000000   120.000000    -0.577350     0.577350    -0.577350     0.000000     0.000000     0.000000
   10    -1.000000    90.000000     0.000000     0.000000     1.000000     0.000000     0.000000     0.000000
   11    -1.000000    90.000000    -1.000000     0.000000     0.000000     0.000000     0.000000     0.000000
   12    -1.000000   180.000000     0.707107     0.000000     0.707107     0.000000     0.000000     0.000000
   13     1.000000   120.000000     0.577350    -0.577350     0.577350     0.000000     0.000000     0.000000
   14     1.000000   120.000000    -0.577350    -0.577350     0.577350     0.000000     0.000000     0.000000
   15     1.000000   180.000000     1.000000     0.000000     0.000000     0.000000     0.000000     0.000000
   16    -1.000000    90.000000     0.000000    -1.000000     0.000000     0.000000     0.000000     0.000000
   17    -1.000000   180.000000     0.707107     0.707107     0.000000     0.000000     0.000000     0.000000
   18    -1.000000    90.000000     1.000000     0.000000     0.000000     0.000000     0.000000     0.000000
   19     1.000000   120.000000     0.577350    -0.577350    -0.577350     0.000000     0.000000     0.000000
   20     1.000000   180.000000     0.000000     1.000000     0.000000     0.000000     0.000000     0.000000
   21     1.000000   120.000000     0.577350     0.577350    -0.577350     0.000000     0.000000     0.000000
   22    -1.000000   180.000000     0.000000    -0.707107     0.707107     0.000000     0.000000     0.000000
   23    -1.000000   180.000000     0.707107    -0.707107     0.000000     0.000000     0.000000     0.000000
   24    -1.000000   180.000000     0.707107     0.000000    -0.707107     0.000000     0.000000     0.000000
 
 Subroutine IBZKPT returns following result:
 ===========================================
 
 Found      4 irreducible k-points:
 
 Following reciprocal coordinates:
            Coordinates               Weight
  0.000000  0.000000  0.000000      1.000000
  0.333333  0.000000  0.000000      8.000000
  0.333333  0.333333  0.000000      6.000000
 -0.333333  0.333333  0.000000     12.000000
 
 Following cartesian coordinates:
            Coordinates               Weight
  0.000000  0.000000  0.000000      1.000000
 -0.020327  0.020327  0.020327      8.000000
  0.000000  0.000000  0.040653      6.000000
  0.040653 -0.040653  0.000000     12.000000
 


--------------------------------------------------------------------------------------------------------




 Dimension of arrays:
   k-points           NKPTS =        4   k-points in BZ     NKDIM =        4   number of bands    NBANDS=    144
   number of dos      NEDOS =    301   number of ions     NIONS =     54
   non local maximal  LDIM  =      5   non local SUM 2l+1 LMDIM =     13
   total plane-waves  NPLWV = 373248
   max r-space proj   IRMAX =      1   max aug-charges    IRDMAX=  18597
   dimension x,y,z NGX =    72 NGY =   72 NGZ =   72
   dimension x,y,z NGXF=   144 NGYF=  144 NGZF=  144
   support grid    NGXF=   144 NGYF=  144 NGZF=  144
   ions per type =              53   1
 NGX,Y,Z   is equivalent  to a cutoff of  10.32, 10.32, 10.32 a.u.
 NGXF,Y,Z  is equivalent  to a cutoff of  20.65, 20.65, 20.65 a.u.


 I would recommend the setting:
   dimension x,y,z NGX =    71 NGY =   71 NGZ =   71
 SYSTEM =  unknown system                          
 POSCAR =  supercell                               

 Startparameter for this run:
   NWRITE =      2    write-flag & timer
   PREC   = accura    normal or accurate (medium, high low for compatibility)
   ISTART =      0    job   : 0-new  1-cont  2-samecut
   ICHARG =      2    charge: 1-file 2-atom 10-const
   ISPIN  =      1    spin polarized calculation?
   LNONCOLLINEAR =      F non collinear calculations
   LSORBIT =      F    spin-orbit coupling
   INIWAV =      1    electr: 0-lowe 1-rand  2-diag
   LASPH  =      F    aspherical Exc in radial PAW
   METAGGA=      F    non-selfconsistent MetaGGA calc.

 Electronic Relaxation 1
   ENCUT  =  350.0 eV  25.72 Ry    5.07 a.u.  17.69 17.69 17.69*2*pi/ulx,y,z
   ENINI  =  350.0     initial cutoff
   ENAUG  =  385.8 eV  augmentation charge cutoff
   NELM   =     60;   NELMIN=  2; NELMDL= -5     # of ELM steps 
   EDIFF  = 0.1E-06   stopping-criterion for ELM
   LREAL  =      F    real-space projection
   NLSPLINE    = F    spline interpolate recip. space projectors
   LCOMPAT=      F    compatible to vasp.4.4
   GGA_COMPAT  = T    GGA compatible to vasp.4.4-vasp.4.6
   LMAXPAW     = -100 max onsite density
   LMAXMIX     =    2 max onsite mixed and CHGCAR
   VOSKOWN=      0    Vosko Wilk Nusair interpolation
   ROPT   =    0.00000   0.00000
 Ionic relaxation
   EDIFFG = 0.1E-05   stopping-criterion for IOM
   NSW    =     10    number of steps for IOM
   NBLOCK =      1;   KBLOCK =     10    inner block; outer block 
   IBRION =      1    ionic relax: 0-MD 1-quasi-New 2-CG
   NFREE  =      0    steps in history (QN), initial steepest desc. (CG)
   ISIF   =      3    stress and relaxation
   IWAVPR =     11    prediction:  0-non 1-charg 2-wave 3-comb
   ISYM   =      2    0-nonsym 1-usesym 2-fastsym
   LCORR  =      T    Harris-Foulkes like correction to forces

   POTIM  = 0.5000    time-step for ionic-motion
   TEIN   =    0.0    initial temperature
   TEBEG  =    0.0;   TEEND  =   0.0 temperature during run
   SMASS  =  -3.00    Nose mass-parameter (am)
   estimated Nose-frequenzy (Omega)   =  0.10E-29 period in steps =****** mass=  -0.307E-26a.u.
   SCALEE = 1.0000    scale energy and forces
   NPACO  =    256;   APACO  = 16.0  distance and # of slots for P.C.
   PSTRESS=    0.0 pullay stress

  Mass of Ions in am
   POMASS =  28.09 72.61
  Ionic Valenz
   ZVAL   =   4.00  4.00
  Atomic Wigner-Seitz radii
   RWIGS  =  -1.00 -1.00
  virtual crystal weights 
   VCA    =   1.00  1.00
   NELECT =     216.0000    total number of electrons
   NUPDOWN=      -1.0000    fix difference up-down

 DOS related values:
   EMIN   =  10.00;   EMAX   =-10.00  energy-range for DOS
   EFERMI =   0.00
   ISMEAR =     0;   SIGMA  =   0.05  broadening in eV -4-tet -1-fermi 0-gaus

 Electronic relaxation 2 (details)
   IALGO  =     38    algorithm
   LDIAG  =      T    sub-space diagonalisation (order eigenvalues)
   LSUBROT=      F    optimize rotation matrix (better conditioning)
   TURBO    =      0    0=normal 1=particle mesh
   IRESTART =      0    0=no restart 2=restart with 2 vectors
   NREBOOT  =      0    no. of reboots
   NMIN     =      0    reboot dimension
   EREF     =   0.00    reference energy to select bands
   IMIX   =      4    mixing-type and parameters
     AMIX     =   0.40;   BMIX     =  1.00
     AMIX_MAG =   1.60;   BMIX_MAG =  1.00
     AMIN     =   0.10
     WC   =   100.;   INIMIX=   1;  MIXPRE=   1;  MAXMIX= -45

 Intra band minimization:
   WEIMIN = 0.0010     energy-eigenvalue tresh-hold
   EBREAK =  0.17E-09  absolut break condition
   DEPER  =   0.30     relativ break condition  

   TIME   =   0.40     timestep for ELM

  volume/ion in A,a.u.               =      20.42       137.78
  Fermi-wavevector in a.u.,A,eV,Ry     =   0.950822  1.796793 12.300523  0.904063
  Thomas-Fermi vector in A             =   2.079235

 Write flags
   LWAVE  =      T    write WAVECAR
   LCHARG =      T    write CHGCAR
   LVTOT  =      F    write LOCPOT, total local potential
   LVHAR  =      F    write LOCPOT, Hartree potential only
   LELF   =      F    write electronic localiz. function (ELF)
   LORBIT =      0    0 simple, 1 ext, 2 COOP (PROOUT)


 Dipole corrections
   LMONO  =      F    monopole corrections only (constant potential shift)
   LDIPOL =      F    correct potential (dipole corrections)
   IDIPOL =      0    1-x, 2-y, 3-z, 4-all directions 
   EPSILON=  1.0000000 bulk dielectric constant

 Exchange correlation treatment:
   GGA     =    --    GGA type
   LEXCH   =     8    internal setting for exchange type
   VOSKOWN=      0    Vosko Wilk Nusair interpolation
   LHFCALC =     F    Hartree Fock is set to
   LHFONE  =     F    Hartree Fock one center treatment
   AEXX    =    0.0000 exact exchange contribution

 Linear response parameters
   LEPSILON=     F    determine dielectric tensor
   LRPA    =     F    only Hartree local field effects (RPA)
   LNABLA  =     F    use nabla operator in PAW spheres
   LVEL    =     F    velocity operator in full k-point grid
   LINTERFAST=   F  fast interpolation
   KINTER  =     0    interpolate to denser k-point grid
   CSHIFT  =0.1000    complex shift for real part using Kramers Kronig
   OMEGAMAX=  -1.0    maximum frequency
   DEG_THRESHOLD= 0.2000000E-02 threshold for treating states as degnerate
   RTIME   =    0.100 relaxation time in fs

 Orbital magnetization related:
   ORBITALMAG=     F  switch on orbital magnetization
   LCHIMAG   =     F  perturbation theory with respect to B field
   DQ        =  0.001000  dq finite difference perturbation B field



--------------------------------------------------------------------------------------------------------


 quasi-Newton-method for relaxation of ions
 charge density and potential will be updated during run
 non-spin polarized calculation
 Variant of blocked Davidson
 Davidson routine will perform the subspace rotation
 perform sub-space diagonalisation
    after iterative eigenvector-optimisation
 modified Broyden-mixing scheme, WC =      100.0
 initial mixing is a Kerker type mixing with AMIX =  0.4000 and BMIX =      1.0000
 Hartree-type preconditioning will be used
 using additional bands           36
 reciprocal scheme for non local part
 use partial core corrections
 calculate Harris-corrections to forces   (improved forces if not selfconsistent)
 use gradient corrections 
 use of overlap-Matrix (Vanderbilt PP)
 Gauss-broadening in eV      SIGMA  =   0.05


--------------------------------------------------------------------------------------------------------


  energy-cutoff  :      350.00
  volume of cell :     1102.50
      direct lattice vectors                 reciprocal lattice vectors
     0.000000000  8.199425490  8.199425490    -0.060979882  0.060979882  0.060979882
     8.199425490  0.000000000  8.199425490     0.060979882 -0.060979882  0.060979882
     8.199425490  8.199425490  0.000000000     0.060979882  0.060979882 -0.060979882

  length of vectors
    11.595738732 11.595738732 11.595738732     0.105620254  0.105620254  0.105620254



 k-points in units of 2pi/SCALE and weight: Automatic kpoint scheme                 
   0.00000000  0.00000000  0.00000000       0.037
  -0.02032663  0.02032663  0.02032663       0.296
   0.00000000  0.00000000  0.04065325       0.222
   0.04065325 -0.04065325  0.00000000       0.444

 k-points in reciprocal lattice and weights: Automatic kpoint scheme                 
   0.00000000  0.00000000  0.00000000       0.037
   0.33333333  0.00000000  0.00000000       0.296
   0.33333333  0.33333333  0.00000000       0.222
  -0.33333333  0.33333333  0.00000000       0.444

 position of ions in fractional coordinates (direct lattice) 
   0.08333333  0.08333333  0.08333333
   0.00000000  0.00000000  0.33333333
   0.08333333  0.08333333  0.41666667
   0.00000000  0.00000000  0.66666667
   0.08333333  0.08333333  0.75000000
   0.00000000  0.33333333  0.00000000
   0.08333333  0.41666667  0.08333333
   0.00000000  0.33333333  0.33333333
   0.08333333  0.41666667  0.41666667
   0.00000000  0.33333333  0.66666667
   0.08333333  0.41666667  0.75000000
   0.00000000  0.66666667  0.00000000
   0.08333333  0.75000000  0.08333333
   0.00000000  0.66666667  0.33333333
   0.08333333  0.75000000  0.41666667
   0.00000000  0.66666667  0.66666667
   0.08333333  0.75000000  0.75000000
   0.33333333  0.00000000  0.00000000
   0.41666667  0.08333333  0.08333333
   0.33333333  0.00000000  0.33333333
   0.41666667  0.08333333  0.41666667
   0.33333333  0.00000000  0.66666667
   0.41666667  0.08333333  0.75000000
   0.33333333  0.33333333  0.00000000
   0.41666667  0.41666667  0.08333333
   0.33333333  0.33333333  0.33333333
   0.41666667  0.41666667  0.41666667
   0.33333333  0.33333333  0.66666667
   0.41666667  0.41666667  0.75000000
   0.33333333  0.66666667  0.00000000
   0.41666667  0.75000000  0.08333333
   0.33333333  0.66666667  0.33333333
   0.41666667  0.75000000  0.41666667
   0.33333333  0.66666667  0.66666667
   0.41666667  0.75000000  0.75000000
   0.66666667  0.00000000  0.00000000
   0.75000000  0.08333333  0.08333333
   0.66666667  0.00000000  0.33333333
   0.75000000  0.08333333  0.41666667
   0.66666667  0.00000000  0.66666667
   0.75000000  0.08333333  0.75000000
   0.66666667  0.33333333  0.00000000
   0.75000000  0.41666667  0.08333333
   0.66666667  0.33333333  0.33333333
   0.75000000  0.41666667  0.41666667
   0.66666667  0.33333333  0.66666667
   0.75000000  0.41666667  0.75000000
   0.66666667  0.66666667  0.00000000
   0.75000000  0.75000000  0.08333333
   0.66666667  0.66666667  0.33333333
   0.75000000  0.75000000  0.41666667
   0.66666667  0.66666667  0.66666667
   0.75000000  0.75000000  0.75000000
   0.00000000  0.00000000  0.00000000

 position of ions in cartesian coordinates  (Angst):
   1.36657092  1.36657092  1.36657092
   2.73314183  2.73314183  0.00000000
   4.09971275  4.09971275  1.36657092
   5.46628366  5.46628366  0.00000000
   6.83285458  6.83285458  1.36657092
   2.73314183  0.00000000  2.73314183
   4.09971275  1.36657092  4.09971275
   5.46628366  2.73314183  2.73314183
   6.83285458  4.09971275  4.09971275
   8.19942549  5.46628366  2.73314183
   9.56599641  6.83285458  4.09971275
   5.46628366  0.00000000  5.46628366
   6.83285458  1.36657092  6.83285458
   8.19942549  2.73314183  5.46628366
   9.56599641  4.09971275  6.83285458
  10.93256732  5.46628366  5.46628366
  12.29913824  6.83285458  6.83285458
   0.00000000  2.73314183  2.73314183
   1.36657092  4.09971275  4.09971275
   2.73314183  5.46628366  2.73314183
   4.09971275  6.83285458  4.09971275
   5.46628366  8.19942549  2.73314183
   6.83285458  9.56599641  4.09971275
   2.73314183  2.73314183  5.46628366
   4.09971275  4.09971275  6.83285458
   5.46628366  5.46628366  5.46628366
   6.83285458  6.83285458  6.83285458
   8.19942549  8.19942549  5.46628366
   9.56599641  9.56599641  6.83285458
   5.46628366  2.73314183  8.19942549
   6.83285458  4.09971275  9.56599641
   8.19942549  5.46628366  8.19942549
   9.56599641  6.83285458  9.56599641
  10.93256732  8.19942549  8.19942549
  12.29913824  9.56599641  9.56599641
   0.00000000  5.46628366  5.46628366
   1.36657092  6.83285458  6.83285458
   2.73314183  8.19942549  5.46628366
   4.09971275  9.56599641  6.83285458
   5.46628366 10.93256732  5.46628366
   6.83285458 12.29913824  6.83285458
   2.73314183  5.46628366  8.19942549
   4.09971275  6.83285458  9.56599641
   5.46628366  8.19942549  8.19942549
   6.83285458  9.56599641  9.56599641
   8.19942549 10.93256732  8.19942549
   9.56599641 12.29913824  9.56599641
   5.46628366  5.46628366 10.93256732
   6.83285458  6.83285458 12.29913824
   8.19942549  8.19942549 10.93256732
   9.56599641  9.56599641 12.29913824
  10.93256732 10.93256732 10.93256732
  12.29913824 12.29913824 12.29913824
   0.00000000  0.00000000  0.00000000



--------------------------------------------------------------------------------------------------------


 k-point  1 :   0.0000 0.0000 0.0000  plane waves:   16361
 k-point  2 :   0.3333 0.0000 0.0000  plane waves:   16382
 k-point  3 :   0.3333 0.3333 0.0000  plane waves:   16349
 k-point  4 :  -0.3333 0.3333 0.0000  plane waves:   16406

 maximum and minimum number of plane-waves per node :     16406    16349

 maximum number of plane-waves:     16406
 maximum index in each direction: 
   IXMAX=   18   IYMAX=   17   IZMAX=   17
   IXMIN=  -18   IYMIN=  -18   IZMIN=  -17

 WARNING: aliasing errors must be expected set NGX to  74 to avoid them
 NGY is ok and might be reduce to  72
 NGZ is ok and might be reduce to  70
 aliasing errors are usually negligible using standard VASP settings
 and one can safely disregard these warnings

 serial   3D FFT for wavefunctions
 parallel 3D FFT for charge:
    minimum data exchange during FFTs selected (reduces bandwidth)


 total amount of memory used by VASP on root node   113402. kBytes
========================================================================

   base      :      30000. kBytes
   nonl-proj :      27841. kBytes
   fftplans  :      15551. kBytes
   grid      :      29859. kBytes
   one-center:        438. kBytes
   wavefun   :       9713. kBytes

     INWAV:  cpu time    0.0000: real time    0.0001
 Broyden mixing: mesh for mixing (old mesh)
   NGX = 35   NGY = 35   NGZ = 35
  (NGX  =144   NGY  =144   NGZ  =144)
  gives a total of  42875 points

 initial charge density was supplied:
 charge density of overlapping atoms calculated
 number of electron     216.0000000 magnetization 
 keeping initial charge density in first step


--------------------------------------------------------------------------------------------------------


 Maximum index for augmentation-charges         1039 (set IRDMAX)


--------------------------------------------------------------------------------------------------------


 First call to EWALD:  gamma=   0.172
 Maximum number of real-space cells 3x 3x 3
 Maximum number of reciprocal cells 3x 3x 3

 FEWALD executed in parallel
    FEWALD:  cpu time    0.0080: real time    0.0065


----------------------------------------- Iteration    1(   1)  ---------------------------------------


    POTLOK:  cpu time    0.5800: real time    0.5795
    SETDIJ:  cpu time    0.0240: real time    0.0239
     EDDAV:  cpu time   17.5200: real time   17.5167
       DOS:  cpu time    0.0000: real time    0.0006
    --------------------------------------------
      LOOP:  cpu time   18.1240: real time   18.1217

 eigenvalue-minimisations  :  1152
 total energy-change (2. order) : 0.4171687E+03  (-0.6517609E+04)
 number of electron     216.0000000 magnetization 
 augmentation part      216.0000000 magnetization 

 Free energy of the ion-electron system (eV)
  ---------------------------------------------------
  alpha Z        PSCENC =        96.74795065
  Ewald energy   TEWEN  =     -6130.25333307
  -Hartree energ DENC   =      -305.05201380
  -exchange      EXHF   =         0.00000000
  -V(xc)+E(xc)   XCENC  =      -502.36219207
  PAW double counting   =      4758.70657479    -3811.77506791
  entropy T*S    EENTRO =        -0.01151570
  eigenvalues    EBANDS =       743.69457638
  atomic energy  EATOM  =      5567.47370980
  Solvation  Ediel_sol  =         0.00000000
  ---------------------------------------------------
  free energy    TOTEN  =       417.16868907 eV

  energy without entropy =      417.18020476  energy(sigma->0) =      417.17444692


--------------------------------------------------------------------------------------------------------




----------------------------------------- Iteration    1(   2)  ---------------------------------------


     EDDAV:  cpu time   20.8360: real time   20.8291
       DOS:  cpu time    0.0040: real time    0.0006
    --------------------------------------------
      LOOP:  cpu time   20.8400: real time   20.8301

 eigenvalue-minimisations  :  1424
 total energy-change (2. order) :-0.6717566E+03  (-0.6400042E+03)
 number of electron     216.0000000 magnetization 
 augmentation part      216.0000000 magnetization 

 Free energy of the ion-electron system (eV)
  ---------------------------------------------------
  alpha Z        PSCENC =        96.74795065
  Ewald energy   TEWEN  =     -6130.25333307
  -Hartree energ DENC   =      -305.05201380
  -exchange      EXHF   =         0.00000000
  -V(xc)+E(xc)   XCENC  =      -502.36219207
  PAW double counting   =      4758.70657479    -3811.77506791
  entropy T*S    EENTRO =        -0.00000000
  eigenvalues    EBANDS =        71.92650184
  atomic energy  EATOM  =      5567.47370980
  Solvation  Ediel_sol  =         0.00000000
  ---------------------------------------------------
  free energy    TOTEN  =      -254.58786977 eV

  energy without entropy =     -254.58786977  energy(sigma->0) =     -254.58786977


--------------------------------------------------------------------------------------------------------




----------------------------------------- Iteration    1(   3)  ---------------------------------------


     EDDAV:  cpu time   20.7920: real time   20.7858
       DOS:  cpu time    0.0000: real time    0.0006
    --------------------------------------------
      LOOP:  cpu time   20.7920: real time   20.7868

 eigenvalue-minimisations  :  1456
 total energy-change (2. order) :-0.4094439E+02  (-0.4043975E+02)
 number of electron     216.0000000 magnetization 
 augmentation part      216.0000000 magnetization 

 Free energy of the ion-electron system (eV)
  ---------------------------------------------------
  alpha Z        PSCENC =        96.74795065
  Ewald energy   TEWEN  =     -6130.25333307
  -Hartree energ DENC   =      -305.05201380
  -exchange      EXHF   =         0.00000000
  -V(xc)+E(xc)   XCENC  =      -502.36219207
  PAW double counting   =      4758.70657479    -3811.77506791
  entropy T*S    EENTRO =        -0.00000000
  eigenvalues    EBANDS =        30.98211289
  atomic energy  EATOM  =      5567.47370980
  Solvation  Ediel_sol  =         0.00000000
  ---------------------------------------------------
  free energy    TOTEN  =      -295.53225872 eV

  energy without entropy =     -295.53225872  energy(sigma->0) =     -295.53225872


--------------------------------------------------------------------------------------------------------




----------------------------------------- Iteration    1(   4)  ---------------------------------------


     EDDAV:  cpu time   21.1880: real time   21.1829
       DOS:  cpu time    0.0000: real time    0.0004
    --------------------------------------------
      LOOP:  cpu time   21.1880: real time   21.1837

 eigenvalue-minimisations  :  1456
 total energy-change (2. order) :-0.7786283E+00  (-0.7752653E+00)
 number of electron     216.0000000 magnetization 
 augmentation part      216.0000000 magnetization 

 Free energy of the ion-electron system (eV)
  ---------------------------------------------------
  alpha Z        PSCENC =        96.74795065
  Ewald energy   TEWEN  =     -6130.25333307
  -Hartree energ DENC   =      -305.05201380
  -exchange      EXHF   =         0.00000000
  -V(xc)+E(xc)   XCENC  =      -502.36219207
  PAW double counting   =      4758.70657479    -3811.77506791
  entropy T*S    EENTRO =        -0.00000000
  eigenvalues    EBANDS =        30.20348462
  atomic energy  EATOM  =      5567.47370980
  Solvation  Ediel_sol  =         0.00000000
  ---------------------------------------------------
  free energy    TOTEN  =      -296.31088699 eV

  energy without entropy =     -296.31088699  energy(sigma->0) =     -296.31088699


--------------------------------------------------------------------------------------------------------




----------------------------------------- Iteration    1(   5)  ---------------------------------------


     EDDAV:  cpu time   20.4600: real time   20.4501
       DOS:  cpu time    0.0000: real time    0.0004
    CHARGE:  cpu time    0.8440: real time    0.8468
    MIXING:  cpu time    0.0160: real time    0.0146
    --------------------------------------------
      LOOP:  cpu time   21.3200: real time   21.3125

 eigenvalue-minimisations  :  1408
 total energy-change (2. order) :-0.1691865E-01  (-0.1690358E-01)
 number of electron     215.9999982 magnetization 
 augmentation part      -13.0940325 magnetization 

 Broyden mixing:
  rms(total) = 0.24767E+01    rms(broyden)= 0.24767E+01
  rms(prec ) = 0.28374E+01
  weight for this iteration     100.00

 Free energy of the ion-electron system (eV)
  ---------------------------------------------------
  alpha Z        PSCENC =        96.74795065
  Ewald energy   TEWEN  =     -6130.25333307
  -Hartree energ DENC   =      -305.05201380
  -exchange      EXHF   =         0.00000000
  -V(xc)+E(xc)   XCENC  =      -502.36219207
  PAW double counting   =      4758.70657479    -3811.77506791
  entropy T*S    EENTRO =        -0.00000000
  eigenvalues    EBANDS =        30.18656597
  atomic energy  EATOM  =      5567.47370980
  Solvation  Ediel_sol  =         0.00000000
  ---------------------------------------------------
  free energy    TOTEN  =      -296.32780564 eV

  energy without entropy =     -296.32780564  energy(sigma->0) =     -296.32780564


--------------------------------------------------------------------------------------------------------




----------------------------------------- Iteration    1(   6)  ---------------------------------------


    POTLOK:  cpu time    0.5400: real time    0.5391
    SETDIJ:  cpu time    0.0240: real time    0.0227
     EDDAV:  cpu time   19.6600: real time   19.6533
       DOS:  cpu time    0.0000: real time    0.0006
    CHARGE:  cpu time    0.8720: real time    0.8727
    MIXING:  cpu time    0.0160: real time    0.0155
    --------------------------------------------
      LOOP:  cpu time   21.1120: real time   21.1047

 eigenvalue-minimisations  :  1328
 total energy-change (2. order) : 0.3143454E+01  (-0.1713282E+00)
 number of electron     215.9999982 magnetization 
 augmentation part      -12.9470972 magnetization 

 Broyden mixing:
  rms(total) = 0.15167E+01    rms(broyden)= 0.15167E+01
  rms(prec ) = 0.17241E+01
  weight for this iteration     100.00

 eigenvalues of (default mixing * dielectric matrix)
  average eigenvalue GAMMA=   2.5716
  2.5716

 Free energy of the ion-electron system (eV)
  ---------------------------------------------------
  alpha Z        PSCENC =        96.74795065
  Ewald energy   TEWEN  =     -6130.25333307
  -Hartree energ DENC   =      -344.51163902
  -exchange      EXHF   =         0.00000000
  -V(xc)+E(xc)   XCENC  =      -496.10333157
  PAW double counting   =     10055.74923853    -9111.65207719
  entropy T*S    EENTRO =        -0.00000000
  eigenvalues    EBANDS =        69.36513043
  atomic energy  EATOM  =      5567.47370980
  Solvation  Ediel_sol  =         0.00000000
  ---------------------------------------------------
  free energy    TOTEN  =      -293.18435144 eV

  energy without entropy =     -293.18435144  energy(sigma->0) =     -293.18435144


--------------------------------------------------------------------------------------------------------




----------------------------------------- Iteration    1(   7)  ---------------------------------------


    POTLOK:  cpu time    0.5440: real time    0.5426
    SETDIJ:  cpu time    0.0240: real time    0.0246
     EDDAV:  cpu time   19.3440: real time   19.3378
       DOS:  cpu time    0.0000: real time    0.0005
    CHARGE:  cpu time    0.8360: real time    0.8380
    MIXING:  cpu time    0.0160: real time    0.0159
    --------------------------------------------
      LOOP:  cpu time   20.7640: real time   20.7601

 eigenvalue-minimisations  :  1312
 total energy-change (2. order) : 0.1438665E+01  (-0.3713637E+00)
 number of electron     215.9999983 magnetization 
 augmentation part      -12.7522353 magnetization 

 Broyden mixing:
  rms(total) = 0.87998E-01    rms(broyden)= 0.87997E-01
  rms(prec ) = 0.11436E+00
  weight for this iteration     100.00

 eigenvalues of (default mixing * dielectric matrix)
  average eigenvalue GAMMA=   2.2260
  2.2260  2.2260

 Free energy of the ion-electron system (eV)
  ---------------------------------------------------
  alpha Z        PSCENC =        96.74795065
  Ewald energy   TEWEN  =     -6130.25333307
  -Hartree energ DENC   =      -411.72155548
  -exchange      EXHF   =         0.00000000
  -V(xc)+E(xc)   XCENC  =      -485.23957672
  PAW double counting   =     23155.11849238   -22214.80493611
  entropy T*S    EENTRO =        -0.00000000
  eigenvalues    EBANDS =       130.93356243
  atomic energy  EATOM  =      5567.47370980
  Solvation  Ediel_sol  =         0.00000000
  ---------------------------------------------------
  free energy    TOTEN  =      -291.74568612 eV

  energy without entropy =     -291.74568612  energy(sigma->0) =     -291.74568612


--------------------------------------------------------------------------------------------------------




----------------------------------------- Iteration    1(   8)  ---------------------------------------


    POTLOK:  cpu time    0.5560: real time    0.5578
    SETDIJ:  cpu time    0.0200: real time    0.0206
     EDDAV:  cpu time   20.2440: real time   20.2363
       DOS:  cpu time    0.0000: real time    0.0004
    CHARGE:  cpu time    0.8200: real time    0.8199
    MIXING:  cpu time    0.0200: real time    0.0187
    --------------------------------------------
      LOOP:  cpu time   21.6640: real time   21.6544

 eigenvalue-minimisations  :  1328
 total energy-change (2. order) :-0.2352806E-01  (-0.2040782E-01)
 number of electron     215.9999983 magnetization 
 augmentation part      -12.7812816 magnetization 

 Broyden mixing:
  rms(total) = 0.33390E-01    rms(broyden)= 0.33389E-01
  rms(prec ) = 0.41061E-01
  weight for this iteration     100.00

 eigenvalues of (default mixing * dielectric matrix)
  average eigenvalue GAMMA=   2.2403
  2.7489  1.9860  1.9860

 Free energy of the ion-electron system (eV)
  ---------------------------------------------------
  alpha Z        PSCENC =        96.74795065
  Ewald energy   TEWEN  =     -6130.25333307
  -Hartree energ DENC   =      -406.88177638
  -exchange      EXHF   =         0.00000000
  -V(xc)+E(xc)   XCENC  =      -485.71205054
  PAW double counting   =     22719.27280071   -21778.09126008
  entropy T*S    EENTRO =        -0.00000000
  eigenvalues    EBANDS =       125.67474472
  atomic energy  EATOM  =      5567.47370980
  Solvation  Ediel_sol  =         0.00000000
  ---------------------------------------------------
  free energy    TOTEN  =      -291.76921418 eV

  energy without entropy =     -291.76921418  energy(sigma->0) =     -291.76921418


--------------------------------------------------------------------------------------------------------




----------------------------------------- Iteration    1(   9)  ---------------------------------------


    POTLOK:  cpu time    0.6040: real time    0.6057
    SETDIJ:  cpu time    0.0240: real time    0.0230
     EDDAV:  cpu time   20.1240: real time   20.1177
       DOS:  cpu time    0.0000: real time    0.0005
    CHARGE:  cpu time    0.8280: real time    0.8290
    MIXING:  cpu time    0.0200: real time    0.0173
    --------------------------------------------
      LOOP:  cpu time   21.6000: real time   21.5939

 eigenvalue-minimisations  :  1408
 total energy-change (2. order) :-0.5559221E-02  (-0.9934788E-03)
 number of electron     215.9999983 magnetization 
 augmentation part      -12.7820229 magnetization 

 Broyden mixing:
  rms(total) = 0.29733E-01    rms(broyden)= 0.29733E-01
  rms(prec ) = 0.31218E-01
  weight for this iteration     100.00

 eigenvalues of (default mixing * dielectric matrix)
  average eigenvalue GAMMA=   1.9998
  2.7748  2.2901  2.2901  0.6440

 Free energy of the ion-electron system (eV)
  ---------------------------------------------------
  alpha Z        PSCENC =        96.74795065
  Ewald energy   TEWEN  =     -6130.25333307
  -Hartree energ DENC   =      -408.65447184
  -exchange      EXHF   =         0.00000000
  -V(xc)+E(xc)   XCENC  =      -485.41333405
  PAW double counting   =     22862.71739380   -21921.56714105
  entropy T*S    EENTRO =        -0.00000000
  eigenvalues    EBANDS =       127.17445236
  atomic energy  EATOM  =      5567.47370980
  Solvation  Ediel_sol  =         0.00000000
  ---------------------------------------------------
  free energy    TOTEN  =      -291.77477340 eV

  energy without entropy =     -291.77477340  energy(sigma->0) =     -291.77477340


--------------------------------------------------------------------------------------------------------




----------------------------------------- Iteration    1(  10)  ---------------------------------------


    POTLOK:  cpu time    0.6160: real time    0.6176
    SETDIJ:  cpu time    0.0240: real time    0.0225
     EDDAV:  cpu time   19.1320: real time   19.1276
       DOS:  cpu time    0.0040: real time    0.0004
    CHARGE:  cpu time    0.8320: real time    0.8322
    MIXING:  cpu time    0.0160: real time    0.0158
    --------------------------------------------
      LOOP:  cpu time   20.6240: real time   20.6169

 eigenvalue-minimisations  :  1312
 total energy-change (2. order) :-0.1612058E-02  (-0.1699702E-03)
 number of electron     215.9999983 magnetization 
 augmentation part      -12.7834578 magnetization 

 Broyden mixing:
  rms(total) = 0.62919E-02    rms(broyden)= 0.62918E-02
  rms(prec ) = 0.71781E-02
  weight for this iteration     100.00

 eigenvalues of (default mixing * dielectric matrix)
  average eigenvalue GAMMA=   1.9174
  2.9783  2.2199  2.2199  1.0844  1.0844

 Free energy of the ion-electron system (eV)
  ---------------------------------------------------
  alpha Z        PSCENC =        96.74795065
  Ewald energy   TEWEN  =     -6130.25333307
  -Hartree energ DENC   =      -408.69927916
  -exchange      EXHF   =         0.00000000
  -V(xc)+E(xc)   XCENC  =      -485.40807720
  PAW double counting   =     22593.13723629   -21651.94881877
  entropy T*S    EENTRO =        -0.00000000
  eigenvalues    EBANDS =       127.17422600
  atomic energy  EATOM  =      5567.47370980
  Solvation  Ediel_sol  =         0.00000000
  ---------------------------------------------------
  free energy    TOTEN  =      -291.77638546 eV

  energy without entropy =     -291.77638546  energy(sigma->0) =     -291.77638546


--------------------------------------------------------------------------------------------------------




----------------------------------------- Iteration    1(  11)  ---------------------------------------


    POTLOK:  cpu time    0.5640: real time    0.5627
    SETDIJ:  cpu time    0.0200: real time    0.0225
     EDDAV:  cpu time   19.4960: real time   19.4902
       DOS:  cpu time    0.0000: real time    0.0005
    CHARGE:  cpu time    0.8160: real time    0.8153
    MIXING:  cpu time    0.0200: real time    0.0177
    --------------------------------------------
      LOOP:  cpu time   20.9160: real time   20.9095

 eigenvalue-minimisations  :  1328
 total energy-change (2. order) :-0.1780277E-03  (-0.2731982E-04)
 number of electron     215.9999983 magnetization 
 augmentation part      -12.7842092 magnetization 

 Broyden mixing:
  rms(total) = 0.35152E-02    rms(broyden)= 0.35152E-02
  rms(prec ) = 0.36505E-02
  weight for this iteration     100.00

 eigenvalues of (default mixing * dielectric matrix)
  average eigenvalue GAMMA=   1.8326
  3.0563  2.2933  2.2933  1.2782  1.2782  0.7966

 Free energy of the ion-electron system (eV)
  ---------------------------------------------------
  alpha Z        PSCENC =        96.74795065
  Ewald energy   TEWEN  =     -6130.25333307
  -Hartree energ DENC   =      -408.82847304
  -exchange      EXHF   =         0.00000000
  -V(xc)+E(xc)   XCENC  =      -485.38028370
  PAW double counting   =     22596.01903451   -21654.80676203
  entropy T*S    EENTRO =        -0.00000000
  eigenvalues    EBANDS =       127.25159339
  atomic energy  EATOM  =      5567.47370980
  Solvation  Ediel_sol  =         0.00000000
  ---------------------------------------------------
  free energy    TOTEN  =      -291.77656348 eV

  energy without entropy =     -291.77656348  energy(sigma->0) =     -291.77656348


--------------------------------------------------------------------------------------------------------




----------------------------------------- Iteration    1(  12)  ---------------------------------------


    POTLOK:  cpu time    0.6000: real time    0.5997
    SETDIJ:  cpu time    0.0240: real time    0.0237
     EDDAV:  cpu time   20.9360: real time   20.9306
       DOS:  cpu time    0.0000: real time    0.0005
    CHARGE:  cpu time    0.8600: real time    0.8604
    MIXING:  cpu time    0.0160: real time    0.0165
    --------------------------------------------
      LOOP:  cpu time   22.4360: real time   22.4321

 eigenvalue-minimisations  :  1440
 total energy-change (2. order) :-0.1640744E-04  (-0.2760381E-05)
 number of electron     215.9999983 magnetization 
 augmentation part      -12.7841193 magnetization 

 Broyden mixing:
  rms(total) = 0.12564E-02    rms(broyden)= 0.12564E-02
  rms(prec ) = 0.13242E-02
  weight for this iteration     100.00

 eigenvalues of (default mixing * dielectric matrix)
  average eigenvalue GAMMA=   1.8282
  3.1525  2.3678  2.0852  2.0852  0.9996  1.0536  1.0536

 Free energy of the ion-electron system (eV)
  ---------------------------------------------------
  alpha Z        PSCENC =        96.74795065
  Ewald energy   TEWEN  =     -6130.25333307
  -Hartree energ DENC   =      -408.86093818
  -exchange      EXHF   =         0.00000000
  -V(xc)+E(xc)   XCENC  =      -485.38078862
  PAW double counting   =     22573.60145453   -21632.38956878
  entropy T*S    EENTRO =        -0.00000000
  eigenvalues    EBANDS =       127.28493376
  atomic energy  EATOM  =      5567.47370980
  Solvation  Ediel_sol  =         0.00000000
  ---------------------------------------------------
  free energy    TOTEN  =      -291.77657989 eV

  energy without entropy =     -291.77657989  energy(sigma->0) =     -291.77657989


--------------------------------------------------------------------------------------------------------




----------------------------------------- Iteration    1(  13)  ---------------------------------------


    POTLOK:  cpu time    0.5960: real time    0.5954
    SETDIJ:  cpu time    0.0240: real time    0.0255
     EDDAV:  cpu time   19.2680: real time   19.2633
       DOS:  cpu time    0.0000: real time    0.0005
    CHARGE:  cpu time    0.7960: real time    0.7927
    MIXING:  cpu time    0.0160: real time    0.0187
    --------------------------------------------
      LOOP:  cpu time   20.7040: real time   20.6969

 eigenvalue-minimisations  :  1328
 total energy-change (2. order) :-0.2603392E-06  (-0.2681735E-06)
 number of electron     215.9999983 magnetization 
 augmentation part      -12.7841585 magnetization 

 Broyden mixing:
  rms(total) = 0.56986E-03    rms(broyden)= 0.56986E-03
  rms(prec ) = 0.59643E-03
  weight for this iteration     100.00

 eigenvalues of (default mixing * dielectric matrix)
  average eigenvalue GAMMA=   1.7927
  3.1006  2.3203  2.3203  2.0696  0.9333  1.0218  1.2880  1.2880

 Free energy of the ion-electron system (eV)
  ---------------------------------------------------
  alpha Z        PSCENC =        96.74795065
  Ewald energy   TEWEN  =     -6130.25333307
  -Hartree energ DENC   =      -408.85993694
  -exchange      EXHF   =         0.00000000
  -V(xc)+E(xc)   XCENC  =      -485.38232168
  PAW double counting   =     22568.24683349   -21627.03328323
  entropy T*S    EENTRO =        -0.00000000
  eigenvalues    EBANDS =       127.28380083
  atomic energy  EATOM  =      5567.47370980
  Solvation  Ediel_sol  =         0.00000000
  ---------------------------------------------------
  free energy    TOTEN  =      -291.77658015 eV

  energy without entropy =     -291.77658015  energy(sigma->0) =     -291.77658015


--------------------------------------------------------------------------------------------------------




----------------------------------------- Iteration    1(  14)  ---------------------------------------


    POTLOK:  cpu time    0.6120: real time    0.6083
    SETDIJ:  cpu time    0.0240: real time    0.0240
     EDDAV:  cpu time   20.0720: real time   20.0687
       DOS:  cpu time    0.0000: real time    0.0004
    CHARGE:  cpu time    0.8200: real time    0.8169
    MIXING:  cpu time    0.0200: real time    0.0204
    --------------------------------------------
      LOOP:  cpu time   21.5480: real time   21.5394

 eigenvalue-minimisations  :  1376
 total energy-change (2. order) :-0.6529117E-06  (-0.5263624E-07)
 number of electron     215.9999983 magnetization 
 augmentation part      -12.7841367 magnetization 

 Broyden mixing:
  rms(total) = 0.17270E-03    rms(broyden)= 0.17270E-03
  rms(prec ) = 0.18453E-03
  weight for this iteration     100.00

 eigenvalues of (default mixing * dielectric matrix)
  average eigenvalue GAMMA=   1.8083
  3.3119  2.6233  2.1673  2.1673  1.4590  1.4590  0.9073  1.0900  1.0900

 Free energy of the ion-electron system (eV)
  ---------------------------------------------------
  alpha Z        PSCENC =        96.74795065
  Ewald energy   TEWEN  =     -6130.25333307
  -Hartree energ DENC   =      -408.86261487
  -exchange      EXHF   =         0.00000000
  -V(xc)+E(xc)   XCENC  =      -485.38309354
  PAW double counting   =     22565.64922286   -21624.43560320
  entropy T*S    EENTRO =        -0.00000000
  eigenvalues    EBANDS =       127.28718056
  atomic energy  EATOM  =      5567.47370980
  Solvation  Ediel_sol  =         0.00000000
  ---------------------------------------------------
  free energy    TOTEN  =      -291.77658081 eV

  energy without entropy =     -291.77658081  energy(sigma->0) =     -291.77658081


--------------------------------------------------------------------------------------------------------




----------------------------------------- Iteration    1(  15)  ---------------------------------------


    POTLOK:  cpu time    0.6040: real time    0.6044
    SETDIJ:  cpu time    0.0240: real time    0.0219
     EDDAV:  cpu time   15.2760: real time   15.2731
       DOS:  cpu time    0.0000: real time    0.0005
    CHARGE:  cpu time    0.8320: real time    0.8319
    MIXING:  cpu time    0.0160: real time    0.0163
    --------------------------------------------
      LOOP:  cpu time   16.7520: real time   16.7488

 eigenvalue-minimisations  :   912
 total energy-change (2. order) : 0.3762343E-06  (-0.1256843E-07)
 number of electron     215.9999983 magnetization 
 augmentation part      -12.7841374 magnetization 

 Broyden mixing:
  rms(total) = 0.77701E-04    rms(broyden)= 0.77701E-04
  rms(prec ) = 0.79320E-04
  weight for this iteration     100.00

 eigenvalues of (default mixing * dielectric matrix)
  average eigenvalue GAMMA=   1.7915
  3.2007  2.6279  2.3749  2.3749  2.0149  1.2047  1.2047  1.0083  0.9522  0.9522

 Free energy of the ion-electron system (eV)
  ---------------------------------------------------
  alpha Z        PSCENC =        96.74795065
  Ewald energy   TEWEN  =     -6130.25333307
  -Hartree energ DENC   =      -408.86187944
  -exchange      EXHF   =         0.00000000
  -V(xc)+E(xc)   XCENC  =      -485.38357995
  PAW double counting   =     22564.15131836   -21622.93735050
  entropy T*S    EENTRO =        -0.00000000
  eigenvalues    EBANDS =       127.28658372
  atomic energy  EATOM  =      5567.47370980
  Solvation  Ediel_sol  =         0.00000000
  ---------------------------------------------------
  free energy    TOTEN  =      -291.77658043 eV

  energy without entropy =     -291.77658043  energy(sigma->0) =     -291.77658043


--------------------------------------------------------------------------------------------------------




----------------------------------------- Iteration    1(  16)  ---------------------------------------


    POTLOK:  cpu time    0.6160: real time    0.6141
    SETDIJ:  cpu time    0.0240: real time    0.0229
     EDDAV:  cpu time   13.5800: real time   13.5768
       DOS:  cpu time    0.0000: real time    0.0004
    --------------------------------------------
      LOOP:  cpu time   14.2200: real time   14.2148

 eigenvalue-minimisations  :   768
 total energy-change (2. order) :-0.8359893E-07  (-0.2497343E-08)
 number of electron     215.9999983 magnetization 
 augmentation part      -12.7841374 magnetization 

 Free energy of the ion-electron system (eV)
  ---------------------------------------------------
  alpha Z        PSCENC =        96.74795065
  Ewald energy   TEWEN  =     -6130.25333307
  -Hartree energ DENC   =      -408.86199379
  -exchange      EXHF   =         0.00000000
  -V(xc)+E(xc)   XCENC  =      -485.38363589
  PAW double counting   =     22564.87019005   -21623.65624410
  entropy T*S    EENTRO =        -0.00000000
  eigenvalues    EBANDS =       127.28677582
  atomic energy  EATOM  =      5567.47370980
  Solvation  Ediel_sol  =         0.00000000
  ---------------------------------------------------
  free energy    TOTEN  =      -291.77658051 eV

  energy without entropy =     -291.77658051  energy(sigma->0) =     -291.77658051


--------------------------------------------------------------------------------------------------------




 average (electrostatic) potential at core
  the test charge radii are     0.9892  1.1631
  (the norm of the test charge is              1.0000)
       1 -83.5412       2 -83.4902       3 -83.4909       4 -83.4902       5 -83.5412
       6 -83.4902       7 -83.4909       8 -83.4927       9 -83.4909      10 -83.4902
      11 -83.4951      12 -83.4902      13 -83.5412      14 -83.4902      15 -83.4951
      16 -83.4963      17 -83.4951      18 -83.4902      19 -83.4909      20 -83.4927
      21 -83.4909      22 -83.4902      23 -83.4951      24 -83.4927      25 -83.4909
      26 -83.4927      27 -83.4939      28 -83.4943      29 -83.4939      30 -83.4902
      31 -83.4951      32 -83.4943      33 -83.4939      34 -83.4943      35 -83.4951
      36 -83.4902      37 -83.5412      38 -83.4902      39 -83.4951      40 -83.4963
      41 -83.4951      42 -83.4902      43 -83.4951      44 -83.4943      45 -83.4939
      46 -83.4943      47 -83.4951      48 -83.4963      49 -83.4951      50 -83.4943
      51 -83.4951      52 -83.4963      53 -83.4955      54 -30.5120



 E-fermi :   5.8532     XC(G=0):  -9.3363     alpha+bet :-11.7179


 k-point     1 :       0.0000    0.0000    0.0000
  band No.  band energies     occupation 
      1      -6.2538      2.00000
      2      -5.1060      2.00000
      3      -4.8736      2.00000
      4      -4.8736      2.00000
      5      -4.8736      2.00000
      6      -4.8698      2.00000
      7      -4.8695      2.00000
      8      -4.8695      2.00000
      9      -4.8695      2.00000
     10      -4.4486      2.00000
     11      -4.3533      2.00000
     12      -4.3533      2.00000
     13      -4.3533      2.00000
     14      -4.3496      2.00000
     15      -4.3496      2.00000
     16      -3.2308      2.00000
     17      -3.0253      2.00000
     18      -3.0253      2.00000
     19      -3.0253      2.00000
     20      -3.0216      2.00000
     21      -3.0216      2.00000
     22      -3.0216      2.00000
     23      -3.0209      2.00000
     24      -3.0209      2.00000
     25      -3.0209      2.00000
     26      -3.0198      2.00000
     27      -3.0198      2.00000
     28      -1.2722      2.00000
     29      -1.1208      2.00000
     30      -1.1208      2.00000
     31      -1.1208      2.00000
     32      -1.1153      2.00000
     33      -1.1153      2.00000
     34      -1.1153      2.00000
     35      -1.1146      2.00000
     36      -1.1146      2.00000
     37      -1.1144      2.00000
     38      -1.1144      2.00000
     39      -1.1144      2.00000
     40       0.2598      2.00000
     41       0.3226      2.00000
     42       0.3226      2.00000
     43       0.3226      2.00000
     44       0.3279      2.00000
     45       0.3308      2.00000
     46       0.3308      2.00000
     47       0.3308      2.00000
     48       0.5549      2.00000
     49       0.6110      2.00000
     50       0.6110      2.00000
     51       0.6116      2.00000
     52       0.6116      2.00000
     53       0.6116      2.00000
     54       1.2741      2.00000
     55       1.2741      2.00000
     56       1.2741      2.00000
     57       1.2832      2.00000
     58       1.2845      2.00000
     59       1.2845      2.00000
     60       1.2845      2.00000
     61       1.2859      2.00000
     62       1.2859      2.00000
     63       1.2859      2.00000
     64       1.2863      2.00000
     65       1.2863      2.00000
     66       3.2277      2.00000
     67       3.2277      2.00000
     68       3.2277      2.00000
     69       3.2294      2.00000
     70       3.2294      2.00000
     71       3.2294      2.00000
     72       3.2325      2.00000
     73       3.2325      2.00000
     74       3.2325      2.00000
     75       3.2385      2.00000
     76       3.2385      2.00000
     77       3.2385      2.00000
     78       3.5268      2.00000
     79       3.5268      2.00000
     80       3.5268      2.00000
     81       3.5304      2.00000
     82       3.5304      2.00000
     83       3.5304      2.00000
     84       3.5308      2.00000
     85       3.5332      2.00000
     86       3.5332      2.00000
     87       3.5358      2.00000
     88       3.5358      2.00000
     89       3.5358      2.00000
     90       4.6146      2.00000
     91       4.6146      2.00000
     92       4.6146      2.00000
     93       4.6185      2.00000
     94       4.6185      2.00000
     95       4.6187      2.00000
     96       4.6187      2.00000
     97       4.6187      2.00000
     98       4.6193      2.00000
     99       4.6193      2.00000
    100       4.6193      2.00000
    101       4.6207      2.00000
    102       4.6207      2.00000
    103       4.6449      2.00000
    104       4.6449      2.00000
    105       4.6449      2.00000
    106       5.6132      2.00000
    107       5.6132      2.00000
    108       5.6132      2.00000
    109       6.3334      0.00000
    110       6.3663      0.00000
    111       6.3663      0.00000
    112       6.3727      0.00000
    113       6.3727      0.00000
    114       6.3727      0.00000
    115       7.0998      0.00000
    116       7.1871      0.00000
    117       7.1871      0.00000
    118       7.1871      0.00000
    119       7.1904      0.00000
    120       7.1904      0.00000
    121       7.1904      0.00000
    122       7.2111      0.00000
    123       7.2111      0.00000
    124       7.2111      0.00000
    125       7.2177      0.00000
    126       7.2177      0.00000
    127       7.2454      0.00000
    128       7.2975      0.00000
    129       7.3006      0.00000
    130       7.3006      0.00000
    131       7.3006      0.00000
    132       7.3227      0.00000
    133       7.3227      0.00000
    134       7.3227      0.00000
    135       7.6082      0.00000
    136       7.6341      0.00000
    137       7.6341      0.00000
    138       7.6341      0.00000
    139       7.6485      0.00000
    140       7.6485      0.00000
    141       8.1698      0.00000
    142       8.1698      0.00000
    143       8.1698      0.00000
    144       8.7258      0.00000

 k-point     2 :       0.3333    0.0000    0.0000
  band No.  band energies     occupation 
      1      -6.0970      2.00000
      2      -5.6310      2.00000
      3      -5.1119      2.00000
      4      -4.9966      2.00000
      5      -4.9966      2.00000
      6      -4.8732      2.00000
      7      -4.8213      2.00000
      8      -4.8213      2.00000
      9      -4.5209      2.00000
     10      -4.4594      2.00000
     11      -4.4594      2.00000
     12      -4.1228      2.00000
     13      -3.8716      2.00000
     14      -3.8005      2.00000
     15      -3.8005      2.00000
     16      -3.6689      2.00000
     17      -3.6256      2.00000
     18      -3.6256      2.00000
     19      -3.1268      2.00000
     20      -3.0166      2.00000
     21      -3.0166      2.00000
     22      -3.0147      2.00000
     23      -3.0137      2.00000
     24      -3.0137      2.00000
     25      -2.8779      2.00000
     26      -2.8487      2.00000
     27      -2.8487      2.00000
     28      -1.3769      2.00000
     29      -1.3054      2.00000
     30      -1.3054      2.00000
     31      -1.2249      2.00000
     32      -1.1692      2.00000
     33      -1.1692      2.00000
     34      -1.1658      2.00000
     35      -1.1653      2.00000
     36      -1.1653      2.00000
     37      -1.0484      2.00000
     38      -0.5691      2.00000
     39      -0.5347      2.00000
     40      -0.5347      2.00000
     41      -0.4521      2.00000
     42      -0.4241      2.00000
     43      -0.4241      2.00000
     44      -0.1729      2.00000
     45      -0.1565      2.00000
     46      -0.1565      2.00000
     47       0.9150      2.00000
     48       0.9404      2.00000
     49       0.9404      2.00000
     50       1.2370      2.00000
     51       1.2674      2.00000
     52       1.2674      2.00000
     53       1.5473      2.00000
     54       1.5473      2.00000
     55       1.5484      2.00000
     56       1.5534      2.00000
     57       1.5534      2.00000
     58       1.5543      2.00000
     59       1.6355      2.00000
     60       1.6392      2.00000
     61       1.6392      2.00000
     62       1.9232      2.00000
     63       1.9302      2.00000
     64       1.9302      2.00000
     65       2.2069      2.00000
     66       2.5211      2.00000
     67       2.5231      2.00000
     68       2.5231      2.00000
     69       3.0712      2.00000
     70       3.0712      2.00000
     71       3.0720      2.00000
     72       3.0733      2.00000
     73       3.0737      2.00000
     74       3.0737      2.00000
     75       3.0753      2.00000
     76       3.0775      2.00000
     77       3.0775      2.00000
     78       3.1801      2.00000
     79       3.1823      2.00000
     80       3.1823      2.00000
     81       3.3456      2.00000
     82       3.3461      2.00000
     83       3.3461      2.00000
     84       3.3894      2.00000
     85       3.3894      2.00000
     86       3.3912      2.00000
     87       3.6247      2.00000
     88       3.6296      2.00000
     89       3.6296      2.00000
     90       4.0524      2.00000
     91       4.0584      2.00000
     92       4.0584      2.00000
     93       4.1031      2.00000
     94       4.1031      2.00000
     95       4.1047      2.00000
     96       4.1723      2.00000
     97       4.1800      2.00000
     98       4.1800      2.00000
     99       4.2647      2.00000
    100       4.4478      2.00000
    101       4.4478      2.00000
    102       4.5497      2.00000
    103       4.5586      2.00000
    104       4.5586      2.00000
    105       4.9591      2.00000
    106       4.9591      2.00000
    107       5.3791      2.00000
    108       5.3791      2.00000
    109       6.5973      0.00000
    110       6.6131      0.00000
    111       6.6131      0.00000
    112       6.7922      0.00000
    113       6.8118      0.00000
    114       6.8118      0.00000
    115       7.0724      0.00000
    116       7.0913      0.00000
    117       7.0913      0.00000
    118       7.0993      0.00000
    119       7.6429      0.00000
    120       7.6776      0.00000
    121       7.6776      0.00000
    122       7.6780      0.00000
    123       7.7753      0.00000
    124       7.7998      0.00000
    125       7.7998      0.00000
    126       7.8895      0.00000
    127       7.9148      0.00000
    128       7.9148      0.00000
    129       7.9323      0.00000
    130       7.9664      0.00000
    131       7.9664      0.00000
    132       8.0879      0.00000
    133       8.1238      0.00000
    134       8.1238      0.00000
    135       8.1260      0.00000
    136       8.1433      0.00000
    137       8.1526      0.00000
    138       8.1526      0.00000
    139       8.5136      0.00000
    140       8.5136      0.00000
    141       8.7729      0.00000
    142       8.7915      0.00000
    143       8.7915      0.00000
    144       9.0010      0.00000

 k-point     3 :       0.3333    0.3333    0.0000
  band No.  band energies     occupation 
      1      -6.0443      2.00000
      2      -5.4438      2.00000
      3      -5.3197      2.00000
      4      -5.2431      2.00000
      5      -5.2431      2.00000
      6      -5.2409      2.00000
      7      -4.3795      2.00000
      8      -4.1875      2.00000
      9      -4.1875      2.00000
     10      -4.1864      2.00000
     11      -4.1825      2.00000
     12      -4.1821      2.00000
     13      -4.1821      2.00000
     14      -4.1792      2.00000
     15      -3.7730      2.00000
     16      -3.7017      2.00000
     17      -3.7017      2.00000
     18      -3.6991      2.00000
     19      -3.4556      2.00000
     20      -3.3982      2.00000
     21      -3.3982      2.00000
     22      -3.3982      2.00000
     23      -2.9765      2.00000
     24      -2.4066      2.00000
     25      -2.3403      2.00000
     26      -2.3403      2.00000
     27      -2.3380      2.00000
     28      -1.8019      2.00000
     29      -1.7463      2.00000
     30      -1.7463      2.00000
     31      -1.7432      2.00000
     32      -1.2912      2.00000
     33      -1.1341      2.00000
     34      -1.1002      2.00000
     35      -1.0993      2.00000
     36      -1.0993      2.00000
     37      -0.6563      2.00000
     38      -0.6245      2.00000
     39      -0.6245      2.00000
     40      -0.6230      2.00000
     41      -0.4202      2.00000
     42      -0.3811      2.00000
     43      -0.3811      2.00000
     44      -0.3802      2.00000
     45       0.2705      2.00000
     46       0.3135      2.00000
     47       0.3140      2.00000
     48       0.3140      2.00000
     49       1.5152      2.00000
     50       1.5436      2.00000
     51       1.5477      2.00000
     52       1.5477      2.00000
     53       1.5954      2.00000
     54       1.5954      2.00000
     55       1.5957      2.00000
     56       1.5988      2.00000
     57       1.6939      2.00000
     58       1.6980      2.00000
     59       1.6980      2.00000
     60       1.7006      2.00000
     61       2.0956      2.00000
     62       2.1035      2.00000
     63       2.1035      2.00000
     64       2.1062      2.00000
     65       2.5673      2.00000
     66       2.5796      2.00000
     67       2.5836      2.00000
     68       2.5850      2.00000
     69       2.5850      2.00000
     70       2.5947      2.00000
     71       2.5947      2.00000
     72       2.5947      2.00000
     73       2.5962      2.00000
     74       2.8509      2.00000
     75       2.8509      2.00000
     76       3.2596      2.00000
     77       3.2596      2.00000
     78       3.2626      2.00000
     79       3.2657      2.00000
     80       3.4993      2.00000
     81       3.4993      2.00000
     82       3.5023      2.00000
     83       3.5034      2.00000
     84       3.6201      2.00000
     85       3.6231      2.00000
     86       3.6231      2.00000
     87       3.6279      2.00000
     88       3.6681      2.00000
     89       3.6726      2.00000
     90       3.6726      2.00000
     91       3.6773      2.00000
     92       3.6797      2.00000
     93       3.6822      2.00000
     94       3.6844      2.00000
     95       3.6844      2.00000
     96       3.9664      2.00000
     97       3.9664      2.00000
     98       4.0900      2.00000
     99       4.0926      2.00000
    100       4.0971      2.00000
    101       4.0971      2.00000
    102       4.4753      2.00000
    103       4.9464      2.00000
    104       4.9464      2.00000
    105       4.9922      2.00000
    106       4.9946      2.00000
    107       5.0068      2.00000
    108       5.0068      2.00000
    109       6.2299      0.00000
    110       6.6313      0.00000
    111       6.9325      0.00000
    112       7.3955      0.00000
    113       7.4117      0.00000
    114       7.4117      0.00000
    115       7.4362      0.00000
    116       7.4414      0.00000
    117       7.4434      0.00000
    118       7.4508      0.00000
    119       7.4508      0.00000
    120       7.6278      0.00000
    121       7.6498      0.00000
    122       7.6499      0.00000
    123       7.6499      0.00000
    124       7.7199      0.00000
    125       7.7563      0.00000
    126       7.7777      0.00000
    127       7.7777      0.00000
    128       7.7980      0.00000
    129       8.2400      0.00000
    130       8.2737      0.00000
    131       8.2737      0.00000
    132       8.2923      0.00000
    133       8.4439      0.00000
    134       8.4528      0.00000
    135       8.4528      0.00000
    136       8.4629      0.00000
    137       8.6233      0.00000
    138       8.6372      0.00000
    139       8.6388      0.00000
    140       8.6388      0.00000
    141       8.9909      0.00000
    142       8.9966      0.00000
    143       8.9992      0.00000
    144       9.0757      0.00000

 k-point     4 :      -0.3333    0.3333    0.0000
  band No.  band energies     occupation 
      1      -5.8478      2.00000
      2      -5.6954      2.00000
      3      -5.6447      2.00000
      4      -5.2366      2.00000
      5      -5.1841      2.00000
      6      -4.6589      2.00000
      7      -4.5418      2.00000
      8      -4.4639      2.00000
      9      -4.4618      2.00000
     10      -4.4599      2.00000
     11      -4.0891      2.00000
     12      -4.0388      2.00000
     13      -3.8738      2.00000
     14      -3.8187      2.00000
     15      -3.7386      2.00000
     16      -3.6845      2.00000
     17      -3.6836      2.00000
     18      -3.6820      2.00000
     19      -3.4253      2.00000
     20      -3.3723      2.00000
     21      -3.3702      2.00000
     22      -3.3688      2.00000
     23      -2.8813      2.00000
     24      -2.8484      2.00000
     25      -2.6094      2.00000
     26      -2.5807      2.00000
     27      -2.2199      2.00000
     28      -2.0488      2.00000
     29      -1.4783      2.00000
     30      -1.4372      2.00000
     31      -1.3217      2.00000
[...]
    117       7.7094      0.00000
    118       7.7206      0.00000
    119       7.7537      0.00000
    120       7.7793      0.00000
    121       7.8070      0.00000
    122       7.8115      0.00000
    123       7.8166      0.00000
    124       7.8211      0.00000
    125       7.9463      0.00000
    126       7.9605      0.00000
    127       8.2505      0.00000
    128       8.3116      0.00000
    129       8.3171      0.00000
    130       8.3222      0.00000
    131       8.3395      0.00000
    132       8.3921      0.00000
    133       8.3981      0.00000
    134       8.4025      0.00000
    135       8.4298      0.00000
    136       8.5086      0.00000
    137       8.5684      0.00000
    138       8.7498      0.00000
    139       8.7650      0.00000
    140       8.7731      0.00000
    141       8.7834      0.00000
    142       8.8001      0.00000
    143       8.9782      0.00000
    144       9.0041      0.00000


--------------------------------------------------------------------------------------------------------


 soft charge-density along one line, spin component           1
         0         1         2         3         4         5         6         7         8         9
 total charge-density along one line

 pseudopotential strength for first ion, spin component:           1
 18.445   0.000  25.734   0.000  -0.001   0.000  -0.001   0.000  -0.001   0.000  -0.001   0.000  -0.001   0.000  -0.001   0.000
 25.734   0.000  35.908   0.000  -0.001   0.000  -0.001   0.000  -0.001   0.000  -0.002   0.000  -0.002   0.000  -0.002   0.000
 -0.001   0.000  -0.001   0.000   4.182   0.000   0.000   0.000   0.000   0.000   7.793   0.000   0.000   0.000   0.000   0.000
 -0.001   0.000  -0.001   0.000   0.000   0.000   4.182   0.000   0.000   0.000   0.000   0.000   7.793   0.000   0.000   0.000
 -0.001   0.000  -0.001   0.000   0.000   0.000   0.000   0.000   4.182   0.000   0.000   0.000   0.000   0.000   7.793   0.000
 -0.001   0.000  -0.002   0.000   7.793   0.000   0.000   0.000   0.000   0.000  14.532   0.000   0.001   0.000   0.001   0.000
 -0.001   0.000  -0.002   0.000   0.000   0.000   7.793   0.000   0.000   0.000   0.001   0.000  14.532   0.000   0.001   0.000
 -0.001   0.000  -0.002   0.000   0.000   0.000   0.000   0.000   7.793   0.000   0.001   0.000   0.001   0.000  14.532   0.000
 total augmentation occupancy for first ion, spin component:           1
  5.452  -2.024   0.054   0.054   0.054  -0.017  -0.017  -0.017
 -2.024   0.872  -0.026  -0.026  -0.026   0.007   0.007   0.007
  0.054  -0.026   2.893  -0.064  -0.064  -0.647   0.018   0.018
  0.054  -0.026  -0.064   2.893  -0.064   0.018  -0.647   0.018
  0.054  -0.026  -0.064  -0.064   2.893   0.018   0.018  -0.647
 -0.017   0.007  -0.647   0.018   0.018   0.154  -0.005  -0.005
 -0.017   0.007   0.018  -0.647   0.018  -0.005   0.154  -0.005
 -0.017   0.007   0.018   0.018  -0.647  -0.005  -0.005   0.154


------------------------ aborting loop because EDIFF is reached ----------------------------------------


    CHARGE:  cpu time    0.5120: real time    0.5110
    FORLOC:  cpu time    0.1480: real time    0.1458
    FORNL :  cpu time    5.7560: real time    5.7534
    STRESS:  cpu time   12.5520: real time   12.5476
    FORCOR:  cpu time    0.4680: real time    0.4714
    FORHAR:  cpu time    0.2320: real time    0.2297
    MIXING:  cpu time    0.0120: real time    0.0113
    OFIELD:  cpu time    0.0000: real time    0.0000

  FORCE on cell =-STRESS in cart. coord.  units (eV):
  Direction    XX          YY          ZZ          XY          YZ          ZX
  --------------------------------------------------------------------------------------
  Alpha Z    96.40045    96.40045    96.40045
  Ewald   -2040.88458 -2040.88458 -2040.88458     0.00000     0.00000     0.00000
  Hartree   136.77471   136.77471   136.77471     0.00000     0.00000     0.00000
  E(xc)    -682.93319  -682.93319  -682.93319    -0.00001    -0.00001    -0.00001
  Local    -795.45325  -795.45325  -795.45325     0.00032     0.00032     0.00032
  n-local  2079.82898  2079.82898  2059.19511     9.78500    -4.28638     4.28641
  augment  -307.49202  -307.49202  -307.49202    -0.00027    -0.00027    -0.00027
  Kinetic  1530.45227  1530.45227  1500.97983    16.37331    -6.69252     6.69253
  Fock        0.00000     0.00000     0.00000     0.00000     0.00000     0.00000
  -------------------------------------------------------------------------------------
  Total      -0.00873    -0.00873    -0.00873    -0.00000     0.00000    -0.00000
  in kB      -0.01264    -0.01264    -0.01264    -0.00000     0.00000    -0.00000
  external pressure =       -0.01 kB  Pullay stress =        0.00 kB


 VOLUME and BASIS-vectors are now :
 -----------------------------------------------------------------------------
  energy-cutoff  :      350.00
  volume of cell :     1106.48
      direct lattice vectors                 reciprocal lattice vectors
     0.000000000  8.209265921  8.209265921    -0.060906786  0.060906786  0.060906786
     8.209265921  0.000000000  8.209265921     0.060906786 -0.060906786  0.060906786
     8.209265921  8.209265921  0.000000000     0.060906786  0.060906786 -0.060906786

  length of vectors
    11.609655203 11.609655203 11.609655203     0.105493647  0.105493647  0.105493647


 FORCES acting on ions
    electron-ion (+dipol)            ewald-force                    non-local-force                 convergence-correction
 -----------------------------------------------------------------------------------------------
   0.200E+01 0.200E+01 0.200E+01   -.170E+01 -.170E+01 -.170E+01   -.306E+00 -.306E+00 -.306E+00   0.101E-05 0.101E-05 0.101E-05
   0.637E+00 0.637E+00 0.114E+01   -.652E+00 -.652E+00 -.926E+00   0.152E-01 0.152E-01 -.212E+00   -.274E-07 -.274E-07 0.228E-07
   -.192E-06 -.192E-06 -.150E+00   0.392E-12 0.381E-12 -.943E-02   -.104E-16 0.000E+00 0.160E+00   0.931E-10 0.931E-10 0.105E-06
   -.637E+00 -.637E+00 0.114E+01   0.652E+00 0.652E+00 -.926E+00   -.152E-01 -.152E-01 -.212E+00   0.272E-07 0.272E-07 0.229E-07
   -.200E+01 -.200E+01 0.200E+01   0.170E+01 0.170E+01 -.170E+01   0.306E+00 0.306E+00 -.306E+00   -.101E-05 -.101E-05 0.101E-05
   0.637E+00 0.114E+01 0.637E+00   -.652E+00 -.926E+00 -.652E+00   0.152E-01 -.212E+00 0.152E-01   -.274E-07 0.228E-07 -.274E-07
   -.192E-06 -.150E+00 -.192E-06   0.400E-12 -.943E-02 0.399E-12   -.694E-17 0.160E+00 0.432E-17   0.931E-10 0.105E-06 0.931E-10
   -.128E+00 0.128E+00 0.128E+00   0.128E+00 -.128E+00 -.128E+00   0.360E-03 -.360E-03 -.360E-03   0.620E-06 -.620E-06 -.620E-06
   0.150E+00 -.230E-06 -.230E-06   0.943E-02 -.153E-11 -.153E-11   -.160E+00 0.000E+00 0.258E-17   -.105E-06 -.401E-11 -.401E-11
   -.114E+01 -.637E+00 0.637E+00   0.926E+00 0.652E+00 -.652E+00   0.212E+00 -.152E-01 0.152E-01   -.229E-07 0.273E-07 -.273E-07
   0.105E+00 -.105E+00 0.618E+00   -.102E+00 0.102E+00 -.585E+00   -.274E-02 0.274E-02 -.321E-01   -.360E-06 0.360E-06 0.630E-06
   -.637E+00 0.114E+01 -.637E+00   0.652E+00 -.926E+00 0.652E+00   -.152E-01 -.212E+00 -.152E-01   0.272E-07 0.229E-07 0.272E-07
   -.200E+01 0.200E+01 -.200E+01   0.170E+01 -.170E+01 0.170E+01   0.306E+00 -.306E+00 0.306E+00   -.101E-05 0.101E-05 -.101E-05
   -.114E+01 0.637E+00 -.637E+00   0.926E+00 -.652E+00 0.652E+00   0.212E+00 0.152E-01 -.152E-01   -.229E-07 -.273E-07 0.273E-07
   0.105E+00 0.618E+00 -.105E+00   -.102E+00 -.585E+00 0.102E+00   -.274E-02 -.321E-01 0.274E-02   -.360E-06 0.630E-06 0.360E-06
   -.579E-01 0.579E-01 0.579E-01   0.617E-01 -.617E-01 -.617E-01   -.382E-02 0.382E-02 0.382E-02   0.145E-07 -.147E-07 -.147E-07
   -.618E+00 -.105E+00 -.105E+00   0.585E+00 0.102E+00 0.102E+00   0.321E-01 0.274E-02 0.274E-02   -.630E-06 0.360E-06 0.360E-06
   0.114E+01 0.637E+00 0.637E+00   -.926E+00 -.652E+00 -.652E+00   -.212E+00 0.152E-01 0.152E-01   0.228E-07 -.274E-07 -.274E-07
   -.150E+00 -.192E-06 -.192E-06   -.943E-02 0.389E-12 0.392E-12   0.160E+00 -.347E-17 -.739E-17   0.105E-06 0.928E-10 0.928E-10
   0.128E+00 -.128E+00 0.128E+00   -.128E+00 0.128E+00 -.128E+00   -.360E-03 0.360E-03 -.360E-03   -.620E-06 0.620E-06 -.620E-06
   -.230E-06 0.150E+00 -.230E-06   -.156E-11 0.943E-02 -.152E-11   0.000E+00 -.160E+00 -.479E-17   -.376E-11 -.105E-06 -.418E-11
   -.637E+00 -.114E+01 0.637E+00   0.652E+00 0.926E+00 -.652E+00   -.152E-01 0.212E+00 0.152E-01   0.273E-07 -.229E-07 -.273E-07
   -.105E+00 0.105E+00 0.618E+00   0.102E+00 -.102E+00 -.585E+00   0.274E-02 -.274E-02 -.321E-01   0.360E-06 -.360E-06 0.630E-06
   0.128E+00 0.128E+00 -.128E+00   -.128E+00 -.128E+00 0.128E+00   -.360E-03 -.360E-03 0.360E-03   -.620E-06 -.620E-06 0.620E-06
   -.230E-06 -.230E-06 0.150E+00   -.156E-11 -.153E-11 0.943E-02   0.347E-17 -.347E-17 -.160E+00   -.376E-11 -.417E-11 -.105E-06
   -.128E+00 -.128E+00 -.128E+00   0.128E+00 0.128E+00 0.128E+00   0.360E-03 0.360E-03 0.360E-03   0.620E-06 0.620E-06 0.620E-06
   -.581E-01 -.581E-01 -.581E-01   0.568E-01 0.568E-01 0.568E-01   0.158E-02 0.158E-02 0.158E-02   0.600E-06 0.600E-06 0.600E-06
   0.210E-06 0.210E-06 0.188E+00   0.869E-12 0.882E-12 -.187E+00   0.104E-16 0.173E-16 -.754E-03   -.378E-10 -.379E-10 0.172E-05
   0.581E-01 0.581E-01 -.581E-01   -.568E-01 -.568E-01 0.568E-01   -.158E-02 -.158E-02 0.158E-02   -.600E-06 -.600E-06 0.600E-06
   -.637E+00 0.637E+00 -.114E+01   0.652E+00 -.652E+00 0.926E+00   -.152E-01 0.152E-01 0.212E+00   0.273E-07 -.273E-07 -.229E-07
   -.105E+00 0.618E+00 0.105E+00   0.102E+00 -.585E+00 -.102E+00   0.274E-02 -.321E-01 -.274E-02   0.360E-06 0.630E-06 -.360E-06
   0.210E-06 0.188E+00 0.210E-06   0.866E-12 -.187E+00 0.868E-12   0.173E-16 -.754E-03 0.198E-16   -.378E-10 0.172E-05 -.379E-10
   0.581E-01 -.581E-01 0.581E-01   -.568E-01 0.568E-01 -.568E-01   -.158E-02 0.158E-02 -.158E-02   -.600E-06 0.600E-06 -.600E-06
   -.188E+00 0.213E-06 0.213E-06   0.187E+00 -.207E-11 -.207E-11   0.754E-03 0.000E+00 0.913E-17   -.172E-05 0.331E-11 0.331E-11
   -.618E+00 0.105E+00 0.105E+00   0.585E+00 -.102E+00 -.102E+00   0.321E-01 -.274E-02 -.274E-02   -.630E-06 -.360E-06 -.360E-06
   0.114E+01 -.637E+00 -.637E+00   -.926E+00 0.652E+00 0.652E+00   -.212E+00 -.152E-01 -.152E-01   0.229E-07 0.272E-07 0.272E-07
   0.200E+01 -.200E+01 -.200E+01   -.170E+01 0.170E+01 0.170E+01   -.306E+00 0.306E+00 0.306E+00   0.101E-05 -.101E-05 -.101E-05
   0.637E+00 -.114E+01 -.637E+00   -.652E+00 0.926E+00 0.652E+00   0.152E-01 0.212E+00 -.152E-01   -.273E-07 -.229E-07 0.273E-07
   0.618E+00 0.105E+00 -.105E+00   -.585E+00 -.102E+00 0.102E+00   -.321E-01 -.274E-02 0.274E-02   0.630E-06 -.360E-06 0.360E-06
   0.579E-01 -.579E-01 0.579E-01   -.617E-01 0.617E-01 -.617E-01   0.382E-02 -.382E-02 0.382E-02   -.147E-07 0.145E-07 -.147E-07
   -.105E+00 -.618E+00 -.105E+00   0.102E+00 0.585E+00 0.102E+00   0.274E-02 0.321E-01 0.274E-02   0.360E-06 -.630E-06 0.360E-06
   0.637E+00 -.637E+00 -.114E+01   -.652E+00 0.652E+00 0.926E+00   0.152E-01 -.152E-01 0.212E+00   -.273E-07 0.273E-07 -.229E-07
   0.618E+00 -.105E+00 0.105E+00   -.585E+00 0.102E+00 -.102E+00   -.321E-01 0.274E-02 -.274E-02   0.630E-06 0.360E-06 -.360E-06
   0.188E+00 0.210E-06 0.210E-06   -.187E+00 0.873E-12 0.882E-12   -.754E-03 0.694E-17 0.154E-16   0.172E-05 -.379E-10 -.379E-10
   -.581E-01 0.581E-01 0.581E-01   0.568E-01 -.568E-01 -.568E-01   0.158E-02 -.158E-02 -.158E-02   0.600E-06 -.600E-06 -.600E-06
   0.213E-06 -.188E+00 0.213E-06   -.211E-11 0.187E+00 -.205E-11   0.173E-16 0.754E-03 0.128E-16   0.331E-11 -.172E-05 0.350E-11
   0.105E+00 -.618E+00 0.105E+00   -.102E+00 0.585E+00 -.102E+00   -.274E-02 0.321E-01 -.274E-02   -.360E-06 -.630E-06 -.360E-06
   0.579E-01 0.579E-01 -.579E-01   -.617E-01 -.617E-01 0.617E-01   0.382E-02 0.382E-02 -.382E-02   -.147E-07 -.147E-07 0.145E-07
   -.105E+00 -.105E+00 -.618E+00   0.102E+00 0.102E+00 0.585E+00   0.274E-02 0.274E-02 0.321E-01   0.360E-06 0.360E-06 -.630E-06
   0.213E-06 0.213E-06 -.188E+00   -.209E-11 -.207E-11 0.187E+00   -.104E-16 0.694E-17 0.754E-03   0.331E-11 0.350E-11 -.172E-05
   0.105E+00 0.105E+00 -.618E+00   -.102E+00 -.102E+00 0.585E+00   -.274E-02 -.274E-02 0.321E-01   -.360E-06 -.360E-06 -.630E-06
   -.579E-01 -.579E-01 -.579E-01   0.617E-01 0.617E-01 0.617E-01   -.382E-02 -.382E-02 -.382E-02   0.147E-07 0.147E-07 0.147E-07
   -.212E-06 -.212E-06 -.212E-06   0.650E-12 0.671E-12 0.651E-12   -.139E-16 -.173E-16 -.111E-16   0.421E-10 0.421E-10 0.421E-10
   -.192E-06 -.192E-06 -.192E-06   0.593E-12 0.574E-12 0.583E-12   0.191E-16 0.139E-16 0.188E-16   -.781E-11 -.751E-11 -.751E-11
 -----------------------------------------------------------------------------------------------
   -.605E-07 -.605E-07 -.605E-07   0.188E-13 0.546E-13 -.408E-13   0.297E-15 0.173E-16 0.747E-18   0.153E-09 0.153E-09 0.153E-09


 POSITION                                       TOTAL-FORCE (eV/Angst)
 -----------------------------------------------------------------------------------
      1.39250      1.39250      1.39250         0.000531      0.000531      0.000531
      2.74124      2.74124      0.00013         0.000507      0.000507      0.000075
      4.10463      4.10463      1.36803         0.000000     -0.000000      0.000639
      5.46802      5.46802      0.00013        -0.000507     -0.000507      0.000075
      6.81677      6.81677      1.39250        -0.000531     -0.000531      0.000531
      2.74124      0.00013      2.74124         0.000507      0.000075      0.000507
      4.10463      1.36803      4.10463         0.000000      0.000639      0.000000
      5.47282      2.73645      2.73645         0.000251     -0.000251     -0.000251
      6.84124      4.10463      4.10463        -0.000639     -0.000000      0.000000
      8.20914      5.46802      2.74124        -0.000075     -0.000507      0.000507
      9.57690      6.84163      4.10489         0.000031     -0.000031      0.000253
      5.46802      0.00013      5.46802        -0.000507      0.000075     -0.000507
      6.81677      1.39250      6.81677        -0.000531      0.000531     -0.000531
      8.20914      2.74124      5.46802        -0.000075      0.000507     -0.000507
      9.57690      4.10489      6.84163         0.000031      0.000253     -0.000031
     10.94561      5.47293      5.47293        -0.000033      0.000033      0.000033
     12.31365      6.84163      6.84163        -0.000253     -0.000031     -0.000031
      0.00013      2.74124      2.74124         0.000075      0.000507      0.000507
      1.36803      4.10463      4.10463         0.000639     -0.000000      0.000000
      2.73645      5.47282      2.73645        -0.000251      0.000251     -0.000251
      4.10463      6.84124      4.10463         0.000000     -0.000639      0.000000
      5.46802      8.20914      2.74124        -0.000507     -0.000075      0.000507
      6.84163      9.57690      4.10489        -0.000031      0.000031      0.000253
      2.73645      2.73645      5.47282        -0.000251     -0.000251      0.000251
      4.10463      4.10463      6.84124         0.000000     -0.000000     -0.000639
      5.47282      5.47282      5.47282         0.000251      0.000251      0.000251
      6.84088      6.84088      6.84088         0.000222      0.000222      0.000222
      8.20927      8.20927      5.47348         0.000000     -0.000000      0.000126
      9.57765      9.57765      6.84088        -0.000222     -0.000222      0.000222
      5.46802      2.74124      8.20914        -0.000507      0.000507     -0.000075
      6.84163      4.10489      9.57690        -0.000031      0.000253      0.000031
      8.20927      5.47348      8.20927         0.000000      0.000126     -0.000000
      9.57765      6.84088      9.57765        -0.000222      0.000222     -0.000222
     10.94505      8.20927      8.20927        -0.000126     -0.000000     -0.000000
     12.31365      9.57690      9.57690        -0.000253      0.000031      0.000031
      0.00013      5.46802      5.46802         0.000075     -0.000507     -0.000507
      1.39250      6.81677      6.81677         0.000531     -0.000531     -0.000531
      2.74124      8.20914      5.46802         0.000507     -0.000075     -0.000507
      4.10489      9.57690      6.84163         0.000253      0.000031     -0.000031
      5.47293     10.94561      5.47293         0.000033     -0.000033      0.000033
      6.84163     12.31365      6.84163        -0.000031     -0.000253     -0.000031
      2.74124      5.46802      8.20914         0.000507     -0.000507     -0.000075
      4.10489      6.84163      9.57690         0.000253     -0.000031      0.000031
      5.47348      8.20927      8.20927         0.000126     -0.000000     -0.000000
      6.84088      9.57765      9.57765         0.000222     -0.000222     -0.000222
      8.20927     10.94505      8.20927         0.000000     -0.000126     -0.000000
      9.57690     12.31365      9.57690         0.000031     -0.000253      0.000031
      5.47293      5.47293     10.94561         0.000033      0.000033     -0.000033
      6.84163      6.84163     12.31365        -0.000031     -0.000031     -0.000253
      8.20927      8.20927     10.94505         0.000000     -0.000000     -0.000126
      9.57690      9.57690     12.31365         0.000031      0.000031     -0.000253
     10.94561     10.94561     10.94561        -0.000033     -0.000033     -0.000033
     12.31390     12.31390     12.31390         0.000000     -0.000000     -0.000000
     -0.00000     -0.00000     -0.00000         0.000000     -0.000000     -0.000000
 -----------------------------------------------------------------------------------
    total drift:                               -0.000000     -0.000000     -0.000000


--------------------------------------------------------------------------------------------------------



  FREE ENERGIE OF THE ION-ELECTRON SYSTEM (eV)
  ---------------------------------------------------
  free  energy   TOTEN  =      -291.82611424 eV

  energy  without entropy=     -291.82611424  energy(sigma->0) =     -291.82611424

 d Force = 0.1941059E-05[ 0.138E-05, 0.250E-05]  d Energy = 0.1323988E-05 0.617E-06
 d Force =-0.2145708E-02[-0.215E-02,-0.214E-02]  d Ewald  =-0.7012921E-01 0.680E-01


--------------------------------------------------------------------------------------------------------


    POTLOK:  cpu time    0.3680: real time    0.3687


--------------------------------------------------------------------------------------------------------


 Quasi-Newton relaxation of ions (Broydens 2nd method)
  g(Force)  = 0.691E-06   g(Stress)= 0.204E-06

 retain information from N=  1 steps
 eigenvalues of (default step * inverse Hessian matrix)
  average eigenvalue of G=   0.6116
 eigenvalue spectrum of G is  0.6116


--------------------------------------------------------------------------------------------------------


 writing wavefunctions
     LOOP+:  cpu time   82.0320: real time   82.0022
    4ORBIT:  cpu time    0.0000: real time    0.0000

 total amount of memory used by VASP on root node   113402. kBytes
========================================================================

   base      :      30000. kBytes
   nonl-proj :      27841. kBytes
   fftplans  :      15551. kBytes
   grid      :      29859. kBytes
   one-center:        438. kBytes
   wavefun   :       9713. kBytes

  
  
 General timing and accounting informations for this job:
 ========================================================
  
                  Total CPU time used (sec):     1610.272
                            User time (sec):     1559.676
                          System time (sec):       50.596
                         Elapsed time (sec):     1610.138
  
                   Maximum memory used (kb):      143908.
                   Average memory used (kb):           0.
  
                          Minor page faults:     18636196
                          Major page faults:            6
                 Voluntary context switches:          706
