       N       E                     dE             d eps       ncg     rms          rms(c)
DAV:   1     0.481368199993E+03    0.48137E+03   -0.65125E+04  4032   0.906E+02
DAV:   2    -0.235281027748E+03   -0.71665E+03   -0.68329E+03  4928   0.157E+02
DAV:   3    -0.280919917878E+03   -0.45639E+02   -0.45099E+02  5088   0.375E+01
DAV:   4    -0.281747563748E+03   -0.82765E+00   -0.82367E+00  5104   0.615E+00
DAV:   5    -0.281764911600E+03   -0.17348E-01   -0.17333E-01  4976   0.875E-01    0.234E+01
DAV:   6    -0.278653742882E+03    0.31112E+01   -0.17547E+00  4688   0.234E+00    0.143E+01
DAV:   7    -0.277286706082E+03    0.13670E+01   -0.37066E+00  4656   0.345E+00    0.947E-01
DAV:   8    -0.277305870777E+03   -0.19165E-01   -0.24871E-01  4720   0.108E+00    0.480E-01
DAV:   9    -0.277312524588E+03   -0.66538E-02   -0.20680E-02  5024   0.304E-01    0.311E-01
DAV:  10    -0.277313702092E+03   -0.11775E-02   -0.21750E-03  4560   0.900E-02    0.177E-01
DAV:  11    -0.277314620118E+03   -0.91803E-03   -0.93642E-04  4480   0.675E-02    0.703E-02
DAV:  12    -0.277314673722E+03   -0.53603E-04   -0.84088E-05  5040   0.193E-02    0.307E-02
DAV:  13    -0.277314686691E+03   -0.12969E-04   -0.22760E-05  4640   0.106E-02    0.887E-03
DAV:  14    -0.277314684546E+03    0.21452E-05   -0.28471E-06  4976   0.411E-03    0.469E-03
DAV:  15    -0.277314686281E+03   -0.17356E-05   -0.16041E-06  4816   0.281E-03    0.171E-03
DAV:  16    -0.277314686356E+03   -0.74784E-07   -0.15744E-07  2992   0.980E-04
   1 F= -.27731469E+03 E0= -.27731469E+03  d E =-.750627E-10
