
     Program PWSCF v.5.1 starts on 28Dec2017 at 16:14:35 

     This program is part of the open-source Quantum ESPRESSO suite
     for quantum simulation of materials; please cite
         "P. Giannozzi et al., J. Phys.:Condens. Matter 21 395502 (2009);
          URL http://www.quantum-espresso.org", 
     in publications or presentations arising from this work. More details at
     http://www.quantum-espresso.org/quote

     Parallel version (MPI), running on     4 processors
     R & G space division:  proc/nbgrp/npool/nimage =       4
     Reading input from /tmp/MgO_rocksalt.relax.in.up_1.00.x.5149/MgO_rocksalt.relax.in.up_1.00.x.t
Warning: card &IONS ignored
Warning: card   ION_DYNAMICS='BFGS', ignored
Warning: card / ignored
Warning: card &CELL ignored
Warning: card  CELL_DYNAMICS = 'BFGS' ignored
Warning: card / ignored
     Message from routine read_cards :
     DEPRECATED: no units specified in CELL_PARAMETERS card

     Current dimensions of program PWSCF are:
     Max number of different atomic species (ntypx) = 10
     Max number of k-points (npk) =  40000
     Max angular momentum in pseudopotentials (lmaxx) =  3
 kfg - two_fermi_energies  F

     Subspace diagonalization in iterative solution of the eigenvalue problem:
     a serial algorithm will be used


     Parallelization info
     --------------------
     sticks:   dense  smooth     PW     G-vecs:    dense   smooth      PW
     Min         108      87     30                 1495     1069     216
     Max         109      88     31                 1498     1076     218
     Sum         433     349    121                 5985     4285     869



     bravais-lattice index     =            0
     lattice parameter (alat)  =     5.637573084  a.u.
     unit-cell volume          =     126.6956 (a.u.)^3
     number of atoms/cell      =            2
     number of atomic types    =            2
     number of electrons       =        16.00
     number of Kohn-Sham states=           12
     kinetic-energy cutoff     =      40.0000  Ry
     charge density cutoff     =     200.0000  Ry
     convergence threshold     =      1.0E-10
     mixing beta               =       0.3000
     number of iterations used =            8  local-TF  mixing
     Exchange-correlation      = SLA  PW   PSX  PSC ( 1  4 10  8 0)
     A smooth kinetic-energy cutoff is imposed at      39.5000 Ry
     height of the smooth step-function =             800.0000 Ry
     width of the smooth step-function  =               1.0000 Ry


     celldm(1)=   5.637573  celldm(2)=   0.000000  celldm(3)=   0.000000
     celldm(4)=   0.000000  celldm(5)=   0.000000  celldm(6)=   0.000000

     crystal axes: (cart. coord. in units of alat)
               a(1) = (  -0.000000000000   0.707106781187   0.707106781187 )  
               a(2) = (   0.707106781187   0.000000000000   0.707106781187 )  
               a(3) = (   0.707106781187   0.707106781187  -0.000000000000 )  

     reciprocal axes: (cart. coord. in units 2 pi/alat)
               b(1) = ( -0.707107  0.707107  0.707107 )  
               b(2) = (  0.707107 -0.707107  0.707107 )  
               b(3) = (  0.707107  0.707107 -0.707107 )  


     PseudoPot. # 1 for Mg read from file:
     /users/kfg/psuedo/gbrv_1.5/mg.pbesol.UPF
     MD5 check sum: 4059f37963cf5867752dbf5ab2400678
     Pseudo is Ultrasoft, Zval = 10.0
     Generated by new atomic code, or converted to UPF format
     Using radial grid of  821 points,  7 beta functions with: 
                l(1) =   0
                l(2) =   0
                l(3) =   0
                l(4) =   1
                l(5) =   1
                l(6) =   2
                l(7) =   2
     Q(r) pseudized with  8 coefficients,  rinner =    1.200   1.200   1.200
                                                       1.200   1.200

     PseudoPot. # 2 for O  read from file:
     /users/kfg/psuedo/gbrv_1.5/o.pbesol.UPF
     MD5 check sum: 501638753501ef6325af9037351f7734
     Pseudo is Ultrasoft + core correction, Zval =  6.0
     Generated by new atomic code, or converted to UPF format
     Using radial grid of  737 points,  5 beta functions with: 
                l(1) =   0
                l(2) =   0
                l(3) =   1
                l(4) =   1
                l(5) =   2
     Q(r) pseudized with  8 coefficients,  rinner =    0.900   0.900   0.900
                                                       0.900   0.900

     atomic species   valence    mass     pseudopotential
        Mg            10.00    24.30500     Mg( 1.00)
        O              6.00    15.99940     O ( 1.00)

      4 Sym. Ops. (no inversion) found


                                    s                        frac. trans.

      isym =  1     identity                                     

 cryst.   s( 1) = (     1          0          0      )
                  (     0          1          0      )
                  (     0          0          1      )

 cart.    s( 1) = (  1.0000000  0.0000000  0.0000000 )
                  (  0.0000000  1.0000000  0.0000000 )
                  (  0.0000000  0.0000000  1.0000000 )


      isym =  2     180 deg rotation - cart. axis [0,1,1]        

 cryst.   s( 2) = (     1          0          0      )
                  (     1         -1          0      )
                  (     1          0         -1      )

 cart.    s( 2) = ( -1.0000000  0.0000000  0.0000000 )
                  (  0.0000000  0.0000000  1.0000000 )
                  (  0.0000000  1.0000000  0.0000000 )


      isym =  3     inv. 180 deg rotation - cart. axis [1,0,0]   

 cryst.   s( 3) = (     1          0          0      )
                  (     1          0         -1      )
                  (     1         -1          0      )

 cart.    s( 3) = ( -1.0000000  0.0000000  0.0000000 )
                  (  0.0000000  1.0000000  0.0000000 )
                  (  0.0000000  0.0000000  1.0000000 )


      isym =  4     inv. 180 deg rotation - cart. axis [0,1,-1]  

 cryst.   s( 4) = (     1          0          0      )
                  (     0          0          1      )
                  (     0          1          0      )

 cart.    s( 4) = (  1.0000000  0.0000000  0.0000000 )
                  (  0.0000000  0.0000000  1.0000000 )
                  (  0.0000000  1.0000000  0.0000000 )


     point group C_2v (mm2) 
     there are  4 classes
     the character table:

       E     C2    s_xz  s_yz 
A_1    1.00  1.00  1.00  1.00
A_2    1.00  1.00 -1.00 -1.00
B_1    1.00 -1.00  1.00 -1.00
B_2    1.00 -1.00 -1.00  1.00

     the symmetry operations in each class:
     E        1
     C2       2
     s_xz     3
     s_yz     4

   Cartesian axes

     site n.     atom                  positions (alat units)
         1           Mg  tau(   1) = (    0.00000000000    0.00070710678    0.00070710678  )
         2           O   tau(   2) = (    0.70710678119    0.70710678119    0.70710678119  )

   Crystallographic axes

     site n.     atom                  positions (cryst. coord.)
         1           Mg  tau(   1) = (    0.00100000000    0.00000000000    0.00000000000  )
         2           O   tau(   2) = (    0.50000000000    0.50000000000    0.50000000000  )

     number of k points=    95  gaussian smearing, width (Ry)=  0.0050
                       cart. coord. in units 2pi/alat
        k(    1) = (   0.0000000   0.0000000   0.0000000), wk =   0.0039063
        k(    2) = (   0.0883883   0.0883883  -0.0883883), wk =   0.0156250
        k(    3) = (   0.1767767   0.1767767  -0.1767767), wk =   0.0156250
        k(    4) = (   0.2651650   0.2651650  -0.2651650), wk =   0.0156250
        k(    5) = (  -0.3535534  -0.3535534   0.3535534), wk =   0.0078125
        k(    6) = (   0.1767767   0.0000000   0.0000000), wk =   0.0078125
        k(    7) = (   0.2651650   0.0883883  -0.0883883), wk =   0.0156250
        k(    8) = (   0.3535534   0.1767767  -0.1767767), wk =   0.0156250
        k(    9) = (  -0.2651650  -0.4419417   0.4419417), wk =   0.0156250
        k(   10) = (  -0.1767767  -0.3535534   0.3535534), wk =   0.0156250
        k(   11) = (  -0.0883883  -0.2651650   0.2651650), wk =   0.0156250
        k(   12) = (   0.0000000  -0.1767767   0.1767767), wk =   0.0078125
        k(   13) = (   0.3535534   0.0000000   0.0000000), wk =   0.0078125
        k(   14) = (   0.4419417   0.0883883  -0.0883883), wk =   0.0156250
        k(   15) = (  -0.1767767  -0.5303301   0.5303301), wk =   0.0156250
        k(   16) = (  -0.0883883  -0.4419417   0.4419417), wk =   0.0156250
        k(   17) = (   0.0000000  -0.3535534   0.3535534), wk =   0.0078125
        k(   18) = (   0.5303301   0.0000000   0.0000000), wk =   0.0078125
        k(   19) = (  -0.0883883  -0.6187184   0.6187184), wk =   0.0156250
        k(   20) = (   0.0000000  -0.5303301   0.5303301), wk =   0.0078125
        k(   21) = (  -0.7071068   0.0000000   0.0000000), wk =   0.0039063
        k(   22) = (   0.3535534   0.1767767   0.0000000), wk =   0.0312500
        k(   23) = (  -0.2651650  -0.4419417   0.6187184), wk =   0.0312500
        k(   24) = (  -0.1767767  -0.3535534   0.5303301), wk =   0.0312500
        k(   25) = (  -0.1767767  -0.5303301   0.7071068), wk =   0.0312500
        k(   26) = (  -0.0883883  -0.4419417   0.6187184), wk =   0.0312500
        k(   27) = (   0.0000000  -0.3535534   0.5303301), wk =   0.0156250
        k(   28) = (  -0.7071068   0.1767767   0.0000000), wk =   0.0156250
        k(   29) = (  -0.7071068   0.3535534   0.0000000), wk =   0.0156250
        k(   30) = (   0.0883883   0.0883883   0.0883883), wk =   0.0156250
        k(   31) = (   0.1767767   0.1767767   0.1767767), wk =   0.0156250
        k(   32) = (   0.2651650   0.2651650   0.2651650), wk =   0.0156250
        k(   33) = (  -0.3535534  -0.3535534  -0.3535534), wk =   0.0078125
        k(   34) = (   0.0000000   0.1767767   0.0000000), wk =   0.0156250
        k(   35) = (   0.0883883   0.2651650   0.0883883), wk =   0.0312500
        k(   36) = (  -0.0883883  -0.2651650   0.0883883), wk =   0.0312500
        k(   37) = (  -0.2651650  -0.0883883  -0.0883883), wk =   0.0156250
        k(   38) = (   0.1767767   0.3535534   0.1767767), wk =   0.0312500
        k(   39) = (  -0.1767767  -0.3535534   0.1767767), wk =   0.0312500
        k(   40) = (  -0.3535534  -0.1767767  -0.1767767), wk =   0.0156250
        k(   41) = (  -0.4419417  -0.2651650  -0.4419417), wk =   0.0312500
        k(   42) = (   0.4419417   0.2651650  -0.4419417), wk =   0.0312500
        k(   43) = (   0.2651650   0.4419417   0.4419417), wk =   0.0156250
        k(   44) = (  -0.3535534  -0.1767767  -0.3535534), wk =   0.0312500
        k(   45) = (   0.3535534   0.1767767  -0.3535534), wk =   0.0312500
        k(   46) = (   0.1767767   0.3535534   0.3535534), wk =   0.0156250
        k(   47) = (  -0.2651650  -0.0883883  -0.2651650), wk =   0.0312500
        k(   48) = (   0.2651650   0.0883883  -0.2651650), wk =   0.0312500
        k(   49) = (   0.0883883   0.2651650   0.2651650), wk =   0.0156250
        k(   50) = (  -0.1767767   0.0000000  -0.1767767), wk =   0.0312500
        k(   51) = (   0.0000000   0.1767767   0.1767767), wk =   0.0078125
        k(   52) = (   0.0000000   0.3535534   0.0000000), wk =   0.0156250
        k(   53) = (   0.0883883   0.4419417   0.0883883), wk =   0.0312500
        k(   54) = (  -0.0883883  -0.4419417   0.0883883), wk =   0.0312500
        k(   55) = (  -0.4419417  -0.0883883  -0.0883883), wk =   0.0156250
        k(   56) = (  -0.5303301  -0.1767767  -0.5303301), wk =   0.0312500
        k(   57) = (   0.5303301   0.1767767  -0.5303301), wk =   0.0312500
        k(   58) = (   0.1767767   0.5303301   0.5303301), wk =   0.0156250
        k(   59) = (  -0.4419417  -0.0883883  -0.4419417), wk =   0.0312500
        k(   60) = (   0.4419417   0.0883883  -0.4419417), wk =   0.0312500
        k(   61) = (   0.0883883   0.4419417   0.4419417), wk =   0.0156250
        k(   62) = (  -0.3535534   0.0000000  -0.3535534), wk =   0.0312500
        k(   63) = (   0.0000000   0.3535534   0.3535534), wk =   0.0078125
        k(   64) = (   0.0000000   0.5303301   0.0000000), wk =   0.0156250
        k(   65) = (  -0.6187184  -0.0883883  -0.6187184), wk =   0.0312500
        k(   66) = (   0.6187184   0.0883883  -0.6187184), wk =   0.0312500
        k(   67) = (   0.0883883   0.6187184   0.6187184), wk =   0.0156250
        k(   68) = (  -0.5303301   0.0000000  -0.5303301), wk =   0.0312500
        k(   69) = (   0.0000000   0.5303301   0.5303301), wk =   0.0078125
        k(   70) = (   0.0000000  -0.7071068   0.0000000), wk =   0.0078125
        k(   71) = (   0.1767767   0.3535534   0.0000000), wk =   0.0312500
        k(   72) = (  -0.0000000  -0.1767767   0.3535534), wk =   0.0156250
        k(   73) = (   0.0000000  -0.1767767  -0.3535534), wk =   0.0156250
        k(   74) = (  -0.4419417  -0.2651650  -0.6187184), wk =   0.0312500
        k(   75) = (   0.4419417   0.2651650  -0.6187184), wk =   0.0312500
        k(   76) = (   0.6187184   0.4419417  -0.2651650), wk =   0.0312500
        k(   77) = (  -0.6187184   0.4419417   0.2651650), wk =   0.0312500
        k(   78) = (   0.2651650   0.4419417   0.6187184), wk =   0.0312500
        k(   79) = (  -0.3535534  -0.1767767  -0.5303301), wk =   0.0156250
        k(   80) = (   0.3535534   0.1767767  -0.5303301), wk =   0.0156250
        k(   81) = (  -0.5303301   0.3535534   0.1767767), wk =   0.0312500
        k(   82) = (  -0.5303301  -0.1767767  -0.7071068), wk =   0.0312500
        k(   83) = (   0.7071068   0.5303301  -0.1767767), wk =   0.0156250
        k(   84) = (  -0.7071068   0.5303301   0.1767767), wk =   0.0156250
        k(   85) = (  -0.4419417  -0.0883883  -0.6187184), wk =   0.0312500
        k(   86) = (   0.4419417   0.0883883  -0.6187184), wk =   0.0312500
        k(   87) = (   0.6187184   0.4419417  -0.0883883), wk =   0.0312500
        k(   88) = (  -0.6187184   0.4419417   0.0883883), wk =   0.0312500
        k(   89) = (   0.0883883   0.4419417   0.6187184), wk =   0.0312500
        k(   90) = (  -0.3535534   0.0000000  -0.5303301), wk =   0.0312500
        k(   91) = (   0.5303301   0.3535534  -0.0000000), wk =   0.0312500
        k(   92) = (  -0.0000000   0.3535534   0.5303301), wk =   0.0156250
        k(   93) = (   0.1767767  -0.7071068   0.0000000), wk =   0.0156250
        k(   94) = (   0.0000000  -0.1767767  -0.7071068), wk =   0.0156250
        k(   95) = (   0.3535534  -0.7071068   0.0000000), wk =   0.0078125

                       cryst. coord.
        k(    1) = (   0.0000000   0.0000000   0.0000000), wk =   0.0039063
        k(    2) = (   0.0000000   0.0000000   0.1250000), wk =   0.0156250
        k(    3) = (   0.0000000   0.0000000   0.2500000), wk =   0.0156250
        k(    4) = (   0.0000000   0.0000000   0.3750000), wk =   0.0156250
        k(    5) = (   0.0000000   0.0000000  -0.5000000), wk =   0.0078125
        k(    6) = (   0.0000000   0.1250000   0.1250000), wk =   0.0078125
        k(    7) = (   0.0000000   0.1250000   0.2500000), wk =   0.0156250
        k(    8) = (   0.0000000   0.1250000   0.3750000), wk =   0.0156250
        k(    9) = (   0.0000000   0.1250000  -0.5000000), wk =   0.0156250
        k(   10) = (   0.0000000   0.1250000  -0.3750000), wk =   0.0156250
        k(   11) = (   0.0000000   0.1250000  -0.2500000), wk =   0.0156250
        k(   12) = (   0.0000000   0.1250000  -0.1250000), wk =   0.0078125
        k(   13) = (   0.0000000   0.2500000   0.2500000), wk =   0.0078125
        k(   14) = (   0.0000000   0.2500000   0.3750000), wk =   0.0156250
        k(   15) = (   0.0000000   0.2500000  -0.5000000), wk =   0.0156250
        k(   16) = (   0.0000000   0.2500000  -0.3750000), wk =   0.0156250
        k(   17) = (   0.0000000   0.2500000  -0.2500000), wk =   0.0078125
        k(   18) = (   0.0000000   0.3750000   0.3750000), wk =   0.0078125
        k(   19) = (   0.0000000   0.3750000  -0.5000000), wk =   0.0156250
        k(   20) = (   0.0000000   0.3750000  -0.3750000), wk =   0.0078125
        k(   21) = (   0.0000000  -0.5000000  -0.5000000), wk =   0.0039063
        k(   22) = (   0.1250000   0.2500000   0.3750000), wk =   0.0312500
        k(   23) = (   0.1250000   0.2500000  -0.5000000), wk =   0.0312500
        k(   24) = (   0.1250000   0.2500000  -0.3750000), wk =   0.0312500
        k(   25) = (   0.1250000   0.3750000  -0.5000000), wk =   0.0312500
        k(   26) = (   0.1250000   0.3750000  -0.3750000), wk =   0.0312500
        k(   27) = (   0.1250000   0.3750000  -0.2500000), wk =   0.0156250
        k(   28) = (   0.1250000  -0.5000000  -0.3750000), wk =   0.0156250
        k(   29) = (   0.2500000  -0.5000000  -0.2500000), wk =   0.0156250
        k(   30) = (   0.1250000   0.1250000   0.1250000), wk =   0.0156250
        k(   31) = (   0.2500000   0.2500000   0.2500000), wk =   0.0156250
        k(   32) = (   0.3750000   0.3750000   0.3750000), wk =   0.0156250
        k(   33) = (  -0.5000000  -0.5000000  -0.5000000), wk =   0.0078125
        k(   34) = (   0.1250000   0.0000000   0.1250000), wk =   0.0156250
        k(   35) = (   0.2500000   0.1250000   0.2500000), wk =   0.0312500
        k(   36) = (  -0.1250000   0.0000000  -0.2500000), wk =   0.0312500
        k(   37) = (  -0.1250000  -0.2500000  -0.2500000), wk =   0.0156250
        k(   38) = (   0.3750000   0.2500000   0.3750000), wk =   0.0312500
        k(   39) = (  -0.1250000   0.0000000  -0.3750000), wk =   0.0312500
        k(   40) = (  -0.2500000  -0.3750000  -0.3750000), wk =   0.0156250
        k(   41) = (  -0.5000000  -0.6250000  -0.5000000), wk =   0.0312500
        k(   42) = (  -0.1250000   0.0000000   0.5000000), wk =   0.0312500
        k(   43) = (   0.6250000   0.5000000   0.5000000), wk =   0.0156250
        k(   44) = (  -0.3750000  -0.5000000  -0.3750000), wk =   0.0312500
        k(   45) = (  -0.1250000   0.0000000   0.3750000), wk =   0.0312500
        k(   46) = (   0.5000000   0.3750000   0.3750000), wk =   0.0156250
        k(   47) = (  -0.2500000  -0.3750000  -0.2500000), wk =   0.0312500
        k(   48) = (  -0.1250000   0.0000000   0.2500000), wk =   0.0312500
        k(   49) = (   0.3750000   0.2500000   0.2500000), wk =   0.0156250
        k(   50) = (  -0.1250000  -0.2500000  -0.1250000), wk =   0.0312500
        k(   51) = (   0.2500000   0.1250000   0.1250000), wk =   0.0078125
        k(   52) = (   0.2500000   0.0000000   0.2500000), wk =   0.0156250
        k(   53) = (   0.3750000   0.1250000   0.3750000), wk =   0.0312500
        k(   54) = (  -0.2500000   0.0000000  -0.3750000), wk =   0.0312500
        k(   55) = (  -0.1250000  -0.3750000  -0.3750000), wk =   0.0156250
        k(   56) = (  -0.5000000  -0.7500000  -0.5000000), wk =   0.0312500
        k(   57) = (  -0.2500000   0.0000000   0.5000000), wk =   0.0312500
        k(   58) = (   0.7500000   0.5000000   0.5000000), wk =   0.0156250
        k(   59) = (  -0.3750000  -0.6250000  -0.3750000), wk =   0.0312500
        k(   60) = (  -0.2500000   0.0000000   0.3750000), wk =   0.0312500
        k(   61) = (   0.6250000   0.3750000   0.3750000), wk =   0.0156250
        k(   62) = (  -0.2500000  -0.5000000  -0.2500000), wk =   0.0312500
        k(   63) = (   0.5000000   0.2500000   0.2500000), wk =   0.0078125
        k(   64) = (   0.3750000   0.0000000   0.3750000), wk =   0.0156250
        k(   65) = (  -0.5000000  -0.8750000  -0.5000000), wk =   0.0312500
        k(   66) = (  -0.3750000   0.0000000   0.5000000), wk =   0.0312500
        k(   67) = (   0.8750000   0.5000000   0.5000000), wk =   0.0156250
        k(   68) = (  -0.3750000  -0.7500000  -0.3750000), wk =   0.0312500
        k(   69) = (   0.7500000   0.3750000   0.3750000), wk =   0.0078125
        k(   70) = (  -0.5000000   0.0000000  -0.5000000), wk =   0.0078125
        k(   71) = (   0.2500000   0.1250000   0.3750000), wk =   0.0312500
        k(   72) = (   0.1250000   0.2500000  -0.1250000), wk =   0.0156250
        k(   73) = (  -0.3750000  -0.2500000  -0.1250000), wk =   0.0156250
        k(   74) = (  -0.6250000  -0.7500000  -0.5000000), wk =   0.0312500
        k(   75) = (  -0.2500000  -0.1250000   0.5000000), wk =   0.0312500
        k(   76) = (   0.1250000   0.2500000   0.7500000), wk =   0.0312500
        k(   77) = (   0.5000000  -0.2500000  -0.1250000), wk =   0.0312500
        k(   78) = (   0.7500000   0.6250000   0.5000000), wk =   0.0312500
        k(   79) = (  -0.5000000  -0.6250000  -0.3750000), wk =   0.0156250
        k(   80) = (  -0.2500000  -0.1250000   0.3750000), wk =   0.0156250
        k(   81) = (   0.3750000  -0.2500000  -0.1250000), wk =   0.0312500
        k(   82) = (  -0.6250000  -0.8750000  -0.5000000), wk =   0.0312500
        k(   83) = (   0.2500000   0.3750000   0.8750000), wk =   0.0156250
        k(   84) = (   0.5000000  -0.3750000  -0.1250000), wk =   0.0156250
        k(   85) = (  -0.5000000  -0.7500000  -0.3750000), wk =   0.0312500
        k(   86) = (  -0.3750000  -0.1250000   0.3750000), wk =   0.0312500
        k(   87) = (   0.2500000   0.3750000   0.7500000), wk =   0.0312500
        k(   88) = (   0.3750000  -0.3750000  -0.1250000), wk =   0.0312500
        k(   89) = (   0.7500000   0.5000000   0.3750000), wk =   0.0312500
        k(   90) = (  -0.3750000  -0.6250000  -0.2500000), wk =   0.0312500
        k(   91) = (   0.2500000   0.3750000   0.6250000), wk =   0.0312500
        k(   92) = (   0.6250000   0.3750000   0.2500000), wk =   0.0156250
        k(   93) = (  -0.5000000   0.1250000  -0.3750000), wk =   0.0156250
        k(   94) = (  -0.6250000  -0.5000000  -0.1250000), wk =   0.0156250
        k(   95) = (  -0.5000000   0.2500000  -0.2500000), wk =   0.0078125

     Dense  grid:     5985 G-vectors     FFT dimensions: (  25,  25,  25)

     Smooth grid:     4285 G-vectors     FFT dimensions: (  24,  24,  24)

     Largest allocated arrays     est. size (Mb)     dimensions
        Kohn-Sham Wavefunctions         0.03 Mb     (     138,   12)
        NL pseudopotentials             0.07 Mb     (     138,   32)
        Each V/rho on FFT grid          0.07 Mb     (    4375)
        Each G-vector array             0.01 Mb     (    1497)
        G-vector shells                 0.00 Mb     (     108)
     Largest temporary arrays     est. size (Mb)     dimensions
        Auxiliary wavefunctions         0.10 Mb     (     138,   48)
        Each subspace H/S matrix        0.04 Mb     (      48,   48)
        Each <psi_i|beta_j> matrix      0.01 Mb     (      32,   12)
        Arrays for rho mixing           0.53 Mb     (    4375,    8)

     Check: negative/imaginary core charge=   -0.000004    0.000000

     Initial potential from superposition of free atoms

     starting charge   15.69977, renormalised to   16.00000
     Starting wfc are    9 randomized atomic wfcs +    3 random wfc

     total cpu time spent up to now is        0.8 secs

     Self-consistent Calculation

     iteration #  1     ecut=    40.00 Ry     beta=0.30
     Davidson diagonalization with overlap
     ethr =  1.00E-02,  avg # of iterations =  4.6

     total cpu time spent up to now is        2.4 secs

     total energy              =    -157.65925277 Ry
     Harris-Foulkes estimate   =    -157.72817367 Ry
     estimated scf accuracy    <       0.34525491 Ry

     iteration #  2     ecut=    40.00 Ry     beta=0.30
     Davidson diagonalization with overlap
     ethr =  2.16E-03,  avg # of iterations =  1.0

     total cpu time spent up to now is        3.3 secs

     total energy              =    -157.59291269 Ry
     Harris-Foulkes estimate   =    -157.66740767 Ry
     estimated scf accuracy    <       0.16064109 Ry

     iteration #  3     ecut=    40.00 Ry     beta=0.30
     Davidson diagonalization with overlap
     ethr =  1.00E-03,  avg # of iterations =  1.9

     total cpu time spent up to now is        4.3 secs

     total energy              =    -157.60441684 Ry
     Harris-Foulkes estimate   =    -157.61591326 Ry
     estimated scf accuracy    <       0.02000659 Ry

     iteration #  4     ecut=    40.00 Ry     beta=0.30
     Davidson diagonalization with overlap
     ethr =  1.25E-04,  avg # of iterations =  1.4

     total cpu time spent up to now is        5.2 secs

     total energy              =    -157.60491588 Ry
     Harris-Foulkes estimate   =    -157.60598581 Ry
     estimated scf accuracy    <       0.00184360 Ry

     iteration #  5     ecut=    40.00 Ry     beta=0.30
     Davidson diagonalization with overlap
     ethr =  1.15E-05,  avg # of iterations =  2.1

     total cpu time spent up to now is        6.2 secs

     total energy              =    -157.60507640 Ry
     Harris-Foulkes estimate   =    -157.60513698 Ry
     estimated scf accuracy    <       0.00040961 Ry

     iteration #  6     ecut=    40.00 Ry     beta=0.30
     Davidson diagonalization with overlap
     ethr =  2.56E-06,  avg # of iterations =  1.1

     total cpu time spent up to now is        7.1 secs

     total energy              =    -157.60509008 Ry
     Harris-Foulkes estimate   =    -157.60509660 Ry
     estimated scf accuracy    <       0.00003908 Ry

     iteration #  7     ecut=    40.00 Ry     beta=0.30
     Davidson diagonalization with overlap
     ethr =  2.44E-07,  avg # of iterations =  2.0

     total cpu time spent up to now is        8.2 secs

     total energy              =    -157.60509187 Ry
     Harris-Foulkes estimate   =    -157.60509897 Ry
     estimated scf accuracy    <       0.00001722 Ry

     iteration #  8     ecut=    40.00 Ry     beta=0.30
     Davidson diagonalization with overlap
     ethr =  1.08E-07,  avg # of iterations =  2.0

     total cpu time spent up to now is        9.2 secs

     total energy              =    -157.60509383 Ry
     Harris-Foulkes estimate   =    -157.60509381 Ry
     estimated scf accuracy    <       0.00000006 Ry

     iteration #  9     ecut=    40.00 Ry     beta=0.30
     Davidson diagonalization with overlap
     ethr =  3.65E-10,  avg # of iterations =  2.0

     total cpu time spent up to now is       10.3 secs

     total energy              =    -157.60509385 Ry
     Harris-Foulkes estimate   =    -157.60509385 Ry
     estimated scf accuracy    <       0.00000003 Ry

     iteration # 10     ecut=    40.00 Ry     beta=0.30
     Davidson diagonalization with overlap
     ethr =  2.11E-10,  avg # of iterations =  1.0

     total cpu time spent up to now is       11.2 secs

     total energy              =    -157.60509386 Ry
     Harris-Foulkes estimate   =    -157.60509386 Ry
     estimated scf accuracy    <          1.7E-09 Ry

     iteration # 11     ecut=    40.00 Ry     beta=0.30
     Davidson diagonalization with overlap
     ethr =  1.09E-11,  avg # of iterations =  2.0

     total cpu time spent up to now is       12.3 secs

     total energy              =    -157.60509387 Ry
     Harris-Foulkes estimate   =    -157.60509386 Ry
     estimated scf accuracy    <          4.5E-10 Ry

     iteration # 12     ecut=    40.00 Ry     beta=0.30
     Davidson diagonalization with overlap
     ethr =  2.83E-12,  avg # of iterations =  2.0

     total cpu time spent up to now is       13.3 secs

     End of self-consistent calculation

          k = 0.0000 0.0000 0.0000 (   537 PWs)   bands (ev):

   -64.2614 -31.2011 -31.2011 -31.2011  -9.4924   7.6457   7.6457   7.6457
    12.2626  23.2754  23.2755  23.2755

     occupation numbers 
     1.0000   1.0000   1.0000   1.0000   1.0000   1.0000   1.0000   1.0000
     0.0000   0.0000   0.0000   0.0000

          k = 0.0884 0.0884-0.0884 (   537 PWs)   bands (ev):

   -64.2601 -31.2139 -31.2023 -31.2023  -9.3221   6.6809   7.5423   7.5423
    13.1804  21.5817  23.6327  23.6327

     occupation numbers 
     1.0000   1.0000   1.0000   1.0000   1.0000   1.0000   1.0000   1.0000
     0.0000   0.0000   0.0000   0.0000

          k = 0.1768 0.1768-0.1768 (   543 PWs)   bands (ev):

   -64.2570 -31.2449 -31.2054 -31.2054  -8.8802   4.9650   7.3040   7.3040
    14.6142  20.0453  24.1336  24.1336

     occupation numbers 
     1.0000   1.0000   1.0000   1.0000   1.0000   1.0000   1.0000   1.0000
     0.0000   0.0000   0.0000   0.0000

          k = 0.2652 0.2652-0.2652 (   547 PWs)   bands (ev):

   -64.2539 -31.2755 -31.2084 -31.2084  -8.3822   3.5471   7.0797   7.0797
    15.3010  19.8687  23.9734  23.9735

     occupation numbers 
     1.0000   1.0000   1.0000   1.0000   1.0000   1.0000   1.0000   1.0000
     0.0000   0.0000   0.0000   0.0000

          k =-0.3536-0.3536 0.3536 (   544 PWs)   bands (ev):

   -64.2526 -31.2881 -31.2097 -31.2097  -8.1543   2.9925   6.9904   6.9904
    15.3854  20.1042  23.8080  23.8081

     occupation numbers 
     1.0000   1.0000   1.0000   1.0000   1.0000   1.0000   1.0000   1.0000
     0.0000   0.0000   0.0000   0.0000

          k = 0.1768 0.0000 0.0000 (   544 PWs)   bands (ev):

   -64.2597 -31.2130 -31.2053 -31.2053  -9.2687   6.5997   7.4125   7.4125
    13.4785  21.0743  23.7913  23.7913

     occupation numbers 
     1.0000   1.0000   1.0000   1.0000   1.0000   1.0000   1.0000   1.0000
     0.0000   0.0000   0.0000   0.0000

          k = 0.2652 0.0884-0.0884 (   545 PWs)   bands (ev):

   -64.2572 -31.2357 -31.2096 -31.2078  -8.9252   5.3624   7.1572   7.1634
    14.7686  19.7394  23.8565  24.3085

     occupation numbers 
     1.0000   1.0000   1.0000   1.0000   1.0000   1.0000   1.0000   1.0000
     0.0000   0.0000   0.0000   0.0000

          k = 0.3536 0.1768-0.1768 (   543 PWs)   bands (ev):

   -64.2541 -31.2647 -31.2126 -31.2122  -8.4505   4.0262   6.7867   6.9477
    15.8072  19.4105  22.8887  24.3922

     occupation numbers 
     1.0000   1.0000   1.0000   1.0000   1.0000   1.0000   1.0000   1.0000
     0.0000   0.0000   0.0000   0.0000

          k =-0.2652-0.4419 0.4419 (   545 PWs)   bands (ev):

   -64.2522 -31.2820 -31.2169 -31.2127  -8.1264   3.2630   6.4903   6.8788
    16.0718  19.8913  22.3702  24.2038

     occupation numbers 
     1.0000   1.0000   1.0000   1.0000   1.0000   1.0000   1.0000   1.0000
     0.0000   0.0000   0.0000   0.0000

          k =-0.1768-0.3536 0.3536 (   544 PWs)   bands (ev):

   -64.2526 -31.2780 -31.2190 -31.2097  -8.1978   3.4358   6.4260   6.9905
    16.0678  19.8108  22.4720  24.2741

     occupation numbers 
     1.0000   1.0000   1.0000   1.0000   1.0000   1.0000   1.0000   1.0000
     0.0000   0.0000   0.0000   0.0000

          k =-0.0884-0.2652 0.2652 (   544 PWs)   bands (ev):

   -64.2551 -31.2555 -31.2167 -31.2055  -8.6064   4.4432   6.6495   7.2288
    15.5687  19.5563  23.0896  24.7352

     occupation numbers 
     1.0000   1.0000   1.0000   1.0000   1.0000   1.0000   1.0000   1.0000
     0.0000   0.0000   0.0000   0.0000

          k = 0.0000-0.1768 0.1768 (   553 PWs)   bands (ev):

   -64.2582 -31.2288 -31.2099 -31.2024  -9.0639   5.7581   7.1177   7.4626
    14.2572  20.3631  23.6650  24.3147

     occupation numbers 
     1.0000   1.0000   1.0000   1.0000   1.0000   1.0000   1.0000   1.0000
     0.0000   0.0000   0.0000   0.0000

          k = 0.3536 0.0000 0.0000 (   560 PWs)   bands (ev):

   -64.2555 -31.2403 -31.2156 -31.2156  -8.7198   4.9935   6.9058   6.9058
    15.6034  18.6292  22.9897  24.9390

     occupation numbers 
     1.0000   1.0000   1.0000   1.0000   1.0000   1.0000   1.0000   1.0000
     0.0000   0.0000   0.0000   0.0000

          k = 0.4419 0.0884-0.0884 (   541 PWs)   bands (ev):

   -64.2530 -31.2580 -31.2219 -31.2199  -8.3618   4.2504   6.4449   6.6883
    16.6917  18.1323  21.6389  25.2862

     occupation numbers 
     1.0000   1.0000   1.0000   1.0000   1.0000   1.0000   1.0000   1.0000
     0.0000   0.0000   0.0000   0.0000

          k =-0.1768-0.5303 0.5303 (   542 PWs)   bands (ev):

   -64.2511 -31.2698 -31.2317 -31.2199  -8.0521   3.8061   5.7177   6.6238
    17.1881  19.0702  20.7884  25.1401

     occupation numbers 
     1.0000   1.0000   1.0000   1.0000   1.0000   1.0000   1.0000   1.0000
     0.0000   0.0000   0.0000   0.0000

          k =-0.0884-0.4419 0.4419 (   537 PWs)   bands (ev):

   -64.2510 -31.2686 -31.2397 -31.2158  -7.9992   3.8672   5.2532   6.7436
    17.4305  19.6476  20.6248  24.9627

     occupation numbers 
     1.0000   1.0000   1.0000   1.0000   1.0000   1.0000   1.0000   1.0000
     0.0000   0.0000   0.0000   0.0000

          k = 0.0000-0.3536 0.3536 (   540 PWs)   bands (ev):

   -64.2526 -31.2622 -31.2339 -31.2098  -8.2406   4.1215   5.6354   6.9906
    16.9880  19.2660  21.5282  25.0267

     occupation numbers 
     1.0000   1.0000   1.0000   1.0000   1.0000   1.0000   1.0000   1.0000
     0.0000   0.0000   0.0000   0.0000

          k = 0.5303 0.0000 0.0000 (   544 PWs)   bands (ev):

   -64.2514 -31.2653 -31.2259 -31.2259  -8.1616   3.9059   6.4620   6.4620
    17.1055  17.2081  20.8853  26.0069

     occupation numbers 
     1.0000   1.0000   1.0000   1.0000   1.0000   1.0000   1.0000   1.0000
     0.0000   0.0000   0.0000   0.0000

          k =-0.0884-0.6187 0.6187 (   540 PWs)   bands (ev):

   -64.2501 -31.2701 -31.2340 -31.2272  -7.9674   3.7511   5.9134   6.3867
    17.0750  17.9631  20.4552  26.0597

     occupation numbers 
     1.0000   1.0000   1.0000   1.0000   1.0000   1.0000   1.0000   1.0000
     0.0000   0.0000   0.0000   0.0000

          k = 0.0000-0.5303 0.5303 (   542 PWs)   bands (ev):

   -64.2499 -31.2621 -31.2491 -31.2230  -7.9007   4.1365   4.9171   6.4979
    17.5727  19.2897  20.0098  25.6133

     occupation numbers 
     1.0000   1.0000   1.0000   1.0000   1.0000   1.0000   1.0000   1.0000
     0.0000   0.0000   0.0000   0.0000

          k =-0.7071 0.0000 0.0000 (   524 PWs)   bands (ev):

   -64.2497 -31.2750 -31.2301 -31.2301  -7.9292   3.5478   6.2931   6.2931
    16.5931  17.4894  20.5775  26.4485

     occupation numbers 
     1.0000   1.0000   1.0000   1.0000   1.0000   1.0000   1.0000   1.0000
     0.0000   0.0000   0.0000   0.0000

          k = 0.3536 0.1768 0.0000 (   545 PWs)   bands (ev):

   -64.2547 -31.2509 -31.2209 -31.2100  -8.5715   4.6073   6.4871   7.0283
    16.0191  18.9560  22.5774  25.0357

     occupation numbers 
     1.0000   1.0000   1.0000   1.0000   1.0000   1.0000   1.0000   1.0000
     0.0000   0.0000   0.0000   0.0000

          k =-0.2652-0.4419 0.6187 (   541 PWs)   bands (ev):

   -64.2522 -31.2671 -31.2290 -31.2144  -8.1853   3.9129   5.9081   6.7746
    16.9990  19.1372  21.4202  24.6379

     occupation numbers 
     1.0000   1.0000   1.0000   1.0000   1.0000   1.0000   1.0000   1.0000
     0.0000   0.0000   0.0000   0.0000

          k =-0.1768-0.3536 0.5303 (   546 PWs)   bands (ev):

   -64.2511 -31.2742 -31.2311 -31.2170  -8.0138   3.6173   5.6994   6.6547
    17.1633  19.6913  20.9902  24.3935

     occupation numbers 
     1.0000   1.0000   1.0000   1.0000   1.0000   1.0000   1.0000   1.0000
     0.0000   0.0000   0.0000   0.0000

          k =-0.1768-0.5303 0.7071 (   531 PWs)   bands (ev):

   -64.2511 -31.2649 -31.2321 -31.2237  -8.0899   3.9744   5.9429   6.3952
    17.7957  17.8687  20.6714  24.9644

     occupation numbers 
     1.0000   1.0000   1.0000   1.0000   1.0000   1.0000   1.0000   1.0000
     0.0000   0.0000   0.0000   0.0000

          k =-0.0884-0.4419 0.6187 (   539 PWs)   bands (ev):

   -64.2501 -31.2631 -31.2437 -31.2256  -7.9191   4.1199   5.1450   6.2610
    18.0766  19.2261  20.0066  24.0987

     occupation numbers 
     1.0000   1.0000   1.0000   1.0000   1.0000   1.0000   1.0000   1.0000
     0.0000   0.0000   0.0000   0.0000

          k = 0.0000-0.3536 0.5303 (   542 PWs)   bands (ev):

   -64.2505 -31.2605 -31.2470 -31.2207  -7.9610   4.2386   4.9346   6.4552
    18.2380  19.2058  20.2402  24.1465

     occupation numbers 
     1.0000   1.0000   1.0000   1.0000   1.0000   1.0000   1.0000   1.0000
     0.0000   0.0000   0.0000   0.0000

          k =-0.7071 0.1768 0.0000 (   536 PWs)   bands (ev):

   -64.2497 -31.2684 -31.2367 -31.2311  -7.8968   3.8469   5.7372   6.0719
    17.4796  18.3740  20.2360  24.8206

     occupation numbers 
     1.0000   1.0000   1.0000   1.0000   1.0000   1.0000   1.0000   1.0000
     0.0000   0.0000   0.0000   0.0000

          k =-0.7071 0.3536 0.0000 (   524 PWs)   bands (ev):

   -64.2497 -31.2525 -31.2525 -31.2320  -7.8641   4.6758   4.6758   5.8623
    19.1282  19.1283  19.6868  23.0100

     occupation numbers 
     1.0000   1.0000   1.0000   1.0000   1.0000   1.0000   1.0000   1.0000
     0.0000   0.0000   0.0000   0.0000

          k = 0.0884 0.0884 0.0884 (   537 PWs)   bands (ev):

   -64.2601 -31.2139 -31.2023 -31.2023  -9.3221   6.6809   7.5423   7.5423
    13.1804  21.5817  23.6327  23.6327

     occupation numbers 
     1.0000   1.0000   1.0000   1.0000   1.0000   1.0000   1.0000   1.0000
     0.0000   0.0000   0.0000   0.0000

          k = 0.1768 0.1768 0.1768 (   543 PWs)   bands (ev):

   -64.2570 -31.2449 -31.2054 -31.2054  -8.8802   4.9650   7.3039   7.3040
    14.6142  20.0454  24.1336  24.1336

     occupation numbers 
     1.0000   1.0000   1.0000   1.0000   1.0000   1.0000   1.0000   1.0000
     0.0000   0.0000   0.0000   0.0000

          k = 0.2652 0.2652 0.2652 (   547 PWs)   bands (ev):

   -64.2539 -31.2755 -31.2084 -31.2084  -8.3822   3.5471   7.0797   7.0797
    15.3010  19.8687  23.9735  23.9735

     occupation numbers 
     1.0000   1.0000   1.0000   1.0000   1.0000   1.0000   1.0000   1.0000
     0.0000   0.0000   0.0000   0.0000

          k =-0.3536-0.3536-0.3536 (   544 PWs)   bands (ev):

   -64.2526 -31.2881 -31.2097 -31.2097  -8.1543   2.9925   6.9904   6.9904
    15.3854  20.1042  23.8080  23.8080

     occupation numbers 
     1.0000   1.0000   1.0000   1.0000   1.0000   1.0000   1.0000   1.0000
     0.0000   0.0000   0.0000   0.0000

          k = 0.0000 0.1768 0.0000 (   544 PWs)   bands (ev):

   -64.2597 -31.2130 -31.2053 -31.2053  -9.2687   6.5997   7.4125   7.4125
    13.4784  21.0743  23.7913  23.7913

     occupation numbers 
     1.0000   1.0000   1.0000   1.0000   1.0000   1.0000   1.0000   1.0000
     0.0000   0.0000   0.0000   0.0000

          k = 0.0884 0.2652 0.0884 (   545 PWs)   bands (ev):

   -64.2572 -31.2357 -31.2096 -31.2078  -8.9252   5.3624   7.1572   7.1634
    14.7686  19.7395  23.8566  24.3083

     occupation numbers 
     1.0000   1.0000   1.0000   1.0000   1.0000   1.0000   1.0000   1.0000
     0.0000   0.0000   0.0000   0.0000

          k =-0.0884-0.2652 0.0884 (   545 PWs)   bands (ev):

   -64.2572 -31.2357 -31.2096 -31.2078  -8.9252   5.3624   7.1572   7.1634
    14.7686  19.7394  23.8566  24.3083

     occupation numbers 
     1.0000   1.0000   1.0000   1.0000   1.0000   1.0000   1.0000   1.0000
     0.0000   0.0000   0.0000   0.0000

          k =-0.2652-0.0884-0.0884 (   545 PWs)   bands (ev):

   -64.2572 -31.2357 -31.2096 -31.2078  -8.9252   5.3624   7.1572   7.1634
    14.7686  19.7395  23.8566  24.3083

     occupation numbers 
     1.0000   1.0000   1.0000   1.0000   1.0000   1.0000   1.0000   1.0000
     0.0000   0.0000   0.0000   0.0000

          k = 0.1768 0.3536 0.1768 (   543 PWs)   bands (ev):

   -64.2541 -31.2647 -31.2126 -31.2122  -8.4505   4.0262   6.7867   6.9477
    15.8072  19.4106  22.8888  24.3921

     occupation numbers 
     1.0000   1.0000   1.0000   1.0000   1.0000   1.0000   1.0000   1.0000
     0.0000   0.0000   0.0000   0.0000

          k =-0.1768-0.3536 0.1768 (   543 PWs)   bands (ev):

   -64.2541 -31.2647 -31.2126 -31.2122  -8.4505   4.0262   6.7867   6.9477
    15.8072  19.4105  22.8888  24.3921

     occupation numbers 
     1.0000   1.0000   1.0000   1.0000   1.0000   1.0000   1.0000   1.0000
     0.0000   0.0000   0.0000   0.0000

          k =-0.3536-0.1768-0.1768 (   543 PWs)   bands (ev):

   -64.2541 -31.2647 -31.2126 -31.2122  -8.4505   4.0262   6.7867   6.9476
    15.8072  19.4106  22.8888  24.3920

     occupation numbers 
     1.0000   1.0000   1.0000   1.0000   1.0000   1.0000   1.0000   1.0000
     0.0000   0.0000   0.0000   0.0000

          k =-0.4419-0.2652-0.4419 (   545 PWs)   bands (ev):

   -64.2522 -31.2820 -31.2169 -31.2127  -8.1264   3.2630   6.4903   6.8788
    16.0718  19.8914  22.3702  24.2037

     occupation numbers 
     1.0000   1.0000   1.0000   1.0000   1.0000   1.0000   1.0000   1.0000
     0.0000   0.0000   0.0000   0.0000

          k = 0.4419 0.2652-0.4419 (   545 PWs)   bands (ev):

   -64.2522 -31.2820 -31.2170 -31.2127  -8.1264   3.2630   6.4903   6.8788
    16.0718  19.8913  22.3702  24.2037

     occupation numbers 
     1.0000   1.0000   1.0000   1.0000   1.0000   1.0000   1.0000   1.0000
     0.0000   0.0000   0.0000   0.0000

          k = 0.2652 0.4419 0.4419 (   545 PWs)   bands (ev):

   -64.2522 -31.2820 -31.2169 -31.2127  -8.1264   3.2630   6.4903   6.8788
    16.0718  19.8914  22.3703  24.2037

     occupation numbers 
     1.0000   1.0000   1.0000   1.0000   1.0000   1.0000   1.0000   1.0000
     0.0000   0.0000   0.0000   0.0000

          k =-0.3536-0.1768-0.3536 (   544 PWs)   bands (ev):

   -64.2526 -31.2780 -31.2190 -31.2097  -8.1978   3.4358   6.4260   6.9905
    16.0678  19.8108  22.4721  24.2740

     occupation numbers 
     1.0000   1.0000   1.0000   1.0000   1.0000   1.0000   1.0000   1.0000
     0.0000   0.0000   0.0000   0.0000

          k = 0.3536 0.1768-0.3536 (   544 PWs)   bands (ev):

   -64.2526 -31.2780 -31.2190 -31.2097  -8.1978   3.4358   6.4261   6.9905
    16.0678  19.8108  22.4721  24.2740

     occupation numbers 
     1.0000   1.0000   1.0000   1.0000   1.0000   1.0000   1.0000   1.0000
     0.0000   0.0000   0.0000   0.0000

          k = 0.1768 0.3536 0.3536 (   544 PWs)   bands (ev):

   -64.2526 -31.2780 -31.2190 -31.2097  -8.1978   3.4358   6.4260   6.9905
    16.0678  19.8108  22.4722  24.2739

     occupation numbers 
     1.0000   1.0000   1.0000   1.0000   1.0000   1.0000   1.0000   1.0000
     0.0000   0.0000   0.0000   0.0000

          k =-0.2652-0.0884-0.2652 (   544 PWs)   bands (ev):

   -64.2551 -31.2555 -31.2167 -31.2055  -8.6064   4.4432   6.6495   7.2288
    15.5687  19.5563  23.0897  24.7351

     occupation numbers 
     1.0000   1.0000   1.0000   1.0000   1.0000   1.0000   1.0000   1.0000
     0.0000   0.0000   0.0000   0.0000

          k = 0.2652 0.0884-0.2652 (   544 PWs)   bands (ev):

   -64.2551 -31.2555 -31.2167 -31.2055  -8.6064   4.4432   6.6495   7.2288
    15.5687  19.5563  23.0897  24.7351

     occupation numbers 
     1.0000   1.0000   1.0000   1.0000   1.0000   1.0000   1.0000   1.0000
     0.0000   0.0000   0.0000   0.0000

          k = 0.0884 0.2652 0.2652 (   544 PWs)   bands (ev):

   -64.2551 -31.2555 -31.2167 -31.2055  -8.6064   4.4432   6.6495   7.2288
    15.5687  19.5564  23.0898  24.7351

     occupation numbers 
     1.0000   1.0000   1.0000   1.0000   1.0000   1.0000   1.0000   1.0000
     0.0000   0.0000   0.0000   0.0000

          k =-0.1768 0.0000-0.1768 (   553 PWs)   bands (ev):

   -64.2582 -31.2288 -31.2099 -31.2024  -9.0639   5.7581   7.1177   7.4626
    14.2572  20.3631  23.6651  24.3147

     occupation numbers 
     1.0000   1.0000   1.0000   1.0000   1.0000   1.0000   1.0000   1.0000
     0.0000   0.0000   0.0000   0.0000

          k = 0.0000 0.1768 0.1768 (   553 PWs)   bands (ev):

   -64.2582 -31.2288 -31.2099 -31.2024  -9.0639   5.7581   7.1177   7.4626
    14.2572  20.3631  23.6652  24.3147

     occupation numbers 
     1.0000   1.0000   1.0000   1.0000   1.0000   1.0000   1.0000   1.0000
     0.0000   0.0000   0.0000   0.0000

          k = 0.0000 0.3536 0.0000 (   560 PWs)   bands (ev):

   -64.2555 -31.2403 -31.2156 -31.2156  -8.7198   4.9935   6.9058   6.9058
    15.6033  18.6292  22.9898  24.9391

     occupation numbers 
     1.0000   1.0000   1.0000   1.0000   1.0000   1.0000   1.0000   1.0000
     0.0000   0.0000   0.0000   0.0000

          k = 0.0884 0.4419 0.0884 (   541 PWs)   bands (ev):

   -64.2530 -31.2580 -31.2219 -31.2199  -8.3618   4.2504   6.4449   6.6883
    16.6917  18.1323  21.6390  25.2861

     occupation numbers 
     1.0000   1.0000   1.0000   1.0000   1.0000   1.0000   1.0000   1.0000
     0.0000   0.0000   0.0000   0.0000

          k =-0.0884-0.4419 0.0884 (   541 PWs)   bands (ev):

   -64.2530 -31.2580 -31.2219 -31.2199  -8.3618   4.2504   6.4449   6.6883
    16.6917  18.1323  21.6390  25.2861

     occupation numbers 
     1.0000   1.0000   1.0000   1.0000   1.0000   1.0000   1.0000   1.0000
     0.0000   0.0000   0.0000   0.0000

          k =-0.4419-0.0884-0.0884 (   541 PWs)   bands (ev):

   -64.2530 -31.2580 -31.2219 -31.2198  -8.3618   4.2504   6.4449   6.6883
    16.6918  18.1323  21.6389  25.2860

     occupation numbers 
     1.0000   1.0000   1.0000   1.0000   1.0000   1.0000   1.0000   1.0000
     0.0000   0.0000   0.0000   0.0000

          k =-0.5303-0.1768-0.5303 (   542 PWs)   bands (ev):

   -64.2511 -31.2698 -31.2317 -31.2199  -8.0521   3.8061   5.7177   6.6238
    17.1881  19.0702  20.7885  25.1400

     occupation numbers 
     1.0000   1.0000   1.0000   1.0000   1.0000   1.0000   1.0000   1.0000
     0.0000   0.0000   0.0000   0.0000

          k = 0.5303 0.1768-0.5303 (   542 PWs)   bands (ev):

   -64.2511 -31.2698 -31.2317 -31.2199  -8.0521   3.8061   5.7177   6.6238
    17.1881  19.0702  20.7885  25.1400

     occupation numbers 
     1.0000   1.0000   1.0000   1.0000   1.0000   1.0000   1.0000   1.0000
     0.0000   0.0000   0.0000   0.0000

          k = 0.1768 0.5303 0.5303 (   542 PWs)   bands (ev):

   -64.2511 -31.2698 -31.2317 -31.2199  -8.0521   3.8061   5.7177   6.6238
    17.1881  19.0703  20.7885  25.1399

     occupation numbers 
     1.0000   1.0000   1.0000   1.0000   1.0000   1.0000   1.0000   1.0000
     0.0000   0.0000   0.0000   0.0000

          k =-0.4419-0.0884-0.4419 (   537 PWs)   bands (ev):

   -64.2510 -31.2686 -31.2397 -31.2158  -7.9992   3.8672   5.2532   6.7436
    17.4305  19.6476  20.6249  24.9626

     occupation numbers 
     1.0000   1.0000   1.0000   1.0000   1.0000   1.0000   1.0000   1.0000
     0.0000   0.0000   0.0000   0.0000

          k = 0.4419 0.0884-0.4419 (   537 PWs)   bands (ev):

   -64.2510 -31.2686 -31.2397 -31.2158  -7.9992   3.8672   5.2532   6.7436
    17.4305  19.6476  20.6249  24.9626

     occupation numbers 
     1.0000   1.0000   1.0000   1.0000   1.0000   1.0000   1.0000   1.0000
     0.0000   0.0000   0.0000   0.0000

          k = 0.0884 0.4419 0.4419 (   537 PWs)   bands (ev):

   -64.2510 -31.2686 -31.2397 -31.2158  -7.9992   3.8672   5.2532   6.7436
    17.4305  19.6476  20.6249  24.9626

     occupation numbers 
     1.0000   1.0000   1.0000   1.0000   1.0000   1.0000   1.0000   1.0000
     0.0000   0.0000   0.0000   0.0000

          k =-0.3536 0.0000-0.3536 (   540 PWs)   bands (ev):

   -64.2526 -31.2622 -31.2339 -31.2098  -8.2406   4.1215   5.6354   6.9906
    16.9880  19.2659  21.5283  25.0265

     occupation numbers 
     1.0000   1.0000   1.0000   1.0000   1.0000   1.0000   1.0000   1.0000
     0.0000   0.0000   0.0000   0.0000

          k = 0.0000 0.3536 0.3536 (   540 PWs)   bands (ev):

   -64.2526 -31.2622 -31.2339 -31.2098  -8.2406   4.1215   5.6354   6.9906
    16.9880  19.2660  21.5283  25.0265

     occupation numbers 
     1.0000   1.0000   1.0000   1.0000   1.0000   1.0000   1.0000   1.0000
     0.0000   0.0000   0.0000   0.0000

          k = 0.0000 0.5303 0.0000 (   544 PWs)   bands (ev):

   -64.2514 -31.2653 -31.2259 -31.2259  -8.1616   3.9059   6.4620   6.4620
    17.1055  17.2081  20.8853  26.0069

     occupation numbers 
     1.0000   1.0000   1.0000   1.0000   1.0000   1.0000   1.0000   1.0000
     0.0000   0.0000   0.0000   0.0000

          k =-0.6187-0.0884-0.6187 (   540 PWs)   bands (ev):

   -64.2501 -31.2701 -31.2340 -31.2272  -7.9674   3.7511   5.9134   6.3867
    17.0750  17.9631  20.4552  26.0604

     occupation numbers 
     1.0000   1.0000   1.0000   1.0000   1.0000   1.0000   1.0000   1.0000
     0.0000   0.0000   0.0000   0.0000

          k = 0.6187 0.0884-0.6187 (   540 PWs)   bands (ev):

   -64.2501 -31.2701 -31.2340 -31.2272  -7.9674   3.7511   5.9134   6.3867
    17.0750  17.9631  20.4552  26.0610

     occupation numbers 
     1.0000   1.0000   1.0000   1.0000   1.0000   1.0000   1.0000   1.0000
     0.0000   0.0000   0.0000   0.0000

          k = 0.0884 0.6187 0.6187 (   540 PWs)   bands (ev):

   -64.2501 -31.2701 -31.2340 -31.2272  -7.9674   3.7511   5.9134   6.3867
    17.0750  17.9631  20.4552  26.0576

     occupation numbers 
     1.0000   1.0000   1.0000   1.0000   1.0000   1.0000   1.0000   1.0000
     0.0000   0.0000   0.0000   0.0000

          k =-0.5303 0.0000-0.5303 (   542 PWs)   bands (ev):

   -64.2499 -31.2621 -31.2491 -31.2230  -7.9007   4.1365   4.9171   6.4979
    17.5727  19.2896  20.0098  25.6137

     occupation numbers 
     1.0000   1.0000   1.0000   1.0000   1.0000   1.0000   1.0000   1.0000
     0.0000   0.0000   0.0000   0.0000

          k = 0.0000 0.5303 0.5303 (   542 PWs)   bands (ev):

   -64.2499 -31.2621 -31.2491 -31.2230  -7.9007   4.1365   4.9171   6.4979
    17.5727  19.2897  20.0098  25.6141

     occupation numbers 
     1.0000   1.0000   1.0000   1.0000   1.0000   1.0000   1.0000   1.0000
     0.0000   0.0000   0.0000   0.0000

          k = 0.0000-0.7071 0.0000 (   524 PWs)   bands (ev):

   -64.2497 -31.2750 -31.2301 -31.2301  -7.9292   3.5478   6.2931   6.2931
    16.5931  17.4894  20.5775  26.4484

     occupation numbers 
     1.0000   1.0000   1.0000   1.0000   1.0000   1.0000   1.0000   1.0000
     0.0000   0.0000   0.0000   0.0000

          k = 0.1768 0.3536 0.0000 (   545 PWs)   bands (ev):

   -64.2547 -31.2509 -31.2209 -31.2100  -8.5715   4.6073   6.4871   7.0283
    16.0191  18.9560  22.5774  25.0356

     occupation numbers 
     1.0000   1.0000   1.0000   1.0000   1.0000   1.0000   1.0000   1.0000
     0.0000   0.0000   0.0000   0.0000

          k =-0.0000-0.1768 0.3536 (   545 PWs)   bands (ev):

   -64.2547 -31.2509 -31.2209 -31.2100  -8.5715   4.6073   6.4871   7.0283
    16.0191  18.9560  22.5773  25.0358

     occupation numbers 
     1.0000   1.0000   1.0000   1.0000   1.0000   1.0000   1.0000   1.0000
     0.0000   0.0000   0.0000   0.0000

          k = 0.0000-0.1768-0.3536 (   545 PWs)   bands (ev):

   -64.2547 -31.2509 -31.2209 -31.2100  -8.5715   4.6073   6.4871   7.0283
    16.0191  18.9560  22.5774  25.0357

     occupation numbers 
     1.0000   1.0000   1.0000   1.0000   1.0000   1.0000   1.0000   1.0000
     0.0000   0.0000   0.0000   0.0000

          k =-0.4419-0.2652-0.6187 (   541 PWs)   bands (ev):

   -64.2522 -31.2671 -31.2290 -31.2144  -8.1853   3.9130   5.9080   6.7746
    16.9990  19.1372  21.4202  24.6379

     occupation numbers 
     1.0000   1.0000   1.0000   1.0000   1.0000   1.0000   1.0000   1.0000
     0.0000   0.0000   0.0000   0.0000

          k = 0.4419 0.2652-0.6187 (   541 PWs)   bands (ev):

   -64.2522 -31.2671 -31.2290 -31.2144  -8.1853   3.9129   5.9081   6.7746
    16.9990  19.1371  21.4203  24.6378

     occupation numbers 
     1.0000   1.0000   1.0000   1.0000   1.0000   1.0000   1.0000   1.0000
     0.0000   0.0000   0.0000   0.0000

          k = 0.6187 0.4419-0.2652 (   541 PWs)   bands (ev):

   -64.2522 -31.2671 -31.2290 -31.2144  -8.1853   3.9129   5.9080   6.7746
    16.9990  19.1372  21.4202  24.6379

     occupation numbers 
     1.0000   1.0000   1.0000   1.0000   1.0000   1.0000   1.0000   1.0000
     0.0000   0.0000   0.0000   0.0000

          k =-0.6187 0.4419 0.2652 (   541 PWs)   bands (ev):

   -64.2522 -31.2671 -31.2290 -31.2144  -8.1853   3.9130   5.9080   6.7746
    16.9990  19.1372  21.4203  24.6378

     occupation numbers 
     1.0000   1.0000   1.0000   1.0000   1.0000   1.0000   1.0000   1.0000
     0.0000   0.0000   0.0000   0.0000

          k = 0.2652 0.4419 0.6187 (   541 PWs)   bands (ev):

   -64.2522 -31.2671 -31.2290 -31.2144  -8.1853   3.9129   5.9080   6.7746
    16.9990  19.1372  21.4202  24.6378

     occupation numbers 
     1.0000   1.0000   1.0000   1.0000   1.0000   1.0000   1.0000   1.0000
     0.0000   0.0000   0.0000   0.0000

          k =-0.3536-0.1768-0.5303 (   546 PWs)   bands (ev):

   -64.2511 -31.2742 -31.2311 -31.2170  -8.0138   3.6174   5.6994   6.6547
    17.1633  19.6913  20.9903  24.3934

     occupation numbers 
     1.0000   1.0000   1.0000   1.0000   1.0000   1.0000   1.0000   1.0000
     0.0000   0.0000   0.0000   0.0000

          k = 0.3536 0.1768-0.5303 (   546 PWs)   bands (ev):

   -64.2511 -31.2742 -31.2311 -31.2170  -8.0138   3.6173   5.6994   6.6547
    17.1633  19.6912  20.9904  24.3933

     occupation numbers 
     1.0000   1.0000   1.0000   1.0000   1.0000   1.0000   1.0000   1.0000
     0.0000   0.0000   0.0000   0.0000

          k =-0.5303 0.3536 0.1768 (   546 PWs)   bands (ev):

   -64.2511 -31.2742 -31.2311 -31.2170  -8.0138   3.6174   5.6994   6.6547
    17.1633  19.6913  20.9903  24.3934

     occupation numbers 
     1.0000   1.0000   1.0000   1.0000   1.0000   1.0000   1.0000   1.0000
     0.0000   0.0000   0.0000   0.0000

          k =-0.5303-0.1768-0.7071 (   531 PWs)   bands (ev):

   -64.2511 -31.2649 -31.2321 -31.2237  -8.0899   3.9744   5.9429   6.3952
    17.7957  17.8687  20.6714  24.9643

     occupation numbers 
     1.0000   1.0000   1.0000   1.0000   1.0000   1.0000   1.0000   1.0000
     0.0000   0.0000   0.0000   0.0000

          k = 0.7071 0.5303-0.1768 (   531 PWs)   bands (ev):

   -64.2511 -31.2649 -31.2321 -31.2237  -8.0899   3.9744   5.9429   6.3952
    17.7957  17.8686  20.6714  24.9644

     occupation numbers 
     1.0000   1.0000   1.0000   1.0000   1.0000   1.0000   1.0000   1.0000
     0.0000   0.0000   0.0000   0.0000

          k =-0.7071 0.5303 0.1768 (   531 PWs)   bands (ev):

   -64.2511 -31.2649 -31.2321 -31.2237  -8.0899   3.9744   5.9429   6.3952
    17.7957  17.8686  20.6715  24.9644

     occupation numbers 
     1.0000   1.0000   1.0000   1.0000   1.0000   1.0000   1.0000   1.0000
     0.0000   0.0000   0.0000   0.0000

          k =-0.4419-0.0884-0.6187 (   539 PWs)   bands (ev):

   -64.2501 -31.2631 -31.2437 -31.2256  -7.9191   4.1199   5.1450   6.2610
    18.0766  19.2261  20.0067  24.0986

     occupation numbers 
     1.0000   1.0000   1.0000   1.0000   1.0000   1.0000   1.0000   1.0000
     0.0000   0.0000   0.0000   0.0000

          k = 0.4419 0.0884-0.6187 (   539 PWs)   bands (ev):

   -64.2501 -31.2631 -31.2437 -31.2256  -7.9191   4.1199   5.1450   6.2610
    18.0766  19.2261  20.0067  24.0986

     occupation numbers 
     1.0000   1.0000   1.0000   1.0000   1.0000   1.0000   1.0000   1.0000
     0.0000   0.0000   0.0000   0.0000

          k = 0.6187 0.4419-0.0884 (   539 PWs)   bands (ev):

   -64.2501 -31.2631 -31.2437 -31.2256  -7.9191   4.1199   5.1450   6.2610
    18.0766  19.2261  20.0066  24.0987

     occupation numbers 
     1.0000   1.0000   1.0000   1.0000   1.0000   1.0000   1.0000   1.0000
     0.0000   0.0000   0.0000   0.0000

          k =-0.6187 0.4419 0.0884 (   539 PWs)   bands (ev):

   -64.2501 -31.2631 -31.2437 -31.2256  -7.9191   4.1199   5.1450   6.2610
    18.0766  19.2261  20.0067  24.0986

     occupation numbers 
     1.0000   1.0000   1.0000   1.0000   1.0000   1.0000   1.0000   1.0000
     0.0000   0.0000   0.0000   0.0000

          k = 0.0884 0.4419 0.6187 (   539 PWs)   bands (ev):

   -64.2501 -31.2631 -31.2437 -31.2256  -7.9191   4.1199   5.1450   6.2610
    18.0766  19.2262  20.0066  24.0986

     occupation numbers 
     1.0000   1.0000   1.0000   1.0000   1.0000   1.0000   1.0000   1.0000
     0.0000   0.0000   0.0000   0.0000

          k =-0.3536 0.0000-0.5303 (   542 PWs)   bands (ev):

   -64.2505 -31.2605 -31.2470 -31.2207  -7.9610   4.2386   4.9346   6.4552
    18.2380  19.2057  20.2404  24.1463

     occupation numbers 
     1.0000   1.0000   1.0000   1.0000   1.0000   1.0000   1.0000   1.0000
     0.0000   0.0000   0.0000   0.0000

          k = 0.5303 0.3536-0.0000 (   542 PWs)   bands (ev):

   -64.2505 -31.2605 -31.2470 -31.2207  -7.9610   4.2386   4.9346   6.4552
    18.2380  19.2057  20.2403  24.1464

     occupation numbers 
     1.0000   1.0000   1.0000   1.0000   1.0000   1.0000   1.0000   1.0000
     0.0000   0.0000   0.0000   0.0000

          k =-0.0000 0.3536 0.5303 (   542 PWs)   bands (ev):

   -64.2505 -31.2605 -31.2470 -31.2207  -7.9610   4.2386   4.9346   6.4552
    18.2380  19.2058  20.2403  24.1464

     occupation numbers 
     1.0000   1.0000   1.0000   1.0000   1.0000   1.0000   1.0000   1.0000
     0.0000   0.0000   0.0000   0.0000

          k = 0.1768-0.7071 0.0000 (   536 PWs)   bands (ev):

   -64.2497 -31.2684 -31.2367 -31.2311  -7.8968   3.8469   5.7372   6.0719
    17.4796  18.3740  20.2360  24.8206

     occupation numbers 
     1.0000   1.0000   1.0000   1.0000   1.0000   1.0000   1.0000   1.0000
     0.0000   0.0000   0.0000   0.0000

          k = 0.0000-0.1768-0.7071 (   536 PWs)   bands (ev):

   -64.2497 -31.2684 -31.2367 -31.2311  -7.8968   3.8469   5.7372   6.0719
    17.4796  18.3739  20.2360  24.8206

     occupation numbers 
     1.0000   1.0000   1.0000   1.0000   1.0000   1.0000   1.0000   1.0000
     0.0000   0.0000   0.0000   0.0000

          k = 0.3536-0.7071 0.0000 (   524 PWs)   bands (ev):

   -64.2497 -31.2525 -31.2525 -31.2320  -7.8641   4.6758   4.6758   5.8623
    19.1281  19.1282  19.6869  23.0099

     occupation numbers 
     1.0000   1.0000   1.0000   1.0000   1.0000   1.0000   1.0000   1.0000
     0.0000   0.0000   0.0000   0.0000

     the Fermi energy is     9.5254 ev

!    total energy              =    -157.60509387 Ry
     Harris-Foulkes estimate   =    -157.60509387 Ry
     estimated scf accuracy    <          1.6E-12 Ry

     The total energy is the sum of the following terms:

     one-electron contribution =     -87.10989582 Ry
     hartree contribution      =      48.19850306 Ry
     xc contribution           =     -24.08263728 Ry
     ewald contribution        =     -94.61106383 Ry
     smearing contrib. (-TS)   =      -0.00000000 Ry

     convergence has been achieved in  12 iterations

     Forces acting on atoms (Ry/au):

     atom    1 type  1   force =   0.00000000E+00 -0.42949783E-03 -0.42949783E-03
     atom    2 type  2   force =   0.00000000E+00  0.42949783E-03  0.42949783E-03
     The non-local contrib.  to forces
     atom    1 type  1   force =   0.00000000E+00 -0.24807343E-02 -0.24807343E-02
     atom    2 type  2   force =   0.00000000E+00 -0.33367587E-03 -0.33367587E-03
     The ionic contribution  to forces
     atom    1 type  1   force =  -0.19382282E-14 -0.15815543E-01 -0.15815543E-01
     atom    2 type  2   force =   0.19289041E-14  0.15815543E-01  0.15815543E-01
     The local contribution  to forces
     atom    1 type  1   force =  -0.39757694E-15  0.17866164E-01  0.17866164E-01
     atom    2 type  2   force =  -0.50311480E-13 -0.15046934E-01 -0.15046934E-01
     The core correction contribution to forces
     atom    1 type  1   force =   0.00000000E+00  0.00000000E+00  0.00000000E+00
     atom    2 type  2   force =  -0.36797864E-15 -0.62031784E-05 -0.62031784E-05
     The Hubbard contrib.    to forces
     atom    1 type  1   force =   0.00000000E+00  0.00000000E+00  0.00000000E+00
     atom    2 type  2   force =   0.00000000E+00  0.00000000E+00  0.00000000E+00
     The SCF correction term to forces
     atom    1 type  1   force =   0.55084364E-15 -0.16264863E-06 -0.16264863E-06
     atom    2 type  2   force =  -0.30094197E-16 -0.95708132E-08 -0.95708130E-08

     Total force =     0.000859     Total SCF correction =     0.000000


     entering subroutine stress ...

          total   stress  (Ry/bohr**3)                   (kbar)     P=   -2.63
  -0.0000179716  -0.0000000000  -0.0000000000         -2.64     -0.00     -0.00
  -0.0000000000  -0.0000178671  -0.0000000165         -0.00     -2.63     -0.00
   0.0000000000  -0.0000000165  -0.0000178671          0.00     -0.00     -2.63

     kinetic stress (kbar)  24051.31     -0.00      0.00
                                0.00  24051.32     -0.00
                                0.00     -0.00  24051.32

     local   stress (kbar)  -3780.61      0.00      0.00
                                0.00  -3780.99      0.35
                                0.00      0.35  -3780.99

     nonloc. stress (kbar)   6544.30     -0.00      0.00
                               -0.00   6544.30     -0.00
                                0.00     -0.00   6544.30

     hartree stress (kbar)  18654.19      0.00      0.00
                                0.00  18654.32     -0.13
                                0.00     -0.13  18654.32

     exc-cor stress (kbar)  -8540.14     -0.00      0.00
                               -0.00  -8540.14     -0.00
                                0.00     -0.00  -8540.14

     corecor stress (kbar)   -314.19     -0.00      0.00
                               -0.00   -314.19      0.00
                                0.00      0.00   -314.19

     ewald   stress (kbar) -36617.50      0.00      0.00
                                0.00 -36617.25     -0.21
                                0.00     -0.21 -36617.25

     hubbard stress (kbar)      0.00      0.00      0.00
                                0.00      0.00      0.00
                                0.00      0.00      0.00

     london  stress (kbar)      0.00      0.00      0.00
                                0.00      0.00      0.00
                                0.00      0.00      0.00

     XDM     stress (kbar)      0.00      0.00      0.00
                                0.00      0.00      0.00
                                0.00      0.00      0.00

     dft-nl  stress (kbar)      0.00      0.00      0.00
                                0.00      0.00      0.00
                                0.00      0.00      0.00



     Writing output data file MgO_rocksalt.relax.in.up_1.00.x.save

     init_run     :      0.58s CPU      0.59s WALL (       1 calls)
     electrons    :     12.23s CPU     12.44s WALL (       1 calls)
     forces       :      0.11s CPU      0.11s WALL (       1 calls)
     stress       :      0.37s CPU      0.37s WALL (       1 calls)

     Called by init_run:
     wfcinit      :      0.32s CPU      0.32s WALL (       1 calls)
     potinit      :      0.02s CPU      0.03s WALL (       1 calls)

     Called by electrons:
     c_bands      :     10.04s CPU     10.20s WALL (      12 calls)
     sum_band     :      1.91s CPU      1.95s WALL (      12 calls)
     v_of_rho     :      0.06s CPU      0.07s WALL (      13 calls)
     v_h          :      0.00s CPU      0.00s WALL (      13 calls)
     v_xc         :      0.07s CPU      0.07s WALL (      15 calls)
     newd         :      0.14s CPU      0.14s WALL (      13 calls)
     mix_rho      :      0.08s CPU      0.07s WALL (      12 calls)

     Called by c_bands:
     init_us_2    :      0.35s CPU      0.31s WALL (    2565 calls)
     cegterg      :      9.50s CPU      9.69s WALL (    1140 calls)

     Called by sum_band:
     sum_band:bec :      0.02s CPU      0.02s WALL (    1140 calls)
     addusdens    :      0.12s CPU      0.13s WALL (      12 calls)

     Called by *egterg:
     h_psi        :      6.93s CPU      7.17s WALL (    3436 calls)
     s_psi        :      0.38s CPU      0.33s WALL (    3436 calls)
     g_psi        :      0.02s CPU      0.02s WALL (    2201 calls)
     cdiaghg      :      1.44s CPU      1.42s WALL (    3341 calls)
     cegterg:over :      0.42s CPU      0.41s WALL (    2201 calls)
     cegterg:upda :      0.20s CPU      0.14s WALL (    2201 calls)
     cegterg:last :      0.09s CPU      0.10s WALL (    1140 calls)

     Called by h_psi:
     h_psi:vloc   :      6.15s CPU      6.37s WALL (    3436 calls)
     h_psi:vnl    :      0.75s CPU      0.79s WALL (    3436 calls)
     add_vuspsi   :      0.30s CPU      0.33s WALL (    3436 calls)

     General routines
     calbec       :      0.63s CPU      0.68s WALL (    4766 calls)
     fft          :      0.04s CPU      0.05s WALL (     229 calls)
     ffts         :      0.04s CPU      0.05s WALL (     276 calls)
     fftw         :      6.99s CPU      7.18s WALL (   76976 calls)
     interpolate  :      0.02s CPU      0.02s WALL (      25 calls)

     Parallel routines
     fft_scatter  :      2.24s CPU      2.32s WALL (   77481 calls)

     PWSCF        :    13.88s CPU        14.35s WALL


   This run was terminated on:  16:14:49  28Dec2017            

=------------------------------------------------------------------------------=
   JOB DONE.
=------------------------------------------------------------------------------=
