
     Program PWSCF v.5.1 starts on 18Aug2017 at 20: 3: 9 

     This program is part of the open-source Quantum ESPRESSO suite
     for quantum simulation of materials; please cite
         "P. Giannozzi et al., J. Phys.:Condens. Matter 21 395502 (2009);
          URL http://www.quantum-espresso.org", 
     in publications or presentations arising from this work. More details at
     http://www.quantum-espresso.org/quote

     Parallel version (MPI), running on     8 processors
     R & G space division:  proc/nbgrp/npool/nimage =       8
     Reading input from /tmp/MgO_rocksalt.relax.in.up_1.00.super.444.02.26105/MgO_rocksalt.relax.in.up_1.00.super.444.02.t
Warning: card &IONS ignored
Warning: card   ION_DYNAMICS='BFGS', ignored
Warning: card / ignored
Warning: card &CELL ignored
Warning: card  CELL_DYNAMICS = 'BFGS' ignored
Warning: card / ignored
     Message from routine read_cards :
     DEPRECATED: no units specified in CELL_PARAMETERS card

     Current dimensions of program PWSCF are:
     Max number of different atomic species (ntypx) = 10
     Max number of k-points (npk) =  40000
     Max angular momentum in pseudopotentials (lmaxx) =  3
 kfg - two_fermi_energies  F

     Subspace diagonalization in iterative solution of the eigenvalue problem:
     a serial algorithm will be used


     Parallelization info
     --------------------
     sticks:   dense  smooth     PW     G-vecs:    dense   smooth      PW
     Min         874     701    186                48415    34660    4751
     Max         875     702    187                48418    34666    4753
     Sum        6997    5611   1495               387335   277305   38013



     bravais-lattice index     =            0
     lattice parameter (alat)  =    22.550292335  a.u.
     unit-cell volume          =    8108.5189 (a.u.)^3
     number of atoms/cell      =          128
     number of atomic types    =            2
     number of electrons       =      1024.00
     number of Kohn-Sham states=          614
     kinetic-energy cutoff     =      40.0000  Ry
     charge density cutoff     =     200.0000  Ry
     convergence threshold     =      1.0E-10
     mixing beta               =       0.3000
     number of iterations used =            8  local-TF  mixing
     Exchange-correlation      = SLA  PW   PSX  PSC ( 1  4 10  8 0)
     A smooth kinetic-energy cutoff is imposed at      39.5000 Ry
     height of the smooth step-function =             800.0000 Ry
     width of the smooth step-function  =               1.0000 Ry


     celldm(1)=  22.550292  celldm(2)=   0.000000  celldm(3)=   0.000000
     celldm(4)=   0.000000  celldm(5)=   0.000000  celldm(6)=   0.000000

     crystal axes: (cart. coord. in units of alat)
               a(1) = (   0.000000000000   0.707106781187   0.707106781187 )  
               a(2) = (   0.707106781187   0.000000000000   0.707106781187 )  
               a(3) = (   0.707106781187   0.707106781187  -0.000000000000 )  

     reciprocal axes: (cart. coord. in units 2 pi/alat)
               b(1) = ( -0.707107  0.707107  0.707107 )  
               b(2) = (  0.707107 -0.707107  0.707107 )  
               b(3) = (  0.707107  0.707107 -0.707107 )  


     PseudoPot. # 1 for Mg read from file:
     /users/kfg/psuedo/gbrv_1.5/mg.pbesol.UPF
     MD5 check sum: 4059f37963cf5867752dbf5ab2400678
     Pseudo is Ultrasoft, Zval = 10.0
     Generated by new atomic code, or converted to UPF format
     Using radial grid of  821 points,  7 beta functions with: 
                l(1) =   0
                l(2) =   0
                l(3) =   0
                l(4) =   1
                l(5) =   1
                l(6) =   2
                l(7) =   2
     Q(r) pseudized with  8 coefficients,  rinner =    1.200   1.200   1.200
                                                       1.200   1.200

     PseudoPot. # 2 for O  read from file:
     /users/kfg/psuedo/gbrv_1.5/o.pbesol.UPF
     MD5 check sum: 501638753501ef6325af9037351f7734
     Pseudo is Ultrasoft + core correction, Zval =  6.0
     Generated by new atomic code, or converted to UPF format
     Using radial grid of  737 points,  5 beta functions with: 
                l(1) =   0
                l(2) =   0
                l(3) =   1
                l(4) =   1
                l(5) =   2
     Q(r) pseudized with  8 coefficients,  rinner =    0.900   0.900   0.900
                                                       0.900   0.900

     atomic species   valence    mass     pseudopotential
        Mg            10.00    24.30500     Mg( 1.00)
        O              6.00    15.99940     O ( 1.00)

     No symmetry found


                                    s                        frac. trans.

      isym =  1     identity                                     

 cryst.   s( 1) = (     1          0          0      )
                  (     0          1          0      )
                  (     0          0          1      )

 cart.    s( 1) = (  1.0000000  0.0000000  0.0000000 )
                  (  0.0000000  1.0000000  0.0000000 )
                  (  0.0000000  0.0000000  1.0000000 )


     point group C_1 (1)    
     there are  1 classes
     the character table:

       E    
A      1.00

     the symmetry operations in each class:
     E        1

   Cartesian axes

     site n.     atom                  positions (alat units)
         1           Mg  tau(   1) = (    0.00218524920    0.00141660777    0.00078198050  )
         2           O   tau(   2) = (    0.17845492387    0.17504783389    0.17598087069  )
         3           Mg  tau(   3) = (    0.17606627494    0.17595146726    0.00137916770  )
         4           O   tau(   4) = (    0.35264444459    0.35337101230    0.17495899863  )
         5           Mg  tau(   5) = (    0.35391367881    0.35368004789    0.00083296523  )
         6           O   tau(   6) = (    0.53024630990    0.52979132409    0.17577684102  )
         7           Mg  tau(   7) = (    0.53070244326    0.53147510932    0.00186330326  )
         8           O   tau(   8) = (    0.70656948597    0.70776503153    0.17791234742  )
         9           Mg  tau(   9) = (    0.17788014316    0.00095214714    0.17719243144  )
        10           O   tau(  10) = (    0.35375648405    0.17572654370    0.35374502935  )
        11           Mg  tau(  11) = (    0.35173211491    0.17511512644    0.17823520517  )
        12           O   tau(  12) = (    0.53184145127    0.35561553141    0.35284767860  )
        13           Mg  tau(  13) = (    0.52949449583    0.35164747808    0.17497991808  )
        14           O   tau(  14) = (    0.70731513808    0.53161982549    0.35209288610  )
        15           Mg  tau(  15) = (    0.70492508241    0.53170423039    0.17872424044  )
        16           O   tau(  16) = (    0.88548062157    0.70616576807    0.35295202448  )
        17           Mg  tau(  17) = (    0.35267676604   -0.00161277321    0.35561078053  )
        18           O   tau(  18) = (    0.53086578932    0.17700675977    0.52850369399  )
        19           Mg  tau(  19) = (    0.52998711459    0.17850877171    0.35288126908  )
        20           O   tau(  20) = (    0.70636377216    0.35507837667    0.53167690729  )
        21           Mg  tau(  21) = (    0.70708341787    0.35279787885    0.35227377500  )
        22           O   tau(  22) = (    0.88322512298    0.52851007023    0.52952695204  )
        23           Mg  tau(  23) = (    0.88539373664    0.53191676166    0.35204379300  )
        24           O   tau(  24) = (    1.06225308571    0.70623303670    0.53068480129  )
        25           Mg  tau(  25) = (    0.52917680851   -0.00024371118    0.52832622456  )
        26           O   tau(  26) = (    0.70592196392    0.17684446849    0.70838925512  )
        27           Mg  tau(  27) = (    0.70632340585    0.17649265697    0.52842169830  )
        28           O   tau(  28) = (    0.88255345462    0.35374622653    0.70757037070  )
        29           Mg  tau(  29) = (    0.88357861003    0.35466219037    0.52940443097  )
        30           O   tau(  30) = (    1.06269243706    0.53148144547    0.70704034540  )
        31           Mg  tau(  31) = (    1.06082116517    0.53032908854    0.52995801908  )
        32           O   tau(  32) = (    1.23616447934    0.70784220093    0.70914107814  )
        33           Mg  tau(  33) = (   -0.00212631167    0.17742534148    0.17529827967  )
        34           O   tau(  34) = (    0.17481736751    0.35411081359    0.35448969125  )
        35           Mg  tau(  35) = (    0.17590432710    0.35338151650    0.17526842706  )
        36           O   tau(  36) = (    0.35358802645    0.53243890436    0.35239806174  )
        37           Mg  tau(  37) = (    0.35490441874    0.53091254555    0.17785192502  )
        38           O   tau(  38) = (    0.53118433586    0.70637765582    0.35183993902  )
        39           Mg  tau(  39) = (    0.53018003412    0.70556088140    0.17835569106  )
        40           O   tau(  40) = (    0.70781993158    0.88199599983    0.35293030733  )
        41           Mg  tau(  41) = (    0.17590059910    0.17695425068    0.35565253135  )
        42           O   tau(  42) = (    0.35243529871    0.35438418964    0.53075617954  )
        43           Mg  tau(  43) = (    0.35376692239    0.35430187213    0.35180000870  )
        44           O   tau(  44) = (    0.52987210768    0.53246304368    0.52917828022  )
        45           Mg  tau(  45) = (    0.53124739940    0.53120773580    0.35408478698  )
        46           O   tau(  46) = (    0.70600270375    0.70846202536    0.53108025570  )
        47           Mg  tau(  47) = (    0.70562295000    0.70497692907    0.35559727722  )
        48           O   tau(  48) = (    0.88345608422    0.88448260215    0.52862967115  )
        49           Mg  tau(  49) = (    0.35566073712    0.17734612537    0.52859856810  )
        50           O   tau(  50) = (    0.53164372897    0.35474606276    0.70631405704  )
        51           Mg  tau(  51) = (    0.52966625103    0.35362658881    0.52973709626  )
        52           O   tau(  52) = (    0.70681874987    0.53121934177    0.70668945487  )
        53           Mg  tau(  53) = (    0.70500595355    0.53147558522    0.52837913641  )
        54           O   tau(  54) = (    0.88249966912    0.70605203729    0.70588751083  )
        55           Mg  tau(  55) = (    0.88179739337    0.70518651870    0.53156032066  )
        56           O   tau(  56) = (    1.06113284388    0.88326148487    0.70797645800  )
        57           Mg  tau(  57) = (    0.52930458350    0.17716537779    0.70636559840  )
        58           O   tau(  58) = (    0.70807036062    0.35313151895    0.88208555970  )
        59           Mg  tau(  59) = (    0.70552043061    0.35466368093    0.70695356592  )
        60           O   tau(  60) = (    0.88545146544    0.53090219036    0.88420140047  )
        61           Mg  tau(  61) = (    0.88259745393    0.53225978777    0.70881726289  )
        62           O   tau(  62) = (    1.06085831995    0.70604601333    0.88411672687  )
        63           Mg  tau(  63) = (    1.06069456798    0.70780963956    0.70875369334  )
        64           O   tau(  64) = (    1.23764308401    0.88248756010    0.88410102628  )
        65           Mg  tau(  65) = (    0.00195943652    0.35222440694    0.35217856863  )
        66           O   tau(  66) = (    0.17546522678    0.52819363920    0.52878988498  )
        67           Mg  tau(  67) = (    0.17775163640    0.52929777197    0.35527597532  )
        68           O   tau(  68) = (    0.35203592870    0.70565900834    0.52844012922  )
        69           Mg  tau(  69) = (    0.35361803561    0.70666963419    0.35437413425  )
        70           O   tau(  70) = (    0.53079235148    0.88469985986    0.52833529222  )
        71           Mg  tau(  71) = (    0.52927702878    0.88576175701    0.35221003972  )
        72           O   tau(  72) = (    0.70666189267    1.05846940148    0.53092260309  )
        73           Mg  tau(  73) = (    0.17667522553    0.35243415332    0.53032893171  )
        74           O   tau(  74) = (    0.35417899523    0.53069183062    0.70606678975  )
        75           Mg  tau(  75) = (    0.35533733642    0.52903836032    0.52890163482  )
        76           O   tau(  76) = (    0.52994705395    0.70641835625    0.70578623409  )
        77           Mg  tau(  77) = (    0.52927217828    0.70552614976    0.52858772539  )
        78           O   tau(  78) = (    0.70875543643    0.88561530550    0.70600443016  )
        79           Mg  tau(  79) = (    0.70669589943    0.88281682938    0.52937781839  )
        80           O   tau(  80) = (    0.88515607389    1.06153248465    0.70728143933  )
        81           Mg  tau(  81) = (    0.35229694668    0.35450102715    0.70887835510  )
        82           O   tau(  82) = (    0.53149293115    0.53222221354    0.88351779056  )
        83           Mg  tau(  83) = (    0.53079106452    0.53169644664    0.70700230122  )
        84           O   tau(  84) = (    0.70714974780    0.70904365064    0.88510618118  )
        85           Mg  tau(  85) = (    0.70593907869    0.70637562577    0.70700801853  )
        86           O   tau(  86) = (    0.88433001143    0.88449215082    0.88342675803  )
        87           Mg  tau(  87) = (    0.88575291444    0.88218598932    0.70531951798  )
        88           O   tau(  88) = (    1.05862886750    1.06110185911    0.88282259856  )
        89           Mg  tau(  89) = (    0.53180930294    0.35308058802    0.88590196537  )
        90           O   tau(  90) = (    0.70524401968    0.53065982252    1.05886863383  )
        91           Mg  tau(  91) = (    0.70675237652    0.52904590818    0.88556353799  )
        92           O   tau(  92) = (    0.88484248529    0.70872041718    1.06167839848  )
        93           Mg  tau(  93) = (    0.88436132684    0.70869167848    0.88169638383  )
        94           O   tau(  94) = (    1.06277679875    0.88232798738    1.06122914834  )
        95           Mg  tau(  95) = (    1.06072142474    0.88285415338    0.88532193938  )
        96           O   tau(  96) = (    1.23929329067    1.05936853517    1.05880119787  )
        97           Mg  tau(  97) = (    0.00160164740    0.53052340325    0.53094224078  )
        98           O   tau(  98) = (    0.17802387215    0.70707810100    0.70694271903  )
        99           Mg  tau(  99) = (    0.17588140524    0.70578265635    0.53169069379  )
       100           O   tau( 100) = (    0.35157715224    0.88249494567    0.70912635124  )
       101           Mg  tau( 101) = (    0.35528246689    0.88397270131    0.52971702824  )
       102           O   tau( 102) = (    0.53171925938    1.06099142844    0.70563498945  )
       103           Mg  tau( 103) = (    0.52965051790    1.06167265834    0.53108387228  )
       104           O   tau( 104) = (    0.70650324941    1.23609275264    0.70658777393  )
       105           Mg  tau( 105) = (    0.17803423975    0.52884828420    0.70826770152  )
       106           O   tau( 106) = (    0.35367745642    0.70520258494    0.88330430638  )
       107           Mg  tau( 107) = (    0.35291548623    0.70792413808    0.70732298582  )
       108           O   tau( 108) = (    0.53108865615    0.88393382903    0.88307439292  )
       109           Mg  tau( 109) = (    0.52897858296    0.88521026483    0.70701046854  )
       110           O   tau( 110) = (    0.70572946667    1.06180078945    0.88551602797  )
       111           Mg  tau( 111) = (    0.70502829768    1.06164158555    0.70892888920  )
       112           O   tau( 112) = (    0.88582509834    1.23915502434    0.88557691079  )
       113           Mg  tau( 113) = (    0.35184040742    0.53122359125    0.88457239586  )
       114           O   tau( 114) = (    0.53207844571    0.70584122790    1.05925945923  )
       115           Mg  tau( 115) = (    0.53248326031    0.70618404821    0.88476492133  )
       116           O   tau( 116) = (    0.70773466317    0.88561770300    1.06054185840  )
       117           Mg  tau( 117) = (    0.70560067716    0.88326692907    0.88366607333  )
       118           O   tau( 118) = (    0.88449577196    1.06244859720    1.06224745434  )
       119           Mg  tau( 119) = (    0.88286925361    1.06016161248    0.88426825629  )
       120           O   tau( 120) = (    1.06141876225    1.23851728557    1.05966805768  )
       121           Mg  tau( 121) = (    0.52926010194    0.53162976752    1.06166776112  )
       122           O   tau( 122) = (    0.70531218106    0.70649407363    1.23765766647  )
       123           Mg  tau( 123) = (    0.70890321645    0.70766665935    1.05932097753  )
       124           O   tau( 124) = (    0.88174991229    0.88597424158    1.23675456384  )
       125           Mg  tau( 125) = (    0.88482851556    0.88575298296    1.06127541447  )
       126           O   tau( 126) = (    1.06277578396    1.05966289457    1.23831457815  )
       127           Mg  tau( 127) = (    1.05946663780    1.06042989372    1.06214239590  )
       128           O   tau( 128) = (    1.23876934982    1.23731599487    1.23908203122  )

   Crystallographic axes

     site n.     atom                  positions (cryst. coord.)
         1           Mg  tau(   1) = (    0.00000943214    0.00109645528    0.00199395378  )
         2           O   tau(   2) = (    0.12202809059    0.12684644345    0.12552693016  )
         3           Mg  tau(   3) = (    0.00089403755    0.00105640012    0.24793891378  )
         4           O   tau(   4) = (    0.12422845532    0.12320093341    0.37551362283  )
         5           Mg  tau(   5) = (    0.00042379336    0.00075419737    0.49975532711  )
         6           O   tau(   6) = (    0.12397127271    0.12461471982    0.62526680305  )
         7           Mg  tau(   7) = (    0.00186391178    0.00077119696    0.74975539589  )
         8           O   tau(   8) = (    0.12664840570    0.12495764894    0.87428250087  )
         9           Mg  tau(   9) = (    0.00018698407    0.25040095562    0.00115955532  )
        10           O   tau(  10) = (    0.12424933099    0.37602168713    0.12426553038  )
        11           Mg  tau(  11) = (    0.00114425200    0.25091839244    0.24650593479  )
        12           O   tau(  12) = (    0.12489044332    0.37411152922    0.37802586420  )
        13           Mg  tau(  13) = (   -0.00202734562    0.24948631891    0.49933197830  )
        14           O   tau(  14) = (    0.12473192042    0.37320261432    0.62709204682  )
        15           Mg  tau(  15) = (    0.00389148327    0.24886276147    0.74805185052  )
        16           O   tau(  16) = (    0.12278002107    0.37636951883    0.87588918542  )
        17           Mg  tau(  17) = (    0.00093425867    0.50197533008   -0.00321506442  )
        18           O   tau(  18) = (    0.12349242652    0.62392466528    0.12683293377  )
        19           Mg  tau(  19) = (    0.00099201863    0.49805745802    0.25145750732  )
        20           O   tau(  20) = (    0.12755606127    0.62434863183    0.37460059473  )
        21           Mg  tau(  21) = (   -0.00142253198    0.49961288226    0.50035407703  )
        22           O   tau(  22) = (    0.12361067942    0.62525351780    0.62381542975  )
        23           Mg  tau(  23) = (   -0.00101341269    0.49887851931    0.75325731109  )
        24           O   tau(  24) = (    0.12350663077    0.62699501256    0.87525770793  )
        25           Mg  tau(  25) = (   -0.00077378350    0.74793989564    0.00042912385  )
        26           O   tau(  26) = (    0.12679256122    0.87502113081    0.12330328455  )
        27           Mg  tau(  27) = (   -0.00099634922    0.74829748161    0.25059465837  )
        28           O   tau(  28) = (    0.12640463036    0.87425098421    0.37386808084  )
        29           Mg  tau(  29) = (    0.00034507611    0.74834585015    0.50122300358  )
        30           O   tau(  30) = (    0.12433012841    0.87557591720    0.62729813993  )
        31           Mg  tau(  31) = (   -0.00037763572    0.74985145379    0.75037622526  )
        32           O   tau(  32) = (    0.12785819945    0.87501873089    0.87318184112  )
        33           Mg  tau(  33) = (    0.25091679380   -0.00300758923    0.00000053043  )
        34           O   tau(  34) = (    0.37744167609    0.12388245300    0.12334663908  )
        35           Mg  tau(  35) = (    0.24942881743   -0.00156183083    0.25032811589  )
        36           O   tau(  36) = (    0.37564972773    0.12271639054    0.37733259196  )
        37           Mg  tau(  37) = (    0.25021684224    0.00130376222    0.50060688011  )
        38           O   tau(  38) = (    0.37266879133    0.12490802222    0.62630006968  )
        39           Mg  tau(  39) = (    0.25012950501    0.00210353221    0.74768426254  )
        40           O   tau(  40) = (    0.37272049257    0.12639833462    0.87461021234  )
        41           Mg  tau(  41) = (    0.25222936084    0.25073927249   -0.00197825961  )
        42           O   tau(  42) = (    0.37667936770    0.37392321972    0.12449555957  )
        43           Mg  tau(  43) = (    0.24913843836    0.24838190519    0.25192007438  )
        44           O   tau(  44) = (    0.37601761882    0.37235348198    0.37699883902  )
        45           Mg  tau(  45) = (    0.25034770759    0.25040380038    0.50089347682  )
        46           O   tau(  46) = (    0.37726945315    0.37379144717    0.62464715154  )
        47           Mg  tau(  47) = (    0.25098844032    0.25190205187    0.74599949393  )
        48           O   tau(  48) = (    0.37452348300    0.37307176742    0.87632380865  )
        49           Mg  tau(  49) = (    0.24768816087    0.49986310318    0.00311713486  )
        50           O   tau(  50) = (    0.37435392002    0.62452499874    0.12733277313  )
        51           Mg  tau(  51) = (    0.25010185409    0.49905953193    0.25000166382  )
        52           O   tau(  52) = (    0.37553737349    0.62387243797    0.37572022424  )
        53           Mg  tau(  53) = (    0.25091597020    0.49632497058    0.50070401049  )
        54           O   tau(  54) = (    0.37437052867    0.62390516266    0.62413783820  )
        55           Mg  tau(  55) = (    0.25098716024    0.50075265446    0.74629717851  )
        56           O   tau(  56) = (    0.37484091024    0.62638899851    0.87427946078  )
        57           Mg  tau(  57) = (    0.25047588435    0.74847592490    0.00007379571  )
        58           O   tau(  58) = (    0.37274901900    0.87470834271    0.12665436440  )
        59           Mg  tau(  59) = (    0.25179847353    0.74798484737    0.24977171413  )
        60           O   tau(  60) = (    0.37452060954    0.87592900288    0.37628846837  )
        61           Mg  tau(  61) = (    0.25348335377    0.74893563266    0.49924565681  )
        62           O   tau(  62) = (    0.37427474487    0.87605512099    0.62422510285  )
        63           Mg  tau(  63) = (    0.25163721689    0.75069186861    0.74935677495  )
        64           O   tau(  64) = (    0.37402095161    0.87628671027    0.87400492452  )
        65           Mg  tau(  65) = (    0.49670258986    0.00135311827    0.00141794343  )
        66           O   tau(  66) = (    0.62332756583    0.12449426116    0.12365104228  )
        67           Mg  tau(  67) = (    0.49979870770    0.00263739498    0.24874137995  )
        68           O   tau(  68) = (    0.62371287642    0.12361432122    0.37423966359  )
        69           Mg  tau(  69) = (    0.50022553287    0.00093517394    0.49915624792  )
        70           O   tau(  70) = (    0.62383986696    0.12333906878    0.62731467349  )
        71           Mg  tau(  71) = (    0.50112287621   -0.00302266123    0.75153341358  )
        72           O   tau(  72) = (    0.62418444808    0.12665349779    0.87271733484  )
        73           Mg  tau(  73) = (    0.49927951357    0.25071885418   -0.00086235409  )
        74           O   tau(  74) = (    0.62407803787    0.37445119213    0.12643354643  )
        75           Mg  tau(  75) = (    0.49681510446    0.25116476066    0.25135811972  )
        76           O   tau(  76) = (    0.62385028674    0.37428217765    0.37517613338  )
        77           Mg  tau(  77) = (    0.49839834352    0.24913758663    0.49936630608  )
        78           O   tau(  78) = (    0.62427933285    0.37416170737    0.62816984323  )
        79           Mg  tau(  79) = (    0.49886294907    0.24979034132    0.74962858413  )
        80           O   tau(  80) = (    0.62484045805    0.37540654587    0.87639317865  )
        81           Mg  tau(  81) = (    0.50281121217    0.49969417169   -0.00147105171  )
        82           O   tau(  82) = (    0.62525710153    0.62422574048    0.12741877105  )
        83           Mg  tau(  83) = (    0.50056632335    0.49928591967    0.25136600256  )
        84           O   tau(  84) = (    0.62720377432    0.62452539124    0.37553537273  )
        85           Mg  tau(  85) = (    0.50023884966    0.49962147885    0.49872714043  )
        86           O   tau(  86) = (    0.62479170115    0.62456240142    0.62606909435  )
        87           Mg  tau(  87) = (    0.49621401712    0.50125841101    0.75138537351  )
        88           O   tau(  88) = (    0.62599851517    0.62250117689    0.87462612505  )
        89           Mg  tau(  89) = (    0.50004700087    0.75280757349   -0.00071564468  )
        90           O   tau(  90) = (    0.62528352167    0.87218286107    0.12518279635  )
        91           Mg  tau(  91) = (    0.50053053406    0.75184543171    0.24765336441  )
        92           O   tau(  92) = (    0.62618288633    0.87525710369    0.37609913957  )
        93           Mg  tau(  93) = (    0.49923629235    0.74767069156    0.50300509090  )
        94           O   tau(  94) = (    0.62280574901    0.87799890536    0.62499445721  )
        95           Mg  tau(  95) = (    0.50024599314    0.75178830060    0.74829832417  )
        96           O   tau(  96) = (    0.62145949223    0.87591152166    0.87671385777  )
        97           Mg  tau(  97) = (    0.74943701916    0.00142869859    0.00083637288  )
        98           O   tau(  98) = (    0.87398182337    0.12578615770    0.12597761672  )
        99           Mg  tau(  99) = (    0.75065886310    0.00126532706    0.24746854161  )
       100           O   tau( 100) = (    0.87684362367    0.12601247969    0.37119269722  )
       101           Mg  tau( 101) = (    0.74840695268    0.00072605287    0.50171923028  )
       102           O   tau( 102) = (    0.87321122592    0.12470734624    0.62725724175  )
       103           Mg  tau( 103) = (    0.75172947072   -0.00066345578    0.74970240151  )
       104           O   tau( 104) = (    0.87410933543    0.12515667748    0.87398979971  )
       105           Mg  tau( 105) = (    0.74888388441    0.25275790487   -0.00097946845  )
       106           O   tau( 106) = (    0.87315626703    0.37602466276    0.12415079281  )
       107           Mg  tau( 107) = (    0.75118190487    0.24912385466    0.24997401234  )
       108           O   tau( 108) = (    0.87392710598    0.37492867708    0.37614410327  )
       109           Mg  tau( 109) = (    0.75182573460    0.24803805875    0.50005062747  )
       110           O   tau( 110) = (    0.87793483515    0.37437394131    0.62367824183  )
       111           Mg  tau( 111) = (    0.75345209905    0.24912475081    0.74793582962  )
       112           O   tau( 112) = (    0.87603942555    0.37635545221    0.87639041575  )
       113           Mg  tau( 113) = (    0.75233020528    0.49864407384   -0.00106659788  )
       114           O   tau( 114) = (    0.87187838827    0.62614070505    0.12633184912  )
       115           Mg  tau( 115) = (    0.74844828065    0.50279827061    0.25024677786  )
       116           O   tau( 116) = (    0.87569864352    0.62413403609    0.37675392313  )
       117           Mg  tau( 117) = (    0.75047528427    0.49921726125    0.49865278601  )
       118           O   tau( 118) = (    0.87695402773    0.62529072880    0.62557518776  )
       119           Mg  tau( 119) = (    0.75063670962    0.49990745120    0.74865822105  )
       120           O   tau( 120) = (    0.87452603617    0.62407090261    0.87700190632  )
       121           Mg  tau( 121) = (    0.75238807986    0.74903686666   -0.00055005247  )
       122           O   tau( 122) = (    0.87599185300    0.87432040449    0.12314164767  )
       123           Mg  tau( 123) = (    0.74817866875    0.74992742458    0.25261311854  )
       124           O   tau( 124) = (    0.87750459064    0.87153048687    0.37545219772  )
       125           Mg  tau( 125) = (    0.75108873945    0.74978134512    0.50155514196  )
       126           O   tau( 126) = (    0.87341949026    0.87782178064    0.62517014679  )
       127           Mg  tau( 127) = (    0.75172921552    0.75036696593    0.74794512213  )
       128           O   tau( 128) = (    0.87513562958    0.87719098386    0.87469343130  )

     number of k points=     8  gaussian smearing, width (Ry)=  0.0050
                       cart. coord. in units 2pi/alat
        k(    1) = (   0.0000000   0.0000000   0.0000000), wk =   0.2500000
        k(    2) = (  -0.3535534  -0.3535534   0.3535534), wk =   0.2500000
        k(    3) = (  -0.7071068   0.0000000   0.0000000), wk =   0.2500000
        k(    4) = (   0.3535534   0.3535534   0.3535534), wk =   0.2500000
        k(    5) = (   0.3535534  -0.3535534  -0.3535534), wk =   0.2500000
        k(    6) = (  -0.3535534   0.3535534  -0.3535534), wk =   0.2500000
        k(    7) = (   0.0000000  -0.7071068   0.0000000), wk =   0.2500000
        k(    8) = (   0.0000000   0.0000000  -0.7071068), wk =   0.2500000

                       cryst. coord.
        k(    1) = (   0.0000000   0.0000000   0.0000000), wk =   0.2500000
        k(    2) = (   0.0000000   0.0000000  -0.5000000), wk =   0.2500000
        k(    3) = (   0.0000000  -0.5000000  -0.5000000), wk =   0.2500000
        k(    4) = (   0.5000000   0.5000000   0.5000000), wk =   0.2500000
        k(    5) = (  -0.5000000   0.0000000   0.0000000), wk =   0.2500000
        k(    6) = (   0.0000000  -0.5000000   0.0000000), wk =   0.2500000
        k(    7) = (  -0.5000000   0.0000000  -0.5000000), wk =   0.2500000
        k(    8) = (  -0.5000000  -0.5000000   0.0000000), wk =   0.2500000

     Dense  grid:   387335 G-vectors     FFT dimensions: ( 108, 108, 108)

     Smooth grid:   277305 G-vectors     FFT dimensions: (  96,  96,  96)

     Largest allocated arrays     est. size (Mb)     dimensions
        Kohn-Sham Wavefunctions        40.65 Mb     (    4339,  614)
        NL pseudopotentials           135.59 Mb     (    4339, 2048)
        Each V/rho on FFT grid          2.49 Mb     (  163296)
        Each G-vector array             0.37 Mb     (   48418)
        G-vector shells                 0.01 Mb     (    1718)
     Largest temporary arrays     est. size (Mb)     dimensions
        Auxiliary wavefunctions       162.61 Mb     (    4339, 2456)
        Each subspace H/S matrix       92.04 Mb     (    2456, 2456)
        Each <psi_i|beta_j> matrix     19.19 Mb     (    2048,  614)
        Arrays for rho mixing          19.93 Mb     (  163296,    8)

     Check: negative/imaginary core charge=   -0.000003    0.000000

     Initial potential from superposition of free atoms

     starting charge 1004.78535, renormalised to 1024.00000
     Starting wfc are  576 randomized atomic wfcs +   38 random wfc

     total cpu time spent up to now is      299.4 secs

     per-process dynamical memory:   578.7 Mb

     Self-consistent Calculation

     iteration #  1     ecut=    40.00 Ry     beta=0.30
     Davidson diagonalization with overlap
     ethr =  1.00E-02,  avg # of iterations =  6.3

     total cpu time spent up to now is     2182.2 secs

     total energy              =  -10090.15506103 Ry
     Harris-Foulkes estimate   =  -10094.57019232 Ry
     estimated scf accuracy    <      22.12286766 Ry

     iteration #  2     ecut=    40.00 Ry     beta=0.30
     Davidson diagonalization with overlap
     ethr =  2.16E-03,  avg # of iterations =  1.0

     total cpu time spent up to now is     2989.3 secs

     total energy              =  -10085.82704516 Ry
     Harris-Foulkes estimate   =  -10090.67726967 Ry
     estimated scf accuracy    <      10.41066405 Ry

     iteration #  3     ecut=    40.00 Ry     beta=0.30
     Davidson diagonalization with overlap
     ethr =  1.02E-03,  avg # of iterations =  4.4

     total cpu time spent up to now is     4310.6 secs

     total energy              =  -10086.71738940 Ry
     Harris-Foulkes estimate   =  -10087.37756307 Ry
     estimated scf accuracy    <       1.26861071 Ry

     iteration #  4     ecut=    40.00 Ry     beta=0.30
     Davidson diagonalization with overlap
     ethr =  1.24E-04,  avg # of iterations =  4.1

     total cpu time spent up to now is     5367.1 secs

     total energy              =  -10086.67300233 Ry
     Harris-Foulkes estimate   =  -10086.79939701 Ry
     estimated scf accuracy    <       0.20254776 Ry

     iteration #  5     ecut=    40.00 Ry     beta=0.30
     Davidson diagonalization with overlap
     ethr =  1.98E-05,  avg # of iterations = 11.1

     total cpu time spent up to now is     7795.7 secs

     total energy              =  -10086.68945054 Ry
     Harris-Foulkes estimate   =  -10086.69577473 Ry
     estimated scf accuracy    <       0.02665025 Ry

     iteration #  6     ecut=    40.00 Ry     beta=0.30
     Davidson diagonalization with overlap
     ethr =  2.60E-06,  avg # of iterations =  8.1

     total cpu time spent up to now is     9614.3 secs

     total energy              =  -10086.68820989 Ry
     Harris-Foulkes estimate   =  -10086.69421389 Ry
     estimated scf accuracy    <       0.01249736 Ry

     iteration #  7     ecut=    40.00 Ry     beta=0.30
     Davidson diagonalization with overlap
     ethr =  1.22E-06,  avg # of iterations =  2.0

     total cpu time spent up to now is    10732.1 secs

     total energy              =  -10086.69061388 Ry
     Harris-Foulkes estimate   =  -10086.69276954 Ry
     estimated scf accuracy    <       0.00408815 Ry

     iteration #  8     ecut=    40.00 Ry     beta=0.30
     Davidson diagonalization with overlap
     ethr =  3.99E-07,  avg # of iterations =  2.0

     total cpu time spent up to now is    11757.7 secs

     total energy              =  -10086.69148276 Ry
     Harris-Foulkes estimate   =  -10086.69177440 Ry
     estimated scf accuracy    <       0.00054571 Ry

     iteration #  9     ecut=    40.00 Ry     beta=0.30
     Davidson diagonalization with overlap
     ethr =  5.33E-08,  avg # of iterations =  2.0

     total cpu time spent up to now is    12810.3 secs

     total energy              =  -10086.69155848 Ry
     Harris-Foulkes estimate   =  -10086.69167553 Ry
     estimated scf accuracy    <       0.00020352 Ry

     iteration # 10     ecut=    40.00 Ry     beta=0.30
     Davidson diagonalization with overlap
     ethr =  1.99E-08,  avg # of iterations =  3.0

     total cpu time spent up to now is    14016.0 secs

     total energy              =  -10086.69155598 Ry
     Harris-Foulkes estimate   =  -10086.69173548 Ry
     estimated scf accuracy    <       0.00043833 Ry

     iteration # 11     ecut=    40.00 Ry     beta=0.30
     Davidson diagonalization with overlap
     ethr =  1.99E-08,  avg # of iterations =  2.0

     total cpu time spent up to now is    15000.4 secs

     total energy              =  -10086.69161645 Ry
     Harris-Foulkes estimate   =  -10086.69161747 Ry
     estimated scf accuracy    <       0.00000820 Ry

     iteration # 12     ecut=    40.00 Ry     beta=0.30
     Davidson diagonalization with overlap
     ethr =  8.00E-10,  avg # of iterations =  1.0

     total cpu time spent up to now is    15755.2 secs

     total energy              =  -10086.69161416 Ry
     Harris-Foulkes estimate   =  -10086.69161683 Ry
     estimated scf accuracy    <       0.00000502 Ry

     iteration # 13     ecut=    40.00 Ry     beta=0.30
     Davidson diagonalization with overlap
     ethr =  4.91E-10,  avg # of iterations =  2.0

     total cpu time spent up to now is    16768.8 secs

     total energy              =  -10086.69161500 Ry
     Harris-Foulkes estimate   =  -10086.69161643 Ry
     estimated scf accuracy    <       0.00000410 Ry

     iteration # 14     ecut=    40.00 Ry     beta=0.30
     Davidson diagonalization with overlap
     ethr =  4.00E-10,  avg # of iterations =  2.0

     total cpu time spent up to now is    17763.3 secs

     total energy              =  -10086.69161566 Ry
     Harris-Foulkes estimate   =  -10086.69161564 Ry
     estimated scf accuracy    <       0.00000030 Ry

     iteration # 15     ecut=    40.00 Ry     beta=0.30
     Davidson diagonalization with overlap
     ethr =  2.89E-11,  avg # of iterations =  2.0

     total cpu time spent up to now is    18610.5 secs

     total energy              =  -10086.69161566 Ry
     Harris-Foulkes estimate   =  -10086.69161569 Ry
     estimated scf accuracy    <       0.00000013 Ry

     iteration # 16     ecut=    40.00 Ry     beta=0.30
     Davidson diagonalization with overlap
     ethr =  1.27E-11,  avg # of iterations =  2.0

     total cpu time spent up to now is    19569.6 secs

     total energy              =  -10086.69161567 Ry
     Harris-Foulkes estimate   =  -10086.69161568 Ry
     estimated scf accuracy    <       0.00000006 Ry

     iteration # 17     ecut=    40.00 Ry     beta=0.30
     Davidson diagonalization with overlap
     ethr =  5.73E-12,  avg # of iterations =  2.0

     total cpu time spent up to now is    20524.9 secs

     total energy              =  -10086.69161568 Ry
     Harris-Foulkes estimate   =  -10086.69161567 Ry
     estimated scf accuracy    <       0.00000001 Ry

     iteration # 18     ecut=    40.00 Ry     beta=0.30
     Davidson diagonalization with overlap
     ethr =  1.19E-12,  avg # of iterations =  1.0

     total cpu time spent up to now is    21277.8 secs

     total energy              =  -10086.69161568 Ry
     Harris-Foulkes estimate   =  -10086.69161568 Ry
     estimated scf accuracy    <          8.4E-09 Ry

     iteration # 19     ecut=    40.00 Ry     beta=0.30
     Davidson diagonalization with overlap
     ethr =  8.25E-13,  avg # of iterations =  2.0

     total cpu time spent up to now is    22133.4 secs

     total energy              =  -10086.69161568 Ry
     Harris-Foulkes estimate   =  -10086.69161568 Ry
     estimated scf accuracy    <          4.1E-09 Ry

     iteration # 20     ecut=    40.00 Ry     beta=0.30
     Davidson diagonalization with overlap
     ethr =  3.99E-13,  avg # of iterations =  1.0

     total cpu time spent up to now is    22884.7 secs

     total energy              =  -10086.69161568 Ry
     Harris-Foulkes estimate   =  -10086.69161568 Ry
     estimated scf accuracy    <          2.6E-09 Ry

     iteration # 21     ecut=    40.00 Ry     beta=0.30
     Davidson diagonalization with overlap
     ethr =  2.56E-13,  avg # of iterations =  1.0

     total cpu time spent up to now is    23643.7 secs

     total energy              =  -10086.69161568 Ry
     Harris-Foulkes estimate   =  -10086.69161568 Ry
     estimated scf accuracy    <          1.7E-09 Ry

     iteration # 22     ecut=    40.00 Ry     beta=0.30
     Davidson diagonalization with overlap
     ethr =  1.68E-13,  avg # of iterations =  2.0

     total cpu time spent up to now is    24489.6 secs

     total energy              =  -10086.69161568 Ry
     Harris-Foulkes estimate   =  -10086.69161568 Ry
     estimated scf accuracy    <          7.3E-10 Ry

     iteration # 23     ecut=    40.00 Ry     beta=0.30
     Davidson diagonalization with overlap
     ethr =  1.00E-13,  avg # of iterations =  1.0

     total cpu time spent up to now is    25241.9 secs

     total energy              =  -10086.69161568 Ry
     Harris-Foulkes estimate   =  -10086.69161568 Ry
     estimated scf accuracy    <          4.2E-10 Ry

     iteration # 24     ecut=    40.00 Ry     beta=0.30
     Davidson diagonalization with overlap
     ethr =  1.00E-13,  avg # of iterations =  1.0

     total cpu time spent up to now is    26001.3 secs

     total energy              =  -10086.69161568 Ry
     Harris-Foulkes estimate   =  -10086.69161568 Ry
     estimated scf accuracy    <          1.9E-10 Ry

     iteration # 25     ecut=    40.00 Ry     beta=0.30
     Davidson diagonalization with overlap
     ethr =  1.00E-13,  avg # of iterations =  1.0

     total cpu time spent up to now is    26782.4 secs

     total energy              =  -10086.69161568 Ry
     Harris-Foulkes estimate   =  -10086.69161568 Ry
     estimated scf accuracy    <          1.3E-10 Ry

     iteration # 26     ecut=    40.00 Ry     beta=0.30
     Davidson diagonalization with overlap
     ethr =  1.00E-13,  avg # of iterations =  1.0

     total cpu time spent up to now is    27616.4 secs

     End of self-consistent calculation

          k = 0.0000 0.0000 0.0000 ( 34621 PWs)   bands (ev):

   -64.5042 -64.4191 -64.3920 -64.3863 -64.3745 -64.3486 -64.3451 -64.3390
   -64.3336 -64.3242 -64.3197 -64.3159 -64.3158 -64.3128 -64.2956 -64.2950
   -64.2925 -64.2913 -64.2905 -64.2902 -64.2886 -64.2788 -64.2778 -64.2743
   -64.2737 -64.2734 -64.2720 -64.2712 -64.2696 -64.2662 -64.2630 -64.2615
   -64.2604 -64.2536 -64.2513 -64.2394 -64.2334 -64.2288 -64.2273 -64.2226
   -64.2208 -64.2194 -64.2122 -64.2105 -64.2101 -64.2082 -64.2042 -64.1969
   -64.1946 -64.1918 -64.1906 -64.1788 -64.1780 -64.1773 -64.1764 -64.1684
   -64.1553 -64.1514 -64.1498 -64.1414 -64.1391 -64.1209 -64.1099 -64.1053
   -31.4898 -31.4863 -31.4848 -31.4080 -31.4029 -31.4008 -31.3850 -31.3796
   -31.3776 -31.3766 -31.3733 -31.3723 -31.3586 -31.3570 -31.3515 -31.3470
   -31.3430 -31.3383 -31.3306 -31.3297 -31.3283 -31.3267 -31.3235 -31.3227
   -31.3218 -31.3195 -31.3160 -31.3157 -31.3137 -31.3114 -31.3099 -31.3094
   -31.3070 -31.3042 -31.3036 -31.3028 -31.3016 -31.3004 -31.2997 -31.2989
   -31.2972 -31.2962 -31.2955 -31.2920 -31.2906 -31.2854 -31.2851 -31.2831
   -31.2817 -31.2795 -31.2789 -31.2781 -31.2776 -31.2764 -31.2745 -31.2739
   -31.2735 -31.2727 -31.2723 -31.2717 -31.2696 -31.2695 -31.2688 -31.2681
   -31.2677 -31.2660 -31.2647 -31.2633 -31.2623 -31.2613 -31.2610 -31.2602
   -31.2599 -31.2587 -31.2583 -31.2567 -31.2551 -31.2547 -31.2545 -31.2534
   -31.2528 -31.2518 -31.2510 -31.2501 -31.2493 -31.2483 -31.2470 -31.2462
   -31.2452 -31.2449 -31.2430 -31.2422 -31.2419 -31.2411 -31.2406 -31.2398
   -31.2393 -31.2379 -31.2369 -31.2358 -31.2332 -31.2318 -31.2313 -31.2312
   -31.2283 -31.2260 -31.2232 -31.2218 -31.2214 -31.2164 -31.2140 -31.2121
   -31.2113 -31.2102 -31.2097 -31.2091 -31.2078 -31.2072 -31.2056 -31.2043
   -31.2039 -31.2027 -31.2016 -31.2001 -31.1986 -31.1985 -31.1972 -31.1959
   -31.1946 -31.1939 -31.1936 -31.1917 -31.1908 -31.1907 -31.1889 -31.1879
   -31.1870 -31.1859 -31.1840 -31.1830 -31.1806 -31.1782 -31.1775 -31.1763
   -31.1754 -31.1750 -31.1742 -31.1728 -31.1702 -31.1700 -31.1669 -31.1662
   -31.1632 -31.1616 -31.1614 -31.1600 -31.1589 -31.1584 -31.1576 -31.1568
   -31.1564 -31.1548 -31.1527 -31.1487 -31.1482 -31.1476 -31.1466 -31.1445
   -31.1415 -31.1406 -31.1386 -31.1379 -31.1342 -31.1331 -31.1298 -31.1242
   -31.1231 -31.1219 -31.1197 -31.1172 -31.1162 -31.1156 -31.1145 -31.1035
   -31.1001 -31.0979 -31.0910 -31.0884 -31.0877 -31.0852 -31.0836 -31.0796
    -9.5026  -8.9407  -8.9342  -8.9193  -8.9082  -8.8907  -8.8811  -8.8592
    -8.8321  -8.7465  -8.7383  -8.7286  -8.7206  -8.7124  -8.6992  -8.3248
    -8.3033  -8.2948  -8.2897  -8.2823  -8.2713  -8.2660  -8.2474  -8.2356
    -8.2175  -8.2156  -8.1954  -8.1935  -8.1777  -8.1661  -8.1585  -8.1390
    -8.1325  -8.1278  -8.1255  -8.1102  -8.1043  -8.0875  -8.0721  -8.0700
    -8.0670  -8.0631  -8.0536  -8.0470  -8.0403  -8.0313  -8.0202  -8.0101
    -8.0034  -7.9969  -7.9894  -7.9759  -7.9602  -7.9463  -7.9352  -7.9226
    -7.8976  -7.8854  -7.8608  -7.8553  -7.8303  -7.8246  -7.8061  -7.7728
     2.9836   2.9863   2.9876   2.9880   3.5355   3.5374   3.5383   3.7368
     3.7424   3.7492   3.7533   3.7633   3.7659   3.7697   3.7753   3.7764
     3.7807   3.7878   3.7895   3.7921   3.7983   3.8072   3.8187   3.8332
     3.8356   3.8395   3.8458   3.8551   3.8583   3.8720   3.8955   4.0882
     4.0971   4.1003   4.1080   4.1122   4.1169   4.1234   4.1331   4.1383
     4.1402   4.1485   4.1532   4.6547   4.6568   4.6606   4.6624   4.6642
     4.6678   4.6762   4.6793   4.6848   4.6899   4.6960   4.7036   4.9183
     4.9383   4.9449   4.9476   4.9581   4.9608   4.9686   4.9756   4.9951
     5.0000   5.0037   5.0112   5.0161   5.0226   5.5852   5.5941   5.5975
     5.6052   5.6129   5.6141   5.6146   5.6196   5.6259   5.6296   5.6362
     5.6453   5.6548   5.6597   5.6717   5.6784   5.6835   5.6848   5.6896
     5.6950   5.7060   5.7072   5.7125   5.7178   5.7203   5.7240   5.7298
     5.7372   5.7392   5.7470   5.7540   5.7670   5.7704   5.7775   5.7859
     5.8074   5.8513   5.8694   5.8715   5.8807   5.8871   5.8995   6.2858
     6.2868   6.2894   6.2908   6.2930   6.2960   6.5634   6.5684   6.5746
     6.5760   6.5814   6.5887   6.5932   6.5962   6.6013   6.6053   6.6116
     6.6149   6.6194   6.6231   6.6318   6.6345   6.6413   6.6534   6.6583
     6.6653   6.6722   6.6768   6.6821   6.6933   6.8454   6.8632   6.8687
     6.8748   6.8804   6.8899   6.8958   6.9006   6.9072   6.9131   6.9166
     6.9272   6.9455   6.9641   6.9697   6.9741   6.9773   6.9870   6.9907
     6.9945   7.0021   7.0031   7.0054   7.0089   7.0143   7.0168   7.0271
     7.0366   7.0432   7.0483   7.0549   7.0598   7.2624   7.2638   7.2663
     7.2799   7.2867   7.2892   7.2988   7.3041   7.3105   7.3172   7.3195
     7.3483   7.3516   7.3672   7.3744   7.3827   7.6563   7.6575   7.6615
    12.2552  14.5117  14.5549  14.5804  14.5980  14.6128  14.6356  14.6610
    14.6757  15.3605  15.3678  15.3703  15.3756  15.5018  15.5586  15.5807
    15.6150  15.6317  15.6985  16.5710  16.5761  16.5818  16.8563  16.8677
    16.9155  16.9383  16.9479  16.9684  16.9713  16.9885  16.9955  17.0188
    17.0316  17.0569  17.0610  17.0808  17.0896  17.0983  17.1119  17.1235
    17.1353  17.1389  17.1505  17.1554  17.1722  17.1769  17.1834  17.1986
    17.2117  17.2192  17.2394  17.2494  17.2626  17.2639  17.2818  17.2847
    17.2999  17.3133  17.4905  17.4944  17.5047  18.5822  18.5843  18.6074
    18.6139  18.6219  18.6361  18.8834  18.9270  18.9283  18.9449  18.9609
    18.9853  18.9899  18.9976  19.0047  19.0108  19.0259  19.0286  19.0325
    19.0363  19.0438  19.0479  19.0604  19.0653  19.0779  19.0833  19.0873
    19.0911  19.1135  19.1186  19.1289  19.1338  19.1369  19.1551  19.1604
    19.1699  19.1754  19.1890  19.1955  19.2026  19.2196

     occupation numbers 
     1.0000   1.0000   1.0000   1.0000   1.0000   1.0000   1.0000   1.0000
     1.0000   1.0000   1.0000   1.0000   1.0000   1.0000   1.0000   1.0000
     1.0000   1.0000   1.0000   1.0000   1.0000   1.0000   1.0000   1.0000
     1.0000   1.0000   1.0000   1.0000   1.0000   1.0000   1.0000   1.0000
     1.0000   1.0000   1.0000   1.0000   1.0000   1.0000   1.0000   1.0000
     1.0000   1.0000   1.0000   1.0000   1.0000   1.0000   1.0000   1.0000
     1.0000   1.0000   1.0000   1.0000   1.0000   1.0000   1.0000   1.0000
     1.0000   1.0000   1.0000   1.0000   1.0000   1.0000   1.0000   1.0000
     1.0000   1.0000   1.0000   1.0000   1.0000   1.0000   1.0000   1.0000
     1.0000   1.0000   1.0000   1.0000   1.0000   1.0000   1.0000   1.0000
     1.0000   1.0000   1.0000   1.0000   1.0000   1.0000   1.0000   1.0000
     1.0000   1.0000   1.0000   1.0000   1.0000   1.0000   1.0000   1.0000
     1.0000   1.0000   1.0000   1.0000   1.0000   1.0000   1.0000   1.0000
     1.0000   1.0000   1.0000   1.0000   1.0000   1.0000   1.0000   1.0000
     1.0000   1.0000   1.0000   1.0000   1.0000   1.0000   1.0000   1.0000
     1.0000   1.0000   1.0000   1.0000   1.0000   1.0000   1.0000   1.0000
     1.0000   1.0000   1.0000   1.0000   1.0000   1.0000   1.0000   1.0000
     1.0000   1.0000   1.0000   1.0000   1.0000   1.0000   1.0000   1.0000
     1.0000   1.0000   1.0000   1.0000   1.0000   1.0000   1.0000   1.0000
     1.0000   1.0000   1.0000   1.0000   1.0000   1.0000   1.0000   1.0000
     1.0000   1.0000   1.0000   1.0000   1.0000   1.0000   1.0000   1.0000
     1.0000   1.0000   1.0000   1.0000   1.0000   1.0000   1.0000   1.0000
     1.0000   1.0000   1.0000   1.0000   1.0000   1.0000   1.0000   1.0000
     1.0000   1.0000   1.0000   1.0000   1.0000   1.0000   1.0000   1.0000
     1.0000   1.0000   1.0000   1.0000   1.0000   1.0000   1.0000   1.0000
     1.0000   1.0000   1.0000   1.0000   1.0000   1.0000   1.0000   1.0000
     1.0000   1.0000   1.0000   1.0000   1.0000   1.0000   1.0000   1.0000
     1.0000   1.0000   1.0000   1.0000   1.0000   1.0000   1.0000   1.0000
     1.0000   1.0000   1.0000   1.0000   1.0000   1.0000   1.0000   1.0000
     1.0000   1.0000   1.0000   1.0000   1.0000   1.0000   1.0000   1.0000
     1.0000   1.0000   1.0000   1.0000   1.0000   1.0000   1.0000   1.0000
     1.0000   1.0000   1.0000   1.0000   1.0000   1.0000   1.0000   1.0000
     1.0000   1.0000   1.0000   1.0000   1.0000   1.0000   1.0000   1.0000
     1.0000   1.0000   1.0000   1.0000   1.0000   1.0000   1.0000   1.0000
     1.0000   1.0000   1.0000   1.0000   1.0000   1.0000   1.0000   1.0000
     1.0000   1.0000   1.0000   1.0000   1.0000   1.0000   1.0000   1.0000
     1.0000   1.0000   1.0000   1.0000   1.0000   1.0000   1.0000   1.0000
     1.0000   1.0000   1.0000   1.0000   1.0000   1.0000   1.0000   1.0000
     1.0000   1.0000   1.0000   1.0000   1.0000   1.0000   1.0000   1.0000
     1.0000   1.0000   1.0000   1.0000   1.0000   1.0000   1.0000   1.0000
     1.0000   1.0000   1.0000   1.0000   1.0000   1.0000   1.0000   1.0000
     1.0000   1.0000   1.0000   1.0000   1.0000   1.0000   1.0000   1.0000
     1.0000   1.0000   1.0000   1.0000   1.0000   1.0000   1.0000   1.0000
     1.0000   1.0000   1.0000   1.0000   1.0000   1.0000   1.0000   1.0000
     1.0000   1.0000   1.0000   1.0000   1.0000   1.0000   1.0000   1.0000
     1.0000   1.0000   1.0000   1.0000   1.0000   1.0000   1.0000   1.0000
     1.0000   1.0000   1.0000   1.0000   1.0000   1.0000   1.0000   1.0000
     1.0000   1.0000   1.0000   1.0000   1.0000   1.0000   1.0000   1.0000
     1.0000   1.0000   1.0000   1.0000   1.0000   1.0000   1.0000   1.0000
     1.0000   1.0000   1.0000   1.0000   1.0000   1.0000   1.0000   1.0000
     1.0000   1.0000   1.0000   1.0000   1.0000   1.0000   1.0000   1.0000
     1.0000   1.0000   1.0000   1.0000   1.0000   1.0000   1.0000   1.0000
     1.0000   1.0000   1.0000   1.0000   1.0000   1.0000   1.0000   1.0000
     1.0000   1.0000   1.0000   1.0000   1.0000   1.0000   1.0000   1.0000
     1.0000   1.0000   1.0000   1.0000   1.0000   1.0000   1.0000   1.0000
     1.0000   1.0000   1.0000   1.0000   1.0000   1.0000   1.0000   1.0000
     1.0000   1.0000   1.0000   1.0000   1.0000   1.0000   1.0000   1.0000
     1.0000   1.0000   1.0000   1.0000   1.0000   1.0000   1.0000   1.0000
     1.0000   1.0000   1.0000   1.0000   1.0000   1.0000   1.0000   1.0000
     1.0000   1.0000   1.0000   1.0000   1.0000   1.0000   1.0000   1.0000
     1.0000   1.0000   1.0000   1.0000   1.0000   1.0000   1.0000   1.0000
     1.0000   1.0000   1.0000   1.0000   1.0000   1.0000   1.0000   1.0000
     1.0000   1.0000   1.0000   1.0000   1.0000   1.0000   1.0000   1.0000
     1.0000   1.0000   1.0000   1.0000   1.0000   1.0000   1.0000   1.0000
     0.0000   0.0000   0.0000   0.0000   0.0000   0.0000   0.0000   0.0000
     0.0000   0.0000   0.0000   0.0000   0.0000   0.0000   0.0000   0.0000
     0.0000   0.0000   0.0000   0.0000   0.0000   0.0000   0.0000   0.0000
     0.0000   0.0000   0.0000   0.0000   0.0000   0.0000   0.0000   0.0000
     0.0000   0.0000   0.0000   0.0000   0.0000   0.0000   0.0000   0.0000
     0.0000   0.0000   0.0000   0.0000   0.0000   0.0000   0.0000   0.0000
     0.0000   0.0000   0.0000   0.0000   0.0000   0.0000   0.0000   0.0000
     0.0000   0.0000   0.0000   0.0000   0.0000   0.0000   0.0000   0.0000
     0.0000   0.0000   0.0000   0.0000   0.0000   0.0000   0.0000   0.0000
     0.0000   0.0000   0.0000   0.0000   0.0000   0.0000   0.0000   0.0000
     0.0000   0.0000   0.0000   0.0000   0.0000   0.0000   0.0000   0.0000
     0.0000   0.0000   0.0000   0.0000   0.0000   0.0000   0.0000   0.0000
     0.0000   0.0000   0.0000   0.0000   0.0000   0.0000

          k =-0.3536-0.3536 0.3536 ( 34640 PWs)   bands (ev):

   -64.5042 -64.4191 -64.3920 -64.3863 -64.3745 -64.3486 -64.3451 -64.3390
   -64.3336 -64.3242 -64.3197 -64.3159 -64.3158 -64.3128 -64.2956 -64.2950
   -64.2925 -64.2913 -64.2905 -64.2902 -64.2886 -64.2788 -64.2778 -64.2743
   -64.2737 -64.2734 -64.2720 -64.2712 -64.2696 -64.2662 -64.2630 -64.2615
   -64.2604 -64.2536 -64.2513 -64.2394 -64.2334 -64.2288 -64.2273 -64.2226
   -64.2208 -64.2194 -64.2122 -64.2105 -64.2101 -64.2082 -64.2042 -64.1969
   -64.1946 -64.1918 -64.1906 -64.1788 -64.1780 -64.1773 -64.1764 -64.1684
   -64.1553 -64.1514 -64.1498 -64.1414 -64.1391 -64.1209 -64.1099 -64.1053
   -31.4898 -31.4862 -31.4848 -31.4080 -31.4029 -31.4008 -31.3841 -31.3796
   -31.3777 -31.3766 -31.3734 -31.3723 -31.3596 -31.3574 -31.3522 -31.3469
   -31.3429 -31.3373 -31.3305 -31.3290 -31.3282 -31.3262 -31.3235 -31.3227
   -31.3218 -31.3194 -31.3160 -31.3154 -31.3117 -31.3111 -31.3096 -31.3090
   -31.3070 -31.3057 -31.3043 -31.3034 -31.3027 -31.3005 -31.3000 -31.2988
   -31.2969 -31.2958 -31.2949 -31.2921 -31.2903 -31.2858 -31.2849 -31.2833
   -31.2829 -31.2814 -31.2801 -31.2787 -31.2784 -31.2774 -31.2761 -31.2756
   -31.2738 -31.2731 -31.2721 -31.2703 -31.2698 -31.2696 -31.2679 -31.2672
   -31.2667 -31.2657 -31.2635 -31.2625 -31.2620 -31.2609 -31.2596 -31.2593
   -31.2589 -31.2584 -31.2578 -31.2574 -31.2566 -31.2552 -31.2543 -31.2540
   -31.2531 -31.2515 -31.2510 -31.2502 -31.2487 -31.2474 -31.2471 -31.2463
   -31.2454 -31.2450 -31.2438 -31.2425 -31.2419 -31.2416 -31.2405 -31.2400
   -31.2392 -31.2375 -31.2371 -31.2354 -31.2327 -31.2320 -31.2310 -31.2305
   -31.2279 -31.2261 -31.2234 -31.2219 -31.2215 -31.2165 -31.2154 -31.2122
   -31.2117 -31.2105 -31.2100 -31.2091 -31.2080 -31.2070 -31.2058 -31.2044
   -31.2041 -31.2026 -31.2014 -31.1997 -31.1988 -31.1983 -31.1970 -31.1961
   -31.1951 -31.1936 -31.1934 -31.1917 -31.1907 -31.1904 -31.1891 -31.1879
   -31.1869 -31.1855 -31.1839 -31.1829 -31.1809 -31.1781 -31.1774 -31.1762
   -31.1754 -31.1747 -31.1742 -31.1723 -31.1698 -31.1689 -31.1666 -31.1663
   -31.1628 -31.1617 -31.1609 -31.1602 -31.1590 -31.1585 -31.1575 -31.1568
   -31.1562 -31.1552 -31.1519 -31.1494 -31.1482 -31.1481 -31.1474 -31.1444
   -31.1416 -31.1405 -31.1386 -31.1380 -31.1342 -31.1330 -31.1299 -31.1242
   -31.1232 -31.1219 -31.1197 -31.1174 -31.1162 -31.1156 -31.1147 -31.1035
   -31.1001 -31.0979 -31.0910 -31.0884 -31.0877 -31.0852 -31.0836 -31.0796
    -9.3529  -9.3138  -8.9742  -8.9617  -8.9430  -8.9270  -8.9177  -8.9029
    -8.6498  -8.6372  -8.6255  -8.6168  -8.6026  -8.5846  -8.4461  -8.4084
    -8.3928  -8.3853  -8.3766  -8.3590  -8.3415  -8.3370  -8.2737  -8.2449
    -8.2337  -8.2266  -8.2207  -8.2129  -8.2011  -8.1928  -8.1796  -8.1705
    -8.1696  -8.1595  -8.1449  -8.1373  -8.1176  -8.1126  -8.0987  -8.0879
    -8.0497  -8.0467  -8.0237  -8.0121  -7.9986  -7.9882  -7.9823  -7.9692
    -7.9603  -7.9548  -7.9508  -7.9475  -7.9274  -7.9164  -7.9090  -7.9012
    -7.8885  -7.8851  -7.8812  -7.8705  -7.8591  -7.8495  -7.8203  -7.7851
     3.2278   3.2344   3.2438   3.2715   3.2782   3.2797   3.5186   3.5519
     3.7159   3.7206   3.7227   3.7515   3.7599   3.7668   3.8287   3.8380
     3.8496   3.8540   3.8664   3.8733   3.8778   3.8838   3.8907   3.8969
     3.9053   3.9120   3.9130   3.9207   3.9217   3.9315   3.9377   3.9499
     4.0943   4.0956   4.0974   4.1030   4.1129   4.1200   4.1248   4.1317
     4.1349   4.1417   4.1535   4.1656   4.2326   4.2391   4.2488   4.2672
     4.2682   4.2856   4.4322   4.4381   4.4428   4.4437   4.4591   4.4635
     5.1034   5.1058   5.1098   5.1206   5.1252   5.1348   5.1421   5.1428
     5.1558   5.1641   5.1693   5.1783   5.2306   5.2370   5.2496   5.2550
     5.2731   5.2794   5.3446   5.3492   5.3637   5.3708   5.3862   5.3897
     5.8480   5.8569   5.8619   5.8681   5.8797   5.8870   5.8910   5.8960
     5.8975   5.9119   5.9167   5.9198   5.9244   5.9303   5.9340   5.9427
     5.9521   5.9599   6.2208   6.2277   6.2321   6.2357   6.2428   6.2561
     6.2588   6.2644   6.2713   6.2781   6.2844   6.2887   6.3594   6.3632
     6.3677   6.4005   6.4013   6.4051   6.4235   6.4263   6.4319   6.4392
     6.4465   6.4520   6.4680   6.4759   6.4842   6.4983   6.5057   6.5169
     6.6203   6.6243   6.6331   6.6392   6.6488   6.6537   6.6542   6.6661
     6.6775   6.6827   6.6847   6.6901   6.6940   6.7021   6.7268   6.7313
     6.7396   6.7452   6.7483   6.7494   6.7568   6.7675   6.7767   6.7791
     6.7830   6.7877   6.7929   6.8030   6.8055   6.8165   6.8205   6.8612
     6.8672   6.8688   6.8726   6.9053   6.9095   6.9131   7.0552   7.0619
     7.0895   7.0977   7.1103   7.1340   7.1458   7.1516   7.1583   7.1673
     7.1702   7.1741   7.1907   7.1922   7.1955   7.2160   7.2223   7.2420
     7.2433   7.2520   7.2610   7.2921   7.5329   7.5386   7.5728   7.5788
    13.1576  13.1854  14.6920  14.7281  14.7433  14.7696  14.7874  14.8090
    15.2787  15.3049  15.4939  15.5345  15.5558  15.5705  15.5846  15.6094
    16.0290  16.0371  16.0561  16.0622  16.0835  16.0930  16.6009  16.6262
    16.6751  16.6967  16.7073  16.7433  16.9091  16.9230  16.9411  16.9461
    16.9608  16.9644  16.9750  16.9890  16.9954  17.0001  17.0106  17.0296
    17.0595  17.0839  17.0933  17.1079  17.1273  17.1640  17.3502  17.3954
    17.4195  17.4441  17.4745  17.4883  17.9016  17.9175  17.9302  17.9387
    17.9522  17.9727  17.9898  17.9974  18.0085  18.0244  18.0317  18.0532
    18.0711  18.0781  18.0952  18.0990  18.1170  18.1253  18.1474  18.1537
    18.1649  18.1900  18.1956  18.2224  19.0389  19.0537  19.0621  19.0679
    19.0766  19.0862  19.1034  19.1151  19.1246  19.1474  19.1566  19.1610
    19.1739  19.1820  19.1982  19.2022  19.2200  19.2249  19.2392  19.2536
    19.2710  19.2917  19.3147  19.3441  19.4901  19.5121

     occupation numbers 
     1.0000   1.0000   1.0000   1.0000   1.0000   1.0000   1.0000   1.0000
     1.0000   1.0000   1.0000   1.0000   1.0000   1.0000   1.0000   1.0000
     1.0000   1.0000   1.0000   1.0000   1.0000   1.0000   1.0000   1.0000
     1.0000   1.0000   1.0000   1.0000   1.0000   1.0000   1.0000   1.0000
     1.0000   1.0000   1.0000   1.0000   1.0000   1.0000   1.0000   1.0000
     1.0000   1.0000   1.0000   1.0000   1.0000   1.0000   1.0000   1.0000
     1.0000   1.0000   1.0000   1.0000   1.0000   1.0000   1.0000   1.0000
     1.0000   1.0000   1.0000   1.0000   1.0000   1.0000   1.0000   1.0000
     1.0000   1.0000   1.0000   1.0000   1.0000   1.0000   1.0000   1.0000
     1.0000   1.0000   1.0000   1.0000   1.0000   1.0000   1.0000   1.0000
     1.0000   1.0000   1.0000   1.0000   1.0000   1.0000   1.0000   1.0000
     1.0000   1.0000   1.0000   1.0000   1.0000   1.0000   1.0000   1.0000
     1.0000   1.0000   1.0000   1.0000   1.0000   1.0000   1.0000   1.0000
     1.0000   1.0000   1.0000   1.0000   1.0000   1.0000   1.0000   1.0000
     1.0000   1.0000   1.0000   1.0000   1.0000   1.0000   1.0000   1.0000
     1.0000   1.0000   1.0000   1.0000   1.0000   1.0000   1.0000   1.0000
     1.0000   1.0000   1.0000   1.0000   1.0000   1.0000   1.0000   1.0000
     1.0000   1.0000   1.0000   1.0000   1.0000   1.0000   1.0000   1.0000
     1.0000   1.0000   1.0000   1.0000   1.0000   1.0000   1.0000   1.0000
     1.0000   1.0000   1.0000   1.0000   1.0000   1.0000   1.0000   1.0000
     1.0000   1.0000   1.0000   1.0000   1.0000   1.0000   1.0000   1.0000
     1.0000   1.0000   1.0000   1.0000   1.0000   1.0000   1.0000   1.0000
     1.0000   1.0000   1.0000   1.0000   1.0000   1.0000   1.0000   1.0000
     1.0000   1.0000   1.0000   1.0000   1.0000   1.0000   1.0000   1.0000
     1.0000   1.0000   1.0000   1.0000   1.0000   1.0000   1.0000   1.0000
     1.0000   1.0000   1.0000   1.0000   1.0000   1.0000   1.0000   1.0000
     1.0000   1.0000   1.0000   1.0000   1.0000   1.0000   1.0000   1.0000
     1.0000   1.0000   1.0000   1.0000   1.0000   1.0000   1.0000   1.0000
     1.0000   1.0000   1.0000   1.0000   1.0000   1.0000   1.0000   1.0000
     1.0000   1.0000   1.0000   1.0000   1.0000   1.0000   1.0000   1.0000
     1.0000   1.0000   1.0000   1.0000   1.0000   1.0000   1.0000   1.0000
     1.0000   1.0000   1.0000   1.0000   1.0000   1.0000   1.0000   1.0000
     1.0000   1.0000   1.0000   1.0000   1.0000   1.0000   1.0000   1.0000
     1.0000   1.0000   1.0000   1.0000   1.0000   1.0000   1.0000   1.0000
     1.0000   1.0000   1.0000   1.0000   1.0000   1.0000   1.0000   1.0000
     1.0000   1.0000   1.0000   1.0000   1.0000   1.0000   1.0000   1.0000
     1.0000   1.0000   1.0000   1.0000   1.0000   1.0000   1.0000   1.0000
     1.0000   1.0000   1.0000   1.0000   1.0000   1.0000   1.0000   1.0000
     1.0000   1.0000   1.0000   1.0000   1.0000   1.0000   1.0000   1.0000
     1.0000   1.0000   1.0000   1.0000   1.0000   1.0000   1.0000   1.0000
     1.0000   1.0000   1.0000   1.0000   1.0000   1.0000   1.0000   1.0000
     1.0000   1.0000   1.0000   1.0000   1.0000   1.0000   1.0000   1.0000
     1.0000   1.0000   1.0000   1.0000   1.0000   1.0000   1.0000   1.0000
     1.0000   1.0000   1.0000   1.0000   1.0000   1.0000   1.0000   1.0000
     1.0000   1.0000   1.0000   1.0000   1.0000   1.0000   1.0000   1.0000
     1.0000   1.0000   1.0000   1.0000   1.0000   1.0000   1.0000   1.0000
     1.0000   1.0000   1.0000   1.0000   1.0000   1.0000   1.0000   1.0000
     1.0000   1.0000   1.0000   1.0000   1.0000   1.0000   1.0000   1.0000
     1.0000   1.0000   1.0000   1.0000   1.0000   1.0000   1.0000   1.0000
     1.0000   1.0000   1.0000   1.0000   1.0000   1.0000   1.0000   1.0000
     1.0000   1.0000   1.0000   1.0000   1.0000   1.0000   1.0000   1.0000
     1.0000   1.0000   1.0000   1.0000   1.0000   1.0000   1.0000   1.0000
     1.0000   1.0000   1.0000   1.0000   1.0000   1.0000   1.0000   1.0000
     1.0000   1.0000   1.0000   1.0000   1.0000   1.0000   1.0000   1.0000
     1.0000   1.0000   1.0000   1.0000   1.0000   1.0000   1.0000   1.0000
     1.0000   1.0000   1.0000   1.0000   1.0000   1.0000   1.0000   1.0000
     1.0000   1.0000   1.0000   1.0000   1.0000   1.0000   1.0000   1.0000
     1.0000   1.0000   1.0000   1.0000   1.0000   1.0000   1.0000   1.0000
     1.0000   1.0000   1.0000   1.0000   1.0000   1.0000   1.0000   1.0000
     1.0000   1.0000   1.0000   1.0000   1.0000   1.0000   1.0000   1.0000
     1.0000   1.0000   1.0000   1.0000   1.0000   1.0000   1.0000   1.0000
     1.0000   1.0000   1.0000   1.0000   1.0000   1.0000   1.0000   1.0000
     1.0000   1.0000   1.0000   1.0000   1.0000   1.0000   1.0000   1.0000
     1.0000   1.0000   1.0000   1.0000   1.0000   1.0000   1.0000   1.0000
     0.0000   0.0000   0.0000   0.0000   0.0000   0.0000   0.0000   0.0000
     0.0000   0.0000   0.0000   0.0000   0.0000   0.0000   0.0000   0.0000
     0.0000   0.0000   0.0000   0.0000   0.0000   0.0000   0.0000   0.0000
     0.0000   0.0000   0.0000   0.0000   0.0000   0.0000   0.0000   0.0000
     0.0000   0.0000   0.0000   0.0000   0.0000   0.0000   0.0000   0.0000
     0.0000   0.0000   0.0000   0.0000   0.0000   0.0000   0.0000   0.0000
     0.0000   0.0000   0.0000   0.0000   0.0000   0.0000   0.0000   0.0000
     0.0000   0.0000   0.0000   0.0000   0.0000   0.0000   0.0000   0.0000
     0.0000   0.0000   0.0000   0.0000   0.0000   0.0000   0.0000   0.0000
     0.0000   0.0000   0.0000   0.0000   0.0000   0.0000   0.0000   0.0000
     0.0000   0.0000   0.0000   0.0000   0.0000   0.0000   0.0000   0.0000
     0.0000   0.0000   0.0000   0.0000   0.0000   0.0000   0.0000   0.0000
     0.0000   0.0000   0.0000   0.0000   0.0000   0.0000

          k =-0.7071 0.0000 0.0000 ( 34708 PWs)   bands (ev):

   -64.5042 -64.4191 -64.3920 -64.3863 -64.3745 -64.3486 -64.3451 -64.3390
   -64.3336 -64.3242 -64.3197 -64.3159 -64.3158 -64.3128 -64.2956 -64.2950
   -64.2925 -64.2913 -64.2905 -64.2902 -64.2886 -64.2788 -64.2778 -64.2743
   -64.2737 -64.2734 -64.2720 -64.2712 -64.2696 -64.2662 -64.2630 -64.2615
   -64.2604 -64.2536 -64.2513 -64.2394 -64.2334 -64.2288 -64.2273 -64.2226
   -64.2208 -64.2194 -64.2122 -64.2105 -64.2101 -64.2082 -64.2042 -64.1969
   -64.1946 -64.1918 -64.1906 -64.1788 -64.1780 -64.1773 -64.1764 -64.1684
   -64.1553 -64.1514 -64.1498 -64.1414 -64.1391 -64.1209 -64.1099 -64.1053
   -31.4898 -31.4862 -31.4848 -31.4080 -31.4029 -31.4008 -31.3841 -31.3796
   -31.3777 -31.3766 -31.3734 -31.3723 -31.3596 -31.3573 -31.3522 -31.3467
   -31.3426 -31.3373 -31.3305 -31.3289 -31.3281 -31.3262 -31.3231 -31.3227
   -31.3218 -31.3190 -31.3168 -31.3157 -31.3123 -31.3109 -31.3106 -31.3083
   -31.3076 -31.3057 -31.3045 -31.3029 -31.3026 -31.3014 -31.3001 -31.2989
   -31.2971 -31.2966 -31.2959 -31.2920 -31.2902 -31.2857 -31.2848 -31.2830
   -31.2816 -31.2802 -31.2798 -31.2783 -31.2770 -31.2768 -31.2751 -31.2737
   -31.2734 -31.2731 -31.2724 -31.2709 -31.2693 -31.2686 -31.2682 -31.2681
   -31.2677 -31.2664 -31.2649 -31.2633 -31.2623 -31.2621 -31.2606 -31.2595
   -31.2592 -31.2581 -31.2579 -31.2571 -31.2564 -31.2550 -31.2545 -31.2535
   -31.2530 -31.2517 -31.2504 -31.2499 -31.2486 -31.2485 -31.2474 -31.2460
   -31.2457 -31.2451 -31.2435 -31.2429 -31.2423 -31.2417 -31.2410 -31.2400
   -31.2398 -31.2380 -31.2365 -31.2356 -31.2334 -31.2319 -31.2312 -31.2303
   -31.2276 -31.2261 -31.2231 -31.2219 -31.2207 -31.2157 -31.2138 -31.2124
   -31.2121 -31.2105 -31.2098 -31.2089 -31.2080 -31.2066 -31.2058 -31.2044
   -31.2041 -31.2022 -31.2017 -31.2008 -31.1984 -31.1976 -31.1962 -31.1953
   -31.1947 -31.1941 -31.1935 -31.1915 -31.1910 -31.1905 -31.1894 -31.1885
   -31.1870 -31.1853 -31.1838 -31.1830 -31.1814 -31.1788 -31.1777 -31.1768
   -31.1756 -31.1742 -31.1738 -31.1720 -31.1702 -31.1688 -31.1666 -31.1661
   -31.1624 -31.1620 -31.1615 -31.1600 -31.1590 -31.1584 -31.1579 -31.1573
   -31.1558 -31.1553 -31.1528 -31.1487 -31.1481 -31.1479 -31.1464 -31.1444
   -31.1416 -31.1404 -31.1389 -31.1379 -31.1342 -31.1333 -31.1299 -31.1242
   -31.1232 -31.1219 -31.1197 -31.1174 -31.1162 -31.1156 -31.1146 -31.1035
   -31.1001 -31.0980 -31.0910 -31.0885 -31.0877 -31.0852 -31.0837 -31.0796
    -9.2946  -9.2719  -9.0947  -9.0880  -9.0609  -9.0459  -8.6480  -8.6239
    -8.6113  -8.5997  -8.5849  -8.5647  -8.5550  -8.5369  -8.5001  -8.4880
    -8.4868  -8.4731  -8.4448  -8.4305  -8.4213  -8.4119  -8.2681  -8.2453
    -8.2375  -8.2272  -8.2237  -8.1995  -8.1860  -8.1817  -8.1746  -8.1523
    -8.1322  -8.1221  -8.1193  -8.1152  -8.0974  -8.0957  -8.0837  -8.0717
    -8.0625  -8.0496  -8.0205  -8.0117  -8.0061  -7.9923  -7.9831  -7.9791
    -7.9753  -7.9680  -7.9577  -7.9572  -7.9540  -7.9201  -7.9136  -7.8935
    -7.8908  -7.8830  -7.8762  -7.8607  -7.8535  -7.8435  -7.8123  -7.7845
     3.4020   3.4060   3.4129   3.4211   3.4272   3.4338   3.4454   3.4493
     3.5933   3.5980   3.6050   3.6075   3.6125   3.6148   3.6241   3.6371
     3.8248   3.8257   3.8497   3.8559   3.8752   3.9067   3.9388   3.9485
     3.9555   3.9620   3.9698   3.9774   3.9924   3.9946   4.0031   4.0086
     4.0183   4.0243   4.0337   4.0397   4.0510   4.0595   4.1133   4.1215
     4.1486   4.1712   4.1971   4.2222   4.2339   4.2466   4.2516   4.2580
     4.2731   4.2847   4.5765   4.5878   4.5975   4.6035   4.6091   4.6140
     4.6201   4.6412   4.8800   4.8837   4.9027   4.9061   4.9137   4.9223
     4.9331   4.9446   4.9546   4.9568   4.9727   4.9833   5.6398   5.6583
     5.6635   5.6852   5.6898   5.6986   5.7075   5.7149   5.7228   5.7347
     5.7491   5.7520   5.7591   5.7703   5.7780   5.7857   5.8856   5.8978
     5.9101   5.9276   5.9478   5.9635   5.9650   5.9718   6.0409   6.0655
     6.0747   6.1033   6.3358   6.3427   6.3540   6.3588   6.3598   6.3642
     6.3820   6.3856   6.3862   6.3952   6.3976   6.4012   6.4079   6.4137
     6.4169   6.4223   6.4257   6.4348   6.4387   6.4428   6.4524   6.4548
     6.4580   6.4627   6.4690   6.4723   6.4781   6.4813   6.4855   6.4897
     6.4953   6.5003   6.5078   6.5107   6.5147   6.5264   6.5272   6.5378
     6.5440   6.5528   6.5799   6.6184   6.6280   6.6388   6.6412   6.6581
     6.6741   6.6795   6.6886   6.6910   6.7746   6.7782   6.7804   6.7922
     6.7961   6.8018   6.8117   6.8224   6.8974   6.9191   6.9333   6.9407
     6.9517   6.9563   6.9598   6.9627   6.9702   6.9752   6.9803   6.9933
     6.9980   7.0035   7.0098   7.0141   7.0247   7.0330   7.0416   7.0485
     7.0516   7.0578   7.0621   7.0901   7.1043   7.1411   7.1642   7.1737
     7.3944   7.4003   7.4119   7.4334   7.4630   7.4861   7.4947   7.5063
    13.4481  13.4888  14.2042  14.2305  14.2609  14.2906  15.7216  15.7519
    15.7645  15.7721  15.7995  15.8159  15.8246  15.8491  15.8984  15.9421
    15.9590  15.9801  15.9932  15.9965  16.0198  16.0367  16.0538  16.0589
    16.0779  16.0825  16.1063  16.1174  16.1284  16.1405  17.0645  17.0901
    17.0940  17.1077  17.1125  17.1199  17.1785  17.1812  17.1891  17.1962
    17.2111  17.2182  17.4360  17.4429  17.4847  17.4954  17.5251  17.5670
    17.5717  17.6053  17.7027  17.7160  17.7332  17.7552  17.7885  17.8005
    17.8153  17.8261  17.8377  17.8391  17.8655  17.8814  17.9077  17.9138
    17.9321  17.9424  18.1460  18.1890  18.1998  18.2103  18.2328  18.2631
    18.2720  18.3296  18.3503  18.3692  18.3886  18.4172  18.8837  18.9050
    18.9293  18.9337  18.9491  18.9691  18.9773  19.0143  19.1089  19.1364
    19.1686  19.1836  19.1991  19.2136  19.2205  19.2492  19.2615  19.2823
    19.3117  19.3261  19.3315  19.3586  19.3640  19.4100

     occupation numbers 
     1.0000   1.0000   1.0000   1.0000   1.0000   1.0000   1.0000   1.0000
     1.0000   1.0000   1.0000   1.0000   1.0000   1.0000   1.0000   1.0000
     1.0000   1.0000   1.0000   1.0000   1.0000   1.0000   1.0000   1.0000
     1.0000   1.0000   1.0000   1.0000   1.0000   1.0000   1.0000   1.0000
     1.0000   1.0000   1.0000   1.0000   1.0000   1.0000   1.0000   1.0000
     1.0000   1.0000   1.0000   1.0000   1.0000   1.0000   1.0000   1.0000
     1.0000   1.0000   1.0000   1.0000   1.0000   1.0000   1.0000   1.0000
     1.0000   1.0000   1.0000   1.0000   1.0000   1.0000   1.0000   1.0000
     1.0000   1.0000   1.0000   1.0000   1.0000   1.0000   1.0000   1.0000
     1.0000   1.0000   1.0000   1.0000   1.0000   1.0000   1.0000   1.0000
     1.0000   1.0000   1.0000   1.0000   1.0000   1.0000   1.0000   1.0000
     1.0000   1.0000   1.0000   1.0000   1.0000   1.0000   1.0000   1.0000
     1.0000   1.0000   1.0000   1.0000   1.0000   1.0000   1.0000   1.0000
     1.0000   1.0000   1.0000   1.0000   1.0000   1.0000   1.0000   1.0000
     1.0000   1.0000   1.0000   1.0000   1.0000   1.0000   1.0000   1.0000
     1.0000   1.0000   1.0000   1.0000   1.0000   1.0000   1.0000   1.0000
     1.0000   1.0000   1.0000   1.0000   1.0000   1.0000   1.0000   1.0000
     1.0000   1.0000   1.0000   1.0000   1.0000   1.0000   1.0000   1.0000
     1.0000   1.0000   1.0000   1.0000   1.0000   1.0000   1.0000   1.0000
     1.0000   1.0000   1.0000   1.0000   1.0000   1.0000   1.0000   1.0000
     1.0000   1.0000   1.0000   1.0000   1.0000   1.0000   1.0000   1.0000
     1.0000   1.0000   1.0000   1.0000   1.0000   1.0000   1.0000   1.0000
     1.0000   1.0000   1.0000   1.0000   1.0000   1.0000   1.0000   1.0000
     1.0000   1.0000   1.0000   1.0000   1.0000   1.0000   1.0000   1.0000
     1.0000   1.0000   1.0000   1.0000   1.0000   1.0000   1.0000   1.0000
     1.0000   1.0000   1.0000   1.0000   1.0000   1.0000   1.0000   1.0000
     1.0000   1.0000   1.0000   1.0000   1.0000   1.0000   1.0000   1.0000
     1.0000   1.0000   1.0000   1.0000   1.0000   1.0000   1.0000   1.0000
     1.0000   1.0000   1.0000   1.0000   1.0000   1.0000   1.0000   1.0000
     1.0000   1.0000   1.0000   1.0000   1.0000   1.0000   1.0000   1.0000
     1.0000   1.0000   1.0000   1.0000   1.0000   1.0000   1.0000   1.0000
     1.0000   1.0000   1.0000   1.0000   1.0000   1.0000   1.0000   1.0000
     1.0000   1.0000   1.0000   1.0000   1.0000   1.0000   1.0000   1.0000
     1.0000   1.0000   1.0000   1.0000   1.0000   1.0000   1.0000   1.0000
     1.0000   1.0000   1.0000   1.0000   1.0000   1.0000   1.0000   1.0000
     1.0000   1.0000   1.0000   1.0000   1.0000   1.0000   1.0000   1.0000
     1.0000   1.0000   1.0000   1.0000   1.0000   1.0000   1.0000   1.0000
     1.0000   1.0000   1.0000   1.0000   1.0000   1.0000   1.0000   1.0000
     1.0000   1.0000   1.0000   1.0000   1.0000   1.0000   1.0000   1.0000
     1.0000   1.0000   1.0000   1.0000   1.0000   1.0000   1.0000   1.0000
     1.0000   1.0000   1.0000   1.0000   1.0000   1.0000   1.0000   1.0000
     1.0000   1.0000   1.0000   1.0000   1.0000   1.0000   1.0000   1.0000
     1.0000   1.0000   1.0000   1.0000   1.0000   1.0000   1.0000   1.0000
     1.0000   1.0000   1.0000   1.0000   1.0000   1.0000   1.0000   1.0000
     1.0000   1.0000   1.0000   1.0000   1.0000   1.0000   1.0000   1.0000
     1.0000   1.0000   1.0000   1.0000   1.0000   1.0000   1.0000   1.0000
     1.0000   1.0000   1.0000   1.0000   1.0000   1.0000   1.0000   1.0000
     1.0000   1.0000   1.0000   1.0000   1.0000   1.0000   1.0000   1.0000
     1.0000   1.0000   1.0000   1.0000   1.0000   1.0000   1.0000   1.0000
     1.0000   1.0000   1.0000   1.0000   1.0000   1.0000   1.0000   1.0000
     1.0000   1.0000   1.0000   1.0000   1.0000   1.0000   1.0000   1.0000
     1.0000   1.0000   1.0000   1.0000   1.0000   1.0000   1.0000   1.0000
     1.0000   1.0000   1.0000   1.0000   1.0000   1.0000   1.0000   1.0000
     1.0000   1.0000   1.0000   1.0000   1.0000   1.0000   1.0000   1.0000
     1.0000   1.0000   1.0000   1.0000   1.0000   1.0000   1.0000   1.0000
     1.0000   1.0000   1.0000   1.0000   1.0000   1.0000   1.0000   1.0000
     1.0000   1.0000   1.0000   1.0000   1.0000   1.0000   1.0000   1.0000
     1.0000   1.0000   1.0000   1.0000   1.0000   1.0000   1.0000   1.0000
     1.0000   1.0000   1.0000   1.0000   1.0000   1.0000   1.0000   1.0000
     1.0000   1.0000   1.0000   1.0000   1.0000   1.0000   1.0000   1.0000
     1.0000   1.0000   1.0000   1.0000   1.0000   1.0000   1.0000   1.0000
     1.0000   1.0000   1.0000   1.0000   1.0000   1.0000   1.0000   1.0000
     1.0000   1.0000   1.0000   1.0000   1.0000   1.0000   1.0000   1.0000
     1.0000   1.0000   1.0000   1.0000   1.0000   1.0000   1.0000   1.0000
     0.0000   0.0000   0.0000   0.0000   0.0000   0.0000   0.0000   0.0000
     0.0000   0.0000   0.0000   0.0000   0.0000   0.0000   0.0000   0.0000
     0.0000   0.0000   0.0000   0.0000   0.0000   0.0000   0.0000   0.0000
     0.0000   0.0000   0.0000   0.0000   0.0000   0.0000   0.0000   0.0000
     0.0000   0.0000   0.0000   0.0000   0.0000   0.0000   0.0000   0.0000
     0.0000   0.0000   0.0000   0.0000   0.0000   0.0000   0.0000   0.0000
     0.0000   0.0000   0.0000   0.0000   0.0000   0.0000   0.0000   0.0000
     0.0000   0.0000   0.0000   0.0000   0.0000   0.0000   0.0000   0.0000
     0.0000   0.0000   0.0000   0.0000   0.0000   0.0000   0.0000   0.0000
     0.0000   0.0000   0.0000   0.0000   0.0000   0.0000   0.0000   0.0000
     0.0000   0.0000   0.0000   0.0000   0.0000   0.0000   0.0000   0.0000
     0.0000   0.0000   0.0000   0.0000   0.0000   0.0000   0.0000   0.0000
     0.0000   0.0000   0.0000   0.0000   0.0000   0.0000

          k = 0.3536 0.3536 0.3536 ( 34640 PWs)   bands (ev):

   -64.5042 -64.4191 -64.3920 -64.3863 -64.3745 -64.3486 -64.3451 -64.3390
   -64.3336 -64.3242 -64.3197 -64.3159 -64.3158 -64.3128 -64.2956 -64.2950
   -64.2925 -64.2913 -64.2905 -64.2902 -64.2886 -64.2788 -64.2778 -64.2743
   -64.2737 -64.2734 -64.2720 -64.2712 -64.2696 -64.2662 -64.2630 -64.2615
   -64.2604 -64.2536 -64.2513 -64.2394 -64.2334 -64.2288 -64.2273 -64.2226
   -64.2208 -64.2194 -64.2122 -64.2105 -64.2101 -64.2082 -64.2042 -64.1969
   -64.1946 -64.1918 -64.1906 -64.1788 -64.1780 -64.1773 -64.1764 -64.1684
   -64.1553 -64.1514 -64.1498 -64.1414 -64.1391 -64.1209 -64.1099 -64.1053
   -31.4898 -31.4862 -31.4848 -31.4080 -31.4029 -31.4008 -31.3842 -31.3798
   -31.3776 -31.3766 -31.3734 -31.3723 -31.3596 -31.3573 -31.3518 -31.3458
   -31.3426 -31.3376 -31.3305 -31.3291 -31.3282 -31.3272 -31.3258 -31.3226
   -31.3211 -31.3193 -31.3170 -31.3149 -31.3125 -31.3112 -31.3096 -31.3084
   -31.3072 -31.3057 -31.3043 -31.3028 -31.3023 -31.3007 -31.3002 -31.2991
   -31.2970 -31.2964 -31.2954 -31.2921 -31.2899 -31.2854 -31.2851 -31.2830
   -31.2820 -31.2793 -31.2792 -31.2791 -31.2785 -31.2757 -31.2745 -31.2739
   -31.2737 -31.2727 -31.2723 -31.2708 -31.2693 -31.2692 -31.2685 -31.2681
   -31.2676 -31.2655 -31.2648 -31.2632 -31.2630 -31.2616 -31.2609 -31.2604
   -31.2592 -31.2590 -31.2573 -31.2565 -31.2551 -31.2546 -31.2544 -31.2536
   -31.2531 -31.2521 -31.2507 -31.2498 -31.2496 -31.2479 -31.2477 -31.2460
   -31.2455 -31.2449 -31.2437 -31.2429 -31.2423 -31.2414 -31.2408 -31.2398
   -31.2393 -31.2379 -31.2371 -31.2359 -31.2335 -31.2318 -31.2314 -31.2302
   -31.2286 -31.2263 -31.2234 -31.2216 -31.2204 -31.2160 -31.2140 -31.2121
   -31.2119 -31.2105 -31.2095 -31.2091 -31.2074 -31.2064 -31.2058 -31.2047
   -31.2045 -31.2029 -31.2021 -31.2009 -31.1988 -31.1976 -31.1965 -31.1954
   -31.1945 -31.1941 -31.1932 -31.1912 -31.1910 -31.1905 -31.1888 -31.1886
   -31.1864 -31.1858 -31.1839 -31.1831 -31.1805 -31.1785 -31.1772 -31.1760
   -31.1755 -31.1747 -31.1739 -31.1725 -31.1702 -31.1686 -31.1668 -31.1663
   -31.1632 -31.1620 -31.1617 -31.1600 -31.1589 -31.1585 -31.1576 -31.1569
   -31.1562 -31.1553 -31.1527 -31.1487 -31.1484 -31.1478 -31.1465 -31.1449
   -31.1416 -31.1405 -31.1385 -31.1378 -31.1346 -31.1334 -31.1314 -31.1236
   -31.1226 -31.1215 -31.1195 -31.1172 -31.1164 -31.1148 -31.1146 -31.1035
   -31.1001 -31.0979 -31.0910 -31.0888 -31.0877 -31.0852 -31.0835 -31.0798
    -9.3390  -9.3294  -8.9908  -8.9587  -8.9388  -8.9199  -8.9135  -8.8963
    -8.6574  -8.6345  -8.6331  -8.6111  -8.5940  -8.5880  -8.4453  -8.4163
    -8.3999  -8.3877  -8.3724  -8.3659  -8.3577  -8.3395  -8.2533  -8.2421
    -8.2332  -8.2247  -8.2213  -8.2149  -8.2058  -8.1821  -8.1766  -8.1623
    -8.1546  -8.1425  -8.1401  -8.1338  -8.1255  -8.1155  -8.1069  -8.0916
    -8.0635  -8.0384  -8.0317  -8.0268  -8.0094  -7.9958  -7.9829  -7.9742
    -7.9607  -7.9540  -7.9427  -7.9277  -7.9229  -7.9180  -7.9146  -7.9038
    -7.8996  -7.8802  -7.8719  -7.8619  -7.8568  -7.8557  -7.8244  -7.7848
     3.2425   3.2464   3.2563   3.2608   3.2622   3.2691   3.5270   3.5383
     3.7304   3.7305   3.7330   3.7393   3.7460   3.7526   3.8059   3.8330
     3.8527   3.8635   3.8712   3.8757   3.8836   3.8873   3.8910   3.9004
     3.9033   3.9094   3.9179   3.9231   3.9255   3.9323   3.9409   3.9439
     4.0795   4.0854   4.0984   4.1098   4.1193   4.1204   4.1264   4.1287
     4.1376   4.1451   4.1532   4.1570   4.2289   4.2469   4.2494   4.2610
     4.2749   4.2881   4.4293   4.4360   4.4418   4.4500   4.4611   4.4674
     5.1001   5.1044   5.1203   5.1307   5.1341   5.1366   5.1383   5.1468
     5.1512   5.1553   5.1600   5.1668   5.2316   5.2495   5.2565   5.2622
     5.2747   5.3030   5.3390   5.3436   5.3503   5.3709   5.3776   5.3851
[...]
     atom   77 type  1   force =   0.00000000E+00  0.00000000E+00  0.00000000E+00
     atom   78 type  2   force =   0.00000000E+00  0.00000000E+00  0.00000000E+00
     atom   79 type  1   force =   0.00000000E+00  0.00000000E+00  0.00000000E+00
     atom   80 type  2   force =   0.00000000E+00  0.00000000E+00  0.00000000E+00
     atom   81 type  1   force =   0.00000000E+00  0.00000000E+00  0.00000000E+00
     atom   82 type  2   force =   0.00000000E+00  0.00000000E+00  0.00000000E+00
     atom   83 type  1   force =   0.00000000E+00  0.00000000E+00  0.00000000E+00
     atom   84 type  2   force =   0.00000000E+00  0.00000000E+00  0.00000000E+00
     atom   85 type  1   force =   0.00000000E+00  0.00000000E+00  0.00000000E+00
     atom   86 type  2   force =   0.00000000E+00  0.00000000E+00  0.00000000E+00
     atom   87 type  1   force =   0.00000000E+00  0.00000000E+00  0.00000000E+00
     atom   88 type  2   force =   0.00000000E+00  0.00000000E+00  0.00000000E+00
     atom   89 type  1   force =   0.00000000E+00  0.00000000E+00  0.00000000E+00
     atom   90 type  2   force =   0.00000000E+00  0.00000000E+00  0.00000000E+00
     atom   91 type  1   force =   0.00000000E+00  0.00000000E+00  0.00000000E+00
     atom   92 type  2   force =   0.00000000E+00  0.00000000E+00  0.00000000E+00
     atom   93 type  1   force =   0.00000000E+00  0.00000000E+00  0.00000000E+00
     atom   94 type  2   force =   0.00000000E+00  0.00000000E+00  0.00000000E+00
     atom   95 type  1   force =   0.00000000E+00  0.00000000E+00  0.00000000E+00
     atom   96 type  2   force =   0.00000000E+00  0.00000000E+00  0.00000000E+00
     atom   97 type  1   force =   0.00000000E+00  0.00000000E+00  0.00000000E+00
     atom   98 type  2   force =   0.00000000E+00  0.00000000E+00  0.00000000E+00
     atom   99 type  1   force =   0.00000000E+00  0.00000000E+00  0.00000000E+00
     atom  100 type  2   force =   0.00000000E+00  0.00000000E+00  0.00000000E+00
     atom  101 type  1   force =   0.00000000E+00  0.00000000E+00  0.00000000E+00
     atom  102 type  2   force =   0.00000000E+00  0.00000000E+00  0.00000000E+00
     atom  103 type  1   force =   0.00000000E+00  0.00000000E+00  0.00000000E+00
     atom  104 type  2   force =   0.00000000E+00  0.00000000E+00  0.00000000E+00
     atom  105 type  1   force =   0.00000000E+00  0.00000000E+00  0.00000000E+00
     atom  106 type  2   force =   0.00000000E+00  0.00000000E+00  0.00000000E+00
     atom  107 type  1   force =   0.00000000E+00  0.00000000E+00  0.00000000E+00
     atom  108 type  2   force =   0.00000000E+00  0.00000000E+00  0.00000000E+00
     atom  109 type  1   force =   0.00000000E+00  0.00000000E+00  0.00000000E+00
     atom  110 type  2   force =   0.00000000E+00  0.00000000E+00  0.00000000E+00
     atom  111 type  1   force =   0.00000000E+00  0.00000000E+00  0.00000000E+00
     atom  112 type  2   force =   0.00000000E+00  0.00000000E+00  0.00000000E+00
     atom  113 type  1   force =   0.00000000E+00  0.00000000E+00  0.00000000E+00
     atom  114 type  2   force =   0.00000000E+00  0.00000000E+00  0.00000000E+00
     atom  115 type  1   force =   0.00000000E+00  0.00000000E+00  0.00000000E+00
     atom  116 type  2   force =   0.00000000E+00  0.00000000E+00  0.00000000E+00
     atom  117 type  1   force =   0.00000000E+00  0.00000000E+00  0.00000000E+00
     atom  118 type  2   force =   0.00000000E+00  0.00000000E+00  0.00000000E+00
     atom  119 type  1   force =   0.00000000E+00  0.00000000E+00  0.00000000E+00
     atom  120 type  2   force =   0.00000000E+00  0.00000000E+00  0.00000000E+00
     atom  121 type  1   force =   0.00000000E+00  0.00000000E+00  0.00000000E+00
     atom  122 type  2   force =   0.00000000E+00  0.00000000E+00  0.00000000E+00
     atom  123 type  1   force =   0.00000000E+00  0.00000000E+00  0.00000000E+00
     atom  124 type  2   force =   0.00000000E+00  0.00000000E+00  0.00000000E+00
     atom  125 type  1   force =   0.00000000E+00  0.00000000E+00  0.00000000E+00
     atom  126 type  2   force =   0.00000000E+00  0.00000000E+00  0.00000000E+00
     atom  127 type  1   force =   0.00000000E+00  0.00000000E+00  0.00000000E+00
     atom  128 type  2   force =   0.00000000E+00  0.00000000E+00  0.00000000E+00
     The SCF correction term to forces
     atom    1 type  1   force =  -0.23706535E-06 -0.35629695E-06  0.39265698E-06
     atom    2 type  2   force =  -0.70704377E-06 -0.31774910E-06 -0.38366082E-06
     atom    3 type  1   force =  -0.13176730E-05 -0.80651506E-06  0.54100628E-06
     atom    4 type  2   force =  -0.11972931E-06  0.28084740E-06 -0.54213113E-06
     atom    5 type  1   force =   0.30912721E-06  0.67200008E-06 -0.27407943E-06
     atom    6 type  2   force =   0.52583352E-06  0.64846536E-06 -0.63555446E-06
     atom    7 type  1   force =   0.16105620E-05  0.65360922E-06 -0.55333334E-06
     atom    8 type  2   force =  -0.19599039E-06 -0.89443869E-07 -0.45415858E-06
     atom    9 type  1   force =  -0.11405621E-05 -0.36578020E-06 -0.11176710E-05
     atom   10 type  2   force =  -0.18914234E-06 -0.36296421E-06 -0.13746857E-06
     atom   11 type  1   force =  -0.10555938E-05 -0.14050910E-05 -0.13618107E-05
     atom   12 type  2   force =   0.34309070E-06  0.32465667E-06 -0.14095930E-06
     atom   13 type  1   force =   0.97959797E-06  0.10420350E-05 -0.20398367E-05
     atom   14 type  2   force =  -0.12817510E-06  0.61857096E-06 -0.37685719E-06
     atom   15 type  1   force =  -0.56163951E-06  0.17029163E-05 -0.13875943E-05
     atom   16 type  2   force =  -0.43223981E-06 -0.15082769E-06 -0.38741547E-06
     atom   17 type  1   force =  -0.28434442E-07 -0.16523828E-05 -0.67089443E-06
     atom   18 type  2   force =   0.66806078E-06 -0.49045217E-06  0.57551874E-06
     atom   19 type  1   force =   0.11455125E-05 -0.15361009E-05  0.18173849E-06
     atom   20 type  2   force =  -0.47481176E-08  0.68192505E-08  0.53548286E-06
     atom   21 type  1   force =   0.57456627E-06  0.19063934E-06 -0.13260936E-06
     atom   22 type  2   force =  -0.86750275E-07  0.18750366E-06  0.17120766E-06
     atom   23 type  1   force =   0.47823177E-07  0.96981450E-06 -0.11344361E-05
     atom   24 type  2   force =   0.39033277E-06 -0.51267182E-06  0.19566357E-06
     atom   25 type  1   force =   0.16099173E-05 -0.18498398E-05  0.82092284E-06
     atom   26 type  2   force =  -0.10475232E-06 -0.48247967E-06  0.40239260E-06
     atom   27 type  1   force =   0.44125649E-06 -0.14027494E-05  0.13498695E-05
     atom   28 type  2   force =  -0.40981751E-06  0.26563951E-08  0.28096657E-06
     atom   29 type  1   force =   0.47364566E-06 -0.23490664E-06  0.48263373E-06
     atom   30 type  2   force =   0.44554259E-06  0.14752197E-06  0.31522246E-07
     atom   31 type  1   force =   0.16547688E-05  0.16973190E-06  0.49402855E-06
     atom   32 type  2   force =   0.70111484E-06 -0.29705057E-06  0.25385530E-06
     atom   33 type  1   force =  -0.93779503E-06 -0.52306007E-06 -0.51069291E-06
     atom   34 type  2   force =  -0.99905772E-06  0.28182240E-06 -0.46876091E-07
     atom   35 type  1   force =  -0.20618942E-05  0.45546904E-07 -0.10697908E-05
     atom   36 type  2   force =  -0.12883863E-06  0.51355663E-06 -0.13658448E-06
     atom   37 type  1   force =   0.49650415E-06  0.15274254E-05 -0.84554384E-06
     atom   38 type  2   force =   0.47537588E-06  0.25835567E-07 -0.32734294E-06
     atom   39 type  1   force =   0.12983825E-05  0.18121837E-06 -0.73695700E-06
     atom   40 type  2   force =  -0.22822556E-06  0.29546057E-07 -0.26324336E-06
     atom   41 type  1   force =  -0.25941172E-05 -0.34612618E-06 -0.18290998E-06
     atom   42 type  2   force =  -0.24643640E-06  0.42041887E-06  0.44453225E-06
     atom   43 type  1   force =  -0.17410444E-05  0.77910573E-06 -0.41531565E-06
     atom   44 type  2   force =   0.30223892E-06  0.51001376E-06  0.38097102E-06
     atom   45 type  1   force =   0.82443856E-06  0.20393455E-05 -0.70114257E-06
     atom   46 type  2   force =  -0.25991517E-06  0.13986028E-07 -0.16220111E-07
     atom   47 type  1   force =  -0.88083466E-06  0.56485599E-06 -0.12599158E-05
     atom   48 type  2   force =  -0.71000318E-06  0.12806641E-07  0.57621700E-07
     atom   49 type  1   force =   0.19410820E-06 -0.72769333E-06  0.64277156E-06
     atom   50 type  2   force =   0.52216515E-06  0.84677211E-07  0.52695157E-06
     atom   51 type  1   force =   0.14247562E-05  0.17739250E-06  0.18300657E-05
     atom   52 type  2   force =  -0.24325240E-06  0.41824221E-07  0.35555597E-06
     atom   53 type  1   force =  -0.38668193E-06  0.17283042E-06  0.51931029E-06
     atom   54 type  2   force =  -0.25005179E-06 -0.22349795E-06  0.19156445E-06
     atom   55 type  1   force =  -0.90558927E-06 -0.26777658E-06 -0.72213384E-07
     atom   56 type  2   force =   0.28474552E-06 -0.24606801E-06  0.37763745E-06
     atom   57 type  1   force =   0.16476036E-05 -0.12140240E-05  0.14470219E-05
     atom   58 type  2   force =  -0.34078626E-06 -0.23279269E-07  0.13419847E-06
     atom   59 type  1   force =  -0.30419650E-06 -0.64970481E-06  0.16398062E-05
     atom   60 type  2   force =  -0.50808214E-06  0.12842938E-06 -0.10189073E-06
     atom   61 type  1   force =  -0.52243444E-06 -0.25872957E-06  0.88504025E-06
     atom   62 type  2   force =   0.34704869E-06 -0.18832304E-06 -0.17548515E-06
     atom   63 type  1   force =   0.16012382E-05 -0.68041601E-06  0.97596122E-06
     atom   64 type  2   force =   0.64710953E-06 -0.11978683E-06 -0.11796046E-06
     atom   65 type  1   force =  -0.69427049E-06  0.36636306E-06  0.35760628E-06
     atom   66 type  2   force =  -0.81775313E-06  0.28976115E-06  0.38940491E-06
     atom   67 type  1   force =  -0.17373552E-05  0.31735998E-06  0.69301052E-06
     atom   68 type  2   force =  -0.41958603E-07 -0.13682925E-06  0.25861254E-06
     atom   69 type  1   force =   0.17892816E-06  0.13333189E-06 -0.13841416E-06
     atom   70 type  2   force =   0.30498146E-06  0.35773415E-07  0.88329515E-07
     atom   71 type  1   force =   0.11712858E-05  0.39865149E-06 -0.50205218E-06
     atom   72 type  2   force =  -0.23971641E-06  0.48508089E-06  0.13279875E-06
     atom   73 type  1   force =  -0.23327620E-05  0.12658539E-05  0.42229843E-06
     atom   74 type  2   force =  -0.13716126E-06  0.31064969E-06  0.20851072E-06
     atom   75 type  1   force =  -0.56265032E-06  0.12503761E-05  0.13098565E-05
     atom   76 type  2   force =   0.15532409E-06 -0.25034328E-06  0.10461900E-06
     atom   77 type  1   force =   0.23925907E-06 -0.23585803E-07  0.22986940E-06
     atom   78 type  2   force =  -0.24453539E-06  0.82206452E-07 -0.18209894E-06
     atom   79 type  1   force =  -0.88874017E-06  0.82969139E-06 -0.65464477E-06
     atom   80 type  2   force =  -0.49620041E-06  0.60026916E-06 -0.26017634E-07
     atom   81 type  1   force =  -0.56761468E-06  0.12847064E-05  0.12518512E-05
     atom   82 type  2   force =   0.43669222E-06  0.16426159E-07  0.12881498E-08
     atom   83 type  1   force =   0.15219292E-06  0.58949726E-06  0.13291394E-05
     atom   84 type  2   force =  -0.25899797E-06 -0.36776353E-06  0.58761295E-07
     atom   85 type  1   force =  -0.10077444E-05 -0.50017013E-06  0.24590932E-06
     atom   86 type  2   force =  -0.97604965E-07 -0.23084509E-06 -0.18694102E-06
     atom   87 type  1   force =  -0.76676339E-06  0.55873900E-06 -0.52227152E-07
     atom   88 type  2   force =   0.29046705E-06  0.27499453E-06 -0.11473431E-06
     atom   89 type  1   force =   0.17325729E-05  0.44442199E-08  0.97030210E-06
     atom   90 type  2   force =  -0.25964210E-06 -0.38951716E-07  0.56911332E-07
     atom   91 type  1   force =  -0.11341024E-05 -0.63530575E-06  0.11434387E-05
     atom   92 type  2   force =  -0.42220047E-06 -0.30882827E-06  0.92920341E-07
     atom   93 type  1   force =  -0.13571370E-06 -0.57814788E-06  0.35259495E-06
     atom   94 type  2   force =   0.36333293E-06 -0.11722744E-06 -0.52363890E-07
     atom   95 type  1   force =   0.11265744E-05 -0.77457110E-06 -0.99303755E-07
     atom   96 type  2   force =   0.59109690E-06  0.19845879E-06 -0.19948741E-06
     atom   97 type  1   force =  -0.36630013E-06 -0.20335642E-06  0.83675023E-06
     atom   98 type  2   force =  -0.65995693E-06 -0.34882850E-06 -0.17987919E-08
     atom   99 type  1   force =  -0.10453236E-05 -0.92276363E-06  0.78691711E-06
     atom  100 type  2   force =   0.40915568E-07 -0.27726649E-06 -0.69562548E-07
     atom  101 type  1   force =   0.85938808E-06 -0.28963035E-06  0.40924641E-07
     atom  102 type  2   force =   0.53003277E-06  0.38055136E-06 -0.33552183E-06
     atom  103 type  1   force =   0.15597078E-05  0.95647568E-06  0.35031785E-06
     atom  104 type  2   force =  -0.50401048E-07  0.29737453E-06 -0.15902148E-06
     atom  105 type  1   force =  -0.10423835E-05  0.15947752E-06 -0.39891046E-07
     atom  106 type  2   force =  -0.17094488E-07 -0.50482484E-06 -0.38651586E-06
     atom  107 type  1   force =  -0.57837223E-06 -0.69605669E-06  0.42420233E-06
     atom  108 type  2   force =   0.38045956E-06 -0.40038667E-06 -0.57201077E-06
     atom  109 type  1   force =   0.46178567E-06  0.17955057E-06 -0.66485438E-06
     atom  110 type  2   force =   0.26619907E-07  0.52985750E-06 -0.61344096E-06
     atom  111 type  1   force =  -0.58109789E-06  0.17145877E-05 -0.13919664E-05
     atom  112 type  2   force =  -0.28335514E-06  0.38160031E-06 -0.53495647E-06
     atom  113 type  1   force =  -0.47039382E-07  0.69617950E-06 -0.26793613E-06
     atom  114 type  2   force =   0.53010739E-06 -0.74957013E-06 -0.57861369E-07
     atom  115 type  1   force =   0.56452496E-06 -0.18856855E-05 -0.75702971E-07
     atom  116 type  2   force =   0.10711726E-06 -0.44122853E-06  0.13924217E-06
     atom  117 type  1   force =  -0.22804056E-06 -0.10996515E-05 -0.77447250E-06
     atom  118 type  2   force =   0.87146877E-07  0.16675539E-06 -0.13936132E-06
     atom  119 type  1   force =   0.61962543E-07  0.91937414E-06 -0.14636766E-05
     atom  120 type  2   force =   0.41806763E-06  0.37325717E-07 -0.11250661E-06
     atom  121 type  1   force =   0.14695083E-05  0.35404129E-07  0.17147146E-06
     atom  122 type  2   force =  -0.12651889E-07 -0.56614277E-06  0.51680722E-06
     atom  123 type  1   force =  -0.67324168E-07 -0.18191934E-05  0.28042411E-06
     atom  124 type  2   force =  -0.31086876E-06 -0.46919036E-06  0.37076774E-06
     atom  125 type  1   force =  -0.17401840E-06 -0.10818911E-05  0.62239207E-06
     atom  126 type  2   force =   0.49027350E-06  0.13971921E-06  0.85406033E-07
     atom  127 type  1   force =   0.16100003E-05  0.38784217E-06  0.45418187E-06
     atom  128 type  2   force =   0.65933083E-06  0.56818668E-07  0.22584609E-06

     Total force =     0.141410     Total SCF correction =     0.000014


     entering subroutine stress ...

          total   stress  (Ry/bohr**3)                   (kbar)     P=   -1.13
  -0.0000070105   0.0000002418   0.0000004517         -1.03      0.04      0.07
   0.0000002418  -0.0000087432   0.0000001342          0.04     -1.29      0.02
   0.0000004517   0.0000001342  -0.0000072360          0.07      0.02     -1.06

     kinetic stress (kbar)  24052.51     -0.01      0.00
                               -0.01  24052.39      0.05
                                0.00      0.05  24052.54

     local   stress (kbar)  -3797.12     -6.22     -8.38
                               -6.22  -3796.35      1.34
                               -8.38      1.34  -3798.35

     nonloc. stress (kbar)   6544.62      0.01      0.03
                                0.01   6544.56     -0.01
                                0.03     -0.01   6544.61

     hartree stress (kbar)  18662.12      2.53      3.32
                                2.53  18662.40     -0.45
                                3.32     -0.45  18662.87

     exc-cor stress (kbar)  -8540.30      0.00      0.00
                                0.00  -8540.31     -0.00
                                0.00     -0.00  -8540.30

     corecor stress (kbar)   -314.20     -0.00     -0.00
                               -0.00   -314.20     -0.00
                               -0.00     -0.00   -314.20

     ewald   stress (kbar) -36608.66      3.72      5.09
                                3.72 -36609.77     -0.90
                                5.09     -0.90 -36608.23

     hubbard stress (kbar)      0.00      0.00      0.00
                                0.00      0.00      0.00
                                0.00      0.00      0.00

     london  stress (kbar)      0.00      0.00      0.00
                                0.00      0.00      0.00
                                0.00      0.00      0.00

     XDM     stress (kbar)      0.00      0.00      0.00
                                0.00      0.00      0.00
                                0.00      0.00      0.00

     dft-nl  stress (kbar)      0.00      0.00      0.00
                                0.00      0.00      0.00
                                0.00      0.00      0.00



     Writing output data file MgO_rocksalt.relax.in.up_1.00.super.444.022.save

     init_run     :    372.48s CPU    298.97s WALL (       1 calls)
     electrons    :  35948.96s CPU  27317.12s WALL (       1 calls)
     forces       :    412.29s CPU    284.52s WALL (       1 calls)
     stress       :   1990.56s CPU   1966.32s WALL (       1 calls)

     Called by init_run:
     wfcinit      :    343.05s CPU    269.35s WALL (       1 calls)
     potinit      :      0.54s CPU      0.55s WALL (       1 calls)

     Called by electrons:
     c_bands      :  31510.61s CPU  23551.06s WALL (      26 calls)
     sum_band     :   3805.80s CPU   3130.42s WALL (      26 calls)
     v_of_rho     :     10.89s CPU     10.95s WALL (      27 calls)
     v_h          :      0.75s CPU      0.74s WALL (      27 calls)
     v_xc         :     10.82s CPU     10.89s WALL (      29 calls)
     newd         :    631.35s CPU    634.24s WALL (      27 calls)
     mix_rho      :     16.45s CPU     16.60s WALL (      26 calls)

     Called by c_bands:
     init_us_2    :     55.36s CPU     56.18s WALL (     440 calls)
     cegterg      :  31195.83s CPU  23230.22s WALL (     208 calls)

     Called by sum_band:
     sum_band:bec :     17.93s CPU     18.11s WALL (     208 calls)
     addusdens    :    448.28s CPU    450.29s WALL (      26 calls)

     Called by *egterg:
     h_psi        :  12735.74s CPU   9826.34s WALL (     760 calls)
     s_psi        :   3151.55s CPU   1738.78s WALL (     760 calls)
     g_psi        :     15.29s CPU     15.95s WALL (     544 calls)
     cdiaghg      :   9924.33s CPU   8327.80s WALL (     752 calls)
     cegterg:over :   2427.06s CPU   1459.46s WALL (     544 calls)
     cegterg:upda :   1137.62s CPU    636.75s WALL (     544 calls)
     cegterg:last :    871.88s CPU    473.11s WALL (     208 calls)

     Called by h_psi:
     h_psi:vloc   :   5767.61s CPU   5821.51s WALL (     760 calls)
     h_psi:vnl    :   6949.21s CPU   3985.65s WALL (     760 calls)
     add_vuspsi   :   3141.44s CPU   1734.62s WALL (     760 calls)

     General routines
     calbec       :   6055.73s CPU   3744.64s WALL (     984 calls)
     fft          :    121.36s CPU    121.57s WALL (     453 calls)
     ffts         :      8.23s CPU      8.37s WALL (     656 calls)
     fftw         :   6157.60s CPU   6215.39s WALL (  700974 calls)
     interpolate  :      2.24s CPU      2.23s WALL (      53 calls)

     Parallel routines
     fft_scatter  :   3610.02s CPU   3649.26s WALL (  702083 calls)

     PWSCF        :    10h45m CPU        8h18m WALL


   This run was terminated on:   4:21:12  19Aug2017            

=------------------------------------------------------------------------------=
   JOB DONE.
=------------------------------------------------------------------------------=
