       N       E                     dE             d eps       ncg     rms          rms(c)
DAV:   1    -0.108461930108E+02   -0.10846E+02   -0.51659E-09   336   0.567E-04    0.109E-04
DAV:   2    -0.108461930105E+02    0.36187E-09   -0.45596E-10   296   0.196E-04
   1 F= -.10846193E+02 E0= -.10846193E+02  d E =-.258787E-16
