       N       E                     dE             d eps       ncg     rms          rms(c)
DAV:   1    -0.388414413812E+03   -0.38841E+03   -0.86689E+03   661   0.692E+02    0.913E+01
DAV:   2    -0.155833243293E+03    0.23258E+03   -0.94454E+02   710   0.433E+02    0.597E+01
DAV:   3    -0.127268966985E+03    0.28564E+02   -0.15642E+03   745   0.427E+02    0.623E+01
DAV:   4    -0.426064534164E+02    0.84663E+02   -0.10015E+02   715   0.135E+02    0.374E+01
DAV:   5    -0.433836348157E+02   -0.77718E+00   -0.47255E+00   770   0.224E+01    0.370E+01
DAV:   6    -0.434384989485E+02   -0.54864E-01   -0.21628E-02   694   0.195E+00    0.367E+01
DAV:   7    -0.108473826853E+03   -0.65035E+02   -0.68044E+01   692   0.842E+01    0.115E+02
DAV:   8    -0.145724296377E+03   -0.37250E+02   -0.12708E+01   719   0.275E+01    0.134E+02
DAV:   9    -0.116341909898E+03    0.29382E+02   -0.34601E+00   671   0.173E+01    0.124E+02
DAV:  10    -0.111926942875E+03    0.44150E+01   -0.34642E-01   731   0.650E+00    0.120E+02
DAV:  11    -0.127263120767E+02    0.99201E+02   -0.44914E+02   721   0.112E+02    0.222E+01
DAV:  12    -0.267254716734E+02   -0.13999E+02   -0.57054E+01   683   0.601E+01    0.328E+01
DAV:  13    -0.300099230910E+02   -0.32845E+01   -0.14450E+00   686   0.103E+01    0.406E+01
DAV:  14    -0.288253865693E+02    0.11845E+01   -0.11679E-01   671   0.474E+00    0.410E+01
DAV:  15    -0.123416693045E+02    0.16484E+02   -0.93530E+01   644   0.752E+01    0.765E+00
DAV:  16    -0.118694465534E+02    0.47222E+00   -0.10786E+00   638   0.109E+01    0.152E+00
DAV:  17    -0.119230774898E+02   -0.53631E-01   -0.42014E-01   671   0.498E+00    0.310E+00
DAV:  18    -0.118780147820E+02    0.45063E-01   -0.43402E-02   659   0.164E+00    0.255E+00
DAV:  19    -0.118687370242E+02    0.92778E-02   -0.17982E-02   698   0.969E-01    0.169E+00
DAV:  20    -0.118605484352E+02    0.81886E-02   -0.41400E-02   677   0.155E+00    0.344E-01
DAV:  21    -0.118607302698E+02   -0.18183E-03   -0.40795E-04   647   0.325E-01    0.186E-01
DAV:  22    -0.118607427112E+02   -0.12441E-04   -0.29826E-04   707   0.158E-01    0.612E-02
DAV:  23    -0.118607543439E+02   -0.11633E-04   -0.32786E-05   638   0.777E-02    0.497E-02
DAV:  24    -0.118607569682E+02   -0.26243E-05   -0.10138E-05   638   0.333E-02    0.223E-02
DAV:  25    -0.118607578634E+02   -0.89519E-06   -0.10084E-06   644   0.132E-02    0.522E-03
DAV:  26    -0.118607578056E+02    0.57810E-07   -0.10356E-07   713   0.414E-03    0.931E-04
DAV:  27    -0.118607578069E+02   -0.12981E-08   -0.44518E-09   337   0.111E-03
   1 F= -.11860758E+02 E0= -.11860758E+02  d E =-.975014-139
 Linear response reoptimize wavefunctions
DAV:   1    -0.118607578310E+02   -0.24093E-07   -0.25393E-09   686   0.516E-04
DAV:   2    -0.118607578310E+02    0.68212E-11   -0.35424E-11   328   0.541E-05
 Linear response G [H, r] |phi>, progress :
  Direction:   1
       N       E                     dE             d eps       ncg     rms
RMM:   1    -0.494200515545E+02   -0.49420E+02   -0.23909E+02  1055   0.170E+02
RMM:   2    -0.485899615842E+02    0.83009E+00   -0.36436E+00  1109   0.174E+01
RMM:   3    -0.485599033132E+02    0.30058E-01   -0.93844E-02  1232   0.226E+00
RMM:   4    -0.485575998308E+02    0.23035E-02   -0.28810E-03  1268   0.297E-01
RMM:   5    -0.485576302468E+02   -0.30416E-04   -0.17964E-04  1252   0.435E-02
RMM:   6    -0.485576189580E+02    0.11289E-04   -0.14601E-05  1175   0.894E-03
RMM:   7    -0.485576189770E+02   -0.18954E-07   -0.12931E-05   985   0.230E-03
RMM:   8    -0.485576195514E+02   -0.57444E-06   -0.18592E-05   867   0.124E-03
RMM:   9    -0.485576192687E+02    0.28270E-06   -0.15762E-05   759   0.106E-03
RMM:  10    -0.485576194685E+02   -0.19982E-06   -0.17762E-05   681   0.103E-03
RMM:  11    -0.485576192562E+02    0.21237E-06   -0.15637E-05   625   0.103E-03
 Linear response G [H, r] |phi>, progress :
  Direction:   2
       N       E                     dE             d eps       ncg     rms
RMM:   1    -0.503432719641E+02   -0.50343E+02   -0.25191E+02  1039   0.175E+02
RMM:   2    -0.482857731278E+02    0.20575E+01   -0.53306E+00  1097   0.195E+01
RMM:   3    -0.482422777588E+02    0.43495E-01   -0.10580E-01  1218   0.251E+00
RMM:   4    -0.482401440050E+02    0.21338E-02   -0.35797E-03  1280   0.346E-01
RMM:   5    -0.482401616038E+02   -0.17599E-04   -0.91403E-05  1259   0.476E-02
RMM:   6    -0.482401590812E+02    0.25226E-05   -0.52459E-06  1174   0.857E-03
RMM:   7    -0.482401589019E+02    0.17935E-06   -0.15936E-06   979   0.195E-03
RMM:   8    -0.482401594889E+02   -0.58705E-06   -0.73861E-06   874   0.100E-03
RMM:   9    -0.482401590459E+02    0.44297E-06   -0.29567E-06   741   0.827E-04
RMM:  10    -0.482401596815E+02   -0.63556E-06   -0.93098E-06   668   0.811E-04
RMM:  11    -0.482401590230E+02    0.65849E-06   -0.27274E-06   598   0.824E-04
 Linear response G [H, r] |phi>, progress :
  Direction:   3
       N       E                     dE             d eps       ncg     rms
RMM:   1    -0.470514234674E+02   -0.47051E+02   -0.22381E+02  1045   0.167E+02
RMM:   2    -0.439081951244E+02    0.31432E+01   -0.43038E+00  1065   0.165E+01
RMM:   3    -0.438580684258E+02    0.50127E-01   -0.12609E-01  1159   0.204E+00
RMM:   4    -0.438531242399E+02    0.49442E-02   -0.40523E-03  1199   0.294E-01
RMM:   5    -0.438531285146E+02   -0.42746E-05   -0.64894E-05  1152   0.414E-02
RMM:   6    -0.438531281398E+02    0.37474E-06   -0.17291E-06  1019   0.647E-03
RMM:   7    -0.438531283615E+02   -0.22166E-06   -0.24861E-06   858   0.149E-03
RMM:   8    -0.438531281425E+02    0.21905E-06   -0.21861E-07   749   0.571E-04
RMM:   9    -0.438531282257E+02   -0.83289E-07   -0.10471E-06   632   0.386E-04
RMM:  10    -0.438531281751E+02    0.50613E-07   -0.54275E-07   542   0.364E-04
RMM:  11    -0.438531280738E+02    0.10135E-06    0.47291E-07   465   0.353E-04
 Linear response to external field (no local field effect), progress :
  Direction:   1
       N       E                     dE             d eps       ncg     rms          rms(c)
RMM:   1    -0.123745043608E+00   -0.12375E+00   -0.34224E-01  1134   0.368E+00
RMM:   2    -0.133189378055E+00   -0.94443E-02   -0.17972E-03  1117   0.317E-01
RMM:   3    -0.133187848432E+00    0.15296E-05   -0.61909E-05  1178   0.468E-02
RMM:   4    -0.133188265533E+00   -0.41710E-06   -0.27262E-06  1175   0.789E-03
RMM:   5    -0.133188276079E+00   -0.10546E-07   -0.58785E-08   893   0.107E-03
RMM:   6    -0.133188276659E+00   -0.58041E-09   -0.14359E-09   758   0.166E-04
 Linear response to external field (no local field effect), progress :
  Direction:   2
       N       E                     dE             d eps       ncg     rms          rms(c)
RMM:   1    -0.121812557853E+00   -0.12181E+00   -0.32075E-01  1170   0.376E+00
RMM:   2    -0.133570448946E+00   -0.11758E-01   -0.19214E-03  1107   0.330E-01
RMM:   3    -0.133566205999E+00    0.42429E-05   -0.64276E-05  1182   0.498E-02
RMM:   4    -0.133566570697E+00   -0.36470E-06   -0.34036E-06  1155   0.818E-03
RMM:   5    -0.133566577834E+00   -0.71367E-08   -0.11116E-07   891   0.141E-03
RMM:   6    -0.133566578901E+00   -0.10670E-08   -0.18244E-09   756   0.188E-04
 Linear response to external field (no local field effect), progress :
  Direction:   3
       N       E                     dE             d eps       ncg     rms          rms(c)
RMM:   1    -0.779858967078E-01   -0.77986E-01   -0.18734E-01  1161   0.328E+00
RMM:   2    -0.839518940569E-01   -0.59660E-02   -0.12050E-03  1101   0.267E-01
RMM:   3    -0.839510177110E-01    0.87635E-06   -0.30195E-05  1125   0.344E-02
RMM:   4    -0.839511426629E-01   -0.12495E-06   -0.10550E-06  1067   0.505E-03
RMM:   5    -0.839511447045E-01   -0.20416E-08   -0.31167E-08   744   0.738E-04
 Linear response to external field, progress :
  Direction:   1
       N       E                     dE             d eps       ncg     rms          rms(c)
RMM:   1    -0.107949364153E+00   -0.10795E+00   -0.28446E-01  2349   0.356E+00
RMM:   2    -0.116903703239E+00   -0.89543E-02   -0.16400E-03  2246   0.302E-01    0.530E-01
RMM:   3    -0.116553145684E+00    0.35056E-03   -0.12248E-03  2037   0.317E-01    0.322E-01
RMM:   4    -0.124523852932E+00   -0.79707E-02   -0.21758E-03  1942   0.456E-01    0.319E-02
RMM:   5    -0.125457926666E+00   -0.93407E-03   -0.34459E-05  2228   0.696E-02    0.662E-03
RMM:   6    -0.125520853984E+00   -0.62927E-04   -0.10623E-06  2190   0.941E-03    0.214E-03
RMM:   7    -0.125562327999E+00   -0.41474E-04   -0.15156E-07  2089   0.374E-03    0.231E-04
RMM:   8    -0.125567505832E+00   -0.51778E-05   -0.15541E-09  2168   0.424E-04    0.483E-05
RMM:   9    -0.125567605189E+00   -0.99357E-07   -0.13937E-10  1774   0.136E-04    0.837E-06
 Linear response to external field, progress :
  Direction:   2
       N       E                     dE             d eps       ncg     rms          rms(c)
RMM:   1    -0.107787340333E+00   -0.10779E+00   -0.28284E-01  2361   0.358E+00
RMM:   2    -0.116904005636E+00   -0.91167E-02   -0.16421E-03  2251   0.306E-01    0.530E-01
RMM:   3    -0.116557629258E+00    0.34638E-03   -0.12225E-03  2040   0.317E-01    0.322E-01
RMM:   4    -0.124525035327E+00   -0.79674E-02   -0.21768E-03  1946   0.457E-01    0.319E-02
RMM:   5    -0.125457483307E+00   -0.93245E-03   -0.34690E-05  2227   0.698E-02    0.659E-03
RMM:   6    -0.125521321619E+00   -0.63838E-04   -0.10842E-06  2191   0.945E-03    0.215E-03
RMM:   7    -0.125562146917E+00   -0.40825E-04   -0.14922E-07  2089   0.371E-03    0.233E-04
RMM:   8    -0.125567530476E+00   -0.53836E-05   -0.16184E-09  2174   0.423E-04    0.479E-05
RMM:   9    -0.125567591429E+00   -0.60954E-07   -0.13670E-10  1766   0.134E-04    0.833E-06
 Linear response to external field, progress :
  Direction:   3
       N       E                     dE             d eps       ncg     rms          rms(c)
RMM:   1    -0.107806789540E+00   -0.10781E+00   -0.28303E-01  2355   0.358E+00
RMM:   2    -0.116904009053E+00   -0.90972E-02   -0.16415E-03  2245   0.306E-01    0.530E-01
RMM:   3    -0.116559534215E+00    0.34447E-03   -0.12228E-03  2042   0.317E-01    0.322E-01
RMM:   4    -0.124525009871E+00   -0.79655E-02   -0.21766E-03  1947   0.457E-01    0.319E-02
RMM:   5    -0.125457240831E+00   -0.93223E-03   -0.34678E-05  2228   0.698E-02    0.660E-03
RMM:   6    -0.125521365557E+00   -0.64125E-04   -0.10826E-06  2197   0.946E-03    0.215E-03
RMM:   7    -0.125562169705E+00   -0.40804E-04   -0.14933E-07  2091   0.371E-03    0.233E-04
RMM:   8    -0.125567540254E+00   -0.53705E-05   -0.16218E-09  2174   0.423E-04    0.479E-05
RMM:   9    -0.125567604394E+00   -0.64141E-07   -0.13674E-10  1772   0.134E-04    0.836E-06
