       N       E                     dE             d eps       ncg     rms          rms(c)
DAV:   1     0.497121063123E+03    0.49712E+03   -0.64986E+04  4032   0.902E+02
DAV:   2    -0.231040255062E+03   -0.72816E+03   -0.69397E+03  4944   0.157E+02
DAV:   3    -0.277580856096E+03   -0.46541E+02   -0.45912E+02  5008   0.382E+01
DAV:   4    -0.278579734281E+03   -0.99888E+00   -0.99367E+00  5104   0.650E+00
DAV:   5    -0.278599411017E+03   -0.19677E-01   -0.19660E-01  4976   0.923E-01    0.230E+01
DAV:   6    -0.275508655242E+03    0.30908E+01   -0.17707E+00  4704   0.236E+00    0.141E+01
DAV:   7    -0.274164866722E+03    0.13438E+01   -0.36712E+00  4592   0.343E+00    0.957E-01
DAV:   8    -0.274181135820E+03   -0.16269E-01   -0.24067E-01  4672   0.107E+00    0.506E-01
DAV:   9    -0.274188946237E+03   -0.78104E-02   -0.22851E-02  5040   0.317E-01    0.315E-01
DAV:  10    -0.274189764780E+03   -0.81854E-03   -0.20974E-03  4608   0.880E-02    0.188E-01
DAV:  11    -0.274190620362E+03   -0.85558E-03   -0.93422E-04  4448   0.684E-02    0.599E-02
DAV:  12    -0.274190676443E+03   -0.56081E-04   -0.98058E-05  5024   0.208E-02    0.232E-02
DAV:  13    -0.274190683610E+03   -0.71675E-05   -0.10874E-05  4736   0.739E-03    0.100E-02
DAV:  14    -0.274190683902E+03   -0.29163E-06   -0.33004E-06  4944   0.438E-03    0.310E-03
DAV:  15    -0.274190685804E+03   -0.19020E-05   -0.13048E-06  4672   0.233E-03    0.156E-03
DAV:  16    -0.274190685777E+03    0.26626E-07   -0.93026E-08  2976   0.727E-04
   1 F= -.27419069E+03 E0= -.27419069E+03  d E =-.583811E-11
