       N       E                     dE             d eps       ncg     rms          rms(c)
DAV:   1     0.470697971822E+03    0.47070E+03   -0.64894E+04  4032   0.901E+02
DAV:   2    -0.237827824892E+03   -0.70853E+03   -0.67556E+03  4944   0.156E+02
DAV:   3    -0.282249560221E+03   -0.44422E+02   -0.43822E+02  5024   0.373E+01
DAV:   4    -0.283209696681E+03   -0.96014E+00   -0.95521E+00  5104   0.647E+00
DAV:   5    -0.283229601787E+03   -0.19905E-01   -0.19886E-01  4976   0.930E-01    0.235E+01
DAV:   6    -0.280118741092E+03    0.31109E+01   -0.17767E+00  4688   0.236E+00    0.143E+01
DAV:   7    -0.278751504427E+03    0.13672E+01   -0.37398E+00  4640   0.346E+00    0.954E-01
DAV:   8    -0.278769831065E+03   -0.18327E-01   -0.25176E-01  4736   0.108E+00    0.531E-01
DAV:   9    -0.278777387957E+03   -0.75569E-02   -0.21508E-02  5008   0.305E-01    0.317E-01
DAV:  10    -0.278778641844E+03   -0.12539E-02   -0.23914E-03  4576   0.926E-02    0.171E-01
DAV:  11    -0.278779559180E+03   -0.91734E-03   -0.92463E-04  4480   0.689E-02    0.755E-02
DAV:  12    -0.278779622147E+03   -0.62966E-04   -0.11079E-04  5024   0.218E-02    0.288E-02
DAV:  13    -0.278779632798E+03   -0.10652E-04   -0.18538E-05  4688   0.916E-03    0.977E-03
DAV:  14    -0.278779630919E+03    0.18788E-05   -0.24964E-06  5088   0.400E-03    0.424E-03
DAV:  15    -0.278779632974E+03   -0.20550E-05   -0.17751E-06  4640   0.277E-03    0.155E-03
DAV:  16    -0.278779632863E+03    0.11127E-06   -0.10321E-07  2768   0.801E-04    0.137E-03
DAV:  17    -0.278779633076E+03   -0.21286E-06   -0.68025E-08  2736   0.612E-04    0.329E-04
DAV:  18    -0.278779632991E+03    0.84554E-07   -0.16048E-08  2640   0.326E-04
   1 F= -.27877963E+03 E0= -.27877963E+03  d E =-.266026E-11
