 vasp.5.4.1 24Jun15 (build Jan 30 2017 21:57:38) complex                         
 executed on           IFC91_ompi date 2018.07.26  12:09:39
 running on   16 total cores
 distrk:  each k-point on   16 cores,    1 groups
 distr:  one band on NCORES_PER_BAND=   1 cores,   16 groups


--------------------------------------------------------------------------------------------------------


 INCAR:
 POTCAR:    PAW_PBE Si 05Jan2001                  
 POTCAR:    PAW_PBE Ge 05Jan2001                  

 ----------------------------------------------------------------------------- 
|                                                                             |
|           W    W    AA    RRRRR   N    N  II  N    N   GGGG   !!!           |
|           W    W   A  A   R    R  NN   N  II  NN   N  G    G  !!!           |
|           W    W  A    A  R    R  N N  N  II  N N  N  G       !!!           |
|           W WW W  AAAAAA  RRRRR   N  N N  II  N  N N  G  GGG   !            |
|           WW  WW  A    A  R   R   N   NN  II  N   NN  G    G                |
|           W    W  A    A  R    R  N    N  II  N    N   GGGG   !!!           |
|                                                                             |
|      For optimal performance we recommend to set                            |
|        NCORE= 4 - approx SQRT( number of cores)                             |
|      NCORE specifies how many cores store one orbital (NPAR=cpu/NCORE).     |
|      This setting can  greatly improve the performance of VASP for DFT.     |
|      The default, NPAR=number of cores might be grossly inefficient         |
|      on modern multi-core architectures or massively parallel machines.     |
|      Do your own testing !!!!                                               |
|      Unfortunately you need to use the default for GW and RPA calculations. |
|      (for HF NCORE is supported but not extensively tested yet)             |
|                                                                             |
 ----------------------------------------------------------------------------- 

 POTCAR:    PAW_PBE Si 05Jan2001                  
   VRHFIN =Si: s2p2                                                             
   LEXCH  = PE                                                                  
   EATOM  =   103.0669 eV,    7.5752 Ry                                         
                                                                                
   TITEL  = PAW_PBE Si 05Jan2001                                                
   LULTRA =        F    use ultrasoft PP ?                                      
   IUNSCR =        1    unscreen: 0-lin 1-nonlin 2-no                           
   RPACOR =    1.500    partial core radius                                     
   POMASS =   28.085; ZVAL   =    4.000    mass and valenz                      
   RCORE  =    1.900    outmost cutoff radius                                   
   RWIGS  =    2.480; RWIGS  =    1.312    wigner-seitz radius (au A)           
   ENMAX  =  245.345; ENMIN  =  184.009 eV                                      
   ICORE  =        2    local potential                                         
   LCOR   =        T    correct aug charges                                     
   LPAW   =        T    paw PP                                                  
   EAUG   =  322.069                                                            
   DEXC   =    0.000                                                            
   RMAX   =    1.950    core radius for proj-oper                               
   RAUG   =    1.300    factor for augmentation sphere                          
   RDEP   =    1.993    radius for radial grids                                 
   RDEPT  =    1.837    core radius for aug-charge                              
                                                                                
   Atomic configuration                                                         
    6 entries                                                                   
     n  l   j            E        occ.                                          
     1  0  0.50     -1785.8828   2.0000                                         
     2  0  0.50      -139.4969   2.0000                                         
     2  1  1.50       -95.5546   6.0000                                         
     3  0  0.50       -10.8127   2.0000                                         
     3  1  0.50        -4.0811   2.0000                                         
     3  2  1.50        -4.0817   0.0000                                         
   Description                                                                  
     l       E           TYP  RCUT    TYP  RCUT                                 
     0    -10.8127223     23  1.900                                             
     0     -7.6451159     23  1.900                                             
     1     -4.0811372     23  1.900                                             
     1      2.4879257     23  1.900                                             
     2     -4.0817478      7  1.900                                             
  local pseudopotential read in
  partial core-charges read in
  partial kinetic energy density read in
  atomic valenz-charges read in
  non local Contribution for L=           0  read in
    real space projection operators read in
  non local Contribution for L=           0  read in
    real space projection operators read in
  non local Contribution for L=           1  read in
    real space projection operators read in
  non local Contribution for L=           1  read in
    real space projection operators read in
    PAW grid and wavefunctions read in

   number of l-projection  operators is LMAX  =           4
   number of lm-projection operators is LMMAX =           8

 POTCAR:    PAW_PBE Ge 05Jan2001                  
   VRHFIN =Ge: s2p2                                                             
   LEXCH  = PE                                                                  
   EATOM  =   104.9960 eV,    7.7170 Ry                                         
                                                                                
   TITEL  = PAW_PBE Ge 05Jan2001                                                
   LULTRA =        F    use ultrasoft PP ?                                      
   IUNSCR =        1    unscreen: 0-lin 1-nonlin 2-no                           
   RPACOR =    2.170    partial core radius                                     
   POMASS =   72.610; ZVAL   =    4.000    mass and valenz                      
   RCORE  =    2.300    outmost cutoff radius                                   
   RWIGS  =    2.300; RWIGS  =    1.217    wigner-seitz radius (au A)           
   ENMAX  =  173.807; ENMIN  =  130.355 eV                                      
   ICORE  =        3    local potential                                         
   LCOR   =        T    correct aug charges                                     
   LPAW   =        T    paw PP                                                  
   EAUG   =  385.843                                                            
   DEXC   =    0.000                                                            
   RMAX   =    2.342    core radius for proj-oper                               
   RAUG   =    1.300    factor for augmentation sphere                          
   RDEP   =    2.318    radius for radial grids                                 
   RDEPT  =    2.103    core radius for aug-charge                              
                                                                                
   Atomic configuration                                                         
   10 entries                                                                   
     n  l   j            E        occ.                                          
     1  0  0.50    -10959.8463   2.0000                                         
     2  0  0.50     -1371.6056   2.0000                                         
     2  1  1.50     -1198.4791   6.0000                                         
     3  0  0.50      -168.4733   2.0000                                         
     3  1  1.50      -115.6019   6.0000                                         
     3  2  2.50       -29.3106  10.0000                                         
     4  0  0.50       -11.7309   2.0000                                         
     4  1  0.50        -3.8952   2.0000                                         
     4  2  1.50        -4.0817   0.0000                                         
     4  3  2.50        -4.0817   0.0000                                         
   Description                                                                  
     l       E           TYP  RCUT    TYP  RCUT                                 
     0    -11.7309493     23  2.300                                             
     0     -7.4578696     23  2.300                                             
     1     -3.8952261     23  2.300                                             
     1      6.1178114     23  2.300                                             
     2     -4.0817478     23  2.300                                             
     3     -1.3605826      7  2.300                                             
  local pseudopotential read in
  partial core-charges read in
  partial kinetic energy density read in
  atomic valenz-charges read in
  non local Contribution for L=           0  read in
    real space projection operators read in
  non local Contribution for L=           0  read in
    real space projection operators read in
  non local Contribution for L=           1  read in
    real space projection operators read in
  non local Contribution for L=           1  read in
    real space projection operators read in
  non local Contribution for L=           2  read in
    real space projection operators read in
    PAW grid and wavefunctions read in

   number of l-projection  operators is LMAX  =           5
   number of lm-projection operators is LMMAX =          13


 ----------------------------------------------------------------------------- 
|                                                                             |
|  ADVICE TO THIS USER RUNNING 'VASP/VAMP'   (HEAR YOUR MASTER'S VOICE ...):  |
|                                                                             |
|      You have a (more or less) 'large supercell' and for larger cells       |
|      it might be more efficient to use real space projection opertators     |
|      So try LREAL= Auto  in the INCAR   file.                               |
|      Mind: At the moment your POTCAR file does not contain real space       |
|       projectors, and has to be modified,  BUT if you                       |
|      want to do an extremely  accurate calculation you might also keep the  |
|      reciprocal projection scheme          (i.e. LREAL=.FALSE.)             |
|                                                                             |
 ----------------------------------------------------------------------------- 

  PAW_PBE Si 05Jan2001                  :
 energy of atom  1       EATOM= -103.0669
 kinetic energy error for atom=    0.0013 (will be added to EATOM!!)
  PAW_PBE Ge 05Jan2001                  :
 energy of atom  2       EATOM= -104.9960
 kinetic energy error for atom=    0.0005 (will be added to EATOM!!)


 POSCAR: supercell                               
  positions in direct lattice
  No initial velocities read in
 exchange correlation table for  LEXCH =        8
   RHO(1)=    0.500       N(1)  =     2000
   RHO(2)=  100.500       N(2)  =     4000



--------------------------------------------------------------------------------------------------------


 ion  position               nearest neighbor table
   1  0.003  1.000  0.002-   2 2.33  43 2.38  12 2.39  49 2.45
   2  0.080  0.083  0.089-   3 2.31   1 2.33   6 2.38  17 2.39
   3  0.004  0.997  0.333-  14 2.31   2 2.31   4 2.33  33 2.39
   4  0.084  0.085  0.411-   3 2.33  19 2.34   7 2.36   5 2.45
   5  0.999  0.999  0.670-  35 2.34  43 2.35  16 2.38   4 2.45
   6  1.000  0.334  0.998-  10 2.32  36 2.37   2 2.38  44 2.40
   7  0.003  0.334  0.328-  44 2.33   4 2.36  38 2.40   8 2.44
   8  0.085  0.419  0.420-   9 2.30  25 2.38  13 2.39   7 2.44
   9  0.001  0.332  0.663-   8 2.30  39 2.37  43 2.38  10 2.40
  10  0.075  0.420  0.753-  15 2.32   6 2.32   9 2.40  27 2.42
  11  0.001  0.663  0.002-  44 2.29  12 2.34  52 2.37  16 2.42
  12  0.083  0.748  0.081-  28 2.31  11 2.34   1 2.39  13 2.40
  13  0.999  0.671  0.334-  41 2.34   8 2.39  12 2.40  14 2.41
  14  0.086  0.753  0.420-   3 2.31  15 2.32  46 2.34  13 2.41
  15  0.005  0.664  0.665-  16 2.29  10 2.32  14 2.32  42 2.39
  16  0.082  0.748  0.746-  15 2.29  47 2.37   5 2.38  11 2.42
  17  0.332  0.997  0.997-  29 2.36  22 2.37   2 2.39  18 2.45
  18  0.417  0.086  0.081-  23 2.38  19 2.40  31 2.40  17 2.45
  19  0.330  0.999  0.335-  30 2.32   4 2.34  20 2.39  18 2.40
  20  0.420  0.083  0.414-  25 2.29  32 2.32  21 2.38  19 2.39
  21  0.341  0.996  0.665-  22 2.32  48 2.34  20 2.38  43 2.42
  22  0.414  0.086  0.747-  21 2.32  27 2.33  17 2.37  34 2.39
  23  0.326  0.337  0.002-  44 2.31  18 2.38  45 2.40  24 2.42
  24  0.420  0.419  0.082-  50 2.32  28 2.41  23 2.42  25 2.42
  25  0.336  0.325  0.337-  20 2.29   8 2.38  24 2.42  26 2.45
  26  0.420  0.419  0.418-  46 2.33  37 2.33  27 2.38  25 2.45
  27  0.331  0.332  0.669-  22 2.33  45 2.35  26 2.38  10 2.42
  28  0.327  0.673  1.000-  12 2.31  29 2.39  48 2.40  24 2.41
  29  0.413  0.748  0.090-  46 2.29  17 2.36  28 2.39  40 2.40
  30  0.410  0.754  0.419-  47 2.30  19 2.32  46 2.39  53 2.44
  31  0.671  0.001  0.993-  35 2.32  49 2.39  52 2.40  18 2.40
  32  0.665  0.007  0.330-  49 2.31  20 2.32  33 2.38  41 2.40
  33  0.751  0.081  0.421-  34 2.36  32 2.38   3 2.39  37 2.43
  34  0.666  0.002  0.670-  35 2.36  33 2.36  22 2.39  42 2.42
  35  0.752  0.087  0.748-  51 2.30  31 2.32   5 2.34  34 2.36
  36  0.750  0.421  0.078-  37 2.36  40 2.36  50 2.36   6 2.37
  37  0.667  0.338  0.327-  26 2.33  38 2.34  36 2.36  33 2.43
  38  0.750  0.414  0.416-  37 2.34  51 2.35  53 2.37   7 2.40
  39  0.750  0.413  0.752-  50 2.35   9 2.37  54 2.41  51 2.42
  40  0.667  0.671  0.002-  52 2.31  36 2.36  42 2.38  29 2.40
  41  0.752  0.754  0.411-  13 2.34  32 2.40  53 2.43  54 2.44
  42  0.753  0.747  0.751-  54 2.35  40 2.38  15 2.39  34 2.42
  43  0.086  0.080  0.751-   5 2.35   1 2.38   9 2.38  21 2.42
  44  0.082  0.421  0.082-  11 2.29  23 2.31   7 2.33   6 2.40
  45  0.420  0.411  0.749-  51 2.33  27 2.35  23 2.40  47 2.42
  46  0.333  0.665  0.332-  29 2.29  26 2.33  14 2.34  30 2.39
  47  0.332  0.667  0.663-  30 2.30  16 2.37  45 2.42  48 2.44
  48  0.424  0.749  0.746-  54 2.29  21 2.34  28 2.40  47 2.44
  49  0.744  0.086  0.086-  32 2.31  50 2.36  31 2.39   1 2.45
  50  0.665  0.335  0.000-  24 2.32  39 2.35  49 2.36  36 2.36
  51  0.666  0.330  0.664-  35 2.30  45 2.33  38 2.35  39 2.42
  52  0.750  0.748  0.086-  53 2.31  40 2.31  11 2.37  31 2.40
  53  0.667  0.664  0.330-  52 2.31  38 2.37  41 2.43  30 2.44
  54  0.665  0.668  0.669-  48 2.29  42 2.35  39 2.41  41 2.44

  LATTYP: Found a face centered cubic cell.
 ALAT       =    16.3988509804
  
  Lattice vectors:
  
 A1 = (   0.0000000000,   8.1994254902,   8.1994254902)
 A2 = (   8.1994254902,   0.0000000000,   8.1994254902)
 A3 = (   8.1994254902,   8.1994254902,   0.0000000000)


Analysis of symmetry for initial positions (statically):
=====================================================================
 Subroutine PRICEL returns:
 Original cell was already a primitive cell.
 

 Routine SETGRP: Setting up the symmetry group for a 
 face centered cubic supercell.


 Subroutine GETGRP returns: Found  1 space group operations
 (whereof  1 operations were pure point group operations)
 out of a pool of 48 trial point group operations.


The static configuration has the point symmetry C_1 .


Analysis of symmetry for dynamics (positions and initial velocities):
=====================================================================
 Subroutine PRICEL returns:
 Original cell was already a primitive cell.
 

 Routine SETGRP: Setting up the symmetry group for a 
 face centered cubic supercell.


 Subroutine GETGRP returns: Found  1 space group operations
 (whereof  1 operations were pure point group operations)
 out of a pool of 48 trial point group operations.


The dynamic configuration has the point symmetry C_1 .


 KPOINTS: Automatic kpoint scheme                 

Automatic generation of k-mesh.
Space group operators:
 irot       det(A)        alpha          n_x          n_y          n_z        tau_x        tau_y        tau_z
    1     1.000000     0.000001     1.000000     0.000000     0.000000     0.000000     0.000000     0.000000
 
 Subroutine IBZKPT returns following result:
 ===========================================
 
 Found     14 irreducible k-points:
 
 Following reciprocal coordinates:
            Coordinates               Weight
  0.000000  0.000000  0.000000      1.000000
  0.333333  0.000000  0.000000      2.000000
  0.000000  0.333333  0.000000      2.000000
  0.333333  0.333333  0.000000      2.000000
 -0.333333  0.333333  0.000000      2.000000
  0.000000  0.000000  0.333333      2.000000
  0.333333  0.000000  0.333333      2.000000
 -0.333333  0.000000  0.333333      2.000000
  0.000000  0.333333  0.333333      2.000000
  0.333333  0.333333  0.333333      2.000000
 -0.333333  0.333333  0.333333      2.000000
  0.000000 -0.333333  0.333333      2.000000
  0.333333 -0.333333  0.333333      2.000000
 -0.333333 -0.333333  0.333333      2.000000
 
 Following cartesian coordinates:
            Coordinates               Weight
  0.000000  0.000000  0.000000      1.000000
 -0.020327  0.020327  0.020327      2.000000
  0.020327 -0.020327  0.020327      2.000000
  0.000000  0.000000  0.040653      2.000000
  0.040653 -0.040653  0.000000      2.000000
  0.020327  0.020327 -0.020327      2.000000
  0.000000  0.040653  0.000000      2.000000
  0.040653  0.000000 -0.040653      2.000000
  0.040653  0.000000  0.000000      2.000000
  0.020327  0.020327  0.020327      2.000000
  0.060980 -0.020327 -0.020327      2.000000
  0.000000  0.040653 -0.040653      2.000000
 -0.020327  0.060980 -0.020327      2.000000
  0.020327  0.020327 -0.060980      2.000000
 


--------------------------------------------------------------------------------------------------------




 Dimension of arrays:
   k-points           NKPTS =       14   k-points in BZ     NKDIM =       14   number of bands    NBANDS=    144
   number of dos      NEDOS =    301   number of ions     NIONS =     54
   non local maximal  LDIM  =      5   non local SUM 2l+1 LMDIM =     13
   total plane-waves  NPLWV = 373248
   max r-space proj   IRMAX =      1   max aug-charges    IRDMAX=  18597
   dimension x,y,z NGX =    72 NGY =   72 NGZ =   72
   dimension x,y,z NGXF=   144 NGYF=  144 NGZF=  144
   support grid    NGXF=   144 NGYF=  144 NGZF=  144
   ions per type =              42  12
 NGX,Y,Z   is equivalent  to a cutoff of  10.32, 10.32, 10.32 a.u.
 NGXF,Y,Z  is equivalent  to a cutoff of  20.65, 20.65, 20.65 a.u.


 I would recommend the setting:
   dimension x,y,z NGX =    71 NGY =   71 NGZ =   71
 SYSTEM =  unknown system                          
 POSCAR =  supercell                               

 Startparameter for this run:
   NWRITE =      2    write-flag & timer
   PREC   = accura    normal or accurate (medium, high low for compatibility)
   ISTART =      0    job   : 0-new  1-cont  2-samecut
   ICHARG =      2    charge: 1-file 2-atom 10-const
   ISPIN  =      1    spin polarized calculation?
   LNONCOLLINEAR =      F non collinear calculations
   LSORBIT =      F    spin-orbit coupling
   INIWAV =      1    electr: 0-lowe 1-rand  2-diag
   LASPH  =      F    aspherical Exc in radial PAW
   METAGGA=      F    non-selfconsistent MetaGGA calc.

 Electronic Relaxation 1
   ENCUT  =  350.0 eV  25.72 Ry    5.07 a.u.  17.69 17.69 17.69*2*pi/ulx,y,z
   ENINI  =  350.0     initial cutoff
   ENAUG  =  385.8 eV  augmentation charge cutoff
   NELM   =     60;   NELMIN=  2; NELMDL= -5     # of ELM steps 
   EDIFF  = 0.1E-06   stopping-criterion for ELM
   LREAL  =      F    real-space projection
   NLSPLINE    = F    spline interpolate recip. space projectors
   LCOMPAT=      F    compatible to vasp.4.4
   GGA_COMPAT  = T    GGA compatible to vasp.4.4-vasp.4.6
   LMAXPAW     = -100 max onsite density
   LMAXMIX     =    2 max onsite mixed and CHGCAR
   VOSKOWN=      0    Vosko Wilk Nusair interpolation
   ROPT   =    0.00000   0.00000
 Ionic relaxation
   EDIFFG = 0.1E-05   stopping-criterion for IOM
   NSW    =      0    number of steps for IOM
   NBLOCK =      1;   KBLOCK =      1    inner block; outer block 
   IBRION =     -1    ionic relax: 0-MD 1-quasi-New 2-CG
   NFREE  =      0    steps in history (QN), initial steepest desc. (CG)
   ISIF   =      2    stress and relaxation
   IWAVPR =     10    prediction:  0-non 1-charg 2-wave 3-comb
   ISYM   =      2    0-nonsym 1-usesym 2-fastsym
   LCORR  =      T    Harris-Foulkes like correction to forces

   POTIM  = 0.5000    time-step for ionic-motion
   TEIN   =    0.0    initial temperature
   TEBEG  =    0.0;   TEEND  =   0.0 temperature during run
   SMASS  =  -3.00    Nose mass-parameter (am)
   estimated Nose-frequenzy (Omega)   =  0.10E-29 period in steps =****** mass=  -0.307E-26a.u.
   SCALEE = 1.0000    scale energy and forces
   NPACO  =    256;   APACO  = 16.0  distance and # of slots for P.C.
   PSTRESS=    0.0 pullay stress

  Mass of Ions in am
   POMASS =  28.09 72.61
  Ionic Valenz
   ZVAL   =   4.00  4.00
  Atomic Wigner-Seitz radii
   RWIGS  =  -1.00 -1.00
  virtual crystal weights 
   VCA    =   1.00  1.00
   NELECT =     216.0000    total number of electrons
   NUPDOWN=      -1.0000    fix difference up-down

 DOS related values:
   EMIN   =  10.00;   EMAX   =-10.00  energy-range for DOS
   EFERMI =   0.00
   ISMEAR =     0;   SIGMA  =   0.05  broadening in eV -4-tet -1-fermi 0-gaus

 Electronic relaxation 2 (details)
   IALGO  =     38    algorithm
   LDIAG  =      T    sub-space diagonalisation (order eigenvalues)
   LSUBROT=      F    optimize rotation matrix (better conditioning)
   TURBO    =      0    0=normal 1=particle mesh
   IRESTART =      0    0=no restart 2=restart with 2 vectors
   NREBOOT  =      0    no. of reboots
   NMIN     =      0    reboot dimension
   EREF     =   0.00    reference energy to select bands
   IMIX   =      4    mixing-type and parameters
     AMIX     =   0.40;   BMIX     =  1.00
     AMIX_MAG =   1.60;   BMIX_MAG =  1.00
     AMIN     =   0.10
     WC   =   100.;   INIMIX=   1;  MIXPRE=   1;  MAXMIX= -45

 Intra band minimization:
   WEIMIN = 0.0000     energy-eigenvalue tresh-hold
   EBREAK =  0.17E-09  absolut break condition
   DEPER  =   0.30     relativ break condition  

   TIME   =   0.40     timestep for ELM

  volume/ion in A,a.u.               =      20.42       137.78
  Fermi-wavevector in a.u.,A,eV,Ry     =   0.950822  1.796793 12.300523  0.904063
  Thomas-Fermi vector in A             =   2.079235

 Write flags
   LWAVE  =      T    write WAVECAR
   LCHARG =      T    write CHGCAR
   LVTOT  =      F    write LOCPOT, total local potential
   LVHAR  =      F    write LOCPOT, Hartree potential only
   LELF   =      F    write electronic localiz. function (ELF)
   LORBIT =      0    0 simple, 1 ext, 2 COOP (PROOUT)


 Dipole corrections
   LMONO  =      F    monopole corrections only (constant potential shift)
   LDIPOL =      F    correct potential (dipole corrections)
   IDIPOL =      0    1-x, 2-y, 3-z, 4-all directions 
   EPSILON=  1.0000000 bulk dielectric constant

 Exchange correlation treatment:
   GGA     =    --    GGA type
   LEXCH   =     8    internal setting for exchange type
   VOSKOWN=      0    Vosko Wilk Nusair interpolation
   LHFCALC =     F    Hartree Fock is set to
   LHFONE  =     F    Hartree Fock one center treatment
   AEXX    =    0.0000 exact exchange contribution

 Linear response parameters
   LEPSILON=     F    determine dielectric tensor
   LRPA    =     F    only Hartree local field effects (RPA)
   LNABLA  =     F    use nabla operator in PAW spheres
   LVEL    =     F    velocity operator in full k-point grid
   LINTERFAST=   F  fast interpolation
   KINTER  =     0    interpolate to denser k-point grid
   CSHIFT  =0.1000    complex shift for real part using Kramers Kronig
   OMEGAMAX=  -1.0    maximum frequency
   DEG_THRESHOLD= 0.2000000E-02 threshold for treating states as degnerate
   RTIME   =    0.100 relaxation time in fs

 Orbital magnetization related:
   ORBITALMAG=     F  switch on orbital magnetization
   LCHIMAG   =     F  perturbation theory with respect to B field
   DQ        =  0.001000  dq finite difference perturbation B field



--------------------------------------------------------------------------------------------------------


 Static calculation
 charge density and potential will be updated during run
 non-spin polarized calculation
 Variant of blocked Davidson
 Davidson routine will perform the subspace rotation
 perform sub-space diagonalisation
    after iterative eigenvector-optimisation
 modified Broyden-mixing scheme, WC =      100.0
 initial mixing is a Kerker type mixing with AMIX =  0.4000 and BMIX =      1.0000
 Hartree-type preconditioning will be used
 using additional bands           36
 reciprocal scheme for non local part
 use partial core corrections
 calculate Harris-corrections to forces   (improved forces if not selfconsistent)
 use gradient corrections 
 use of overlap-Matrix (Vanderbilt PP)
 Gauss-broadening in eV      SIGMA  =   0.05


--------------------------------------------------------------------------------------------------------


  energy-cutoff  :      350.00
  volume of cell :     1102.50
      direct lattice vectors                 reciprocal lattice vectors
     0.000000000  8.199425490  8.199425490    -0.060979882  0.060979882  0.060979882
     8.199425490  0.000000000  8.199425490     0.060979882 -0.060979882  0.060979882
     8.199425490  8.199425490  0.000000000     0.060979882  0.060979882 -0.060979882

  length of vectors
    11.595738732 11.595738732 11.595738732     0.105620254  0.105620254  0.105620254



 k-points in units of 2pi/SCALE and weight: Automatic kpoint scheme                 
   0.00000000  0.00000000  0.00000000       0.037
  -0.02032663  0.02032663  0.02032663       0.074
   0.02032663 -0.02032663  0.02032663       0.074
   0.00000000  0.00000000  0.04065325       0.074
   0.04065325 -0.04065325  0.00000000       0.074
   0.02032663  0.02032663 -0.02032663       0.074
   0.00000000  0.04065325  0.00000000       0.074
   0.04065325  0.00000000 -0.04065325       0.074
   0.04065325  0.00000000  0.00000000       0.074
   0.02032663  0.02032663  0.02032663       0.074
   0.06097988 -0.02032663 -0.02032663       0.074
   0.00000000  0.04065325 -0.04065325       0.074
  -0.02032663  0.06097988 -0.02032663       0.074
   0.02032663  0.02032663 -0.06097988       0.074

 k-points in reciprocal lattice and weights: Automatic kpoint scheme                 
   0.00000000  0.00000000  0.00000000       0.037
   0.33333333  0.00000000  0.00000000       0.074
   0.00000000  0.33333333  0.00000000       0.074
   0.33333333  0.33333333  0.00000000       0.074
  -0.33333333  0.33333333  0.00000000       0.074
   0.00000000  0.00000000  0.33333333       0.074
   0.33333333  0.00000000  0.33333333       0.074
  -0.33333333  0.00000000  0.33333333       0.074
   0.00000000  0.33333333  0.33333333       0.074
   0.33333333  0.33333333  0.33333333       0.074
  -0.33333333  0.33333333  0.33333333       0.074
   0.00000000 -0.33333333  0.33333333       0.074
   0.33333333 -0.33333333  0.33333333       0.074
  -0.33333333 -0.33333333  0.33333333       0.074

 position of ions in fractional coordinates (direct lattice) 
   0.00264779  0.99983906  0.00240792
   0.07966302  0.08252539  0.08882433
   0.00379771  0.99672765  0.33302493
   0.08364702  0.08528906  0.41095281
   0.99923758  0.99889923  0.66957727
   0.99962403  0.33363009  0.99812372
   0.00339797  0.33425972  0.32782861
   0.08505182  0.41854733  0.41977290
   0.00060488  0.33168399  0.66279235
   0.07522572  0.42005596  0.75298344
   0.00076457  0.66251055  0.00195423
   0.08266492  0.74774519  0.08142628
   0.99874833  0.67136437  0.33438394
   0.08644748  0.75314884  0.41977116
   0.00497041  0.66441688  0.66496524
   0.08247851  0.74754932  0.74642403
   0.33195639  0.99692202  0.99697927
   0.41678585  0.08602953  0.08145159
   0.33046161  0.99887975  0.33522579
   0.41958961  0.08315107  0.41382172
   0.34126784  0.99597877  0.66475783
   0.41390368  0.08572255  0.74715595
   0.32616389  0.33680819  0.00226041
   0.41974383  0.41905960  0.08155786
   0.33607677  0.32514885  0.33686878
   0.42032340  0.41904886  0.41758057
   0.33066442  0.33206486  0.66909219
   0.32696244  0.67307378  0.99996457
   0.41325539  0.74843900  0.09009942
   0.40985643  0.75368458  0.41942045
   0.67074114  0.00076430  0.99287417
   0.66499790  0.00745702  0.33036035
   0.75144483  0.08120138  0.42146866
   0.66602890  0.00226878  0.67021412
   0.75219570  0.08699117  0.74803545
   0.74975557  0.42147883  0.07824432
   0.66651863  0.33815662  0.32734003
   0.74999275  0.41377752  0.41578536
   0.75031619  0.41280800  0.75206231
   0.66676084  0.67070735  0.00201493
   0.75209742  0.75408433  0.41142185
   0.75296094  0.74655252  0.75076969
   0.08582060  0.07989449  0.75061396
   0.08221724  0.42096984  0.08213624
   0.41983560  0.41106462  0.74942703
   0.33346615  0.66504554  0.33181241
   0.33227382  0.66693269  0.66272960
   0.42376777  0.74925617  0.74640993
   0.74412077  0.08590404  0.08600127
   0.66500297  0.33467988  0.00013451
   0.66561209  0.32993683  0.66403724
   0.75020594  0.74781776  0.08590991
   0.66706614  0.66427142  0.32986590
   0.66543907  0.66780265  0.66876224

 position of ions in cartesian coordinates  (Angst):
   8.21784947  0.04145398  8.21981628
   1.40496925  1.38149950  1.32985177
  10.90320722  2.76175214  8.20373311
   4.06889829  4.05543452  1.38517883
  13.68054869 13.68332303 16.38357388
  10.91961615 16.38038386 10.93191786
   5.42874392  2.71586773  2.76859907
   6.87374420  4.13927265  4.12922367
   8.15413460  5.43947610  2.72457780
   9.61824913  6.79083923  4.06102521
   5.44822946  0.02229256  5.43847490
   6.79872970  1.34545361  6.80888583
   8.24655836 10.93091876 13.69396468
   9.61727015  4.15070203  6.88420754
  10.90016969  5.49308748  5.48859123
  12.24972320  6.79652466  6.80575140
  16.34884507 10.89650893 10.89603955
   1.37324900  4.08526079  4.12279724
  10.93889897  5.45825423 10.89983546
   4.07489139  6.83349412  4.12218478
  13.61708601  8.24883254 10.96465394
   6.82912520  9.52002192  4.09664799
   2.78016777  2.69289058  5.43599019
   4.10477560  4.11038589  6.87770629
   5.42816428  5.51776691  5.42167024
   6.85988066  6.87033116  6.88237023
   8.20891261  8.19742986  5.43399936
  13.71795329 10.88003911  8.19972250
   6.87553330  4.12722031  9.52522658
   9.61878726  6.79959400  9.54036784
   8.14726460 13.64068979  5.50595877
   2.76990830  8.16136581  5.51374403
   4.12160556  9.61721674  6.82722054
   5.51397337 10.95642504  5.47965697
   6.84673856 12.30103354  6.88085018
   4.09744274  6.78912340  9.60344919
   5.45669016  8.14907001  8.23775987
   6.80193900  9.55871073  9.54224758
   9.55126731 12.31864051  9.53695012
   5.51593624  5.48357711 10.96647079
   9.55648110  9.54018955 12.34982503
  12.27718186 12.32972724 12.29514890
   6.80969215  6.85828286  1.35876855
   4.12518078  1.34760412  4.12584496
   9.51536484  9.58728182  6.81290448
   8.17366247  5.45490194  8.18722221
  10.90246685  8.15845636  8.19291930
  12.26360276  9.59478490  9.61812243
   1.40952477  6.80652383  6.80572662
   2.74528567  5.45374518  8.19682502
   8.15001636 10.90236067  8.16292924
   6.83608786  6.85566954 12.28293366
   8.15135490  8.17427000 10.91620312
  10.95906423 10.93968428 10.93181615



--------------------------------------------------------------------------------------------------------


 k-point  1 :   0.0000 0.0000 0.0000  plane waves:   16361
 k-point  2 :   0.3333 0.0000 0.0000  plane waves:   16382
 k-point  3 :   0.0000 0.3333 0.0000  plane waves:   16382
 k-point  4 :   0.3333 0.3333 0.0000  plane waves:   16349
 k-point  5 :  -0.3333 0.3333 0.0000  plane waves:   16406
 k-point  6 :   0.0000 0.0000 0.3333  plane waves:   16382
 k-point  7 :   0.3333 0.0000 0.3333  plane waves:   16349
 k-point  8 :  -0.3333 0.0000 0.3333  plane waves:   16406
 k-point  9 :   0.0000 0.3333 0.3333  plane waves:   16349
 k-point 10 :   0.3333 0.3333 0.3333  plane waves:   16382
 k-point 11 :  -0.3333 0.3333 0.3333  plane waves:   16406
 k-point 12 :   0.0000-0.3333 0.3333  plane waves:   16406
 k-point 13 :   0.3333-0.3333 0.3333  plane waves:   16406
 k-point 14 :  -0.3333-0.3333 0.3333  plane waves:   16406

 maximum and minimum number of plane-waves per node :     16406    16349

 maximum number of plane-waves:     16406
 maximum index in each direction: 
   IXMAX=   18   IYMAX=   18   IZMAX=   17
   IXMIN=  -18   IYMIN=  -18   IZMIN=  -18

 WARNING: aliasing errors must be expected set NGX to  74 to avoid them
 WARNING: aliasing errors must be expected set NGY to  74 to avoid them
 NGZ is ok and might be reduce to  72
 aliasing errors are usually negligible using standard VASP settings
 and one can safely disregard these warnings

 serial   3D FFT for wavefunctions
 parallel 3D FFT for charge:
    minimum data exchange during FFTs selected (reduces bandwidth)


 total amount of memory used by VASP on root node   171928. kBytes
========================================================================

   base      :      30000. kBytes
   nonl-proj :      61986. kBytes
   fftplans  :      15551. kBytes
   grid      :      29859. kBytes
   one-center:        438. kBytes
   wavefun   :      34094. kBytes

     INWAV:  cpu time    0.0000: real time    0.0001
 Broyden mixing: mesh for mixing (old mesh)
   NGX = 35   NGY = 35   NGZ = 35
  (NGX  =144   NGY  =144   NGZ  =144)
  gives a total of  42875 points

 initial charge density was supplied:
 charge density of overlapping atoms calculated
 number of electron     216.0000000 magnetization 
 keeping initial charge density in first step


--------------------------------------------------------------------------------------------------------


 Maximum index for augmentation-charges         1157 (set IRDMAX)


--------------------------------------------------------------------------------------------------------


 First call to EWALD:  gamma=   0.172
 Maximum number of real-space cells 3x 3x 3
 Maximum number of reciprocal cells 3x 3x 3

 FEWALD executed in parallel
    FEWALD:  cpu time    0.0080: real time    0.0068


----------------------------------------- Iteration    1(   1)  ---------------------------------------


    POTLOK:  cpu time    0.5760: real time    0.5782
    SETDIJ:  cpu time    0.0280: real time    0.0270
     EDDAV:  cpu time   63.4640: real time   63.5550
       DOS:  cpu time    0.0000: real time    0.0013
    --------------------------------------------
      LOOP:  cpu time   64.0680: real time   64.1624

 eigenvalue-minimisations  :  4032
 total energy-change (2. order) : 0.4706980E+03  (-0.6489438E+04)
 number of electron     216.0000000 magnetization 
 augmentation part      216.0000000 magnetization 

 Free energy of the ion-electron system (eV)
  ---------------------------------------------------
  alpha Z        PSCENC =       181.58816527
  Ewald energy   TEWEN  =     -6126.70291742
  -Hartree energ DENC   =      -305.63988853
  -exchange      EXHF   =         0.00000000
  -V(xc)+E(xc)   XCENC  =      -480.40995905
  PAW double counting   =      4758.94192621    -3846.17324774
  entropy T*S    EENTRO =        -0.01763542
  eigenvalues    EBANDS =       700.40949135
  atomic energy  EATOM  =      5588.70203715
  Solvation  Ediel_sol  =         0.00000000
  ---------------------------------------------------
  free energy    TOTEN  =       470.69797182 eV

  energy without entropy =      470.71560724  energy(sigma->0) =      470.70678953


--------------------------------------------------------------------------------------------------------




----------------------------------------- Iteration    1(   2)  ---------------------------------------


     EDDAV:  cpu time   74.8920: real time   74.8686
       DOS:  cpu time    0.0000: real time    0.0009
    --------------------------------------------
      LOOP:  cpu time   74.8920: real time   74.8702

 eigenvalue-minimisations  :  4944
 total energy-change (2. order) :-0.7085258E+03  (-0.6755605E+03)
 number of electron     216.0000000 magnetization 
 augmentation part      216.0000000 magnetization 

 Free energy of the ion-electron system (eV)
  ---------------------------------------------------
  alpha Z        PSCENC =       181.58816527
  Ewald energy   TEWEN  =     -6126.70291742
  -Hartree energ DENC   =      -305.63988853
  -exchange      EXHF   =         0.00000000
  -V(xc)+E(xc)   XCENC  =      -480.40995905
  PAW double counting   =      4758.94192621    -3846.17324774
  entropy T*S    EENTRO =        -0.00000000
  eigenvalues    EBANDS =        -8.13394078
  atomic energy  EATOM  =      5588.70203715
  Solvation  Ediel_sol  =         0.00000000
  ---------------------------------------------------
  free energy    TOTEN  =      -237.82782489 eV

  energy without entropy =     -237.82782489  energy(sigma->0) =     -237.82782489


--------------------------------------------------------------------------------------------------------




----------------------------------------- Iteration    1(   3)  ---------------------------------------


     EDDAV:  cpu time   75.6760: real time   75.6531
       DOS:  cpu time    0.0040: real time    0.0010
    --------------------------------------------
      LOOP:  cpu time   75.6800: real time   75.6547

 eigenvalue-minimisations  :  5024
 total energy-change (2. order) :-0.4442174E+02  (-0.4382224E+02)
 number of electron     216.0000000 magnetization 
 augmentation part      216.0000000 magnetization 

 Free energy of the ion-electron system (eV)
  ---------------------------------------------------
  alpha Z        PSCENC =       181.58816527
  Ewald energy   TEWEN  =     -6126.70291742
  -Hartree energ DENC   =      -305.63988853
  -exchange      EXHF   =         0.00000000
  -V(xc)+E(xc)   XCENC  =      -480.40995905
  PAW double counting   =      4758.94192621    -3846.17324774
  entropy T*S    EENTRO =        -0.00000000
  eigenvalues    EBANDS =       -52.55567611
  atomic energy  EATOM  =      5588.70203715
  Solvation  Ediel_sol  =         0.00000000
  ---------------------------------------------------
  free energy    TOTEN  =      -282.24956022 eV

  energy without entropy =     -282.24956022  energy(sigma->0) =     -282.24956022


--------------------------------------------------------------------------------------------------------




----------------------------------------- Iteration    1(   4)  ---------------------------------------


     EDDAV:  cpu time   76.5920: real time   76.5677
       DOS:  cpu time    0.0000: real time    0.0009
    --------------------------------------------
      LOOP:  cpu time   76.5920: real time   76.5693

 eigenvalue-minimisations  :  5104
 total energy-change (2. order) :-0.9601365E+00  (-0.9552100E+00)
 number of electron     216.0000000 magnetization 
 augmentation part      216.0000000 magnetization 

 Free energy of the ion-electron system (eV)
  ---------------------------------------------------
  alpha Z        PSCENC =       181.58816527
  Ewald energy   TEWEN  =     -6126.70291742
  -Hartree energ DENC   =      -305.63988853
  -exchange      EXHF   =         0.00000000
  -V(xc)+E(xc)   XCENC  =      -480.40995905
  PAW double counting   =      4758.94192621    -3846.17324774
  entropy T*S    EENTRO =        -0.00000000
  eigenvalues    EBANDS =       -53.51581257
  atomic energy  EATOM  =      5588.70203715
  Solvation  Ediel_sol  =         0.00000000
  ---------------------------------------------------
  free energy    TOTEN  =      -283.20969668 eV

  energy without entropy =     -283.20969668  energy(sigma->0) =     -283.20969668


--------------------------------------------------------------------------------------------------------




----------------------------------------- Iteration    1(   5)  ---------------------------------------


     EDDAV:  cpu time   75.6120: real time   75.5879
       DOS:  cpu time    0.0000: real time    0.0009
    CHARGE:  cpu time    2.0560: real time    2.0552
    MIXING:  cpu time    0.0160: real time    0.0163
    --------------------------------------------
      LOOP:  cpu time   77.6840: real time   77.6609

 eigenvalue-minimisations  :  4976
 total energy-change (2. order) :-0.1990511E-01  (-0.1988637E-01)
 number of electron     216.0000002 magnetization 
 augmentation part      -17.6903020 magnetization 

 Broyden mixing:
  rms(total) = 0.23495E+01    rms(broyden)= 0.23495E+01
  rms(prec ) = 0.27086E+01
  weight for this iteration     100.00

 Free energy of the ion-electron system (eV)
  ---------------------------------------------------
  alpha Z        PSCENC =       181.58816527
  Ewald energy   TEWEN  =     -6126.70291742
  -Hartree energ DENC   =      -305.63988853
  -exchange      EXHF   =         0.00000000
  -V(xc)+E(xc)   XCENC  =      -480.40995905
  PAW double counting   =      4758.94192621    -3846.17324774
  entropy T*S    EENTRO =        -0.00000000
  eigenvalues    EBANDS =       -53.53571768
  atomic energy  EATOM  =      5588.70203715
  Solvation  Ediel_sol  =         0.00000000
  ---------------------------------------------------
  free energy    TOTEN  =      -283.22960179 eV

  energy without entropy =     -283.22960179  energy(sigma->0) =     -283.22960179


--------------------------------------------------------------------------------------------------------




----------------------------------------- Iteration    1(   6)  ---------------------------------------


    POTLOK:  cpu time    0.6120: real time    0.6118
    SETDIJ:  cpu time    0.0280: real time    0.0258
     EDDAV:  cpu time   71.9600: real time   71.9398
       DOS:  cpu time    0.0000: real time    0.0009
    CHARGE:  cpu time    1.9520: real time    1.9491
    MIXING:  cpu time    0.0160: real time    0.0175
    --------------------------------------------
      LOOP:  cpu time   74.5680: real time   74.5456

 eigenvalue-minimisations  :  4688
 total energy-change (2. order) : 0.3110861E+01  (-0.1776682E+00)
 number of electron     216.0000002 magnetization 
 augmentation part      -17.5208800 magnetization 

 Broyden mixing:
  rms(total) = 0.14348E+01    rms(broyden)= 0.14348E+01
  rms(prec ) = 0.16411E+01
  weight for this iteration     100.00

 eigenvalues of (default mixing * dielectric matrix)
  average eigenvalue GAMMA=   2.5542
  2.5542

 Free energy of the ion-electron system (eV)
  ---------------------------------------------------
  alpha Z        PSCENC =       181.58816527
  Ewald energy   TEWEN  =     -6126.70291742
  -Hartree energ DENC   =      -343.63358708
  -exchange      EXHF   =         0.00000000
  -V(xc)+E(xc)   XCENC  =      -474.18363888
  PAW double counting   =      9586.40556048    -8676.96545038
  entropy T*S    EENTRO =        -0.00000000
  eigenvalues    EBANDS =       -15.32891024
  atomic energy  EATOM  =      5588.70203715
  Solvation  Ediel_sol  =         0.00000000
  ---------------------------------------------------
  free energy    TOTEN  =      -280.11874109 eV

  energy without entropy =     -280.11874109  energy(sigma->0) =     -280.11874109


--------------------------------------------------------------------------------------------------------




----------------------------------------- Iteration    1(   7)  ---------------------------------------


    POTLOK:  cpu time    0.6080: real time    0.6062
    SETDIJ:  cpu time    0.0280: real time    0.0262
     EDDAV:  cpu time   71.3280: real time   71.3085
       DOS:  cpu time    0.0040: real time    0.0011
    CHARGE:  cpu time    1.9800: real time    1.9793
    MIXING:  cpu time    0.0160: real time    0.0177
    --------------------------------------------
      LOOP:  cpu time   73.9640: real time   73.9398

 eigenvalue-minimisations  :  4640
 total energy-change (2. order) : 0.1367237E+01  (-0.3739775E+00)
 number of electron     216.0000002 magnetization 
 augmentation part      -17.2957831 magnetization 

 Broyden mixing:
  rms(total) = 0.95423E-01    rms(broyden)= 0.95422E-01
  rms(prec ) = 0.12907E+00
  weight for this iteration     100.00

 eigenvalues of (default mixing * dielectric matrix)
  average eigenvalue GAMMA=   2.0472
  1.6501  2.4442

 Free energy of the ion-electron system (eV)
  ---------------------------------------------------
  alpha Z        PSCENC =       181.58816527
  Ewald energy   TEWEN  =     -6126.70291742
  -Hartree energ DENC   =      -407.50505255
  -exchange      EXHF   =         0.00000000
  -V(xc)+E(xc)   XCENC  =      -463.44143794
  PAW double counting   =     21132.19345694   -20227.28468120
  entropy T*S    EENTRO =        -0.00000000
  eigenvalues    EBANDS =        43.69892532
  atomic energy  EATOM  =      5588.70203715
  Solvation  Ediel_sol  =         0.00000000
  ---------------------------------------------------
  free energy    TOTEN  =      -278.75150443 eV

  energy without entropy =     -278.75150443  energy(sigma->0) =     -278.75150443


--------------------------------------------------------------------------------------------------------




----------------------------------------- Iteration    1(   8)  ---------------------------------------


    POTLOK:  cpu time    0.5960: real time    0.5954
    SETDIJ:  cpu time    0.0240: real time    0.0222
     EDDAV:  cpu time   72.4120: real time   72.3894
       DOS:  cpu time    0.0000: real time    0.0018
    CHARGE:  cpu time    2.0120: real time    2.0115
    MIXING:  cpu time    0.0200: real time    0.0188
    --------------------------------------------
      LOOP:  cpu time   75.0640: real time   75.0404

 eigenvalue-minimisations  :  4736
 total energy-change (2. order) :-0.1832664E-01  (-0.2517558E-01)
 number of electron     216.0000002 magnetization 
 augmentation part      -17.3306798 magnetization 

 Broyden mixing:
  rms(total) = 0.53072E-01    rms(broyden)= 0.53071E-01
  rms(prec ) = 0.59250E-01
  weight for this iteration     100.00

 eigenvalues of (default mixing * dielectric matrix)
  average eigenvalue GAMMA=   2.0561
  2.6421  1.7632  1.7632

 Free energy of the ion-electron system (eV)
  ---------------------------------------------------
  alpha Z        PSCENC =       181.58816527
  Ewald energy   TEWEN  =     -6126.70291742
  -Hartree energ DENC   =      -404.10887508
  -exchange      EXHF   =         0.00000000
  -V(xc)+E(xc)   XCENC  =      -463.63598795
  PAW double counting   =     20986.12216889   -20080.50171736
  entropy T*S    EENTRO =        -0.00000000
  eigenvalues    EBANDS =        39.76729543
  atomic energy  EATOM  =      5588.70203715
  Solvation  Ediel_sol  =         0.00000000
  ---------------------------------------------------
  free energy    TOTEN  =      -278.76983106 eV

  energy without entropy =     -278.76983106  energy(sigma->0) =     -278.76983106


--------------------------------------------------------------------------------------------------------




----------------------------------------- Iteration    1(   9)  ---------------------------------------


    POTLOK:  cpu time    0.6120: real time    0.6108
    SETDIJ:  cpu time    0.0240: real time    0.0247
     EDDAV:  cpu time   76.1600: real time   76.1350
       DOS:  cpu time    0.0000: real time    0.0009
    CHARGE:  cpu time    2.0080: real time    2.0062
    MIXING:  cpu time    0.0160: real time    0.0187
    --------------------------------------------
      LOOP:  cpu time   78.8200: real time   78.7973

 eigenvalue-minimisations  :  5008
 total energy-change (2. order) :-0.7556892E-02  (-0.2150810E-02)
 number of electron     216.0000002 magnetization 
 augmentation part      -17.3273000 magnetization 

 Broyden mixing:
  rms(total) = 0.31716E-01    rms(broyden)= 0.31716E-01
  rms(prec ) = 0.34754E-01
  weight for this iteration     100.00

 eigenvalues of (default mixing * dielectric matrix)
  average eigenvalue GAMMA=   1.7883
  2.4272  1.9774  1.9774  0.7713

 Free energy of the ion-electron system (eV)
  ---------------------------------------------------
  alpha Z        PSCENC =       181.58816527
  Ewald energy   TEWEN  =     -6126.70291742
  -Hartree energ DENC   =      -405.66101728
  -exchange      EXHF   =         0.00000000
  -V(xc)+E(xc)   XCENC  =      -463.36307714
  PAW double counting   =     21213.84812868   -20308.24884548
  entropy T*S    EENTRO =        -0.00000000
  eigenvalues    EBANDS =        41.06013826
  atomic energy  EATOM  =      5588.70203715
  Solvation  Ediel_sol  =         0.00000000
  ---------------------------------------------------
  free energy    TOTEN  =      -278.77738796 eV

  energy without entropy =     -278.77738796  energy(sigma->0) =     -278.77738796


--------------------------------------------------------------------------------------------------------




----------------------------------------- Iteration    1(  10)  ---------------------------------------


    POTLOK:  cpu time    0.5480: real time    0.5504
    SETDIJ:  cpu time    0.0280: real time    0.0265
     EDDAV:  cpu time   69.8360: real time   70.0019
       DOS:  cpu time    0.0000: real time    0.0015
    CHARGE:  cpu time    1.9880: real time    1.9863
    MIXING:  cpu time    0.0200: real time    0.0191
    --------------------------------------------
      LOOP:  cpu time   72.4240: real time   72.5864

 eigenvalue-minimisations  :  4576
 total energy-change (2. order) :-0.1253888E-02  (-0.2391427E-03)
 number of electron     216.0000002 magnetization 
 augmentation part      -17.3317700 magnetization 

 Broyden mixing:
  rms(total) = 0.17060E-01    rms(broyden)= 0.17060E-01
  rms(prec ) = 0.18459E-01
  weight for this iteration     100.00

 eigenvalues of (default mixing * dielectric matrix)
  average eigenvalue GAMMA=   1.9017
  2.7849  2.2242  2.2242  1.1376  1.1376

 Free energy of the ion-electron system (eV)
  ---------------------------------------------------
  alpha Z        PSCENC =       181.58816527
  Ewald energy   TEWEN  =     -6126.70291742
  -Hartree energ DENC   =      -405.07598430
  -exchange      EXHF   =         0.00000000
  -V(xc)+E(xc)   XCENC  =      -463.43442076
  PAW double counting   =     21025.20484962   -20119.50459763
  entropy T*S    EENTRO =        -0.00000000
  eigenvalues    EBANDS =        40.44422622
  atomic energy  EATOM  =      5588.70203715
  Solvation  Ediel_sol  =         0.00000000
  ---------------------------------------------------
  free energy    TOTEN  =      -278.77864184 eV

  energy without entropy =     -278.77864184  energy(sigma->0) =     -278.77864184


--------------------------------------------------------------------------------------------------------




----------------------------------------- Iteration    1(  11)  ---------------------------------------


    POTLOK:  cpu time    0.5520: real time    0.5533
    SETDIJ:  cpu time    0.0280: real time    0.0256
     EDDAV:  cpu time   69.3760: real time   69.3924
       DOS:  cpu time    0.0000: real time    0.0009
    CHARGE:  cpu time    2.0360: real time    2.0351
    MIXING:  cpu time    0.0200: real time    0.0194
    --------------------------------------------
      LOOP:  cpu time   72.0120: real time   72.0275

 eigenvalue-minimisations  :  4480
 total energy-change (2. order) :-0.9173363E-03  (-0.9246282E-04)
 number of electron     216.0000002 magnetization 
 augmentation part      -17.3320010 magnetization 

 Broyden mixing:
  rms(total) = 0.75473E-02    rms(broyden)= 0.75473E-02
  rms(prec ) = 0.78200E-02
  weight for this iteration     100.00

 eigenvalues of (default mixing * dielectric matrix)
  average eigenvalue GAMMA=   1.8083
  2.7849  1.9702  1.9702  1.9521  0.8789  1.2933

 Free energy of the ion-electron system (eV)
  ---------------------------------------------------
  alpha Z        PSCENC =       181.58816527
  Ewald energy   TEWEN  =     -6126.70291742
  -Hartree energ DENC   =      -405.40228870
  -exchange      EXHF   =         0.00000000
  -V(xc)+E(xc)   XCENC  =      -463.37028532
  PAW double counting   =     20952.46954395   -20046.74439724
  entropy T*S    EENTRO =        -0.00000000
  eigenvalues    EBANDS =        40.68058313
  atomic energy  EATOM  =      5588.70203715
  Solvation  Ediel_sol  =         0.00000000
  ---------------------------------------------------
  free energy    TOTEN  =      -278.77955918 eV

  energy without entropy =     -278.77955918  energy(sigma->0) =     -278.77955918


--------------------------------------------------------------------------------------------------------




----------------------------------------- Iteration    1(  12)  ---------------------------------------


    POTLOK:  cpu time    0.6160: real time    0.6144
    SETDIJ:  cpu time    0.0240: real time    0.0245
     EDDAV:  cpu time   76.0280: real time   76.0038
       DOS:  cpu time    0.0000: real time    0.0012
    CHARGE:  cpu time    2.0240: real time    2.0241
    MIXING:  cpu time    0.0240: real time    0.0208
    --------------------------------------------
      LOOP:  cpu time   78.7160: real time   78.6894

 eigenvalue-minimisations  :  5024
 total energy-change (2. order) :-0.6296632E-04  (-0.1107878E-04)
 number of electron     216.0000002 magnetization 
 augmentation part      -17.3325468 magnetization 

 Broyden mixing:
  rms(total) = 0.28789E-02    rms(broyden)= 0.28789E-02
  rms(prec ) = 0.30391E-02
  weight for this iteration     100.00

 eigenvalues of (default mixing * dielectric matrix)
  average eigenvalue GAMMA=   1.7081
  2.8448  2.0906  2.0906  1.9550  1.2549  0.8604  0.8604

 Free energy of the ion-electron system (eV)
  ---------------------------------------------------
  alpha Z        PSCENC =       181.58816527
  Ewald energy   TEWEN  =     -6126.70291742
  -Hartree energ DENC   =      -405.45275690
  -exchange      EXHF   =         0.00000000
  -V(xc)+E(xc)   XCENC  =      -463.36272290
  PAW double counting   =     20917.48555683   -20011.75480396
  entropy T*S    EENTRO =        -0.00000000
  eigenvalues    EBANDS =        40.71781979
  atomic energy  EATOM  =      5588.70203715
  Solvation  Ediel_sol  =         0.00000000
  ---------------------------------------------------
  free energy    TOTEN  =      -278.77962215 eV

  energy without entropy =     -278.77962215  energy(sigma->0) =     -278.77962215


--------------------------------------------------------------------------------------------------------




----------------------------------------- Iteration    1(  13)  ---------------------------------------


    POTLOK:  cpu time    0.6160: real time    0.6182
    SETDIJ:  cpu time    0.0320: real time    0.0291
     EDDAV:  cpu time   71.9800: real time   71.9589
       DOS:  cpu time    0.0000: real time    0.0012
    CHARGE:  cpu time    2.0560: real time    2.0550
    MIXING:  cpu time    0.0200: real time    0.0188
    --------------------------------------------
      LOOP:  cpu time   74.7040: real time   74.6822

 eigenvalue-minimisations  :  4688
 total energy-change (2. order) :-0.1065152E-04  (-0.1853757E-05)
 number of electron     216.0000002 magnetization 
 augmentation part      -17.3325683 magnetization 

 Broyden mixing:
  rms(total) = 0.97711E-03    rms(broyden)= 0.97711E-03
  rms(prec ) = 0.10697E-02
  weight for this iteration     100.00

 eigenvalues of (default mixing * dielectric matrix)
  average eigenvalue GAMMA=   1.7635
  3.0104  2.5233  1.9579  1.9579  1.3996  1.3996  0.9298  0.9298

 Free energy of the ion-electron system (eV)
  ---------------------------------------------------
  alpha Z        PSCENC =       181.58816527
  Ewald energy   TEWEN  =     -6126.70291742
  -Hartree energ DENC   =      -405.48194143
  -exchange      EXHF   =         0.00000000
  -V(xc)+E(xc)   XCENC  =      -463.36125959
  PAW double counting   =     20896.44685122   -19990.71482453
  entropy T*S    EENTRO =        -0.00000000
  eigenvalues    EBANDS =        40.74425652
  atomic energy  EATOM  =      5588.70203715
  Solvation  Ediel_sol  =         0.00000000
  ---------------------------------------------------
  free energy    TOTEN  =      -278.77963280 eV

  energy without entropy =     -278.77963280  energy(sigma->0) =     -278.77963280


--------------------------------------------------------------------------------------------------------




----------------------------------------- Iteration    1(  14)  ---------------------------------------


    POTLOK:  cpu time    0.6040: real time    0.6026
    SETDIJ:  cpu time    0.0280: real time    0.0281
     EDDAV:  cpu time   76.7400: real time   76.7158
       DOS:  cpu time    0.0000: real time    0.0030
    CHARGE:  cpu time    2.1080: real time    2.1067
    MIXING:  cpu time    0.0240: real time    0.0216
    --------------------------------------------
      LOOP:  cpu time   79.5040: real time   79.4785

 eigenvalue-minimisations  :  5088
 total energy-change (2. order) : 0.1878834E-05  (-0.2496398E-06)
 number of electron     216.0000002 magnetization 
 augmentation part      -17.3326066 magnetization 

 Broyden mixing:
  rms(total) = 0.42447E-03    rms(broyden)= 0.42447E-03
  rms(prec ) = 0.48662E-03
  weight for this iteration     100.00

 eigenvalues of (default mixing * dielectric matrix)
  average eigenvalue GAMMA=   1.7890
  3.0429  2.3795  2.3795  1.9530  1.9530  1.2295  1.2295  0.9670  0.9670

 Free energy of the ion-electron system (eV)
  ---------------------------------------------------
  alpha Z        PSCENC =       181.58816527
  Ewald energy   TEWEN  =     -6126.70291742
  -Hartree energ DENC   =      -405.47640091
  -exchange      EXHF   =         0.00000000
  -V(xc)+E(xc)   XCENC  =      -463.36230881
  PAW double counting   =     20896.02492697   -19990.29098326
  entropy T*S    EENTRO =        -0.00000000
  eigenvalues    EBANDS =        40.73785009
  atomic energy  EATOM  =      5588.70203715
  Solvation  Ediel_sol  =         0.00000000
  ---------------------------------------------------
  free energy    TOTEN  =      -278.77963092 eV

  energy without entropy =     -278.77963092  energy(sigma->0) =     -278.77963092


--------------------------------------------------------------------------------------------------------




----------------------------------------- Iteration    1(  15)  ---------------------------------------


    POTLOK:  cpu time    0.7560: real time    0.7577
    SETDIJ:  cpu time    0.0280: real time    0.0276
     EDDAV:  cpu time   67.2040: real time   67.1829
       DOS:  cpu time    0.0000: real time    0.0008
    CHARGE:  cpu time    1.6880: real time    1.6852
    MIXING:  cpu time    0.0200: real time    0.0186
    --------------------------------------------
      LOOP:  cpu time   69.6960: real time   69.6737

 eigenvalue-minimisations  :  4640
 total energy-change (2. order) :-0.2054980E-05  (-0.1775106E-06)
 number of electron     216.0000002 magnetization 
 augmentation part      -17.3324606 magnetization 

 Broyden mixing:
  rms(total) = 0.15486E-03    rms(broyden)= 0.15486E-03
  rms(prec ) = 0.17135E-03
  weight for this iteration     100.00

 eigenvalues of (default mixing * dielectric matrix)
  average eigenvalue GAMMA=   1.7119
  3.1912  2.5491  2.1109  2.1109  1.5579  1.3045  1.3045  1.1869  0.9017  0.9017

 Free energy of the ion-electron system (eV)
  ---------------------------------------------------
  alpha Z        PSCENC =       181.58816527
  Ewald energy   TEWEN  =     -6126.70291742
  -Hartree energ DENC   =      -405.49441378
  -exchange      EXHF   =         0.00000000
  -V(xc)+E(xc)   XCENC  =      -463.36119622
  PAW double counting   =     20895.22128496   -19989.48858546
  entropy T*S    EENTRO =        -0.00000000
  eigenvalues    EBANDS =        40.75599252
  atomic energy  EATOM  =      5588.70203715
  Solvation  Ediel_sol  =         0.00000000
  ---------------------------------------------------
  free energy    TOTEN  =      -278.77963297 eV

  energy without entropy =     -278.77963297  energy(sigma->0) =     -278.77963297


--------------------------------------------------------------------------------------------------------




----------------------------------------- Iteration    1(  16)  ---------------------------------------


    POTLOK:  cpu time    0.4840: real time    0.4835
    SETDIJ:  cpu time    0.0200: real time    0.0233
     EDDAV:  cpu time   42.6320: real time   42.6169
       DOS:  cpu time    0.0000: real time    0.0008
    CHARGE:  cpu time    1.7040: real time    1.7018
    MIXING:  cpu time    0.0160: real time    0.0167
    --------------------------------------------
      LOOP:  cpu time   44.8560: real time   44.8435

 eigenvalue-minimisations  :  2768
 total energy-change (2. order) : 0.1112658E-06  (-0.1032072E-07)
 number of electron     216.0000002 magnetization 
 augmentation part      -17.3324653 magnetization 

 Broyden mixing:
  rms(total) = 0.13656E-03    rms(broyden)= 0.13656E-03
  rms(prec ) = 0.14346E-03
  weight for this iteration     100.00

 eigenvalues of (default mixing * dielectric matrix)
  average eigenvalue GAMMA=   1.7705
  3.1604  2.4060  2.4060  2.0578  2.0578  1.7071  1.7071  1.0036  1.0036  0.9828
  0.9828

 Free energy of the ion-electron system (eV)
  ---------------------------------------------------
  alpha Z        PSCENC =       181.58816527
  Ewald energy   TEWEN  =     -6126.70291742
  -Hartree energ DENC   =      -405.49448648
  -exchange      EXHF   =         0.00000000
  -V(xc)+E(xc)   XCENC  =      -463.36118801
  PAW double counting   =     20895.04614066   -19989.31330685
  entropy T*S    EENTRO =        -0.00000000
  eigenvalues    EBANDS =        40.75592280
  atomic energy  EATOM  =      5588.70203715
  Solvation  Ediel_sol  =         0.00000000
  ---------------------------------------------------
  free energy    TOTEN  =      -278.77963286 eV

  energy without entropy =     -278.77963286  energy(sigma->0) =     -278.77963286


--------------------------------------------------------------------------------------------------------




----------------------------------------- Iteration    1(  17)  ---------------------------------------


    POTLOK:  cpu time    0.4840: real time    0.4843
    SETDIJ:  cpu time    0.0240: real time    0.0220
     EDDAV:  cpu time   37.7960: real time   37.7856
       DOS:  cpu time    0.0040: real time    0.0007
    CHARGE:  cpu time    1.2440: real time    1.2466
    MIXING:  cpu time    0.0160: real time    0.0150
    --------------------------------------------
      LOOP:  cpu time   39.5680: real time   39.5549

 eigenvalue-minimisations  :  2736
 total energy-change (2. order) :-0.2128581E-06  (-0.6802469E-08)
 number of electron     216.0000002 magnetization 
 augmentation part      -17.3324605 magnetization 

 Broyden mixing:
  rms(total) = 0.32920E-04    rms(broyden)= 0.32919E-04
  rms(prec ) = 0.39750E-04
  weight for this iteration     100.00

 eigenvalues of (default mixing * dielectric matrix)
  average eigenvalue GAMMA=   1.7238
  3.2418  2.4583  2.2782  2.1568  2.1568  1.6536  1.6536  1.0841  1.0841  1.0065
  1.0065  0.9053

 Free energy of the ion-electron system (eV)
  ---------------------------------------------------
  alpha Z        PSCENC =       181.58816527
  Ewald energy   TEWEN  =     -6126.70291742
  -Hartree energ DENC   =      -405.49586605
  -exchange      EXHF   =         0.00000000
  -V(xc)+E(xc)   XCENC  =      -463.36101983
  PAW double counting   =     20895.90506368   -19990.17232805
  entropy T*S    EENTRO =        -0.00000000
  eigenvalues    EBANDS =        40.75723217
  atomic energy  EATOM  =      5588.70203715
  Solvation  Ediel_sol  =         0.00000000
  ---------------------------------------------------
  free energy    TOTEN  =      -278.77963308 eV

  energy without entropy =     -278.77963308  energy(sigma->0) =     -278.77963308


--------------------------------------------------------------------------------------------------------




----------------------------------------- Iteration    1(  18)  ---------------------------------------


    POTLOK:  cpu time    0.3440: real time    0.3450
    SETDIJ:  cpu time    0.0200: real time    0.0190
     EDDAV:  cpu time   29.1080: real time   29.0963
       DOS:  cpu time    0.0000: real time    0.0007
    --------------------------------------------
      LOOP:  cpu time   29.4720: real time   29.4614

 eigenvalue-minimisations  :  2640
 total energy-change (2. order) : 0.8455390E-07  (-0.1604786E-08)
 number of electron     216.0000002 magnetization 
 augmentation part      -17.3324605 magnetization 

 Free energy of the ion-electron system (eV)
  ---------------------------------------------------
  alpha Z        PSCENC =       181.58816527
  Ewald energy   TEWEN  =     -6126.70291742
  -Hartree energ DENC   =      -405.49564267
  -exchange      EXHF   =         0.00000000
  -V(xc)+E(xc)   XCENC  =      -463.36107395
  PAW double counting   =     20895.92702852   -19990.19424611
  entropy T*S    EENTRO =        -0.00000000
  eigenvalues    EBANDS =        40.75701621
  atomic energy  EATOM  =      5588.70203715
  Solvation  Ediel_sol  =         0.00000000
  ---------------------------------------------------
  free energy    TOTEN  =      -278.77963299 eV

  energy without entropy =     -278.77963299  energy(sigma->0) =     -278.77963299


--------------------------------------------------------------------------------------------------------




 average (electrostatic) potential at core
  the test charge radii are     0.9892  1.1631
  (the norm of the test charge is              1.0000)
       1 -83.8676       2 -83.8245       3 -83.8293       4 -83.7972       5 -83.9022
       6 -83.9237       7 -83.8659       8 -83.8048       9 -83.8319      10 -83.8470
      11 -83.9496      12 -83.7991      13 -83.8113      14 -83.8977      15 -83.8403
      16 -83.8836      17 -83.7689      18 -83.7645      19 -83.7642      20 -83.7306
      21 -83.8312      22 -83.7782      23 -83.8600      24 -83.8015      25 -83.7603
      26 -83.8531      27 -83.8265      28 -83.8089      29 -83.8740      30 -83.8996
      31 -83.9078      32 -83.8045      33 -83.8284      34 -83.8018      35 -83.8242
      36 -83.8283      37 -83.7481      38 -83.8765      39 -83.9101      40 -83.8516
      41 -83.8440      42 -83.8667      43 -30.8299      44 -30.8563      45 -30.8990
      46 -30.8426      47 -30.9089      48 -30.9216      49 -30.8222      50 -30.8467
      51 -30.8948      52 -30.9098      53 -30.8596      54 -30.8575



 E-fermi :   5.7314     XC(G=0):  -9.3812     alpha+bet :-11.3932


 k-point     1 :       0.0000    0.0000    0.0000
  band No.  band energies     occupation 
      1      -6.8952      2.00000
      2      -5.8184      2.00000
      3      -5.7948      2.00000
      4      -5.7191      2.00000
      5      -5.6231      2.00000
      6      -5.5428      2.00000
      7      -5.4114      2.00000
      8      -5.2987      2.00000
      9      -5.1963      2.00000
     10      -5.1042      2.00000
     11      -5.0332      2.00000
     12      -4.9211      2.00000
     13      -4.8292      2.00000
     14      -4.7811      2.00000
     15      -4.6687      2.00000
     16      -4.0493      2.00000
     17      -3.7519      2.00000
     18      -3.7147      2.00000
     19      -3.6800      2.00000
     20      -3.6394      2.00000
     21      -3.5701      2.00000
     22      -3.5104      2.00000
     23      -3.4876      2.00000
     24      -3.3883      2.00000
     25      -3.3446      2.00000
     26      -3.2987      2.00000
     27      -3.2705      2.00000
     28      -1.8957      2.00000
     29      -1.8063      2.00000
     30      -1.7713      2.00000
     31      -1.7017      2.00000
     32      -1.6815      2.00000
     33      -1.6097      2.00000
     34      -1.5530      2.00000
     35      -1.5089      2.00000
     36      -1.4674      2.00000
     37      -1.4541      2.00000
     38      -1.4357      2.00000
     39      -1.3822      2.00000
     40      -0.3089      2.00000
     41      -0.2230      2.00000
     42      -0.1811      2.00000
     43      -0.1333      2.00000
     44      -0.0929      2.00000
     45      -0.0537      2.00000
     46      -0.0175      2.00000
     47       0.0371      2.00000
     48       0.0604      2.00000
     49       0.1346      2.00000
     50       0.1976      2.00000
     51       0.2371      2.00000
     52       0.2433      2.00000
     53       0.3144      2.00000
     54       0.8525      2.00000
     55       0.8661      2.00000
     56       0.8904      2.00000
     57       0.9082      2.00000
     58       0.9227      2.00000
     59       0.9405      2.00000
     60       0.9508      2.00000
     61       0.9770      2.00000
     62       0.9954      2.00000
     63       1.0113      2.00000
     64       1.0215      2.00000
     65       1.0322      2.00000
     66       2.8051      2.00000
     67       2.8426      2.00000
     68       2.8636      2.00000
     69       2.8665      2.00000
     70       2.8862      2.00000
     71       2.9114      2.00000
     72       2.9256      2.00000
     73       2.9345      2.00000
     74       2.9537      2.00000
     75       2.9560      2.00000
     76       2.9649      2.00000
     77       2.9889      2.00000
     78       3.1453      2.00000
     79       3.1654      2.00000
     80       3.1826      2.00000
     81       3.2005      2.00000
     82       3.2076      2.00000
     83       3.2154      2.00000
     84       3.2556      2.00000
     85       3.2708      2.00000
     86       3.2735      2.00000
     87       3.3063      2.00000
     88       3.3213      2.00000
     89       3.3455      2.00000
     90       4.1823      2.00000
     91       4.2181      2.00000
     92       4.2472      2.00000
     93       4.2646      2.00000
     94       4.3163      2.00000
     95       4.3291      2.00000
     96       4.3484      2.00000
     97       4.3729      2.00000
     98       4.3882      2.00000
     99       4.4057      2.00000
    100       4.4081      2.00000
    101       4.4334      2.00000
    102       4.4704      2.00000
    103       4.5058      2.00000
    104       4.5127      2.00000
    105       4.5537      2.00000
    106       5.4040      2.00000
    107       5.4187      2.00000
    108       5.5071      2.00000
    109       6.0100      0.00000
    110       6.0579      0.00000
    111       6.0758      0.00000
    112       6.0981      0.00000
    113       6.1356      0.00000
    114       6.1640      0.00000
    115       6.6784      0.00000
    116       6.6899      0.00000
    117       6.7528      0.00000
    118       6.7674      0.00000
    119       6.8207      0.00000
    120       6.8601      0.00000
    121       6.8610      0.00000
    122       6.8873      0.00000
    123       6.9077      0.00000
    124       6.9214      0.00000
    125       6.9571      0.00000
    126       6.9871      0.00000
    127       6.9909      0.00000
    128       7.0197      0.00000
    129       7.0381      0.00000
    130       7.0451      0.00000
    131       7.0768      0.00000
    132       7.0970      0.00000
    133       7.1111      0.00000
    134       7.1305      0.00000
    135       7.3486      0.00000
    136       7.3942      0.00000
    137       7.4228      0.00000
    138       7.4627      0.00000
    139       7.4924      0.00000
    140       7.5307      0.00000
    141       7.9325      0.00000
    142       7.9729      0.00000
    143       7.9962      0.00000
    144       8.1393      0.00000

 k-point     2 :       0.3333    0.0000    0.0000
  band No.  band energies     occupation 
      1      -6.7474      2.00000
      2      -6.2823      2.00000
      3      -5.8823      2.00000
      4      -5.7337      2.00000
      5      -5.6887      2.00000
      6      -5.4802      2.00000
      7      -5.3724      2.00000
      8      -5.3327      2.00000
      9      -5.1962      2.00000
     10      -4.9782      2.00000
     11      -4.9278      2.00000
     12      -4.7818      2.00000
     13      -4.5144      2.00000
     14      -4.3802      2.00000
     15      -4.3268      2.00000
     16      -4.2521      2.00000
     17      -4.1125      2.00000
     18      -4.0621      2.00000
     19      -3.7765      2.00000
     20      -3.6754      2.00000
     21      -3.5843      2.00000
     22      -3.5454      2.00000
     23      -3.4318      2.00000
     24      -3.3923      2.00000
     25      -3.3537      2.00000
     26      -3.2721      2.00000
     27      -3.1971      2.00000
     28      -2.0064      2.00000
     29      -1.8706      2.00000
     30      -1.8128      2.00000
     31      -1.7556      2.00000
     32      -1.7159      2.00000
     33      -1.6788      2.00000
     34      -1.5975      2.00000
     35      -1.5399      2.00000
     36      -1.5065      2.00000
     37      -1.4381      2.00000
     38      -1.0841      2.00000
     39      -1.0073      2.00000
     40      -0.9572      2.00000
     41      -0.9258      2.00000
     42      -0.8434      2.00000
     43      -0.8015      2.00000
     44      -0.6097      2.00000
     45      -0.5635      2.00000
     46      -0.5241      2.00000
     47       0.4596      2.00000
     48       0.5091      2.00000
     49       0.5670      2.00000
     50       0.8072      2.00000
     51       0.8240      2.00000
     52       0.8910      2.00000
     53       1.1376      2.00000
     54       1.1586      2.00000
     55       1.1781      2.00000
     56       1.2091      2.00000
     57       1.2512      2.00000
     58       1.2598      2.00000
     59       1.3057      2.00000
     60       1.3209      2.00000
     61       1.3536      2.00000
     62       1.5482      2.00000
     63       1.5991      2.00000
     64       1.6319      2.00000
     65       1.8444      2.00000
     66       2.1641      2.00000
     67       2.1877      2.00000
     68       2.2372      2.00000
     69       2.6835      2.00000
     70       2.7084      2.00000
     71       2.7141      2.00000
     72       2.7279      2.00000
     73       2.7425      2.00000
     74       2.7574      2.00000
     75       2.7782      2.00000
     76       2.7866      2.00000
     77       2.8206      2.00000
     78       2.8575      2.00000
     79       2.8854      2.00000
     80       2.9073      2.00000
     81       2.9943      2.00000
     82       3.0326      2.00000
     83       3.0410      2.00000
     84       3.0548      2.00000
     85       3.1195      2.00000
     86       3.1432      2.00000
     87       3.2940      2.00000
     88       3.3364      2.00000
     89       3.3706      2.00000
     90       3.7246      2.00000
     91       3.7422      2.00000
     92       3.7740      2.00000
     93       3.7905      2.00000
     94       3.8053      2.00000
     95       3.8433      2.00000
     96       3.8846      2.00000
     97       3.9285      2.00000
     98       3.9702      2.00000
     99       4.0139      2.00000
    100       4.1715      2.00000
    101       4.2136      2.00000
    102       4.2889      2.00000
    103       4.3186      2.00000
    104       4.3564      2.00000
    105       4.7101      2.00000
    106       4.7660      2.00000
    107       5.1652      2.00000
    108       5.2450      2.00000
    109       6.2878      0.00000
    110       6.3286      0.00000
    111       6.3809      0.00000
    112       6.5135      0.00000
    113       6.5666      0.00000
    114       6.5838      0.00000
    115       6.6752      0.00000
    116       6.7980      0.00000
    117       6.8557      0.00000
    118       6.8793      0.00000
    119       7.2410      0.00000
    120       7.3640      0.00000
    121       7.3854      0.00000
    122       7.4404      0.00000
    123       7.4705      0.00000
    124       7.5097      0.00000
    125       7.5471      0.00000
    126       7.5595      0.00000
    127       7.5846      0.00000
    128       7.6167      0.00000
    129       7.6846      0.00000
    130       7.7094      0.00000
    131       7.7358      0.00000
    132       7.7958      0.00000
    133       7.8527      0.00000
    134       7.8862      0.00000
    135       7.9125      0.00000
    136       7.9332      0.00000
    137       7.9691      0.00000
    138       8.0275      0.00000
    139       8.3014      0.00000
    140       8.3346      0.00000
    141       8.4986      0.00000
    142       8.5740      0.00000
    143       8.5871      0.00000
    144       8.7705      0.00000

 k-point     3 :       0.0000    0.3333    0.0000
  band No.  band energies     occupation 
      1      -6.7514      2.00000
      2      -6.2660      2.00000
      3      -5.8809      2.00000
      4      -5.7291      2.00000
      5      -5.6763      2.00000
      6      -5.5691      2.00000
      7      -5.3769      2.00000
      8      -5.2980      2.00000
      9      -5.1729      2.00000
     10      -4.9921      2.00000
     11      -4.9326      2.00000
     12      -4.7419      2.00000
     13      -4.5244      2.00000
     14      -4.3372      2.00000
     15      -4.3130      2.00000
     16      -4.2767      2.00000
     17      -4.1400      2.00000
     18      -4.0716      2.00000
     19      -3.7990      2.00000
     20      -3.6528      2.00000
     21      -3.5877      2.00000
     22      -3.5275      2.00000
     23      -3.4512      2.00000
     24      -3.3755      2.00000
     25      -3.3345      2.00000
     26      -3.2694      2.00000
     27      -3.2425      2.00000
     28      -2.0031      2.00000
     29      -1.8965      2.00000
     30      -1.8120      2.00000
     31      -1.7285      2.00000
     32      -1.6894      2.00000
     33      -1.6667      2.00000
     34      -1.6303      2.00000
     35      -1.5588      2.00000
     36      -1.4787      2.00000
     37      -1.4353      2.00000
     38      -1.1015      2.00000
     39      -1.0069      2.00000
     40      -0.9781      2.00000
     41      -0.9074      2.00000
     42      -0.8463      2.00000
     43      -0.8142      2.00000
     44      -0.6039      2.00000
     45      -0.5620      2.00000
     46      -0.5052      2.00000
     47       0.4765      2.00000
     48       0.5089      2.00000
     49       0.5464      2.00000
     50       0.7894      2.00000
     51       0.8532      2.00000
     52       0.8998      2.00000
     53       1.1395      2.00000
     54       1.1734      2.00000
     55       1.1989      2.00000
     56       1.2161      2.00000
     57       1.2366      2.00000
     58       1.2630      2.00000
     59       1.2928      2.00000
     60       1.3198      2.00000
     61       1.3407      2.00000
     62       1.5422      2.00000
     63       1.6020      2.00000
     64       1.6305      2.00000
     65       1.8376      2.00000
     66       2.1540      2.00000
[...]
    101       4.1828      2.00000
    102       4.2001      2.00000
    103       4.2285      2.00000
    104       4.2765      2.00000
    105       4.3127      2.00000
    106       4.3539      2.00000
    107       4.4497      2.00000
    108       5.1719      2.00000
    109       6.1954      0.00000
    110       6.9409      0.00000
    111       6.9926      0.00000
    112       7.0149      0.00000
    113       7.0318      0.00000
    114       7.0880      0.00000
    115       7.2802      0.00000
    116       7.3747      0.00000
    117       7.4037      0.00000
    118       7.4224      0.00000
    119       7.5028      0.00000
    120       7.5356      0.00000
    121       7.5753      0.00000
    122       7.6176      0.00000
    123       7.6517      0.00000
    124       7.6788      0.00000
    125       7.7333      0.00000
    126       7.8275      0.00000
    127       7.9928      0.00000
    128       8.0450      0.00000
    129       8.0765      0.00000
    130       8.0818      0.00000
    131       8.1242      0.00000
    132       8.1595      0.00000
    133       8.2028      0.00000
    134       8.2336      0.00000
    135       8.2566      0.00000
    136       8.2740      0.00000
    137       8.4194      0.00000
    138       8.5580      0.00000
    139       8.6029      0.00000
    140       8.6174      0.00000
    141       8.6515      0.00000
    142       8.6679      0.00000
    143       8.7246      0.00000
    144       8.7821      0.00000


--------------------------------------------------------------------------------------------------------


 soft charge-density along one line, spin component           1
         0         1         2         3         4         5         6         7         8         9
 total charge-density along one line

 pseudopotential strength for first ion, spin component:           1
 18.481   0.000  25.784   0.000  -0.002   0.000   0.001   0.000  -0.001   0.000  -0.003   0.000   0.003   0.000  -0.001   0.000
 25.784   0.000  35.979   0.000  -0.002   0.000   0.002   0.000  -0.001   0.000  -0.004   0.000   0.003   0.000  -0.002   0.000
 -0.002   0.000  -0.002   0.000   4.187   0.000  -0.000   0.000   0.000   0.000   7.802   0.000  -0.000   0.000   0.000   0.000
  0.001   0.000   0.002   0.000  -0.000   0.000   4.187   0.000  -0.000   0.000  -0.000   0.000   7.802   0.000  -0.001   0.000
 -0.001   0.000  -0.001   0.000   0.000   0.000  -0.000   0.000   4.187   0.000   0.000   0.000  -0.001   0.000   7.802   0.000
 -0.003   0.000  -0.004   0.000   7.802   0.000  -0.000   0.000   0.000   0.000  14.551   0.000  -0.000   0.000   0.001   0.000
  0.003   0.000   0.003   0.000  -0.000   0.000   7.802   0.000  -0.001   0.000  -0.000   0.000  14.551   0.000  -0.001   0.000
 -0.001   0.000  -0.002   0.000   0.000   0.000  -0.001   0.000   7.802   0.000   0.001   0.000  -0.001   0.000  14.550   0.000
 total augmentation occupancy for first ion, spin component:           1
  5.332  -1.962   0.122   0.107  -0.010  -0.040  -0.034   0.002
 -1.962   0.851  -0.057  -0.056   0.015   0.015   0.017  -0.003
  0.122  -0.057   2.804   0.015   0.100  -0.618  -0.002  -0.031
  0.107  -0.056   0.015   2.806   0.132  -0.002  -0.620  -0.037
 -0.010   0.015   0.100   0.132   2.861  -0.031  -0.037  -0.639
 -0.040   0.015  -0.618  -0.002  -0.031   0.146   0.001   0.009
 -0.034   0.017  -0.002  -0.620  -0.037   0.001   0.146   0.010
  0.002  -0.003  -0.031  -0.037  -0.639   0.009   0.010   0.152


------------------------ aborting loop because EDIFF is reached ----------------------------------------


    CHARGE:  cpu time    1.3320: real time    1.3309
    FORLOC:  cpu time    0.1320: real time    0.1331
    FORNL :  cpu time   13.9000: real time   13.8950
    STRESS:  cpu time   32.4360: real time   32.4222
    FORCOR:  cpu time    0.3120: real time    0.3139
    FORHAR:  cpu time    0.1440: real time    0.1414
    MIXING:  cpu time    0.0080: real time    0.0101
    OFIELD:  cpu time    0.0000: real time    0.0000

  FORCE on cell =-STRESS in cart. coord.  units (eV):
  Direction    XX          YY          ZZ          XY          YZ          ZX
  --------------------------------------------------------------------------------------
  Alpha Z   181.58817   181.58817   181.58817
  Ewald   -2043.38423 -2041.44513 -2041.91286    -9.05580   -20.33214   -13.61650
  Hartree   134.99794   135.21694   135.28074    -1.25872    -2.56473    -1.72322
  E(xc)    -701.03545  -701.06784  -701.04574     0.10335     0.22251     0.21310
  Local    -760.24154  -762.10567  -761.90188     9.47591    21.03708    13.40110
  n-local  1882.96763  1883.35536  1883.25571    -1.61051    -3.85858    -2.32070
  augment  -230.76918  -230.75790  -230.77130     0.01359     0.09763    -0.04345
  Kinetic  1559.59522  1559.44546  1559.54006     1.13263     2.58251     1.77443
  Fock        0.00000     0.00000     0.00000     0.00000     0.00000     0.00000
  -------------------------------------------------------------------------------------
  Total      23.71855    24.22938    24.03288    -1.19954    -2.81573    -2.31524
  in kB      34.46819    35.21053    34.92498    -1.74319    -4.09186    -3.36454
  external pressure =       34.87 kB  Pullay stress =        0.00 kB


 VOLUME and BASIS-vectors are now :
 -----------------------------------------------------------------------------
  energy-cutoff  :      350.00
  volume of cell :     1102.50
      direct lattice vectors                 reciprocal lattice vectors
     0.000000000  8.199425490  8.199425490    -0.060979882  0.060979882  0.060979882
     8.199425490  0.000000000  8.199425490     0.060979882 -0.060979882  0.060979882
     8.199425490  8.199425490  0.000000000     0.060979882  0.060979882 -0.060979882

  length of vectors
    11.595738732 11.595738732 11.595738732     0.105620254  0.105620254  0.105620254


 FORCES acting on ions
    electron-ion (+dipol)            ewald-force                    non-local-force                 convergence-correction
 -----------------------------------------------------------------------------------------------
   0.592E+00 0.380E+01 0.194E+01   -.330E+00 -.312E+01 -.189E+01   -.238E+00 -.757E+00 -.694E+00   0.334E-04 0.519E-04 0.295E-04
   -.932E+00 0.157E+01 -.301E+01   0.247E+00 -.146E+01 0.262E+01   0.196E+00 -.202E+00 0.990E+00   -.122E-04 0.387E-04 -.259E-04
   -.196E+01 0.315E+01 0.198E+01   0.201E+01 -.284E+01 -.171E+01   0.628E+00 -.577E+00 -.454E+00   -.289E-04 0.124E-04 0.247E-04
   -.545E+01 -.154E+01 0.935E-01   0.497E+01 0.136E+01 0.219E+00   0.108E+01 0.647E+00 -.534E+00   -.482E-04 -.284E-04 -.119E-04
   0.995E+00 -.140E+01 -.307E+01   -.923E+00 0.102E+01 0.254E+01   -.983E+00 -.226E+00 0.521E+00   -.242E-04 -.324E-04 0.987E-05
   0.818E+00 -.360E+01 0.907E+00   -.911E+00 0.271E+01 -.122E+01   0.279E+00 0.937E+00 -.123E+00   -.558E-05 0.723E-05 -.236E-04
   -.445E+01 -.281E+01 -.137E+01   0.456E+01 0.296E+01 0.815E+00   0.975E+00 0.514E+00 0.445E-01   -.333E-04 0.104E-04 -.179E-04
   0.132E+01 0.370E+01 -.151E+01   -.110E+01 -.318E+01 0.128E+01   -.873E+00 -.121E+01 0.325E+00   -.313E-05 0.308E-04 0.933E-06
   0.694E+00 -.144E+01 0.231E+01   -.486E+00 0.605E+00 -.192E+01   0.621E+00 0.101E+01 -.412E+00   -.112E-04 0.173E-04 0.306E-04
   0.420E+01 0.291E+00 0.179E+01   -.414E+01 -.214E+00 -.180E+01   -.114E+01 0.163E+00 0.151E+00   -.168E-04 0.540E-05 -.123E-04
   -.144E+01 0.302E+01 -.335E+01   0.143E+01 -.276E+01 0.369E+01   0.162E+00 -.120E+01 0.801E+00   -.176E-04 0.123E-04 -.101E-04
   -.164E+01 0.141E+01 0.187E+01   0.150E+01 -.123E+01 -.146E+01   0.881E+00 -.127E+00 -.356E+00   0.399E-04 0.293E-04 0.352E-04
   0.100E+01 -.120E+01 0.937E-01   -.716E+00 0.833E+00 -.450E+00   -.546E+00 0.671E+00 0.578E+00   0.181E-04 0.164E-04 0.331E-04
   0.268E+01 0.150E+01 0.304E+01   -.244E+01 -.188E+01 -.317E+01   -.705E+00 -.332E+00 -.684E+00   0.368E-05 -.212E-04 0.582E-04
   0.543E+00 0.312E+01 0.299E+01   -.242E+00 -.276E+01 -.276E+01   0.421E-01 -.883E+00 -.713E+00   -.159E-04 -.143E-04 0.116E-04
   -.492E+01 -.365E+01 -.225E+01   0.475E+01 0.316E+01 0.185E+01   0.127E+01 0.838E+00 0.342E+00   -.939E-05 -.457E-04 -.125E-04
   -.672E+00 -.214E+00 -.268E+01   0.749E+00 0.423E+00 0.257E+01   0.659E+00 0.890E-01 0.445E+00   0.177E-04 -.158E-04 -.380E-04
   0.156E+01 -.707E+00 -.503E-01   -.146E+01 0.491E+00 0.120E+00   -.445E+00 0.975E-01 -.437E+00   0.125E-04 -.184E-04 -.261E-04
   -.996E-01 -.442E+00 -.425E+01   -.898E-01 0.405E+00 0.381E+01   0.857E-01 -.974E-01 0.110E+01   -.314E-05 -.284E-04 -.214E-04
   0.189E+01 0.410E+00 0.409E+01   -.152E+01 -.239E+00 -.363E+01   -.443E+00 0.338E-01 -.121E+01   0.188E-04 0.407E-05 0.297E-04
   0.141E+00 0.300E+01 0.296E+01   -.255E+00 -.264E+01 -.214E+01   0.266E+00 -.114E+01 -.428E+00   0.345E-04 -.783E-05 0.472E-04
   -.405E+00 -.163E+01 -.594E+00   0.296E+00 0.121E+01 0.314E+00   0.325E-01 0.964E+00 0.357E+00   0.862E-05 -.219E-04 -.266E-05
   0.286E+00 -.152E+01 -.275E+01   -.428E+00 0.225E+01 0.285E+01   -.370E+00 0.515E+00 0.715E+00   0.198E-05 0.224E-04 -.429E-04
   -.154E+01 0.204E+01 0.657E+00   0.173E+01 -.243E+01 -.908E+00   0.584E+00 -.459E+00 -.760E+00   0.165E-04 0.305E-04 -.271E-04
   -.253E+01 0.259E+01 -.235E+01   0.223E+01 -.239E+01 0.217E+01   0.101E+01 -.653E+00 0.124E+01   0.422E-06 0.308E-04 -.546E-05
   0.550E+00 0.129E+01 0.350E+01   -.113E+01 -.752E+00 -.377E+01   -.172E+00 -.446E+00 -.991E+00   -.197E-04 0.945E-05 -.527E-05
   -.131E+01 0.265E+01 0.196E+01   0.104E+01 -.245E+01 -.189E+01   0.182E+00 -.946E+00 -.282E+00   -.438E-04 -.945E-05 -.206E-04
   0.319E+01 0.371E+00 -.148E+01   -.282E+01 -.214E-01 0.886E+00   -.756E+00 0.540E+00 0.577E+00   0.582E-04 0.224E-04 -.267E-06
   0.358E+01 0.292E+00 -.174E+01   -.362E+01 -.104E+01 0.197E+01   -.103E+01 -.182E+00 0.678E+00   0.475E-04 -.173E-04 -.191E-04
   0.300E+01 -.314E+01 -.367E+01   -.230E+01 0.281E+01 0.380E+01   -.152E+01 0.114E+00 0.594E+00   -.578E-05 -.792E-04 -.440E-05
   -.121E+01 -.245E+01 0.239E+01   0.134E+01 0.156E+01 -.204E+01   0.509E+00 0.611E+00 -.825E+00   0.219E-04 -.222E-04 -.101E-05
   0.928E+00 -.313E+01 -.376E-01   -.788E+00 0.311E+01 -.447E+00   0.951E-02 0.110E+01 -.154E+00   0.228E-04 -.628E-05 0.143E-04
   -.160E+00 0.431E+00 -.504E+00   0.287E+00 -.475E+00 0.220E+00   -.102E+00 -.463E+00 0.626E+00   -.500E-05 -.820E-05 0.174E-04
   0.421E+00 -.799E+00 0.341E+01   -.506E+00 0.827E+00 -.310E+01   -.241E+00 0.531E-01 -.685E+00   0.342E-05 -.257E-04 0.111E-04
   0.568E+00 -.939E+00 -.966E+00   -.797E+00 0.130E+01 0.546E+00   -.566E+00 0.848E-01 -.245E+00   -.349E-04 -.331E-05 -.263E-04
   0.193E+01 0.134E+01 0.938E+00   -.143E+01 -.987E+00 -.520E+00   -.156E+00 0.663E-01 -.168E+00   0.728E-05 0.229E-04 -.918E-05
   0.436E+01 -.844E+00 0.191E+01   -.375E+01 0.905E+00 -.157E+01   -.963E+00 0.534E+00 -.581E+00   -.498E-05 -.647E-05 -.136E-04
   -.266E+01 -.370E+01 -.273E+01   0.163E+01 0.317E+01 0.260E+01   0.268E+00 0.550E+00 0.601E+00   -.750E-04 -.236E-04 -.126E-04
   0.863E+00 0.380E+01 -.225E+00   -.107E+01 -.329E+01 0.607E+00   -.276E+00 -.846E+00 0.130E+00   -.578E-05 0.645E-04 0.273E-04
   -.102E+01 0.452E+01 0.241E+00   0.420E+00 -.434E+01 -.372E+00   -.168E+00 -.101E+01 -.600E+00   -.162E-04 0.238E-05 -.267E-04
   -.467E+00 0.105E+01 0.440E+01   0.311E+00 -.101E+01 -.354E+01   0.481E+00 -.204E+00 -.921E+00   0.131E-04 -.584E-05 0.558E-04
   -.482E-01 0.202E+01 -.285E+00   0.430E+00 -.183E+01 0.319E+00   0.404E+00 -.796E-02 0.614E+00   0.131E-04 0.183E-04 0.221E-04
   0.442E+00 -.114E+01 -.719E+00   -.399E+00 0.131E+01 0.824E+00   -.228E-01 0.176E+00 0.259E+00   0.196E-04 0.196E-04 0.336E-04
   0.166E+01 -.192E+00 0.176E+01   -.171E+01 0.254E+00 -.183E+01   -.511E+00 -.231E+00 -.650E+00   -.179E-04 0.184E-04 -.294E-04
   -.339E+01 -.151E+01 -.219E+01   0.368E+01 0.126E+01 0.124E+01   0.550E+00 -.159E+00 0.138E+00   -.236E-04 -.151E-04 -.750E-04
   0.125E+01 -.105E+01 0.986E+00   -.904E+00 0.126E+01 -.869E+00   0.407E+00 0.303E+00 -.101E+00   0.146E-04 -.273E-04 0.233E-05
   -.251E+01 -.696E+01 -.145E+00   0.241E+01 0.652E+01 0.162E+00   0.463E+00 0.835E+00 -.221E+00   -.118E-04 -.566E-04 0.736E-06
   0.248E+01 0.506E+00 0.469E+01   -.162E+01 -.781E+00 -.492E+01   0.124E+00 -.351E+00 -.101E+01   0.610E-04 -.112E-04 0.269E-04
   0.341E+01 0.329E+00 -.929E+00   -.395E+01 0.117E+00 0.759E+00   -.628E+00 0.572E-02 0.437E+00   0.299E-04 0.272E-04 0.852E-06
   0.127E+01 -.624E-01 -.150E+00   -.108E+01 -.293E+00 0.485E+00   -.537E-01 0.195E+00 0.229E+00   0.228E-04 0.407E-04 -.826E-05
   -.360E+01 0.703E+00 -.416E+01   0.344E+01 -.167E+00 0.472E+01   0.381E+00 0.601E-01 0.585E+00   -.472E-04 0.252E-05 -.169E-04
   -.370E+01 -.136E+00 -.345E+01   0.325E+01 -.273E+00 0.388E+01   0.104E+00 -.178E+00 0.725E+00   -.138E-04 -.193E-04 -.113E-04
   -.477E+01 -.240E+01 0.425E+00   0.547E+01 0.296E+01 -.895E+00   0.757E+00 0.218E+00 -.188E+00   0.911E-06 -.136E-04 -.160E-04
   0.452E+01 0.442E+00 -.485E+00   -.527E+01 0.460E-01 0.950E+00   -.803E+00 0.250E+00 0.395E+00   0.533E-05 0.159E-04 0.419E-04
 -----------------------------------------------------------------------------------------------
   0.297E+00 0.720E+00 0.217E+00   -.329E-13 -.124E-13 0.122E-12   -.297E+00 -.720E+00 -.217E+00   -.743E-05 -.583E-06 -.876E-05


 POSITION                                       TOTAL-FORCE (eV/Angst)
 -----------------------------------------------------------------------------------
      8.21785      0.04145      8.21982         0.024359     -0.071000     -0.638908
      1.40497      1.38150      1.32985        -0.488716     -0.098290      0.599538
     10.90321      2.76175      8.20373         0.674704     -0.266251     -0.178727
      4.06890      4.05543      1.38518         0.610745      0.470058     -0.220811
     13.68055     13.68332     16.38357        -0.910622     -0.611003     -0.012943
     10.91962     16.38038     10.93192         0.186248      0.041823     -0.435958
      5.42874      2.71587      2.76860         1.087899      0.662841     -0.505931
      6.87374      4.13927      4.12922        -0.650197     -0.688074      0.090549
      8.15413      5.43948      2.72458         0.828513      0.170441     -0.027476
      9.61825      6.79084      4.06103        -1.076400      0.241076      0.137457
      5.44823      0.02229      5.43847         0.150520     -0.939055      1.135061
      6.79873      1.34545      6.80889         0.739756      0.055349      0.060088
      8.24656     10.93092     13.69396        -0.257366      0.309529      0.221364
      9.61727      4.15070      6.88421        -0.467901     -0.713121     -0.812775
     10.90017      5.49309      5.48859         0.343473     -0.530498     -0.491191
     12.24972      6.79652      6.80575         1.097443      0.350969     -0.057042
     16.34885     10.89651     10.89604         0.735086      0.298557      0.327134
      1.37325      4.08526      4.12280        -0.345757     -0.118558     -0.366871
     10.93890      5.45825     10.89984        -0.103684     -0.134386      0.663947
      4.07489      6.83349      4.12218        -0.074988      0.204462     -0.749355
     13.61709      8.24883     10.96465         0.152280     -0.777819      0.391883
      6.82913      9.52002      4.09665        -0.077186      0.538802      0.076914
      2.78017      2.69289      5.43599        -0.512864      1.247918      0.818945
      4.10478      4.11039      6.87771         0.776242     -0.850040     -1.010992
      5.42816      5.51777      5.42167         0.706165     -0.449472      1.061852
      6.85988      6.87033      6.88237        -0.749371      0.090576     -1.262504
      8.20891      8.19743      5.43400        -0.086609     -0.742188     -0.212365
     13.71795     10.88004      8.19972        -0.379327      0.890409     -0.015941
      6.87553      4.12722      9.52523        -1.075044     -0.927573      0.909101
      9.61879      6.79959      9.54037        -0.813966     -0.224065      0.724519
      8.14726     13.64069      5.50596         0.643624     -0.278783     -0.470513
      2.76991      8.16137      5.51374         0.150037      1.080096     -0.639079
      4.12161      9.61722      6.82722         0.025534     -0.507722      0.341528
      5.51397     10.95643      5.47966        -0.325937      0.080378     -0.373880
      6.84674     12.30103      6.88085        -0.794361      0.445037     -0.664465
      4.09744      6.78912      9.60345         0.347228      0.419536      0.248796
      5.45669      8.14907      8.23776        -0.355868      0.594544     -0.236459
      6.80194      9.55871      9.54225        -0.762766      0.014240      0.463545
      9.55127     12.31864      9.53695        -0.479967     -0.331538      0.511813
      5.51594      5.48358     10.96647        -0.769207     -0.833582     -0.730250
      9.55648      9.54019     12.34983         0.324723     -0.161744     -0.055953
     12.27718     12.32973     12.29515         0.785871      0.183477      0.648618
      6.80969      6.85828      1.35877         0.020575      0.351171      0.363785
      4.12518      1.34760      4.12584        -0.559710     -0.168733     -0.722764
      9.51536      9.58728      6.81290         0.838649     -0.413017     -0.807840
      8.17366      5.45490      8.18722         0.756111      0.514759      0.015406
     10.90247      8.15846      8.19292         0.364736      0.393736     -0.204460
     12.26360      9.59478      9.61812         0.986441     -0.626110     -1.234421
      1.40952      6.80652      6.80573        -1.170177      0.451640      0.266860
      2.74529      5.45375      8.19683         0.139353     -0.160008      0.563965
      8.15002     10.90236      8.16293         0.221233      0.596009      1.145293
      6.83609      6.85567     12.28293        -0.341158     -0.586501      1.150368
      8.15135      8.17427     10.91620         1.463161      0.773287     -0.658775
     10.95906     10.93968     10.93182        -1.551562      0.738411      0.860318
 -----------------------------------------------------------------------------------
    total drift:                               -0.000021      0.000074     -0.000127


--------------------------------------------------------------------------------------------------------



  FREE ENERGIE OF THE ION-ELECTRON SYSTEM (eV)
  ---------------------------------------------------
  free  energy   TOTEN  =      -278.77963299 eV

  energy  without entropy=     -278.77963299  energy(sigma->0) =     -278.77963299



--------------------------------------------------------------------------------------------------------


    POTLOK:  cpu time    0.2640: real time    0.2643


--------------------------------------------------------------------------------------------------------


 writing wavefunctions
     LOOP+:  cpu time 1285.3480: real time 1285.2816
    4ORBIT:  cpu time    0.0000: real time    0.0000

 total amount of memory used by VASP on root node   171928. kBytes
========================================================================

   base      :      30000. kBytes
   nonl-proj :      61986. kBytes
   fftplans  :      15551. kBytes
   grid      :      29859. kBytes
   one-center:        438. kBytes
   wavefun   :      34094. kBytes

  
  
 General timing and accounting informations for this job:
 ========================================================
  
                  Total CPU time used (sec):     1303.632
                            User time (sec):     1262.008
                          System time (sec):       41.624
                         Elapsed time (sec):     1303.712
  
                   Maximum memory used (kb):      200916.
                   Average memory used (kb):           0.
  
                          Minor page faults:     13127826
                          Major page faults:            7
                 Voluntary context switches:          724
