
     Program PWSCF v.5.1 starts on 14Feb2017 at  1:28:39 

     This program is part of the open-source Quantum ESPRESSO suite
     for quantum simulation of materials; please cite
         "P. Giannozzi et al., J. Phys.:Condens. Matter 21 395502 (2009);
          URL http://www.quantum-espresso.org", 
     in publications or presentations arising from this work. More details at
     http://www.quantum-espresso.org/quote

     Parallel version (MPI), running on    16 processors
     R & G space division:  proc/nbgrp/npool/nimage =      16
     Reading input from /tmp/Ge_diamond.scf.in.super.444.a.04.17013/Ge_diamond.scf.in.super.444.a.04.t
Warning: card &IONS ignored
Warning: card   ION_DYNAMICS='BFGS', ignored
Warning: card / ignored
Warning: card &CELL ignored
Warning: card  CELL_DYNAMICS = 'BFGS' ignored
Warning: card / ignored
     Message from routine read_cards :
     DEPRECATED: no units specified in CELL_PARAMETERS card

     Current dimensions of program PWSCF are:
     Max number of different atomic species (ntypx) = 10
     Max number of k-points (npk) =  40000
     Max angular momentum in pseudopotentials (lmaxx) =  3

     Subspace diagonalization in iterative solution of the eigenvalue problem:
     a serial algorithm will be used


     Parallelization info
     --------------------
     sticks:   dense  smooth     PW     G-vecs:    dense   smooth      PW
     Min         793     553    145                58871    34448    4637
     Max         795     554    146                58873    34482    4641
     Sum       12703    8863   2335               941961   551433   74249



     bravais-lattice index     =            0
     lattice parameter (alat)  =    30.323768153  a.u.
     unit-cell volume          =   19716.7125 (a.u.)^3
     number of atoms/cell      =          128
     number of atomic types    =            1
     number of electrons       =      1792.00
     number of Kohn-Sham states=         1075
     kinetic-energy cutoff     =      35.0000  Ry
     charge density cutoff     =     200.0000  Ry
     convergence threshold     =      1.0E-09
     mixing beta               =       0.3000
     number of iterations used =            8  local-TF  mixing
     Exchange-correlation      = SLA  PW   PSX  PSC ( 1  4 10  8 0)
     A smooth kinetic-energy cutoff is imposed at      34.5000 Ry
     height of the smooth step-function =             800.0000 Ry
     width of the smooth step-function  =               1.0000 Ry


     celldm(1)=  30.323768  celldm(2)=   0.000000  celldm(3)=   0.000000
     celldm(4)=   0.000000  celldm(5)=   0.000000  celldm(6)=   0.000000

     crystal axes: (cart. coord. in units of alat)
               a(1) = (   0.000000000000   0.707106781187   0.707106781187 )  
               a(2) = (   0.707106781187   0.000000000000   0.707106781187 )  
               a(3) = (   0.707106781187   0.707106781187  -0.000000000000 )  

     reciprocal axes: (cart. coord. in units 2 pi/alat)
               b(1) = ( -0.707107  0.707107  0.707107 )  
               b(2) = (  0.707107 -0.707107  0.707107 )  
               b(3) = (  0.707107  0.707107 -0.707107 )  


     PseudoPot. # 1 for Ge read from file:
     /users/kfg/psuedo/gbrv_1.5/ge.pbesol.UPF
     MD5 check sum: 7bed0412183f5e553a4d27ec7023354d
     Pseudo is Ultrasoft + core correction, Zval = 14.0
     Generated by new atomic code, or converted to UPF format
     Using radial grid of  873 points,  6 beta functions with: 
                l(1) =   0
                l(2) =   0
                l(3) =   1
                l(4) =   1
                l(5) =   2
                l(6) =   2
     Q(r) pseudized with  8 coefficients,  rinner =    1.400   1.400   1.400
                                                       1.400   1.400

     atomic species   valence    mass     pseudopotential
        Ge            14.00    72.64000     Ge( 1.00)

     No symmetry found


                                    s                        frac. trans.

      isym =  1     identity                                     

 cryst.   s( 1) = (     1          0          0      )
                  (     0          1          0      )
                  (     0          0          1      )

 cart.    s( 1) = (  1.0000000  0.0000000  0.0000000 )
                  (  0.0000000  1.0000000  0.0000000 )
                  (  0.0000000  0.0000000  1.0000000 )


     point group C_1 (1)    
     there are  1 classes
     the character table:

       E    
A      1.00

     the symmetry operations in each class:
     E        1

   Cartesian axes

     site n.     atom                  positions (alat units)
         1           Ge  tau(   1) = (   -0.00145158254    0.00299856015    0.00004806432  )
         2           Ge  tau(   2) = (    0.08582486428    0.09117217643    0.08587440304  )
         3           Ge  tau(   3) = (    0.17800325485    0.17632180319   -0.00005643990  )
         4           Ge  tau(   4) = (    0.26190275632    0.26818303064    0.08892733073  )
         5           Ge  tau(   5) = (    0.35127671521    0.35429263514    0.00092493179  )
         6           Ge  tau(   6) = (    0.44141784724    0.44303694108    0.08881047986  )
         7           Ge  tau(   7) = (    0.53184089544    0.52931065663    0.00144490198  )
         8           Ge  tau(   8) = (    0.62152022026    0.61662472706    0.09159072877  )
         9           Ge  tau(   9) = (    0.17620517851   -0.00132655994    0.17972810650  )
        10           Ge  tau(  10) = (    0.26776119616    0.08601576680    0.26537211215  )
        11           Ge  tau(  11) = (    0.35248169038    0.17519928589    0.17737374124  )
        12           Ge  tau(  12) = (    0.44449882837    0.26384052573    0.26675377067  )
        13           Ge  tau(  13) = (    0.53012929245    0.35369868623    0.17876523437  )
        14           Ge  tau(  14) = (    0.61833411078    0.43888455109    0.26537581290  )
        15           Ge  tau(  15) = (    0.70802906754    0.53017239960    0.17413435462  )
        16           Ge  tau(  16) = (    0.79787263921    0.61580763713    0.26782014551  )
        17           Ge  tau(  17) = (    0.35525998696    0.00201285518    0.35170067431  )
        18           Ge  tau(  18) = (    0.44427928326    0.09030779667    0.44165195604  )
        19           Ge  tau(  19) = (    0.52879845773    0.17896349249    0.35471847580  )
        20           Ge  tau(  20) = (    0.61824598305    0.26639829497    0.44125419083  )
        21           Ge  tau(  21) = (    0.70667011054    0.35264866388    0.35636220546  )
        22           Ge  tau(  22) = (    0.79403885200    0.43884600191    0.44486640772  )
        23           Ge  tau(  23) = (    0.88552055387    0.53190621967    0.35411696049  )
        24           Ge  tau(  24) = (    0.97080325804    0.62002682978    0.44172615637  )
        25           Ge  tau(  25) = (    0.53091195301    0.00184666644    0.52771303767  )
        26           Ge  tau(  26) = (    0.62175163011    0.09056295364    0.61692015525  )
        27           Ge  tau(  27) = (    0.70931543840    0.17811067704    0.52741222772  )
        28           Ge  tau(  28) = (    0.79402183532    0.26533146477    0.61802715174  )
        29           Ge  tau(  29) = (    0.88640516121    0.35234143404    0.53096052910  )
        30           Ge  tau(  30) = (    0.97194726748    0.44206363236    0.62140770196  )
        31           Ge  tau(  31) = (    1.05996464720    0.52953103124    0.53352851711  )
        32           Ge  tau(  32) = (    1.14614408288    0.62182140851    0.61966802683  )
        33           Ge  tau(  33) = (    0.00186151047    0.17657186406    0.17478581799  )
        34           Ge  tau(  34) = (    0.08786394101    0.26353346336    0.26666918752  )
        35           Ge  tau(  35) = (    0.17953452052    0.35202585711    0.17950265976  )
        36           Ge  tau(  36) = (    0.26821325284    0.44446510886    0.26314601872  )
        37           Ge  tau(  37) = (    0.35312522689    0.52766604816    0.17687454218  )
        38           Ge  tau(  38) = (    0.44155672082    0.61824876122    0.26439317473  )
        39           Ge  tau(  39) = (    0.53312477472    0.70724012533    0.17897893849  )
        40           Ge  tau(  40) = (    0.61827576464    0.79739927093    0.26310938290  )
        41           Ge  tau(  41) = (    0.17422817746    0.17529624452    0.35055265213  )
        42           Ge  tau(  42) = (    0.26524430476    0.26797621089    0.44213040311  )
        43           Ge  tau(  43) = (    0.35118439986    0.35675899218    0.35655689588  )
        44           Ge  tau(  44) = (    0.44064997829    0.43964653355    0.44121927356  )
        45           Ge  tau(  45) = (    0.52893984683    0.53332578548    0.35653024589  )
        46           Ge  tau(  46) = (    0.61862853118    0.61721640470    0.44289992015  )
        47           Ge  tau(  47) = (    0.70641295749    0.70930845869    0.35082835171  )
        48           Ge  tau(  48) = (    0.79758407795    0.79752861939    0.44061182126  )
        49           Ge  tau(  49) = (    0.35042573785    0.17526756231    0.52902245138  )
        50           Ge  tau(  50) = (    0.44221982322    0.26559195621    0.62103706300  )
        51           Ge  tau(  51) = (    0.52714764328    0.35071461558    0.53022873509  )
        52           Ge  tau(  52) = (    0.61717033777    0.44383267924    0.61923959387  )
        53           Ge  tau(  53) = (    0.70991111845    0.52869723205    0.53256662739  )
        54           Ge  tau(  54) = (    0.79724911963    0.61812321837    0.61713301003  )
        55           Ge  tau(  55) = (    0.88081974960    0.70405859878    0.53007717228  )
        56           Ge  tau(  56) = (    0.97546120751    0.79817537758    0.61943863201  )
        57           Ge  tau(  57) = (    0.52848809930    0.17817790223    0.70674091593  )
        58           Ge  tau(  58) = (    0.62148501536    0.26342234406    0.79478208282  )
        59           Ge  tau(  59) = (    0.70891354762    0.35421900879    0.70415742147  )
        60           Ge  tau(  60) = (    0.79620922295    0.44337549570    0.79621001270  )
        61           Ge  tau(  61) = (    0.88097626479    0.52763090710    0.70744018784  )
        62           Ge  tau(  62) = (    0.97091323844    0.61927714803    0.79464075743  )
        63           Ge  tau(  63) = (    1.06314550975    0.70656058849    0.70695983615  )
        64           Ge  tau(  64) = (    1.14840933269    0.79843924948    0.79821604857  )
        65           Ge  tau(  65) = (   -0.00022923872    0.35242809700    0.35601323299  )
        66           Ge  tau(  66) = (    0.08886205733    0.44517536954    0.43931494386  )
        67           Ge  tau(  67) = (    0.17491380038    0.53109055245    0.35480828163  )
        68           Ge  tau(  68) = (    0.26243936811    0.62071539591    0.44376003656  )
        69           Ge  tau(  69) = (    0.35235759184    0.70520151700    0.35076046528  )
        70           Ge  tau(  70) = (    0.44399101760    0.79756107490    0.44022949422  )
        71           Ge  tau(  71) = (    0.52765420438    0.88295808291    0.35516791887  )
        72           Ge  tau(  72) = (    0.61720126736    0.97450497638    0.44520800827  )
        73           Ge  tau(  73) = (    0.17412357598    0.35396206950    0.53150185505  )
        74           Ge  tau(  74) = (    0.26211391579    0.44472603438    0.61566649399  )
        75           Ge  tau(  75) = (    0.35197167296    0.52965817405    0.52945414698  )
        76           Ge  tau(  76) = (    0.44114593823    0.62096966188    0.61659077444  )
        77           Ge  tau(  77) = (    0.53031929049    0.70446365454    0.53349174322  )
        78           Ge  tau(  78) = (    0.61659095000    0.79534633819    0.62017161369  )
        79           Ge  tau(  79) = (    0.70589994999    0.88357268206    0.52720221046  )
        80           Ge  tau(  80) = (    0.79466267460    0.97107338128    0.62007800737  )
        81           Ge  tau(  81) = (    0.35418256802    0.35298812906    0.70861043934  )
        82           Ge  tau(  82) = (    0.44031846181    0.44325883608    0.79818220798  )
        83           Ge  tau(  83) = (    0.52800606653    0.53245445529    0.70706466183  )
        84           Ge  tau(  84) = (    0.61943745361    0.61554493129    0.79602346441  )
        85           Ge  tau(  85) = (    0.70556665860    0.70814323157    0.70514866145  )
        86           Ge  tau(  86) = (    0.79717602394    0.79319505895    0.79418108293  )
        87           Ge  tau(  87) = (    0.88164930951    0.88209385252    0.70944404749  )
        88           Ge  tau(  88) = (    0.97083905323    0.96964020669    0.79400467793  )
        89           Ge  tau(  89) = (    0.53126864372    0.35463226440    0.88332398973  )
        90           Ge  tau(  90) = (    0.62128671404    0.44072890440    0.97226146396  )
        91           Ge  tau(  91) = (    0.70442814489    0.52928498063    0.88449444939  )
        92           Ge  tau(  92) = (    0.79508854067    0.61857856329    0.97482972444  )
        93           Ge  tau(  93) = (    0.88395734490    0.70502327563    0.88604444209  )
        94           Ge  tau(  94) = (    0.97266262375    0.79579287786    0.96942224987  )
        95           Ge  tau(  95) = (    1.06094670389    0.88569900884    0.88366348088  )
        96           Ge  tau(  96) = (    1.14605318661    0.97349636241    0.97446858013  )
        97           Ge  tau(  97) = (   -0.00219695590    0.53032658881    0.53177529563  )
        98           Ge  tau(  98) = (    0.09108012764    0.61941107645    0.61691157638  )
        99           Ge  tau(  99) = (    0.17441069272    0.71036640475    0.52905575221  )
       100           Ge  tau( 100) = (    0.26833816278    0.79710833606    0.61783852147  )
       101           Ge  tau( 101) = (    0.35346420426    0.88432047400    0.52769440542  )
       102           Ge  tau( 102) = (    0.44172433324    0.97241905761    0.61720352817  )
       103           Ge  tau( 103) = (    0.52846285168    1.06271957610    0.53161332887  )
       104           Ge  tau( 104) = (    0.62009309062    1.14642272795    0.62121178750  )
       105           Ge  tau( 105) = (    0.17784688169    0.52918989644    0.70746507712  )
       106           Ge  tau( 106) = (    0.26480873954    0.62105021140    0.79571492159  )
       107           Ge  tau( 107) = (    0.35071428839    0.70914821045    0.70948077812  )
       108           Ge  tau( 108) = (    0.43865021869    0.79580129617    0.79271711489  )
       109           Ge  tau( 109) = (    0.53054544788    0.88544928080    0.70414568919  )
       110           Ge  tau( 110) = (    0.61733789525    0.97390548079    0.79434414462  )
       111           Ge  tau( 111) = (    0.70471307740    1.06065251906    0.70743430092  )
       112           Ge  tau( 112) = (    0.79699646604    1.14684694550    0.79432007127  )
       113           Ge  tau( 113) = (    0.35302175729    0.53014190826    0.88493301706  )
       114           Ge  tau( 114) = (    0.44425933954    0.61889911108    0.97540017510  )
       115           Ge  tau( 115) = (    0.52785837094    0.70662990256    0.88360102149  )
       116           Ge  tau( 116) = (    0.62033815678    0.79764136769    0.97218052204  )
       117           Ge  tau( 117) = (    0.70585411974    0.88287076983    0.88356741353  )
       118           Ge  tau( 118) = (    0.79280524897    0.97057726613    0.96951655316  )
       119           Ge  tau( 119) = (    0.88078351974    1.05748306550    0.88240417178  )
       120           Ge  tau( 120) = (    0.97058383695    1.14692787682    0.97299507163  )
       121           Ge  tau( 121) = (    0.52990233933    0.53357310268    1.06222761296  )
       122           Ge  tau( 122) = (    0.62063344132    0.61968020763    1.15142635819  )
       123           Ge  tau( 123) = (    0.70815630006    0.70883861634    1.06344346973  )
       124           Ge  tau( 124) = (    0.79733467677    0.79770721380    1.14690370270  )
       125           Ge  tau( 125) = (    0.88081621073    0.88546172586    1.05889941959  )
       126           Ge  tau( 126) = (    0.97185769983    0.97051113587    1.14608059953  )
       127           Ge  tau( 127) = (    1.06198056457    1.05789647236    1.06102997075  )
       128           Ge  tau( 128) = (    1.15097656098    1.14706722247    1.14947652917  )

   Crystallographic axes

     site n.     atom                  positions (cryst. coord.)
         1           Ge  tau(   1) = (    0.00318071268   -0.00311273947    0.00105989175  )
         2           Ge  tau(   2) = (    0.06450349341    0.05694125204    0.06443343501  )
         3           Ge  tau(   3) = (   -0.00122887491    0.00114905684    0.25058556032  )
         4           Ge  tau(   4) = (    0.06732194315    0.05844029404    0.31194613597  )
         5           Ge  tau(   5) = (    0.00278660297   -0.00147855189    0.49825884669  )
         6           Ge  tau(   6) = (    0.06394336478    0.06165362031    0.56260548593  )
         7           Ge  tau(   7) = (   -0.00076744903    0.00281084900    0.74932575835  )
         8           Ge  tau(   8) = (    0.06130278897    0.06822606185    0.81073626294  )
         9           Ge  tau(   9) = (    0.00155306674    0.25262085900   -0.00342910580  )
        10           Ge  tau(  10) = (    0.05913299449    0.31615984559    0.06251166950  )
        11           Ge  tau(  11) = (    0.00006458484    0.25077976564    0.24770462139  )
        12           Ge  tau(  12) = (    0.06087868927    0.31636811102    0.31224816052  )
        13           Ge  tau(  13) = (    0.00165083139    0.25116138753    0.49855464767  )
        14           Ge  tau(  14) = (    0.06075903633    0.31453903741    0.55991744813  )
        15           Ge  tau(  15) = (   -0.00263207299    0.24889523898    0.75240907090  )
        16           Ge  tau(  16) = (    0.06063804344    0.31811683861    0.81024546881  )
        17           Ge  tau(  17) = (   -0.00109351056    0.49847337407    0.00394011765  )
        18           Ge  tau(  18) = (    0.06199945453    0.56259073155    0.06571505632  )
        19           Ge  tau(  19) = (    0.00345316344    0.49819451587    0.24963943481  )
        20           Ge  tau(  20) = (    0.06321994438    0.56080771675    0.31352413736  )
        21           Ge  tau(  21) = (    0.00165516642    0.50231709766    0.49706535679  )
        22           Ge  tau(  22) = (    0.06340878069    0.56572732655    0.55721318700  )
        23           Ge  tau(  23) = (    0.00035541045    0.50044159774    0.75187357931  )
        24           Ge  tau(  24) = (    0.06431116949    0.56038395171    0.81253918221  )
        25           Ge  tau(  25) = (   -0.00095618437    0.74725511928    0.00356776509  )
        26           Ge  tau(  26) = (    0.06062131001    0.81183554045    0.06745404728  )
        27           Ge  tau(  27) = (   -0.00268172626    0.74855525166    0.25456826132  )
        28           Ge  tau(  28) = (    0.06317064380    0.81085173612    0.31206471221  )
        29           Ge  tau(  29) = (   -0.00219429240    0.75308587374    0.50048032700  )
        30           Ge  tau(  30) = (    0.06471728831    0.81408591157    0.56045509602  )
        31           Ge  tau(  31) = (    0.00218842559    0.75233483922    0.74668154049  )
        32           Ge  tau(  32) = (    0.06741934528    0.80892358243    0.81196892401  )
        33           Ge  tau(  33) = (    0.24713111292    0.00005336139    0.00257921197  )
        34           Ge  tau(  34) = (    0.31278070134    0.06434648033    0.05991189669  )
        35           Ge  tau(  35) = (    0.24889734176    0.00495775416    0.24894239967  )
        36           Ge  tau(  36) = (    0.31070121688    0.06144345169    0.31786736808  )
        37           Ge  tau(  37) = (    0.24848818651    0.00165018988    0.49774429521  )
        38           Ge  tau(  38) = (    0.31189434670    0.06201406680    0.56244143634  )
        39           Ge  tau(  39) = (    0.24967536622    0.00343907597    0.75051321088  )
        40           Ge  tau(  40) = (    0.31270587482    0.05938698288    0.81498698876  )
        41           Ge  tau(  41) = (    0.24863339495    0.24712292003   -0.00072706852  )
        42           Ge  tau(  42) = (    0.31456515556    0.31070165685    0.06441043628  )
        43           Ge  tau(  43) = (    0.25606563098    0.24818196693    0.24846777425  )
        44           Ge  tau(  44) = (    0.31127959774    0.31269868290    0.31047449265  )
        45           Ge  tau(  45) = (    0.25520628153    0.24900362760    0.49903027746  )
        46           Ge  tau(  46) = (    0.31217901272    0.31417606114    0.56069679773  )
        47           Ge  tau(  47) = (    0.25012053506    0.24602567799    0.75299310713  )
        48           Ge  tau(  48) = (    0.31152039156    0.31159882181    0.81635539836  )
        49           Ge  tau(  49) = (    0.25021982907    0.49793089647   -0.00235406540  )
        50           Ge  tau(  50) = (    0.31424475610    0.56403428113    0.06135899043  )
        51           Ge  tau(  51) = (    0.25017134385    0.49968532447    0.24581402203  )
        52           Ge  tau(  52) = (    0.31530028222    0.56043674979    0.31237391218  )
        53           Ge  tau(  53) = (    0.24844390574    0.50471904158    0.49924689021  )
        54           Ge  tau(  54) = (    0.30971779682    0.56304007575    0.56444044182  )
        55           Ge  tau(  55) = (    0.24983215468    0.49981017147    0.74585706442  )
        56           Ge  tau(  56) = (    0.31264924468    0.56336926978    0.81614119945  )
        57           Ge  tau(  57) = (    0.25203457833    0.74744801006   -0.00005297248  )
        58           Ge  tau(  58) = (    0.30880725737    0.81518434329    0.06372819424  )
        59           Ge  tau(  59) = (    0.24710757409    0.74872140140    0.25383375219  )
        60           Ge  tau(  60) = (    0.31351437806    0.81249662040    0.31351326119  )
        61           Ge  tau(  61) = (    0.25038285559    0.75008865263    0.49579992917  )
        62           Ge  tau(  62) = (    0.31325160415    0.81054013223    0.56253853746  )
        63           Ge  tau(  63) = (    0.24775247828    0.75203971006    0.75147508860  )
        64           Ge  tau(  64) = (    0.31695776175    0.81189019984    0.81220585360  )
        65           Ge  tau(  65) = (    0.50110576476    0.00237297772   -0.00269717023  )
        66           Ge  tau(  66) = (    0.56259413518    0.05869101658    0.06697891007  )
        67           Ge  tau(  67) = (    0.50274233865   -0.00096765473    0.24833312347  )
        68           Ge  tau(  68) = (    0.56712513987    0.06044632228    0.31069899140  )
        69           Ge  tau(  69) = (    0.49752343575   -0.00147322862    0.49978211380  )
        70           Ge  tau(  70) = (    0.56130104578    0.06127747550    0.56662064316  )
        71           Ge  tau(  71) = (    0.50237942579   -0.00009613799    0.74631187008  )
        72           Ge  tau(  72) = (    0.56746147728    0.06215772610    0.81069667692  )
        73           Ge  tau(  73) = (    0.50299358421    0.24866354764   -0.00241562496  )
        74           Ge  tau(  74) = (    0.56446822024    0.30621568547    0.06446936913  )
        75           Ge  tau(  75) = (    0.50002394750    0.24873728782    0.24902582566  )
        76           Ge  tau(  76) = (    0.56315009223    0.30884094342    0.31503362542  )
        77           Ge  tau(  77) = (    0.50037429006    0.25409696862    0.49588776439  )
        78           Ge  tau(  78) = (    0.56492670070    0.31212840638    0.55986287755  )
        79           Ge  tau(  79) = (    0.49842185175    0.24715466440    0.75113861856  )
        80           Ge  tau(  80) = (    0.56320257085    0.31372015691    0.81010257503  )
        81           Ge  tau(  81) = (    0.50021865099    0.50190784277   -0.00101805152  )
        82           Ge  tau(  82) = (    0.56647921047    0.56232089330    0.06038344716  )
        83           Ge  tau(  83) = (    0.50311570297    0.49682473126    0.24988860904  )
        84           Ge  tau(  84) = (    0.56012116074    0.56562601859    0.31039082934  )
        85           Ge  tau(  85) = (    0.50043731248    0.49679348804    0.50102844971  )
        86           Ge  tau(  86) = (    0.55875586189    0.56438579657    0.56299134808  )
        87           Ge  tau(  87) = (    0.50196703623    0.50133835748    0.74550205329  )
        88           Ge  tau(  88) = (    0.56059837953    0.56229380458    0.81067995139  )
        89           Ge  tau(  89) = (    0.49970360151    0.74950516474    0.00182215647  )
        90           Ge  tau(  90) = (    0.55981902266    0.81516632585    0.06346577126  )
        91           Ge  tau(  91) = (    0.50158710396    0.74927694221    0.24693489401  )
        92           Ge  tau(  92) = (    0.56449730671    0.81412011060    0.31030488690  )
        93           Ge  tau(  93) = (    0.50000253967    0.75305352720    0.49705093852  )
        94           Ge  tau(  94) = (    0.56041925001    0.81055084342    0.56500183070  )
        95           Ge  tau(  95) = (    0.50092560606    0.74876327317    0.75164194442  )
        96           Ge  tau(  96) = (    0.56703724053    0.81106944160    0.80969451811  )
        97           Ge  tau(  97) = (    0.75257292722   -0.00052909200   -0.00257787283  )
        98           Ge  tau(  98) = (    0.80980875567    0.06263596243    0.06617078934  )
        99           Ge  tau(  99) = (    0.75307682841   -0.00487900838    0.25153297545  )
       100           Ge  tau( 100) = (    0.81077478342    0.06298083300    0.31650663611  )
       101           Ge  tau( 101) = (    0.74850836064   -0.00223577570    0.50210964718  )
       102           Ge  tau( 102) = (    0.81168663849    0.06117096179    0.56352158110  )
       103           Ge  tau( 103) = (    0.75368394254   -0.00186916292    0.74922849498  )
       104           Ge  tau( 104) = (    0.81143432319    0.06709181180    0.80985224690  )
       105           Ge  tau( 105) = (    0.74869038174    0.25181632523   -0.00030285313  )
       106           Ge  tau( 106) = (    0.81455617744    0.31075465646    0.06374145443  )
       107           Ge  tau( 107) = (    0.75512972622    0.24822761244    0.24775729072  )
       108           Ge  tau( 108) = (    0.81307959629    0.30799169870    0.31235338971  )
       109           Ge  tau( 109) = (    0.74886109869    0.24695128484    0.50335328300  )
       110           Ge  tau( 110) = (    0.81381748895    0.30955477357    0.56349285046  )
       111           Ge  tau( 111) = (    0.75191878431    0.24854439853    0.74807039311  )
       112           Ge  tau( 112) = (    0.80905075526    0.31428746239    0.81283574904  )
       113           Ge  tau( 113) = (    0.75098499709    0.50049927743   -0.00125112045  )
       114           Ge  tau( 114) = (    0.81320104491    0.56622311146    0.06205447173  )
       115           Ge  tau( 115) = (    0.75121083645    0.49838971186    0.24811475533  )
       116           Ge  tau( 116) = (    0.81280774243    0.56206313691    0.31522749766  )
       117           Ge  tau( 117) = (    0.74994618341    0.49960683609    0.49862163311  )
       118           Ge  tau( 118) = (    0.81125552805    0.55984793037    0.56134800504  )
       119           Ge  tau( 119) = (    0.74889942066    0.49900852657    0.74660747256  )
       120           Ge  tau( 120) = (    0.81270547963    0.56331734679    0.80929547884  )
       121           Ge  tau( 121) = (    0.75370396995    0.74851272663    0.00088234838  )
       122           Ge  tau( 122) = (    0.81350734791    0.81485542392    0.06285280605  )
       123           Ge  tau( 123) = (    0.75245055932    0.75148561838    0.24999862544  )
       124           Ge  tau( 124) = (    0.81124680901    0.81071996208    0.31688155155  )
       125           Ge  tau( 125) = (    0.75203983544    0.74547008494    0.50019214623  )
       126           Ge  tau( 126) = (    0.80944919921    0.81135352822    0.56306081158  )
       127           Ge  tau( 127) = (    0.74737359806    0.75314937665    0.74871794073  )
       128           Ge  tau( 128) = (    0.81003832882    0.81556696836    0.81215969415  )

     number of k points=     8  gaussian smearing, width (Ry)=  0.0150
                       cart. coord. in units 2pi/alat
        k(    1) = (   0.0000000   0.0000000   0.0000000), wk =   0.2500000
        k(    2) = (  -0.3535534  -0.3535534   0.3535534), wk =   0.2500000
        k(    3) = (  -0.7071068   0.0000000   0.0000000), wk =   0.2500000
        k(    4) = (   0.3535534   0.3535534   0.3535534), wk =   0.2500000
        k(    5) = (   0.3535534  -0.3535534  -0.3535534), wk =   0.2500000
        k(    6) = (  -0.3535534   0.3535534  -0.3535534), wk =   0.2500000
        k(    7) = (   0.0000000  -0.7071068   0.0000000), wk =   0.2500000
        k(    8) = (   0.0000000   0.0000000  -0.7071068), wk =   0.2500000

                       cryst. coord.
        k(    1) = (   0.0000000   0.0000000   0.0000000), wk =   0.2500000
        k(    2) = (   0.0000000   0.0000000  -0.5000000), wk =   0.2500000
        k(    3) = (   0.0000000  -0.5000000  -0.5000000), wk =   0.2500000
        k(    4) = (   0.5000000   0.5000000   0.5000000), wk =   0.2500000
        k(    5) = (  -0.5000000   0.0000000   0.0000000), wk =   0.2500000
        k(    6) = (   0.0000000  -0.5000000   0.0000000), wk =   0.2500000
        k(    7) = (  -0.5000000   0.0000000  -0.5000000), wk =   0.2500000
        k(    8) = (  -0.5000000  -0.5000000   0.0000000), wk =   0.2500000

     Dense  grid:   941961 G-vectors     FFT dimensions: ( 144, 144, 144)

     Smooth grid:   551433 G-vectors     FFT dimensions: ( 120, 120, 120)

     Largest allocated arrays     est. size (Mb)     dimensions
        Kohn-Sham Wavefunctions        70.96 Mb     (    4326, 1075)
        NL pseudopotentials           152.09 Mb     (    4326, 2304)
        Each V/rho on FFT grid          2.85 Mb     (  186624)
        Each G-vector array             0.45 Mb     (   58872)
        G-vector shells                 0.02 Mb     (    3076)
     Largest temporary arrays     est. size (Mb)     dimensions
        Auxiliary wavefunctions       283.84 Mb     (    4326, 4300)
        Each subspace H/S matrix      282.14 Mb     (    4300, 4300)
        Each <psi_i|beta_j> matrix     37.79 Mb     (    2304, 1075)
        Arrays for rho mixing          22.78 Mb     (  186624,    8)

     Check: negative/imaginary core charge=   -0.000002    0.000000

     Initial potential from superposition of free atoms

     starting charge 1791.89656, renormalised to 1792.00000
     Starting wfc are 1152 randomized atomic wfcs

     total cpu time spent up to now is     1247.7 secs

     Self-consistent Calculation

     iteration #  1     ecut=    35.00 Ry     beta=0.30
     Davidson diagonalization with overlap
     ethr =  1.00E-02,  avg # of iterations =  4.1

     Threshold (ethr) on eigenvalues was too large:
     Diagonalizing with lowered threshold

     Davidson diagonalization with overlap
     ethr =  1.11E-04,  avg # of iterations =  6.9

     total cpu time spent up to now is    16220.2 secs

     total energy              =  -27288.13574306 Ry
     Harris-Foulkes estimate   =  -27288.35234044 Ry
     estimated scf accuracy    <       2.13062037 Ry

     iteration #  2     ecut=    35.00 Ry     beta=0.30
     Davidson diagonalization with overlap
     ethr =  1.19E-04,  avg # of iterations =  1.0

     total cpu time spent up to now is    19647.6 secs

     total energy              =  -27287.73694760 Ry
     Harris-Foulkes estimate   =  -27288.14299930 Ry
     estimated scf accuracy    <       1.30739716 Ry

     iteration #  3     ecut=    35.00 Ry     beta=0.30
     Davidson diagonalization with overlap
     ethr =  7.30E-05,  avg # of iterations =  2.0

     total cpu time spent up to now is    23939.5 secs

     total energy              =  -27287.80415925 Ry
     Harris-Foulkes estimate   =  -27287.80738093 Ry
     estimated scf accuracy    <       0.02418020 Ry

     iteration #  4     ecut=    35.00 Ry     beta=0.30
     Davidson diagonalization with overlap
     ethr =  1.35E-06,  avg # of iterations =  9.4

     total cpu time spent up to now is    42282.1 secs

     total energy              =  -27287.80884624 Ry
     Harris-Foulkes estimate   =  -27287.80908793 Ry
     estimated scf accuracy    <       0.00262282 Ry

     iteration #  5     ecut=    35.00 Ry     beta=0.30
     Davidson diagonalization with overlap
     ethr =  1.46E-07,  avg # of iterations =  2.0

     total cpu time spent up to now is    46985.8 secs

     total energy              =  -27287.80883683 Ry
     Harris-Foulkes estimate   =  -27287.80905127 Ry
     estimated scf accuracy    <       0.00059030 Ry

     iteration #  6     ecut=    35.00 Ry     beta=0.30
     Davidson diagonalization with overlap
     ethr =  3.29E-08,  avg # of iterations =  1.6

     total cpu time spent up to now is    50696.9 secs

     total energy              =  -27287.80887738 Ry
     Harris-Foulkes estimate   =  -27287.80885409 Ry
     estimated scf accuracy    <       0.00004420 Ry

     iteration #  7     ecut=    35.00 Ry     beta=0.30
     Davidson diagonalization with overlap
     ethr =  2.47E-09,  avg # of iterations =  2.1

     total cpu time spent up to now is    55588.2 secs

     total energy              =  -27287.80887822 Ry
     Harris-Foulkes estimate   =  -27287.80888316 Ry
     estimated scf accuracy    <       0.00004259 Ry

     iteration #  8     ecut=    35.00 Ry     beta=0.30
     Davidson diagonalization with overlap
     ethr =  2.38E-09,  avg # of iterations =  2.0

     total cpu time spent up to now is    59861.1 secs

     total energy              =  -27287.80888575 Ry
     Harris-Foulkes estimate   =  -27287.80888159 Ry
     estimated scf accuracy    <       0.00000344 Ry

     iteration #  9     ecut=    35.00 Ry     beta=0.30
     Davidson diagonalization with overlap
     ethr =  1.92E-10,  avg # of iterations =  3.0

     total cpu time spent up to now is    65219.8 secs

     total energy              =  -27287.80888445 Ry
     Harris-Foulkes estimate   =  -27287.80888681 Ry
     estimated scf accuracy    <       0.00000867 Ry

     iteration # 10     ecut=    35.00 Ry     beta=0.30
     Davidson diagonalization with overlap
     ethr =  1.92E-10,  avg # of iterations =  2.0

     total cpu time spent up to now is    70474.2 secs

     total energy              =  -27287.80888607 Ry
     Harris-Foulkes estimate   =  -27287.80888534 Ry
     estimated scf accuracy    <       0.00000003 Ry

     iteration # 11     ecut=    35.00 Ry     beta=0.30
     Davidson diagonalization with overlap
     ethr =  1.66E-12,  avg # of iterations =  2.6

     total cpu time spent up to now is    76334.3 secs

     total energy              =  -27287.80888643 Ry
     Harris-Foulkes estimate   =  -27287.80888607 Ry
     estimated scf accuracy    <          6.2E-09 Ry

     iteration # 12     ecut=    35.00 Ry     beta=0.30
     Davidson diagonalization with overlap
     ethr =  3.44E-13,  avg # of iterations =  2.6

     total cpu time spent up to now is    81222.6 secs

     End of self-consistent calculation

          k = 0.0000 0.0000 0.0000 ( 69041 PWs)   bands (ev):

   -16.7254 -16.7147 -16.7134 -16.7117 -16.7074 -16.7027 -16.6980 -16.6929
   -16.6919 -16.6879 -16.6866 -16.6851 -16.6834 -16.6824 -16.6802 -16.6789
   -16.6780 -16.6776 -16.6765 -16.6754 -16.6743 -16.6737 -16.6714 -16.6711
   -16.6692 -16.6688 -16.6673 -16.6662 -16.6661 -16.6655 -16.6645 -16.6633
   -16.6632 -16.6625 -16.6618 -16.6612 -16.6602 -16.6598 -16.6592 -16.6579
   -16.6578 -16.6563 -16.6555 -16.6551 -16.6543 -16.6538 -16.6535 -16.6524
   -16.6517 -16.6512 -16.6505 -16.6485 -16.6481 -16.6480 -16.6473 -16.6468
   -16.6457 -16.6454 -16.6449 -16.6444 -16.6432 -16.6419 -16.6417 -16.6403
   -16.6391 -16.6389 -16.6382 -16.6380 -16.6374 -16.6366 -16.6360 -16.6353
   -16.6347 -16.6345 -16.6338 -16.6323 -16.6322 -16.6310 -16.6295 -16.6289
   -16.6284 -16.6272 -16.6268 -16.6257 -16.6255 -16.6253 -16.6244 -16.6230
   -16.6228 -16.6217 -16.6212 -16.6207 -16.6196 -16.6189 -16.6186 -16.6180
   -16.6169 -16.6160 -16.6159 -16.6146 -16.6144 -16.6134 -16.6130 -16.6127
   -16.6121 -16.6115 -16.6106 -16.6093 -16.6086 -16.6081 -16.6071 -16.6061
   -16.6050 -16.6047 -16.6040 -16.6031 -16.6028 -16.6025 -16.5999 -16.5990
   -16.5989 -16.5982 -16.5974 -16.5964 -16.5959 -16.5939 -16.5936 -16.5935
   -16.5915 -16.5908 -16.5905 -16.5891 -16.5877 -16.5876 -16.5865 -16.5856
   -16.5836 -16.5830 -16.5829 -16.5816 -16.5815 -16.5812 -16.5802 -16.5790
   -16.5783 -16.5775 -16.5765 -16.5753 -16.5737 -16.5727 -16.5723 -16.5720
   -16.5716 -16.5702 -16.5697 -16.5693 -16.5688 -16.5678 -16.5676 -16.5666
   -16.5658 -16.5645 -16.5638 -16.5637 -16.5629 -16.5625 -16.5616 -16.5610
   -16.5601 -16.5599 -16.5589 -16.5582 -16.5577 -16.5573 -16.5560 -16.5557
   -16.5553 -16.5548 -16.5537 -16.5532 -16.5523 -16.5518 -16.5513 -16.5504
   -16.5492 -16.5488 -16.5479 -16.5475 -16.5474 -16.5463 -16.5460 -16.5457
   -16.5443 -16.5440 -16.5433 -16.5425 -16.5417 -16.5413 -16.5408 -16.5394
   -16.5390 -16.5384 -16.5382 -16.5363 -16.5359 -16.5357 -16.5348 -16.5346
   -16.5336 -16.5333 -16.5322 -16.5317 -16.5312 -16.5299 -16.5297 -16.5289
   -16.5278 -16.5273 -16.5266 -16.5261 -16.5255 -16.5252 -16.5246 -16.5236
   -16.5230 -16.5220 -16.5209 -16.5207 -16.5203 -16.5201 -16.5186 -16.5175
   -16.5168 -16.5154 -16.5144 -16.5141 -16.5132 -16.5125 -16.5117 -16.5112
   -16.5103 -16.5097 -16.5091 -16.5082 -16.5080 -16.5076 -16.5071 -16.5059
   -16.5053 -16.5044 -16.5035 -16.5030 -16.5024 -16.5020 -16.5014 -16.5008
   -16.4998 -16.4997 -16.4986 -16.4980 -16.4971 -16.4965 -16.4960 -16.4955
   -16.4952 -16.4946 -16.4938 -16.4935 -16.4930 -16.4921 -16.4917 -16.4913
   -16.4907 -16.4899 -16.4891 -16.4883 -16.4876 -16.4868 -16.4866 -16.4861
   -16.4856 -16.4847 -16.4835 -16.4833 -16.4828 -16.4821 -16.4816 -16.4808
   -16.4802 -16.4799 -16.4792 -16.4785 -16.4778 -16.4774 -16.4764 -16.4763
   -16.4758 -16.4747 -16.4741 -16.4728 -16.4722 -16.4716 -16.4705 -16.4700
   -16.4692 -16.4687 -16.4680 -16.4671 -16.4670 -16.4663 -16.4660 -16.4657
   -16.4654 -16.4642 -16.4634 -16.4628 -16.4625 -16.4623 -16.4620 -16.4608
   -16.4597 -16.4593 -16.4586 -16.4579 -16.4574 -16.4570 -16.4565 -16.4560
   -16.4556 -16.4552 -16.4549 -16.4533 -16.4529 -16.4518 -16.4514 -16.4503
   -16.4502 -16.4499 -16.4490 -16.4485 -16.4481 -16.4474 -16.4468 -16.4459
   -16.4457 -16.4447 -16.4440 -16.4433 -16.4430 -16.4422 -16.4415 -16.4403
   -16.4400 -16.4387 -16.4375 -16.4370 -16.4366 -16.4362 -16.4353 -16.4345
   -16.4339 -16.4333 -16.4332 -16.4321 -16.4312 -16.4305 -16.4302 -16.4296
   -16.4292 -16.4282 -16.4271 -16.4263 -16.4260 -16.4253 -16.4247 -16.4240
   -16.4231 -16.4220 -16.4212 -16.4207 -16.4196 -16.4188 -16.4181 -16.4171
   -16.4167 -16.4163 -16.4152 -16.4150 -16.4140 -16.4132 -16.4131 -16.4125
   -16.4119 -16.4110 -16.4104 -16.4101 -16.4092 -16.4089 -16.4082 -16.4078
   -16.4072 -16.4071 -16.4067 -16.4060 -16.4053 -16.4052 -16.4044 -16.4042
   -16.4038 -16.4034 -16.4030 -16.4023 -16.4018 -16.4013 -16.4004 -16.4003
   -16.3990 -16.3986 -16.3975 -16.3971 -16.3968 -16.3963 -16.3962 -16.3956
   -16.3949 -16.3947 -16.3942 -16.3938 -16.3931 -16.3923 -16.3922 -16.3915
   -16.3909 -16.3905 -16.3898 -16.3895 -16.3889 -16.3883 -16.3882 -16.3869
   -16.3867 -16.3861 -16.3852 -16.3846 -16.3841 -16.3837 -16.3836 -16.3829
   -16.3822 -16.3820 -16.3815 -16.3806 -16.3797 -16.3795 -16.3791 -16.3784
   -16.3778 -16.3772 -16.3769 -16.3766 -16.3761 -16.3754 -16.3752 -16.3748
   -16.3746 -16.3740 -16.3733 -16.3723 -16.3717 -16.3711 -16.3709 -16.3701
   -16.3689 -16.3686 -16.3678 -16.3674 -16.3674 -16.3666 -16.3662 -16.3647
   -16.3643 -16.3642 -16.3634 -16.3633 -16.3626 -16.3623 -16.3615 -16.3607
   -16.3604 -16.3595 -16.3591 -16.3583 -16.3576 -16.3572 -16.3563 -16.3557
   -16.3556 -16.3546 -16.3543 -16.3535 -16.3524 -16.3513 -16.3504 -16.3502
   -16.3491 -16.3474 -16.3466 -16.3454 -16.3451 -16.3444 -16.3438 -16.3426
   -16.3406 -16.3401 -16.3398 -16.3397 -16.3387 -16.3374 -16.3370 -16.3364
   -16.3355 -16.3346 -16.3343 -16.3330 -16.3324 -16.3319 -16.3309 -16.3306
   -16.3297 -16.3288 -16.3281 -16.3277 -16.3269 -16.3265 -16.3257 -16.3253
   -16.3251 -16.3249 -16.3238 -16.3225 -16.3223 -16.3217 -16.3213 -16.3206
   -16.3198 -16.3194 -16.3191 -16.3186 -16.3176 -16.3175 -16.3171 -16.3159
   -16.3155 -16.3152 -16.3146 -16.3144 -16.3135 -16.3133 -16.3128 -16.3122
   -16.3120 -16.3117 -16.3113 -16.3106 -16.3100 -16.3097 -16.3083 -16.3083
   -16.3078 -16.3074 -16.3073 -16.3062 -16.3055 -16.3049 -16.3041 -16.3037
   -16.3030 -16.3025 -16.3023 -16.3015 -16.3003 -16.3000 -16.2998 -16.2992
   -16.2991 -16.2975 -16.2971 -16.2970 -16.2965 -16.2960 -16.2953 -16.2948
   -16.2939 -16.2934 -16.2929 -16.2922 -16.2921 -16.2909 -16.2900 -16.2893
   -16.2888 -16.2883 -16.2881 -16.2866 -16.2856 -16.2843 -16.2838 -16.2837
   -16.2831 -16.2825 -16.2819 -16.2810 -16.2803 -16.2795 -16.2788 -16.2775
   -16.2771 -16.2759 -16.2753 -16.2733 -16.2733 -16.2725 -16.2719 -16.2713
   -16.2705 -16.2700 -16.2687 -16.2683 -16.2666 -16.2650 -16.2640 -16.2625
   -16.2616 -16.2603 -16.2594 -16.2586 -16.2574 -16.2509 -16.2496 -16.2489
    -4.5205  -3.8361  -3.8300  -3.7992  -3.7898  -3.7803  -3.7661  -3.7505
    -3.7434  -3.5406  -3.5272  -3.5206  -3.5026  -3.4968  -3.4815  -2.7099
    -2.7028  -2.6909  -2.6827  -2.6768  -2.6518  -2.6478  -2.6421  -2.6284
    -2.6174  -2.5974  -2.5772  -2.4620  -2.4545  -2.4379  -2.4054  -2.1363
    -2.1306  -2.1174  -2.1082  -2.1000  -2.0873  -2.0868  -2.0723  -2.0667
    -2.0514  -2.0443  -2.0311  -2.0245  -2.0148  -1.9959  -1.9937  -1.9693
    -1.9631  -1.9612  -1.9472  -1.9358  -1.9278  -1.9235  -1.9003  -0.7515
    -0.7177  -0.6825  -0.6683  -0.6539  -0.6286  -0.6168  -0.6083  -0.5865
    -0.5651  -0.5595  -0.5377  -0.5215  -0.5110  -0.4979  -0.4753  -0.4640
    -0.4567   0.5574   0.6034   0.6255   0.6516   0.6954   0.7319   0.7470
     0.7706   0.7806   0.7873   0.8000   0.8156   0.8253   0.8293   0.8387
     0.8560   0.8685   0.8754   0.8777   0.8841   0.8925   0.8984   0.9053
     0.9248   0.9384   0.9613   0.9756   0.9970   1.6259   1.6358   1.6508
     1.6566   1.6723   1.7037   1.7214   1.7331   1.7466   1.7655   1.7826
     1.7868   3.4025   3.4238   3.4371   3.4481   3.4663   3.4776   3.4777
     3.5002   3.5141   3.5255   3.5322   3.5412   3.5646   3.5722   4.2441
     4.2663   4.2781   4.2846   4.2881   4.2901   4.3011   4.3096   4.3131
     4.3205   4.3244   4.3293   4.3338   4.3442   4.3502   4.3521   4.3580
     4.3621   4.3700   4.3741   4.3780   4.3828   4.3890   4.4009   4.4356
     4.4504   4.4566   4.4696   4.4756   4.4835   4.4955   4.4994   4.5077
     4.5109   4.5155   4.5204   4.5258   4.5282   4.5319   4.5323   4.5448
     4.5488   4.5587   4.5633   4.5690   4.5732   4.5812   4.5903   5.1435
     5.1564   5.1651   5.1749   5.1757   5.1917   5.7526   5.7644   5.7711
     5.7744   5.7818   5.7959   5.7970   5.8118   5.8165   5.8199   5.8246
     5.8291   5.8399   5.8431   5.8523   5.8530   5.8583   5.8647   5.8739
     5.8804   5.8886   5.8938   5.9013   5.9103   6.1445   6.1541   6.1637
     6.1731   6.1825   6.1945   6.2043   6.2171   6.2386   6.2447   6.2551
     6.2719   6.6556   6.6594   6.6781   6.6987   6.7138   6.7160   6.7252
     6.7407   6.7463   6.7729   6.7761   6.7824   6.7972   6.8033   6.8358
     6.8420   6.8533   6.8759   6.8905   6.9140   7.2338   7.2707   7.3067
     7.3158   7.3295   7.3393   7.3408   7.3612   7.3690   7.3774   7.3950
     7.3990   7.4291   7.4328   7.4412   7.4588   8.1324   8.1796   8.2484
     8.2766   8.2955   8.3071   8.3165   8.3420   8.7511   8.7716   8.7748
     8.7895   8.8016   8.8109   8.8139   8.8382   8.8476   8.8718   8.8948
     8.9045   8.9107   8.9418   9.1115   9.1361   9.1541   9.1710   9.1788
     9.2004   9.4495   9.4595   9.4759   9.4908   9.4954   9.5154   9.5247
     9.5251   9.5449   9.5472   9.5550   9.5592   9.5654   9.5723   9.5813
     9.5910   9.5959   9.6042   9.6124   9.6170   9.6274   9.6309   9.6393
     9.6616  10.0509  10.0763  10.0815  10.0904  10.1056  10.1144  10.1194
    10.1231  10.1433  10.1519  10.1658  10.1854  10.6991  10.7290  10.7889
    10.8666  10.8716  10.8830  10.8878  10.9022  10.9069  11.6821  11.6873
    11.7065  11.7419  11.7514  11.7603  11.7740  11.7812  11.8041  11.8126
    11.8148  11.8187  11.8340  11.8389  11.8524  11.8755  11.8851  11.8943
    11.9049  11.9281  11.9569  11.9669  11.9846  12.0102  12.2560  12.2731
    12.2802  12.2976  12.3014  12.3153  12.3161  12.3221  12.3308  12.3325
    12.3439  12.3479  12.3535  12.3685  12.3712  12.3785  12.3854  12.3888
    12.3931  12.3973  12.4027  12.4038  12.4229  12.4328  12.4495  12.4637
    12.4713  12.4781  12.4823  12.4908  12.4992  12.5110  12.5224  12.5284
    12.5346  12.5459  12.7702  12.7862  12.8028  12.8193  12.8223  12.8363
    12.8424  12.8598  12.8741  12.8831  12.8884  12.9002  12.9086  12.9199
    12.9443  12.9542  12.9673  12.9830  12.9973  13.0055  13.0267  13.0398
    13.0454  13.0676  13.1772  13.2017  13.2055  13.2176  13.2236  13.2303
    13.2402  13.2583  13.2667  13.2703  13.2811  13.3037  13.3752  13.3836
    13.3874  13.3970  13.4085  13.4145  13.4229  13.4340  13.4384  13.4470
    13.4543  13.4591  13.4976

     occupation numbers 
     1.0000   1.0000   1.0000   1.0000   1.0000   1.0000   1.0000   1.0000
     1.0000   1.0000   1.0000   1.0000   1.0000   1.0000   1.0000   1.0000
     1.0000   1.0000   1.0000   1.0000   1.0000   1.0000   1.0000   1.0000
     1.0000   1.0000   1.0000   1.0000   1.0000   1.0000   1.0000   1.0000
     1.0000   1.0000   1.0000   1.0000   1.0000   1.0000   1.0000   1.0000
     1.0000   1.0000   1.0000   1.0000   1.0000   1.0000   1.0000   1.0000
     1.0000   1.0000   1.0000   1.0000   1.0000   1.0000   1.0000   1.0000
     1.0000   1.0000   1.0000   1.0000   1.0000   1.0000   1.0000   1.0000
     1.0000   1.0000   1.0000   1.0000   1.0000   1.0000   1.0000   1.0000
     1.0000   1.0000   1.0000   1.0000   1.0000   1.0000   1.0000   1.0000
     1.0000   1.0000   1.0000   1.0000   1.0000   1.0000   1.0000   1.0000
     1.0000   1.0000   1.0000   1.0000   1.0000   1.0000   1.0000   1.0000
     1.0000   1.0000   1.0000   1.0000   1.0000   1.0000   1.0000   1.0000
     1.0000   1.0000   1.0000   1.0000   1.0000   1.0000   1.0000   1.0000
     1.0000   1.0000   1.0000   1.0000   1.0000   1.0000   1.0000   1.0000
     1.0000   1.0000   1.0000   1.0000   1.0000   1.0000   1.0000   1.0000
     1.0000   1.0000   1.0000   1.0000   1.0000   1.0000   1.0000   1.0000
     1.0000   1.0000   1.0000   1.0000   1.0000   1.0000   1.0000   1.0000
     1.0000   1.0000   1.0000   1.0000   1.0000   1.0000   1.0000   1.0000
     1.0000   1.0000   1.0000   1.0000   1.0000   1.0000   1.0000   1.0000
     1.0000   1.0000   1.0000   1.0000   1.0000   1.0000   1.0000   1.0000
     1.0000   1.0000   1.0000   1.0000   1.0000   1.0000   1.0000   1.0000
     1.0000   1.0000   1.0000   1.0000   1.0000   1.0000   1.0000   1.0000
     1.0000   1.0000   1.0000   1.0000   1.0000   1.0000   1.0000   1.0000
     1.0000   1.0000   1.0000   1.0000   1.0000   1.0000   1.0000   1.0000
     1.0000   1.0000   1.0000   1.0000   1.0000   1.0000   1.0000   1.0000
     1.0000   1.0000   1.0000   1.0000   1.0000   1.0000   1.0000   1.0000
     1.0000   1.0000   1.0000   1.0000   1.0000   1.0000   1.0000   1.0000
     1.0000   1.0000   1.0000   1.0000   1.0000   1.0000   1.0000   1.0000
     1.0000   1.0000   1.0000   1.0000   1.0000   1.0000   1.0000   1.0000
     1.0000   1.0000   1.0000   1.0000   1.0000   1.0000   1.0000   1.0000
     1.0000   1.0000   1.0000   1.0000   1.0000   1.0000   1.0000   1.0000
     1.0000   1.0000   1.0000   1.0000   1.0000   1.0000   1.0000   1.0000
     1.0000   1.0000   1.0000   1.0000   1.0000   1.0000   1.0000   1.0000
     1.0000   1.0000   1.0000   1.0000   1.0000   1.0000   1.0000   1.0000
     1.0000   1.0000   1.0000   1.0000   1.0000   1.0000   1.0000   1.0000
     1.0000   1.0000   1.0000   1.0000   1.0000   1.0000   1.0000   1.0000
     1.0000   1.0000   1.0000   1.0000   1.0000   1.0000   1.0000   1.0000
     1.0000   1.0000   1.0000   1.0000   1.0000   1.0000   1.0000   1.0000
     1.0000   1.0000   1.0000   1.0000   1.0000   1.0000   1.0000   1.0000
     1.0000   1.0000   1.0000   1.0000   1.0000   1.0000   1.0000   1.0000
     1.0000   1.0000   1.0000   1.0000   1.0000   1.0000   1.0000   1.0000
     1.0000   1.0000   1.0000   1.0000   1.0000   1.0000   1.0000   1.0000
     1.0000   1.0000   1.0000   1.0000   1.0000   1.0000   1.0000   1.0000
     1.0000   1.0000   1.0000   1.0000   1.0000   1.0000   1.0000   1.0000
     1.0000   1.0000   1.0000   1.0000   1.0000   1.0000   1.0000   1.0000
     1.0000   1.0000   1.0000   1.0000   1.0000   1.0000   1.0000   1.0000
     1.0000   1.0000   1.0000   1.0000   1.0000   1.0000   1.0000   1.0000
     1.0000   1.0000   1.0000   1.0000   1.0000   1.0000   1.0000   1.0000
     1.0000   1.0000   1.0000   1.0000   1.0000   1.0000   1.0000   1.0000
     1.0000   1.0000   1.0000   1.0000   1.0000   1.0000   1.0000   1.0000
     1.0000   1.0000   1.0000   1.0000   1.0000   1.0000   1.0000   1.0000
     1.0000   1.0000   1.0000   1.0000   1.0000   1.0000   1.0000   1.0000
     1.0000   1.0000   1.0000   1.0000   1.0000   1.0000   1.0000   1.0000
     1.0000   1.0000   1.0000   1.0000   1.0000   1.0000   1.0000   1.0000
     1.0000   1.0000   1.0000   1.0000   1.0000   1.0000   1.0000   1.0000
     1.0000   1.0000   1.0000   1.0000   1.0000   1.0000   1.0000   1.0000
     1.0000   1.0000   1.0000   1.0000   1.0000   1.0000   1.0000   1.0000
     1.0000   1.0000   1.0000   1.0000   1.0000   1.0000   1.0000   1.0000
     1.0000   1.0000   1.0000   1.0000   1.0000   1.0000   1.0000   1.0000
     1.0000   1.0000   1.0000   1.0000   1.0000   1.0000   1.0000   1.0000
     1.0000   1.0000   1.0000   1.0000   1.0000   1.0000   1.0000   1.0000
     1.0000   1.0000   1.0000   1.0000   1.0000   1.0000   1.0000   1.0000
     1.0000   1.0000   1.0000   1.0000   1.0000   1.0000   1.0000   1.0000
     1.0000   1.0000   1.0000   1.0000   1.0000   1.0000   1.0000   1.0000
     1.0000   1.0000   1.0000   1.0000   1.0000   1.0000   1.0000   1.0000
     1.0000   1.0000   1.0000   1.0000   1.0000   1.0000   1.0000   1.0000
     1.0000   1.0000   1.0000   1.0000   1.0000   1.0000   1.0000   1.0000
     1.0000   1.0000   1.0000   1.0000   1.0000   1.0000   1.0000   1.0000
     1.0000   1.0000   1.0000   1.0000   1.0000   1.0000   1.0000   1.0000
     1.0000   1.0000   1.0000   1.0000   1.0000   1.0000   1.0000   1.0000
     1.0000   1.0000   1.0000   1.0000   1.0000   1.0000   1.0000   1.0000
     1.0000   1.0000   1.0000   1.0000   1.0000   1.0000   1.0000   1.0000
     1.0000   1.0000   1.0000   1.0000   1.0000   1.0000   1.0000   1.0000
     1.0000   1.0000   1.0000   1.0000   1.0000   1.0000   1.0000   1.0000
     1.0000   1.0000   1.0000   1.0000   1.0000   1.0000   1.0000   1.0000
     1.0000   1.0000   1.0000   1.0000   1.0000   1.0000   1.0000   1.0000
     1.0000   1.0000   1.0000   1.0000   1.0000   1.0000   1.0000   1.0000
     1.0000   1.0000   1.0000   1.0000   1.0000   1.0000   1.0000   1.0000
     1.0000   1.0000   1.0000   1.0000   1.0000   1.0000   1.0000   1.0000
     1.0000   1.0000   1.0000   1.0000   1.0000   1.0000   1.0000   1.0000
     1.0000   1.0000   1.0000   1.0000   1.0000   1.0000   1.0000   1.0000
     1.0000   1.0000   1.0000   1.0000   1.0000   1.0000   1.0000   1.0000
     1.0000   1.0000   1.0000   1.0000   1.0000   1.0000   1.0000   1.0000
     1.0000   1.0000   1.0000   1.0000   1.0000   1.0000   1.0000   1.0000
     1.0000   1.0000   1.0000   1.0000   1.0000   1.0000   1.0000   1.0000
     1.0000   1.0000   1.0000   1.0000   1.0000   1.0000   1.0000   1.0000
     1.0000   1.0000   1.0000   1.0000   1.0000   1.0000   1.0000   1.0000
     1.0000   1.0000   1.0000   1.0000   1.0000   1.0000   1.0000   1.0000
     1.0000   1.0000   1.0000   1.0000   1.0000   1.0000   1.0000   1.0000
     1.0000   1.0000   1.0000   1.0000   1.0000   1.0000   1.0000   1.0000
     1.0000   1.0000   1.0000   1.0000   1.0000   1.0000   1.0000   1.0000
     1.0000   1.0000   1.0000   1.0000   1.0000   1.0000   1.0000   1.0000
     1.0000   1.0000   1.0000   1.0000   1.0000   1.0000   1.0000   1.0000
     1.0000   1.0000   1.0000   1.0000   1.0000   1.0000   1.0000   1.0000
     1.0000   1.0000   1.0000   1.0000   1.0000   1.0000   1.0000   1.0000
     1.0000   1.0000   1.0000   1.0000   1.0000   1.0000   1.0000   1.0000
     1.0000   1.0000   1.0000   1.0000   1.0000   1.0000   1.0000   1.0000
     1.0000   1.0000   1.0000   1.0000   1.0000   1.0000   1.0000   1.0000
     1.0000   1.0000   1.0000   1.0000   1.0000   1.0000   1.0000   1.0000
     1.0000   1.0000   1.0000   1.0000   1.0000   1.0000   1.0000   1.0000
     1.0000   1.0000   1.0000   1.0000   1.0000   1.0000   1.0000   1.0000
     1.0000   1.0000   1.0000   1.0000   1.0000   1.0000   1.0000   1.0000
     1.0000   1.0000   1.0000   1.0000   1.0000   1.0000   1.0000   1.0000
     1.0000   1.0000   1.0000   1.0000   1.0000   1.0000   1.0000   1.0000
     1.0000   1.0000   1.0000   1.0000   1.0000   1.0000   1.0000   1.0000
     1.0000   1.0000   1.0000   1.0000   1.0000   1.0000   1.0000   1.0000
     1.0000   1.0000   1.0000   1.0000   1.0000   1.0000   1.0000   1.0000
     1.0000   1.0000   1.0000   1.0000   1.0000   1.0000   1.0000   1.0000
     1.0000   1.0000   1.0000   1.0000   1.0000   1.0000   1.0000   1.0000
     1.0000   1.0000   1.0000   1.0000   1.0000   1.0000   1.0000   1.0000
     1.0000   1.0000   1.0000   1.0000   1.0000   0.7091   0.5885   0.4000
     0.3271   0.2812   0.2548   0.2343   0.1837   0.0001   0.0001   0.0000
     0.0000   0.0000   0.0000   0.0000   0.0000   0.0000   0.0000   0.0000
     0.0000   0.0000   0.0000   0.0000   0.0000   0.0000   0.0000   0.0000
     0.0000   0.0000   0.0000   0.0000   0.0000   0.0000   0.0000   0.0000
     0.0000   0.0000   0.0000   0.0000   0.0000   0.0000   0.0000   0.0000
     0.0000   0.0000   0.0000   0.0000   0.0000   0.0000   0.0000   0.0000
     0.0000   0.0000   0.0000   0.0000   0.0000   0.0000   0.0000   0.0000
     0.0000   0.0000   0.0000   0.0000   0.0000   0.0000   0.0000   0.0000
     0.0000   0.0000   0.0000   0.0000   0.0000   0.0000   0.0000   0.0000
     0.0000   0.0000   0.0000   0.0000   0.0000   0.0000   0.0000   0.0000
     0.0000   0.0000   0.0000   0.0000   0.0000   0.0000   0.0000   0.0000
     0.0000   0.0000   0.0000   0.0000   0.0000   0.0000   0.0000   0.0000
     0.0000   0.0000   0.0000   0.0000   0.0000   0.0000   0.0000   0.0000
     0.0000   0.0000   0.0000   0.0000   0.0000   0.0000   0.0000   0.0000
     0.0000   0.0000   0.0000   0.0000   0.0000   0.0000   0.0000   0.0000
     0.0000   0.0000   0.0000   0.0000   0.0000   0.0000   0.0000   0.0000
     0.0000   0.0000   0.0000   0.0000   0.0000   0.0000   0.0000   0.0000
     0.0000   0.0000   0.0000   0.0000   0.0000   0.0000   0.0000   0.0000
     0.0000   0.0000   0.0000   0.0000   0.0000   0.0000   0.0000   0.0000
     0.0000   0.0000   0.0000   0.0000   0.0000   0.0000   0.0000   0.0000
     0.0000   0.0000   0.0000   0.0000   0.0000   0.0000   0.0000   0.0000
     0.0000   0.0000   0.0000   0.0000   0.0000   0.0000   0.0000   0.0000
     0.0000   0.0000   0.0000

          k =-0.3536-0.3536 0.3536 ( 68884 PWs)   bands (ev):

   -16.7254 -16.7150 -16.7129 -16.7116 -16.7074 -16.7025 -16.6979 -16.6928
   -16.6918 -16.6876 -16.6864 -16.6847 -16.6834 -16.6824 -16.6803 -16.6794
   -16.6787 -16.6774 -16.6764 -16.6749 -16.6738 -16.6732 -16.6712 -16.6711
   -16.6692 -16.6680 -16.6668 -16.6666 -16.6663 -16.6650 -16.6649 -16.6634
   -16.6633 -16.6629 -16.6618 -16.6614 -16.6604 -16.6595 -16.6593 -16.6582
   -16.6572 -16.6565 -16.6560 -16.6551 -16.6547 -16.6534 -16.6529 -16.6525
   -16.6521 -16.6509 -16.6507 -16.6499 -16.6492 -16.6481 -16.6474 -16.6465
   -16.6459 -16.6452 -16.6451 -16.6443 -16.6432 -16.6431 -16.6424 -16.6408
   -16.6398 -16.6386 -16.6384 -16.6380 -16.6375 -16.6371 -16.6365 -16.6354
   -16.6351 -16.6345 -16.6339 -16.6317 -16.6315 -16.6311 -16.6302 -16.6294
   -16.6286 -16.6282 -16.6272 -16.6261 -16.6251 -16.6245 -16.6243 -16.6237
   -16.6227 -16.6220 -16.6210 -16.6206 -16.6201 -16.6189 -16.6180 -16.6173
   -16.6168 -16.6165 -16.6159 -16.6153 -16.6152 -16.6137 -16.6133 -16.6129
   -16.6124 -16.6112 -16.6106 -16.6097 -16.6088 -16.6080 -16.6074 -16.6059
   -16.6056 -16.6042 -16.6035 -16.6032 -16.6023 -16.6017 -16.6008 -16.5992
   -16.5987 -16.5976 -16.5973 -16.5969 -16.5954 -16.5943 -16.5937 -16.5922
   -16.5918 -16.5908 -16.5899 -16.5896 -16.5886 -16.5878 -16.5861 -16.5859
   -16.5849 -16.5833 -16.5829 -16.5826 -16.5815 -16.5802 -16.5789 -16.5788
   -16.5779 -16.5761 -16.5757 -16.5741 -16.5732 -16.5722 -16.5718 -16.5715
   -16.5709 -16.5702 -16.5695 -16.5691 -16.5687 -16.5680 -16.5671 -16.5660
   -16.5653 -16.5640 -16.5637 -16.5636 -16.5628 -16.5623 -16.5612 -16.5606
   -16.5604 -16.5598 -16.5583 -16.5577 -16.5575 -16.5565 -16.5562 -16.5555
   -16.5548 -16.5538 -16.5533 -16.5524 -16.5523 -16.5514 -16.5504 -16.5495
   -16.5487 -16.5483 -16.5475 -16.5467 -16.5465 -16.5453 -16.5442 -16.5438
   -16.5436 -16.5432 -16.5426 -16.5416 -16.5410 -16.5407 -16.5399 -16.5390
   -16.5381 -16.5378 -16.5370 -16.5361 -16.5358 -16.5346 -16.5344 -16.5336
   -16.5330 -16.5320 -16.5316 -16.5312 -16.5307 -16.5303 -16.5294 -16.5292
   -16.5280 -16.5271 -16.5267 -16.5259 -16.5252 -16.5252 -16.5241 -16.5241
   -16.5234 -16.5224 -16.5219 -16.5211 -16.5205 -16.5202 -16.5190 -16.5185
   -16.5181 -16.5172 -16.5168 -16.5160 -16.5150 -16.5149 -16.5137 -16.5134
   -16.5127 -16.5122 -16.5116 -16.5107 -16.5107 -16.5100 -16.5088 -16.5074
   -16.5070 -16.5058 -16.5053 -16.5046 -16.5040 -16.5037 -16.5034 -16.5026
   -16.5021 -16.5009 -16.5003 -16.4991 -16.4985 -16.4982 -16.4974 -16.4972
   -16.4958 -16.4951 -16.4946 -16.4945 -16.4939 -16.4932 -16.4920 -16.4914
   -16.4910 -16.4905 -16.4897 -16.4888 -16.4882 -16.4880 -16.4871 -16.4854
   -16.4845 -16.4843 -16.4836 -16.4827 -16.4826 -16.4821 -16.4815 -16.4809
   -16.4807 -16.4801 -16.4792 -16.4784 -16.4778 -16.4767 -16.4766 -16.4760
   -16.4759 -16.4746 -16.4742 -16.4735 -16.4728 -16.4721 -16.4711 -16.4710
   -16.4696 -16.4689 -16.4684 -16.4679 -16.4672 -16.4668 -16.4655 -16.4650
   -16.4645 -16.4632 -16.4628 -16.4621 -16.4613 -16.4609 -16.4603 -16.4597
   -16.4595 -16.4588 -16.4579 -16.4576 -16.4572 -16.4557 -16.4553 -16.4545
   -16.4534 -16.4529 -16.4526 -16.4515 -16.4510 -16.4507 -16.4504 -16.4485
   -16.4483 -16.4475 -16.4468 -16.4467 -16.4456 -16.4449 -16.4447 -16.4430
   -16.4423 -16.4415 -16.4408 -16.4403 -16.4399 -16.4395 -16.4388 -16.4383
   -16.4379 -16.4370 -16.4361 -16.4357 -16.4355 -16.4354 -16.4347 -16.4334
   -16.4329 -16.4327 -16.4324 -16.4311 -16.4303 -16.4296 -16.4290 -16.4287
   -16.4283 -16.4275 -16.4271 -16.4270 -16.4255 -16.4249 -16.4247 -16.4240
   -16.4232 -16.4228 -16.4225 -16.4222 -16.4215 -16.4201 -16.4200 -16.4197
   -16.4189 -16.4183 -16.4176 -16.4163 -16.4151 -16.4146 -16.4138 -16.4136
   -16.4133 -16.4126 -16.4118 -16.4111 -16.4107 -16.4100 -16.4095 -16.4091
   -16.4086 -16.4082 -16.4070 -16.4066 -16.4057 -16.4055 -16.4044 -16.4037
   -16.4027 -16.4026 -16.4024 -16.4022 -16.4014 -16.4012 -16.4007 -16.4004
   -16.3995 -16.3987 -16.3985 -16.3974 -16.3971 -16.3964 -16.3961 -16.3959
   -16.3948 -16.3945 -16.3942 -16.3939 -16.3932 -16.3924 -16.3922 -16.3917
   -16.3910 -16.3903 -16.3898 -16.3896 -16.3890 -16.3888 -16.3886 -16.3876
   -16.3867 -16.3864 -16.3859 -16.3854 -16.3850 -16.3846 -16.3840 -16.3831
   -16.3830 -16.3827 -16.3822 -16.3818 -16.3814 -16.3801 -16.3800 -16.3794
   -16.3792 -16.3787 -16.3777 -16.3772 -16.3770 -16.3769 -16.3761 -16.3757
   -16.3745 -16.3739 -16.3737 -16.3728 -16.3726 -16.3717 -16.3714 -16.3707
   -16.3698 -16.3692 -16.3691 -16.3686 -16.3678 -16.3663 -16.3655 -16.3652
   -16.3649 -16.3643 -16.3637 -16.3633 -16.3623 -16.3618 -16.3612 -16.3598
   -16.3584 -16.3583 -16.3580 -16.3572 -16.3570 -16.3562 -16.3552 -16.3550
   -16.3541 -16.3537 -16.3524 -16.3512 -16.3510 -16.3506 -16.3496 -16.3487
   -16.3478 -16.3477 -16.3466 -16.3464 -16.3442 -16.3439 -16.3431 -16.3427
   -16.3424 -16.3415 -16.3406 -16.3401 -16.3394 -16.3386 -16.3371 -16.3365
   -16.3360 -16.3339 -16.3333 -16.3331 -16.3329 -16.3316 -16.3313 -16.3312
   -16.3301 -16.3292 -16.3285 -16.3279 -16.3274 -16.3266 -16.3264 -16.3255
   -16.3253 -16.3244 -16.3233 -16.3224 -16.3219 -16.3215 -16.3206 -16.3205
   -16.3197 -16.3192 -16.3191 -16.3180 -16.3176 -16.3168 -16.3164 -16.3162
   -16.3156 -16.3153 -16.3146 -16.3141 -16.3137 -16.3133 -16.3130 -16.3123
   -16.3116 -16.3113 -16.3110 -16.3107 -16.3099 -16.3099 -16.3092 -16.3087
   -16.3078 -16.3067 -16.3058 -16.3055 -16.3051 -16.3046 -16.3043 -16.3038
   -16.3025 -16.3022 -16.3018 -16.3016 -16.3009 -16.3009 -16.3000 -16.2991
   -16.2986 -16.2982 -16.2974 -16.2966 -16.2960 -16.2956 -16.2949 -16.2942
   -16.2933 -16.2931 -16.2924 -16.2918 -16.2912 -16.2908 -16.2892 -16.2888
   -16.2881 -16.2878 -16.2874 -16.2862 -16.2860 -16.2854 -16.2845 -16.2836
   -16.2825 -16.2822 -16.2814 -16.2808 -16.2807 -16.2793 -16.2791 -16.2782
   -16.2776 -16.2756 -16.2750 -16.2744 -16.2735 -16.2729 -16.2724 -16.2716
   -16.2699 -16.2694 -16.2691 -16.2687 -16.2667 -16.2652 -16.2641 -16.2624
   -16.2615 -16.2607 -16.2593 -16.2588 -16.2576 -16.2510 -16.2497 -16.2490
    -4.3450  -4.3183  -3.8727  -3.8618  -3.8439  -3.8234  -3.8136  -3.8091
    -3.4147  -3.4018  -3.3753  -3.3668  -3.3343  -3.3222  -2.9921  -2.9481
    -2.8989  -2.8929  -2.8662  -2.8458  -2.8362  -2.8170  -2.5856  -2.5591
    -2.5409  -2.5361  -2.5168  -2.5023  -2.4900  -2.4784  -2.4651  -2.4505
    -2.4409  -2.4117  -2.3756  -2.3594  -2.3431  -2.3236  -2.3151  -2.2870
    -1.8825  -1.8676  -1.8533  -1.8436  -1.8308  -1.8076  -1.5491  -1.5252
    -1.5057  -1.4626  -1.4523  -1.4362  -1.4177  -1.3928  -1.3708  -1.3639
    -1.3617  -1.3555  -1.3229  -1.3142  -1.2916  -1.2733  -1.2582  -1.2452
     0.0840   0.1146   0.1348   0.1507   0.1634   0.1719   0.1873   0.1973
     0.2203   0.2387   0.2429   0.2612   0.2721   0.2945   0.3105   0.3472
     0.3554   0.3750   0.5218   0.5523   0.5637   0.6194   0.6440   0.6790
     0.7557   0.7685   0.7804   0.7959   0.8258   0.8470   1.3260   1.3633
     1.3774   1.3935   1.4107   1.4143   1.4278   1.4451   1.4716   1.4741
     1.4911   1.5035   1.5346   1.5571   2.0775   2.0907   2.1231   2.1373
     2.1485   2.1985   2.6685   2.6907   2.6989   2.7105   2.7397   2.7621
     3.9629   3.9798   3.9968   4.0071   4.0086   4.0303   4.0337   4.0453
     4.0571   4.0689   4.0769   4.0857   4.0876   4.0904   4.0996   4.1092
     4.1158   4.1200   4.1319   4.1416   4.1506   4.1517   4.1686   4.1892
     4.6073   4.6181   4.6212   4.6422   4.6445   4.6517   4.6616   4.6635
     4.6729   4.6806   4.6910   4.6951   4.7066   4.7164   4.7296   4.7359
     4.7432   4.7676   5.0967   5.1022   5.1137   5.1175   5.1337   5.1380
     5.1479   5.1555   5.1730   5.1769   5.1853   5.1906   5.3210   5.3243
     5.3300   5.3449   5.3510   5.3609   5.3672   5.3813   5.3942   5.4034
     5.4103   5.4199   5.4983   5.5066   5.5273   5.5465   5.5534   5.5710
     5.6310   5.6525   5.6553   5.6658   5.6876   5.6895   5.7824   5.8228
     5.8249   5.8389   5.8619   5.8751   5.8832   5.8915   6.0515   6.0633
     6.0705   6.0765   6.0846   6.0940   6.1181   6.1293   6.1365   6.1438
     6.1611   6.1620   6.1661   6.1784   6.1811   6.1914   6.2075   6.2115
     6.4764   6.4907   6.5038   6.5077   6.5355   6.5527   6.6140   6.6360
     6.6416   6.6866   6.7129   6.7404   6.7920   6.7938   6.8078   6.8181
     6.8495   6.8658   6.9559   6.9686   6.9936   7.0315   7.2949   7.3062
     7.3550   7.3644   7.3798   7.3887   7.8767   7.9127   7.9391   7.9770
     8.4574   8.4862   9.0183   9.0335   9.0416   9.0469   9.0558   9.0964
     9.1840   9.2111   9.3584   9.3821   9.4184   9.4277   9.4464   9.4643
     9.5030   9.5269   9.5365   9.5464   9.5623   9.5733   9.7289   9.7350
     9.7486   9.7506   9.7607   9.7719   9.7836   9.8021   9.8046   9.8095
     9.8245   9.8449  10.0043  10.0146  10.0217  10.0435  10.0445  10.0599
    10.0795  10.0854  10.0944  10.1051  10.1145  10.1212  10.3313  10.3576
    10.3762  10.3914  10.4026  10.4218  10.4237  10.4325  10.4415  10.4535
    10.4587  10.4672  10.5406  10.5516  10.5673  10.5731  10.5935  10.6055
    10.6183  10.6393  10.6484  10.6656  10.6680  10.6881  10.7516  10.7722
    10.7809  10.7987  10.7996  10.8154  10.8373  10.8450  10.8624  10.8701
    10.8816  10.8969  11.1442  11.1580  11.1836  11.2247  11.4565  11.4644
    11.4740  11.4978  11.5202  11.5253  11.5383  11.5521  11.5607  11.5716
    11.5805  11.6044  11.6301  11.6609  11.6881  11.7063  11.7258  11.7372
    11.7630  11.7975  11.8497  11.8809  11.8999  11.9085  11.9146  11.9455
    11.9589  11.9812  11.9989  12.0444  12.1101  12.1261  12.1349  12.1774
    12.1803  12.2058  12.3117  12.3296  12.3346  12.3526  12.3645  12.3711
    12.3832  12.3967  12.4033  12.4142  12.4278  12.4612  12.5583  12.5765
    12.5957  12.6067  12.6302  12.6483  12.6958  12.7068  12.7394  12.7473
    12.7541  12.7662  12.9473  12.9804  12.9948  12.9983  13.0001  13.0115
    13.0191  13.0289  13.0441  13.0470  13.0567  13.0631  13.0677  13.0732
    13.0862  13.1011  13.1041  13.1153  13.1433  13.1687  13.1731  13.1863
    13.1957  13.2051  13.2203  13.2342  13.2400  13.2569  13.2700  13.2824
    13.2876  13.2979  13.3101

     occupation numbers 
     1.0000   1.0000   1.0000   1.0000   1.0000   1.0000   1.0000   1.0000
     1.0000   1.0000   1.0000   1.0000   1.0000   1.0000   1.0000   1.0000
     1.0000   1.0000   1.0000   1.0000   1.0000   1.0000   1.0000   1.0000
     1.0000   1.0000   1.0000   1.0000   1.0000   1.0000   1.0000   1.0000
     1.0000   1.0000   1.0000   1.0000   1.0000   1.0000   1.0000   1.0000
     1.0000   1.0000   1.0000   1.0000   1.0000   1.0000   1.0000   1.0000
     1.0000   1.0000   1.0000   1.0000   1.0000   1.0000   1.0000   1.0000
     1.0000   1.0000   1.0000   1.0000   1.0000   1.0000   1.0000   1.0000
     1.0000   1.0000   1.0000   1.0000   1.0000   1.0000   1.0000   1.0000
     1.0000   1.0000   1.0000   1.0000   1.0000   1.0000   1.0000   1.0000
     1.0000   1.0000   1.0000   1.0000   1.0000   1.0000   1.0000   1.0000
     1.0000   1.0000   1.0000   1.0000   1.0000   1.0000   1.0000   1.0000
     1.0000   1.0000   1.0000   1.0000   1.0000   1.0000   1.0000   1.0000
     1.0000   1.0000   1.0000   1.0000   1.0000   1.0000   1.0000   1.0000
     1.0000   1.0000   1.0000   1.0000   1.0000   1.0000   1.0000   1.0000
     1.0000   1.0000   1.0000   1.0000   1.0000   1.0000   1.0000   1.0000
     1.0000   1.0000   1.0000   1.0000   1.0000   1.0000   1.0000   1.0000
     1.0000   1.0000   1.0000   1.0000   1.0000   1.0000   1.0000   1.0000
     1.0000   1.0000   1.0000   1.0000   1.0000   1.0000   1.0000   1.0000
     1.0000   1.0000   1.0000   1.0000   1.0000   1.0000   1.0000   1.0000
     1.0000   1.0000   1.0000   1.0000   1.0000   1.0000   1.0000   1.0000
     1.0000   1.0000   1.0000   1.0000   1.0000   1.0000   1.0000   1.0000
     1.0000   1.0000   1.0000   1.0000   1.0000   1.0000   1.0000   1.0000
     1.0000   1.0000   1.0000   1.0000   1.0000   1.0000   1.0000   1.0000
     1.0000   1.0000   1.0000   1.0000   1.0000   1.0000   1.0000   1.0000
     1.0000   1.0000   1.0000   1.0000   1.0000   1.0000   1.0000   1.0000
     1.0000   1.0000   1.0000   1.0000   1.0000   1.0000   1.0000   1.0000
     1.0000   1.0000   1.0000   1.0000   1.0000   1.0000   1.0000   1.0000
     1.0000   1.0000   1.0000   1.0000   1.0000   1.0000   1.0000   1.0000
     1.0000   1.0000   1.0000   1.0000   1.0000   1.0000   1.0000   1.0000
     1.0000   1.0000   1.0000   1.0000   1.0000   1.0000   1.0000   1.0000
     1.0000   1.0000   1.0000   1.0000   1.0000   1.0000   1.0000   1.0000
     1.0000   1.0000   1.0000   1.0000   1.0000   1.0000   1.0000   1.0000
     1.0000   1.0000   1.0000   1.0000   1.0000   1.0000   1.0000   1.0000
     1.0000   1.0000   1.0000   1.0000   1.0000   1.0000   1.0000   1.0000
     1.0000   1.0000   1.0000   1.0000   1.0000   1.0000   1.0000   1.0000
     1.0000   1.0000   1.0000   1.0000   1.0000   1.0000   1.0000   1.0000
     1.0000   1.0000   1.0000   1.0000   1.0000   1.0000   1.0000   1.0000
     1.0000   1.0000   1.0000   1.0000   1.0000   1.0000   1.0000   1.0000
     1.0000   1.0000   1.0000   1.0000   1.0000   1.0000   1.0000   1.0000
     1.0000   1.0000   1.0000   1.0000   1.0000   1.0000   1.0000   1.0000
     1.0000   1.0000   1.0000   1.0000   1.0000   1.0000   1.0000   1.0000
     1.0000   1.0000   1.0000   1.0000   1.0000   1.0000   1.0000   1.0000
     1.0000   1.0000   1.0000   1.0000   1.0000   1.0000   1.0000   1.0000
     1.0000   1.0000   1.0000   1.0000   1.0000   1.0000   1.0000   1.0000
     1.0000   1.0000   1.0000   1.0000   1.0000   1.0000   1.0000   1.0000
     1.0000   1.0000   1.0000   1.0000   1.0000   1.0000   1.0000   1.0000
     1.0000   1.0000   1.0000   1.0000   1.0000   1.0000   1.0000   1.0000
     1.0000   1.0000   1.0000   1.0000   1.0000   1.0000   1.0000   1.0000
     1.0000   1.0000   1.0000   1.0000   1.0000   1.0000   1.0000   1.0000
     1.0000   1.0000   1.0000   1.0000   1.0000   1.0000   1.0000   1.0000
     1.0000   1.0000   1.0000   1.0000   1.0000   1.0000   1.0000   1.0000
     1.0000   1.0000   1.0000   1.0000   1.0000   1.0000   1.0000   1.0000
     1.0000   1.0000   1.0000   1.0000   1.0000   1.0000   1.0000   1.0000
     1.0000   1.0000   1.0000   1.0000   1.0000   1.0000   1.0000   1.0000
     1.0000   1.0000   1.0000   1.0000   1.0000   1.0000   1.0000   1.0000
     1.0000   1.0000   1.0000   1.0000   1.0000   1.0000   1.0000   1.0000
     1.0000   1.0000   1.0000   1.0000   1.0000   1.0000   1.0000   1.0000
     1.0000   1.0000   1.0000   1.0000   1.0000   1.0000   1.0000   1.0000
     1.0000   1.0000   1.0000   1.0000   1.0000   1.0000   1.0000   1.0000
     1.0000   1.0000   1.0000   1.0000   1.0000   1.0000   1.0000   1.0000
     1.0000   1.0000   1.0000   1.0000   1.0000   1.0000   1.0000   1.0000
     1.0000   1.0000   1.0000   1.0000   1.0000   1.0000   1.0000   1.0000
     1.0000   1.0000   1.0000   1.0000   1.0000   1.0000   1.0000   1.0000
     1.0000   1.0000   1.0000   1.0000   1.0000   1.0000   1.0000   1.0000
     1.0000   1.0000   1.0000   1.0000   1.0000   1.0000   1.0000   1.0000
     1.0000   1.0000   1.0000   1.0000   1.0000   1.0000   1.0000   1.0000
     1.0000   1.0000   1.0000   1.0000   1.0000   1.0000   1.0000   1.0000
     1.0000   1.0000   1.0000   1.0000   1.0000   1.0000   1.0000   1.0000
     1.0000   1.0000   1.0000   1.0000   1.0000   1.0000   1.0000   1.0000
     1.0000   1.0000   1.0000   1.0000   1.0000   1.0000   1.0000   1.0000
     1.0000   1.0000   1.0000   1.0000   1.0000   1.0000   1.0000   1.0000
     1.0000   1.0000   1.0000   1.0000   1.0000   1.0000   1.0000   1.0000
     1.0000   1.0000   1.0000   1.0000   1.0000   1.0000   1.0000   1.0000
     1.0000   1.0000   1.0000   1.0000   1.0000   1.0000   1.0000   1.0000
     1.0000   1.0000   1.0000   1.0000   1.0000   1.0000   1.0000   1.0000
     1.0000   1.0000   1.0000   1.0000   1.0000   1.0000   1.0000   1.0000
     1.0000   1.0000   1.0000   1.0000   1.0000   1.0000   1.0000   1.0000
     1.0000   1.0000   1.0000   1.0000   1.0000   1.0000   1.0000   1.0000
     1.0000   1.0000   1.0000   1.0000   1.0000   1.0000   1.0000   1.0000
     1.0000   1.0000   1.0000   1.0000   1.0000   1.0000   1.0000   1.0000
     1.0000   1.0000   1.0000   1.0000   1.0000   1.0000   1.0000   1.0000
     1.0000   1.0000   1.0000   1.0000   1.0000   1.0000   1.0000   1.0000
     1.0000   1.0000   1.0000   1.0000   1.0000   1.0000   1.0000   1.0000
     1.0000   1.0000   1.0000   1.0000   1.0000   1.0000   1.0000   1.0000
     1.0000   1.0000   1.0000   1.0000   1.0000   1.0000   1.0000   1.0000
     1.0000   1.0000   1.0000   1.0000   1.0000   1.0000   1.0000   1.0000
     1.0000   1.0000   1.0000   1.0000   1.0000   1.0000   1.0000   1.0000
     1.0000   1.0000   1.0000   1.0000   1.0000   1.0000   1.0000   1.0000
     1.0000   1.0000   1.0000   1.0000   1.0000   1.0000   1.0000   1.0000
     1.0000   1.0000   1.0000   1.0000   1.0000   1.0000   1.0000   1.0000
     1.0000   1.0000   1.0000   1.0000   1.0000   1.0000   1.0000   1.0000
     1.0000   1.0000   1.0000   1.0000   1.0000   1.0000   1.0000   1.0000
     1.0000   1.0000   1.0000   1.0000   1.0000   1.0000   1.0000   1.0000
     1.0000   1.0000   1.0000   1.0000   1.0000   1.0000   1.0000   1.0000
     1.0000   1.0000   1.0000   1.0000   1.0000   1.0000   1.0000   1.0000
     1.0000   1.0000   1.0000   1.0000   1.0000   1.0000   1.0000   1.0000
     1.0000   1.0000   1.0000   1.0000   1.0000   1.0000   1.0000   1.0000
     1.0000   1.0000   1.0000   1.0000   1.0000   1.0000   1.0000   1.0000
     1.0000   1.0000   1.0000   1.0000   1.0000   1.0000   1.0000   1.0000
     1.0000   1.0000   1.0000   1.0000   1.0000   1.0000   1.0000   1.0000
     1.0000   1.0000   1.0000   1.0000   1.0000   1.0000   1.0000   1.0000
     1.0000   1.0000   1.0000   1.0000   1.0000   1.0000   1.0000   1.0000
     1.0000   1.0000   1.0000   1.0000   1.0000   1.0000   1.0000   1.0000
     1.0000   1.0000   1.0000   1.0000   1.0000   1.0000   1.0000   1.0000
     1.0000   1.0000   1.0000   1.0000   1.0000   1.0000   1.0000   1.0000
     1.0000   1.0000   1.0000   1.0000   1.0000   1.0000   1.0000   1.0000
     1.0000   1.0000   1.0000   1.0000   1.0000   1.0000   1.0000   1.0000
     1.0000   1.0000   1.0000   1.0000   1.0000   1.0000   1.0000   1.0000
     1.0000   1.0000   1.0000   1.0000   1.0000   1.0000   1.0000   1.0000
     1.0000   1.0000   1.0000   1.0000   1.0000   1.0000   1.0000   1.0000
     1.0000   1.0000   1.0000   1.0000   0.9899   0.9809   0.9706   0.9482
     0.0445   0.0287   0.0000   0.0000   0.0000   0.0000   0.0000   0.0000
     0.0000   0.0000   0.0000   0.0000   0.0000   0.0000   0.0000   0.0000
     0.0000   0.0000   0.0000   0.0000   0.0000   0.0000   0.0000   0.0000
     0.0000   0.0000   0.0000   0.0000   0.0000   0.0000   0.0000   0.0000
     0.0000   0.0000   0.0000   0.0000   0.0000   0.0000   0.0000   0.0000
     0.0000   0.0000   0.0000   0.0000   0.0000   0.0000   0.0000   0.0000
     0.0000   0.0000   0.0000   0.0000   0.0000   0.0000   0.0000   0.0000
     0.0000   0.0000   0.0000   0.0000   0.0000   0.0000   0.0000   0.0000
     0.0000   0.0000   0.0000   0.0000   0.0000   0.0000   0.0000   0.0000
     0.0000   0.0000   0.0000   0.0000   0.0000   0.0000   0.0000   0.0000
     0.0000   0.0000   0.0000   0.0000   0.0000   0.0000   0.0000   0.0000
     0.0000   0.0000   0.0000   0.0000   0.0000   0.0000   0.0000   0.0000
     0.0000   0.0000   0.0000   0.0000   0.0000   0.0000   0.0000   0.0000
     0.0000   0.0000   0.0000   0.0000   0.0000   0.0000   0.0000   0.0000
     0.0000   0.0000   0.0000   0.0000   0.0000   0.0000   0.0000   0.0000
     0.0000   0.0000   0.0000   0.0000   0.0000   0.0000   0.0000   0.0000
     0.0000   0.0000   0.0000   0.0000   0.0000   0.0000   0.0000   0.0000
     0.0000   0.0000   0.0000   0.0000   0.0000   0.0000   0.0000   0.0000
     0.0000   0.0000   0.0000   0.0000   0.0000   0.0000   0.0000   0.0000
     0.0000   0.0000   0.0000   0.0000   0.0000   0.0000   0.0000   0.0000
     0.0000   0.0000   0.0000   0.0000   0.0000   0.0000   0.0000   0.0000
     0.0000   0.0000   0.0000   0.0000   0.0000   0.0000   0.0000   0.0000
     0.0000   0.0000   0.0000

          k =-0.7071 0.0000 0.0000 ( 68952 PWs)   bands (ev):

   -16.7254 -16.7145 -16.7133 -16.7116 -16.7074 -16.7025 -16.6980 -16.6927
   -16.6917 -16.6878 -16.6864 -16.6849 -16.6833 -16.6806 -16.6802 -16.6796
   -16.6786 -16.6779 -16.6768 -16.6756 -16.6748 -16.6736 -16.6720 -16.6697
   -16.6684 -16.6678 -16.6669 -16.6660 -16.6654 -16.6652 -16.6645 -16.6637
   -16.6635 -16.6628 -16.6623 -16.6617 -16.6609 -16.6604 -16.6591 -16.6582
   -16.6578 -16.6566 -16.6558 -16.6556 -16.6545 -16.6534 -16.6527 -16.6521
   -16.6518 -16.6512 -16.6499 -16.6496 -16.6489 -16.6484 -16.6477 -16.6466
   -16.6455 -16.6451 -16.6448 -16.6441 -16.6431 -16.6424 -16.6421 -16.6409
   -16.6403 -16.6396 -16.6388 -16.6384 -16.6375 -16.6370 -16.6362 -16.6350
   -16.6347 -16.6345 -16.6330 -16.6324 -16.6316 -16.6311 -16.6303 -16.6295
   -16.6289 -16.6281 -16.6274 -16.6262 -16.6255 -16.6247 -16.6240 -16.6232
   -16.6225 -16.6220 -16.6216 -16.6210 -16.6206 -16.6189 -16.6187 -16.6181
   -16.6175 -16.6161 -16.6156 -16.6155 -16.6150 -16.6145 -16.6131 -16.6126
   -16.6121 -16.6114 -16.6108 -16.6102 -16.6088 -16.6084 -16.6070 -16.6061
   -16.6049 -16.6047 -16.6031 -16.6023 -16.6015 -16.6011 -16.6001 -16.5994
   -16.5987 -16.5980 -16.5974 -16.5962 -16.5946 -16.5946 -16.5937 -16.5929
   -16.5924 -16.5917 -16.5898 -16.5889 -16.5878 -16.5870 -16.5861 -16.5856
   -16.5843 -16.5832 -16.5828 -16.5810 -16.5803 -16.5798 -16.5791 -16.5784
   -16.5783 -16.5768 -16.5763 -16.5754 -16.5741 -16.5733 -16.5732 -16.5726
   -16.5713 -16.5709 -16.5702 -16.5694 -16.5684 -16.5679 -16.5668 -16.5667
   -16.5655 -16.5652 -16.5643 -16.5632 -16.5626 -16.5622 -16.5617 -16.5610
   -16.5601 -16.5596 -16.5585 -16.5577 -16.5571 -16.5567 -16.5555 -16.5547
   -16.5545 -16.5539 -16.5532 -16.5527 -16.5525 -16.5513 -16.5507 -16.5498
   -16.5493 -16.5489 -16.5482 -16.5473 -16.5457 -16.5448 -16.5443 -16.5435
   -16.5432 -16.5427 -16.5418 -16.5414 -16.5410 -16.5402 -16.5392 -16.5384
   -16.5379 -16.5372 -16.5370 -16.5358 -16.5355 -16.5345 -16.5342 -16.5336
   -16.5332 -16.5325 -16.5322 -16.5312 -16.5302 -16.5297 -16.5291 -16.5286
   -16.5280 -16.5271 -16.5266 -16.5263 -16.5258 -16.5254 -16.5243 -16.5234
   -16.5225 -16.5218 -16.5209 -16.5203 -16.5199 -16.5194 -16.5187 -16.5183
   -16.5178 -16.5173 -16.5165 -16.5158 -16.5149 -16.5143 -16.5141 -16.5127
   -16.5120 -16.5117 -16.5109 -16.5099 -16.5093 -16.5086 -16.5084 -16.5078
   -16.5074 -16.5070 -16.5057 -16.5051 -16.5047 -16.5036 -16.5032 -16.5026
   -16.5022 -16.5022 -16.5012 -16.5007 -16.4996 -16.4991 -16.4977 -16.4975
   -16.4963 -16.4961 -16.4959 -16.4956 -16.4937 -16.4929 -16.4927 -16.4922
   -16.4915 -16.4911 -16.4901 -16.4896 -16.4893 -16.4885 -16.4878 -16.4864
   -16.4862 -16.4856 -16.4842 -16.4836 -16.4832 -16.4826 -16.4816 -16.4810
   -16.4802 -16.4799 -16.4792 -16.4783 -16.4778 -16.4773 -16.4766 -16.4760
   -16.4757 -16.4752 -16.4750 -16.4742 -16.4730 -16.4724 -16.4716 -16.4702
   -16.4694 -16.4686 -16.4677 -16.4672 -16.4669 -16.4662 -16.4658 -16.4652
   -16.4629 -16.4624 -16.4617 -16.4610 -16.4606 -16.4597 -16.4593 -16.4591
   -16.4577 -16.4574 -16.4569 -16.4567 -16.4557 -16.4552 -16.4550 -16.4542
   -16.4535 -16.4532 -16.4524 -16.4521 -16.4508 -16.4506 -16.4497 -16.4485
   -16.4480 -16.4475 -16.4465 -16.4463 -16.4455 -16.4450 -16.4444 -16.4442
   -16.4436 -16.4431 -16.4424 -16.4417 -16.4407 -16.4404 -16.4397 -16.4386
   -16.4384 -16.4373 -16.4370 -16.4365 -16.4360 -16.4346 -16.4343 -16.4339
   -16.4337 -16.4323 -16.4319 -16.4314 -16.4303 -16.4295 -16.4285 -16.4283
   -16.4276 -16.4273 -16.4264 -16.4251 -16.4249 -16.4245 -16.4241 -16.4228
   -16.4221 -16.4219 -16.4214 -16.4207 -16.4201 -16.4197 -16.4187 -16.4181
   -16.4176 -16.4172 -16.4169 -16.4162 -16.4156 -16.4148 -16.4143 -16.4138
   -16.4127 -16.4123 -16.4109 -16.4108 -16.4103 -16.4102 -16.4093 -16.4087
   -16.4081 -16.4072 -16.4069 -16.4066 -16.4065 -16.4054 -16.4046 -16.4038
[...]
     atom   77 type  1   force =   0.00000000E+00  0.00000000E+00  0.00000000E+00
     atom   78 type  1   force =   0.00000000E+00  0.00000000E+00  0.00000000E+00
     atom   79 type  1   force =   0.00000000E+00  0.00000000E+00  0.00000000E+00
     atom   80 type  1   force =   0.00000000E+00  0.00000000E+00  0.00000000E+00
     atom   81 type  1   force =   0.00000000E+00  0.00000000E+00  0.00000000E+00
     atom   82 type  1   force =   0.00000000E+00  0.00000000E+00  0.00000000E+00
     atom   83 type  1   force =   0.00000000E+00  0.00000000E+00  0.00000000E+00
     atom   84 type  1   force =   0.00000000E+00  0.00000000E+00  0.00000000E+00
     atom   85 type  1   force =   0.00000000E+00  0.00000000E+00  0.00000000E+00
     atom   86 type  1   force =   0.00000000E+00  0.00000000E+00  0.00000000E+00
     atom   87 type  1   force =   0.00000000E+00  0.00000000E+00  0.00000000E+00
     atom   88 type  1   force =   0.00000000E+00  0.00000000E+00  0.00000000E+00
     atom   89 type  1   force =   0.00000000E+00  0.00000000E+00  0.00000000E+00
     atom   90 type  1   force =   0.00000000E+00  0.00000000E+00  0.00000000E+00
     atom   91 type  1   force =   0.00000000E+00  0.00000000E+00  0.00000000E+00
     atom   92 type  1   force =   0.00000000E+00  0.00000000E+00  0.00000000E+00
     atom   93 type  1   force =   0.00000000E+00  0.00000000E+00  0.00000000E+00
     atom   94 type  1   force =   0.00000000E+00  0.00000000E+00  0.00000000E+00
     atom   95 type  1   force =   0.00000000E+00  0.00000000E+00  0.00000000E+00
     atom   96 type  1   force =   0.00000000E+00  0.00000000E+00  0.00000000E+00
     atom   97 type  1   force =   0.00000000E+00  0.00000000E+00  0.00000000E+00
     atom   98 type  1   force =   0.00000000E+00  0.00000000E+00  0.00000000E+00
     atom   99 type  1   force =   0.00000000E+00  0.00000000E+00  0.00000000E+00
     atom  100 type  1   force =   0.00000000E+00  0.00000000E+00  0.00000000E+00
     atom  101 type  1   force =   0.00000000E+00  0.00000000E+00  0.00000000E+00
     atom  102 type  1   force =   0.00000000E+00  0.00000000E+00  0.00000000E+00
     atom  103 type  1   force =   0.00000000E+00  0.00000000E+00  0.00000000E+00
     atom  104 type  1   force =   0.00000000E+00  0.00000000E+00  0.00000000E+00
     atom  105 type  1   force =   0.00000000E+00  0.00000000E+00  0.00000000E+00
     atom  106 type  1   force =   0.00000000E+00  0.00000000E+00  0.00000000E+00
     atom  107 type  1   force =   0.00000000E+00  0.00000000E+00  0.00000000E+00
     atom  108 type  1   force =   0.00000000E+00  0.00000000E+00  0.00000000E+00
     atom  109 type  1   force =   0.00000000E+00  0.00000000E+00  0.00000000E+00
     atom  110 type  1   force =   0.00000000E+00  0.00000000E+00  0.00000000E+00
     atom  111 type  1   force =   0.00000000E+00  0.00000000E+00  0.00000000E+00
     atom  112 type  1   force =   0.00000000E+00  0.00000000E+00  0.00000000E+00
     atom  113 type  1   force =   0.00000000E+00  0.00000000E+00  0.00000000E+00
     atom  114 type  1   force =   0.00000000E+00  0.00000000E+00  0.00000000E+00
     atom  115 type  1   force =   0.00000000E+00  0.00000000E+00  0.00000000E+00
     atom  116 type  1   force =   0.00000000E+00  0.00000000E+00  0.00000000E+00
     atom  117 type  1   force =   0.00000000E+00  0.00000000E+00  0.00000000E+00
     atom  118 type  1   force =   0.00000000E+00  0.00000000E+00  0.00000000E+00
     atom  119 type  1   force =   0.00000000E+00  0.00000000E+00  0.00000000E+00
     atom  120 type  1   force =   0.00000000E+00  0.00000000E+00  0.00000000E+00
     atom  121 type  1   force =   0.00000000E+00  0.00000000E+00  0.00000000E+00
     atom  122 type  1   force =   0.00000000E+00  0.00000000E+00  0.00000000E+00
     atom  123 type  1   force =   0.00000000E+00  0.00000000E+00  0.00000000E+00
     atom  124 type  1   force =   0.00000000E+00  0.00000000E+00  0.00000000E+00
     atom  125 type  1   force =   0.00000000E+00  0.00000000E+00  0.00000000E+00
     atom  126 type  1   force =   0.00000000E+00  0.00000000E+00  0.00000000E+00
     atom  127 type  1   force =   0.00000000E+00  0.00000000E+00  0.00000000E+00
     atom  128 type  1   force =   0.00000000E+00  0.00000000E+00  0.00000000E+00
     The SCF correction term to forces
     atom    1 type  1   force =  -0.35952946E-05  0.10316138E-04  0.36422804E-05
     atom    2 type  1   force =   0.28872406E-05 -0.57059454E-05  0.39995397E-05
     atom    3 type  1   force =  -0.10683511E-04  0.64600365E-05  0.40794845E-05
     atom    4 type  1   force =   0.87619511E-05 -0.13619512E-05 -0.46948551E-05
     atom    5 type  1   force =  -0.37837794E-05  0.15631961E-04  0.10265808E-05
     atom    6 type  1   force =   0.32704268E-05 -0.35583091E-05  0.18022946E-05
     atom    7 type  1   force =  -0.98089835E-05 -0.25184554E-05  0.63546352E-05
     atom    8 type  1   force =   0.14260983E-05 -0.77920200E-05 -0.98371952E-06
     atom    9 type  1   force =   0.40852603E-05  0.17389877E-05  0.77503568E-05
     atom   10 type  1   force =   0.54281768E-05 -0.12353924E-04 -0.40294886E-05
     atom   11 type  1   force =  -0.32740964E-05 -0.26062317E-05  0.12678784E-04
     atom   12 type  1   force =   0.98643495E-05 -0.16130682E-05 -0.48247292E-05
     atom   13 type  1   force =  -0.31719883E-05  0.52803275E-05  0.33033300E-05
     atom   14 type  1   force =  -0.54557224E-05 -0.78747544E-05 -0.73689027E-05
     atom   15 type  1   force =  -0.73128908E-05  0.40339092E-05  0.69954964E-05
     atom   16 type  1   force =   0.99475369E-05  0.46030893E-05 -0.65328791E-05
     atom   17 type  1   force =  -0.18752396E-05  0.10257704E-04  0.20324176E-06
     atom   18 type  1   force =   0.45417705E-05 -0.93942158E-05 -0.64579919E-05
     atom   19 type  1   force =  -0.12457793E-04  0.35081684E-05  0.62609095E-05
     atom   20 type  1   force =   0.36761730E-05 -0.75385413E-05 -0.76852420E-05
     atom   21 type  1   force =  -0.10579806E-04  0.82447585E-05  0.69415740E-05
     atom   22 type  1   force =   0.53868685E-05 -0.34459143E-05  0.51446463E-05
     atom   23 type  1   force =  -0.70960460E-05  0.10147151E-04  0.53222897E-05
     atom   24 type  1   force =   0.82537689E-05 -0.37271887E-05 -0.68025833E-05
     atom   25 type  1   force =  -0.40060201E-05  0.52010566E-05 -0.39867538E-05
     atom   26 type  1   force =  -0.13045666E-05 -0.52148011E-05 -0.78789874E-05
     atom   27 type  1   force =  -0.44123312E-05  0.42619683E-05  0.57206500E-05
     atom   28 type  1   force =   0.45792344E-05  0.32906900E-05 -0.77641525E-05
     atom   29 type  1   force =  -0.54438048E-05  0.69466505E-05  0.68775760E-05
     atom   30 type  1   force =   0.21718534E-05 -0.26969388E-05 -0.22868359E-05
     atom   31 type  1   force =  -0.60605075E-05  0.27462256E-05  0.10088177E-04
     atom   32 type  1   force =   0.18798946E-06 -0.26394891E-05 -0.55692401E-05
     atom   33 type  1   force =  -0.72065508E-06 -0.54603826E-05 -0.95944409E-05
     atom   34 type  1   force =  -0.43079143E-05 -0.30700217E-05  0.63852661E-05
     atom   35 type  1   force =   0.69816658E-05 -0.85705802E-06 -0.73603671E-05
     atom   36 type  1   force =   0.46564185E-05  0.91223466E-05  0.20361866E-05
     atom   37 type  1   force =   0.48886840E-05 -0.39101152E-05 -0.88735291E-05
     atom   38 type  1   force =  -0.66547062E-05  0.10833807E-05  0.51423222E-05
     atom   39 type  1   force =   0.95835424E-06 -0.34609582E-06  0.96083878E-06
     atom   40 type  1   force =  -0.46846333E-05  0.83480442E-06  0.38735855E-05
     atom   41 type  1   force =   0.91664397E-05 -0.70200943E-05 -0.58053069E-05
     atom   42 type  1   force =  -0.33135513E-05  0.62157727E-05  0.58162645E-05
     atom   43 type  1   force =   0.66042287E-05 -0.43019778E-05 -0.77979451E-06
     atom   44 type  1   force =  -0.74704978E-05  0.45019333E-05 -0.30713069E-05
     atom   45 type  1   force =   0.53037521E-05 -0.86768828E-06 -0.45687342E-05
     atom   46 type  1   force =  -0.77752391E-05  0.40321762E-05  0.53632099E-05
     atom   47 type  1   force =   0.12712048E-05 -0.72941453E-05 -0.47188576E-05
     atom   48 type  1   force =  -0.63948187E-05  0.47563673E-05 -0.35613613E-05
     atom   49 type  1   force =   0.83850561E-05 -0.54960169E-05 -0.97108035E-05
     atom   50 type  1   force =  -0.28056310E-05 -0.54942403E-07  0.54917059E-05
     atom   51 type  1   force =   0.21961873E-05 -0.53268327E-05 -0.46466346E-05
     atom   52 type  1   force =   0.32811342E-05  0.72146690E-05  0.49274413E-05
     atom   53 type  1   force =   0.49325578E-05 -0.26273924E-05 -0.51816514E-05
     atom   54 type  1   force =  -0.44053618E-05 -0.47948059E-05  0.49255986E-05
     atom   55 type  1   force =   0.42863152E-05 -0.11728946E-04 -0.44772694E-05
     atom   56 type  1   force =   0.34299448E-05  0.41537101E-05  0.43815525E-05
     atom   57 type  1   force =   0.43081423E-05 -0.13675306E-05 -0.12049346E-05
     atom   58 type  1   force =  -0.57042987E-05  0.46075273E-05  0.64034580E-05
     atom   59 type  1   force =   0.34863822E-05 -0.74854157E-05 -0.38962051E-05
     atom   60 type  1   force =  -0.21814857E-05  0.10535985E-04 -0.55921628E-05
     atom   61 type  1   force =   0.10853846E-04 -0.41246913E-05 -0.34059107E-05
     atom   62 type  1   force =  -0.62550699E-05  0.13736095E-05  0.75713193E-05
     atom   63 type  1   force =   0.45331007E-05 -0.11132359E-04 -0.16806101E-05
     atom   64 type  1   force =  -0.72433905E-05  0.68086312E-05  0.50818725E-05
     atom   65 type  1   force =  -0.55840532E-05  0.12637758E-04  0.37260845E-05
     atom   66 type  1   force =   0.53442041E-05 -0.34437890E-05 -0.65062998E-06
     atom   67 type  1   force =  -0.10810765E-04  0.73737104E-05  0.30560601E-05
     atom   68 type  1   force =   0.63102571E-05 -0.80010359E-05 -0.10212916E-04
     atom   69 type  1   force =  -0.33604388E-05  0.69570728E-05 -0.32760791E-05
     atom   70 type  1   force =   0.81782787E-05 -0.60827196E-06 -0.51003912E-05
     atom   71 type  1   force =  -0.13707825E-04  0.14681007E-05  0.28662222E-05
     atom   72 type  1   force =   0.34312709E-05 -0.64842960E-05 -0.41690365E-05
     atom   73 type  1   force =  -0.20868144E-05  0.59972891E-05  0.25758713E-05
     atom   74 type  1   force =  -0.13865136E-05 -0.28024036E-05 -0.71738374E-05
     atom   75 type  1   force =  -0.55255641E-05  0.21619217E-05  0.60063996E-05
     atom   76 type  1   force =   0.98417408E-05  0.68539473E-06 -0.70933829E-05
     atom   77 type  1   force =  -0.24141160E-05  0.28580224E-05  0.45319356E-05
     atom   78 type  1   force =  -0.22234101E-05 -0.57962642E-05 -0.49504224E-05
     atom   79 type  1   force =  -0.62615716E-05  0.63014568E-05  0.10448931E-04
     atom   80 type  1   force =   0.47374603E-06  0.30175865E-05 -0.55043288E-05
     atom   81 type  1   force =   0.33308507E-06  0.59480666E-05  0.42378427E-05
     atom   82 type  1   force =   0.66617184E-05 -0.42822342E-05  0.32916674E-05
     atom   83 type  1   force =  -0.61772997E-05  0.22364174E-05  0.44502870E-05
     atom   84 type  1   force =   0.33891806E-05 -0.75759245E-05 -0.60736078E-05
     atom   85 type  1   force =  -0.19121968E-05  0.68384325E-05 -0.43600892E-07
     atom   86 type  1   force =   0.85425634E-05 -0.85515786E-05 -0.19043797E-05
     atom   87 type  1   force =  -0.71247668E-05  0.36756919E-05  0.64825474E-05
     atom   88 type  1   force =   0.95245934E-05 -0.10392683E-04 -0.30102210E-05
     atom   89 type  1   force =  -0.54705921E-05  0.45583868E-05  0.54759246E-05
     atom   90 type  1   force =  -0.21518316E-05 -0.34889892E-05 -0.70971605E-05
     atom   91 type  1   force =  -0.36045694E-05  0.10184359E-05  0.98700647E-05
     atom   92 type  1   force =   0.95293515E-05 -0.90454888E-06 -0.25094851E-05
     atom   93 type  1   force =   0.27736390E-05  0.19794786E-05  0.41722891E-05
     atom   94 type  1   force =   0.43797738E-05 -0.81866904E-05 -0.88105661E-05
     atom   95 type  1   force =  -0.18970905E-05 -0.11021909E-05  0.96700043E-05
     atom   96 type  1   force =   0.38344349E-05 -0.29846774E-05 -0.33735517E-05
     atom   97 type  1   force =   0.12437436E-05 -0.23129054E-05 -0.12162288E-04
     atom   98 type  1   force =  -0.71758644E-05 -0.27268058E-05  0.30882582E-05
     atom   99 type  1   force =   0.26641746E-05 -0.62513873E-05 -0.92983755E-05
     atom  100 type  1   force =   0.21646982E-05  0.51272217E-05  0.53235188E-05
     atom  101 type  1   force =   0.77471707E-05 -0.52906122E-06 -0.96228472E-05
     atom  102 type  1   force =  -0.27727862E-06  0.19813226E-05  0.56985085E-05
     atom  103 type  1   force =   0.10598181E-05 -0.38714061E-05 -0.33192700E-05
     atom  104 type  1   force =  -0.20595124E-05  0.26940344E-05  0.79443741E-05
     atom  105 type  1   force =   0.11261211E-04 -0.47311957E-05 -0.52103316E-05
     atom  106 type  1   force =  -0.61734716E-05  0.79476472E-05  0.11377197E-04
     atom  107 type  1   force =   0.54790290E-05 -0.68702461E-05  0.24395866E-05
     atom  108 type  1   force =  -0.90182533E-05  0.57101879E-05  0.13053255E-05
     atom  109 type  1   force =   0.88799990E-05 -0.10887944E-05 -0.59659851E-05
     atom  110 type  1   force =  -0.87795382E-05  0.10915612E-04  0.11395889E-05
     atom  111 type  1   force =  -0.13359778E-05 -0.89996904E-05 -0.42573432E-05
     atom  112 type  1   force =  -0.98284485E-05  0.46984518E-05 -0.23843126E-05
     atom  113 type  1   force =   0.88233255E-05 -0.33446654E-06 -0.95613948E-05
     atom  114 type  1   force =  -0.82075888E-05  0.46490128E-05  0.10996108E-04
     atom  115 type  1   force =  -0.12501416E-05 -0.76201390E-05  0.13933768E-05
     atom  116 type  1   force =  -0.24943653E-05  0.59349619E-05  0.94983477E-05
     atom  117 type  1   force =   0.45338574E-06 -0.19319123E-05 -0.62204778E-05
     atom  118 type  1   force =  -0.48278916E-05 -0.27158171E-05  0.60810097E-05
     atom  119 type  1   force =   0.28210943E-05 -0.50147835E-05 -0.79306437E-05
     atom  120 type  1   force =   0.55603375E-05  0.10018203E-04  0.77793274E-05
     atom  121 type  1   force =   0.58809438E-05  0.56694982E-06 -0.36016685E-05
     atom  122 type  1   force =  -0.89122617E-05  0.53979374E-05  0.44598998E-05
     atom  123 type  1   force =   0.52349937E-05 -0.10174022E-04 -0.13316418E-05
     atom  124 type  1   force =  -0.90593340E-05  0.43188259E-05 -0.16259421E-05
     atom  125 type  1   force =   0.99517786E-05 -0.93012336E-05 -0.22214585E-05
     atom  126 type  1   force =  -0.94402431E-06  0.75593938E-05  0.59816926E-05
     atom  127 type  1   force =   0.91818115E-05 -0.15124706E-04 -0.54829986E-05
     atom  128 type  1   force =  -0.25509673E-05  0.57172323E-05  0.36403668E-05

     Total force =     0.306308     Total SCF correction =     0.000118


     entering subroutine stress ...

          total   stress  (Ry/bohr**3)                   (kbar)     P=    2.17
   0.0000140983   0.0000064658  -0.0000109501          2.07      0.95     -1.61
   0.0000064658   0.0000146926  -0.0000261502          0.95      2.16     -3.85
  -0.0000109501  -0.0000261502   0.0000155247         -1.61     -3.85      2.28

     kinetic stress (kbar)   9997.47     -0.91      1.48
                               -0.91   9997.39      3.50
                                1.48      3.50   9997.31

     local   stress (kbar)   1760.39   -157.99    247.56
                             -157.99   1753.68    603.98
                              247.56    603.98   1725.56

     nonloc. stress (kbar)   2938.60      0.79     -1.19
                                0.79   2938.63     -2.84
                               -1.19     -2.84   2938.72

     hartree stress (kbar)  26315.43     61.48    -96.19
                               61.48  26317.41   -235.62
                              -96.19   -235.62  26329.48

     exc-cor stress (kbar)  19474.15      0.04     -0.07
                                0.04  19474.15     -0.16
                               -0.07     -0.16  19474.15

     corecor stress (kbar) -29142.20     -0.05      0.07
                               -0.05 -29142.20      0.18
                                0.07      0.18 -29142.21

     ewald   stress (kbar) -31341.77     97.58   -153.28
                               97.58 -31336.89   -372.89
                             -153.28   -372.89 -31320.74

     hubbard stress (kbar)      0.00      0.00      0.00
                                0.00      0.00      0.00
                                0.00      0.00      0.00

     london  stress (kbar)      0.00      0.00      0.00
                                0.00      0.00      0.00
                                0.00      0.00      0.00

     XDM     stress (kbar)      0.00      0.00      0.00
                                0.00      0.00      0.00
                                0.00      0.00      0.00

     dft-nl  stress (kbar)      0.00      0.00      0.00
                                0.00      0.00      0.00
                                0.00      0.00      0.00



     Writing output data file Ge_diamond.scf.in.super.444.a.044.save

     init_run     :   1515.40s CPU   1246.23s WALL (       1 calls)
     electrons    :  96480.66s CPU  79975.20s WALL (       1 calls)
     forces       :    929.58s CPU    678.32s WALL (       1 calls)
     stress       :   6179.99s CPU   6146.07s WALL (       1 calls)

     Called by init_run:
     wfcinit      :   1456.85s CPU   1186.68s WALL (       1 calls)
     potinit      :      1.33s CPU      1.46s WALL (       1 calls)

     Called by electrons:
     c_bands      :  90194.26s CPU  74101.29s WALL (      13 calls)
     sum_band     :   5709.26s CPU   5288.28s WALL (      13 calls)
     v_of_rho     :      8.98s CPU     10.05s WALL (      13 calls)
     v_h          :      0.59s CPU      0.75s WALL (      13 calls)
     v_xc         :      9.71s CPU     10.72s WALL (      15 calls)
     newd         :    604.01s CPU    610.63s WALL (      13 calls)
     mix_rho      :     17.87s CPU     19.24s WALL (      13 calls)

     Called by c_bands:
     init_us_2    :     53.10s CPU     54.47s WALL (     232 calls)
     cegterg      :  89821.67s CPU  73714.21s WALL (     104 calls)

     Called by sum_band:
     sum_band:bec :     20.25s CPU     20.38s WALL (     104 calls)
     addusdens    :    417.39s CPU    420.13s WALL (      13 calls)

     Called by *egterg:
     h_psi        :  22995.23s CPU  20701.61s WALL (     443 calls)
     s_psi        :   5722.78s CPU   3784.36s WALL (     443 calls)
     g_psi        :     11.10s CPU     12.60s WALL (     331 calls)
     cdiaghg      :  44531.17s CPU  37663.99s WALL (     427 calls)
     cegterg:over :   8010.36s CPU   5622.55s WALL (     331 calls)
     cegterg:upda :   3641.31s CPU   2433.09s WALL (     331 calls)
     cegterg:last :   2549.74s CPU   1645.78s WALL (     104 calls)

     Called by h_psi:
     h_psi:vloc   :  11203.07s CPU  12732.59s WALL (     443 calls)
     h_psi:vnl    :  11766.77s CPU   7943.08s WALL (     443 calls)
     add_vuspsi   :   5647.04s CPU   3736.55s WALL (     443 calls)

     General routines
     calbec       :  10670.50s CPU   7821.51s WALL (     563 calls)
     fft          :    367.39s CPU    371.22s WALL (     233 calls)
     ffts         :     11.48s CPU     12.41s WALL (     393 calls)
     fftw         :  12214.59s CPU  14049.31s WALL (  644846 calls)
     interpolate  :      2.54s CPU      2.88s WALL (      26 calls)

     Parallel routines
     fft_scatter  :   8426.36s CPU   9539.18s WALL (  645472 calls)

     PWSCF        :     1d    5h13m CPU        1d    0h29m WALL


   This run was terminated on:   1:57:52  15Feb2017            

=------------------------------------------------------------------------------=
   JOB DONE.
=------------------------------------------------------------------------------=
