
     Program PWSCF v.5.1 starts on 28Sep2017 at 12:37: 7 

     This program is part of the open-source Quantum ESPRESSO suite
     for quantum simulation of materials; please cite
         "P. Giannozzi et al., J. Phys.:Condens. Matter 21 395502 (2009);
          URL http://www.quantum-espresso.org", 
     in publications or presentations arising from this work. More details at
     http://www.quantum-espresso.org/quote

     Parallel version (MPI), running on     8 processors
     R & G space division:  proc/nbgrp/npool/nimage =       8
     Reading input from /tmp/Ge_diamond.scf.in.super.222.x001.4298/Ge_diamond.scf.in.super.222.x001.t
Warning: card &IONS ignored
Warning: card   ION_DYNAMICS='BFGS', ignored
Warning: card / ignored
Warning: card &CELL ignored
Warning: card  CELL_DYNAMICS = 'BFGS' ignored
Warning: card / ignored
     Message from routine read_cards :
     DEPRECATED: no units specified in CELL_PARAMETERS card

     Current dimensions of program PWSCF are:
     Max number of different atomic species (ntypx) = 10
     Max number of k-points (npk) =  40000
     Max angular momentum in pseudopotentials (lmaxx) =  3
 kfg - two_fermi_energies  F

     Subspace diagonalization in iterative solution of the eigenvalue problem:
     a serial algorithm will be used


     Parallelization info
     --------------------
     sticks:   dense  smooth     PW     G-vecs:    dense   smooth      PW
     Min         397     277     76                14695     8616    1260
     Max         399     278     77                14696     8641    1261
     Sum        3181    2221    613               117565    69041   10081



     bravais-lattice index     =            0
     lattice parameter (alat)  =    15.161884076  a.u.
     unit-cell volume          =    2464.5891 (a.u.)^3
     number of atoms/cell      =           16
     number of atomic types    =            1
     number of electrons       =       224.00
     number of Kohn-Sham states=          134
     kinetic-energy cutoff     =      35.0000  Ry
     charge density cutoff     =     200.0000  Ry
     convergence threshold     =      1.0E-09
     mixing beta               =       0.3000
     number of iterations used =            8  local-TF  mixing
     Exchange-correlation      = SLA  PW   PSX  PSC ( 1  4 10  8 0)
     A smooth kinetic-energy cutoff is imposed at      34.5000 Ry
     height of the smooth step-function =             800.0000 Ry
     width of the smooth step-function  =               1.0000 Ry


     celldm(1)=  15.161884  celldm(2)=   0.000000  celldm(3)=   0.000000
     celldm(4)=   0.000000  celldm(5)=   0.000000  celldm(6)=   0.000000

     crystal axes: (cart. coord. in units of alat)
               a(1) = (   0.000000000000   0.707106781187   0.707106781187 )  
               a(2) = (   0.707106781187   0.000000000000   0.707106781187 )  
               a(3) = (   0.707106781187   0.707106781187  -0.000000000000 )  

     reciprocal axes: (cart. coord. in units 2 pi/alat)
               b(1) = ( -0.707107  0.707107  0.707107 )  
               b(2) = (  0.707107 -0.707107  0.707107 )  
               b(3) = (  0.707107  0.707107 -0.707107 )  


     PseudoPot. # 1 for Ge read from file:
     /users/kfg/psuedo/gbrv_1.5/ge.pbesol.UPF
     MD5 check sum: 7bed0412183f5e553a4d27ec7023354d
     Pseudo is Ultrasoft + core correction, Zval = 14.0
     Generated by new atomic code, or converted to UPF format
     Using radial grid of  873 points,  6 beta functions with: 
                l(1) =   0
                l(2) =   0
                l(3) =   1
                l(4) =   1
                l(5) =   2
                l(6) =   2
     Q(r) pseudized with  8 coefficients,  rinner =    1.400   1.400   1.400
                                                       1.400   1.400

     atomic species   valence    mass     pseudopotential
        Ge            14.00    72.64000     Ge( 1.00)

      2 Sym. Ops. (no inversion) found


                                    s                        frac. trans.

      isym =  1     identity                                     

 cryst.   s( 1) = (     1          0          0      )
                  (     0          1          0      )
                  (     0          0          1      )

 cart.    s( 1) = (  1.0000000  0.0000000  0.0000000 )
                  (  0.0000000  1.0000000  0.0000000 )
                  (  0.0000000  0.0000000  1.0000000 )


      isym =  2     inv. 180 deg rotation - cart. axis [1,-1,0]  

 cryst.   s( 2) = (     0          1          0      )
                  (     1          0          0      )
                  (     0          0          1      )

 cart.    s( 2) = (  0.0000000  1.0000000  0.0000000 )
                  (  1.0000000  0.0000000  0.0000000 )
                  (  0.0000000  0.0000000  1.0000000 )


     point group C_s (m)    
     there are  2 classes
     the character table:

       E     s    
A'     1.00  1.00
A''    1.00 -1.00

     the symmetry operations in each class:
     E        1
     s        2

   Cartesian axes

     site n.     atom                  positions (alat units)
         1           Ge  tau(   1) = (    0.00070710678    0.00070710678    0.00000000000  )
         2           Ge  tau(   2) = (    0.17677669530    0.17677669530    0.17677669530  )
         3           Ge  tau(   3) = (    0.35355339059    0.35355339059    0.00000000000  )
         4           Ge  tau(   4) = (    0.53033008589    0.53033008589    0.17677669530  )
         5           Ge  tau(   5) = (    0.35355339059    0.00000000000    0.35355339059  )
         6           Ge  tau(   6) = (    0.53033008589    0.17677669530    0.53033008589  )
         7           Ge  tau(   7) = (    0.70710678119    0.35355339059    0.35355339059  )
         8           Ge  tau(   8) = (    0.88388347648    0.53033008589    0.53033008589  )
         9           Ge  tau(   9) = (    0.00000000000    0.35355339059    0.35355339059  )
        10           Ge  tau(  10) = (    0.17677669530    0.53033008589    0.53033008589  )
        11           Ge  tau(  11) = (    0.35355339059    0.70710678119    0.35355339059  )
        12           Ge  tau(  12) = (    0.53033008589    0.88388347648    0.53033008589  )
        13           Ge  tau(  13) = (    0.35355339059    0.35355339059    0.70710678119  )
        14           Ge  tau(  14) = (    0.53033008589    0.53033008589    0.88388347648  )
        15           Ge  tau(  15) = (    0.70710678119    0.70710678119    0.70710678119  )
        16           Ge  tau(  16) = (    0.88388347648    0.88388347648    0.88388347648  )

   Crystallographic axes

     site n.     atom                  positions (cryst. coord.)
         1           Ge  tau(   1) = (    0.00000000000    0.00000000000    0.00100000000  )
         2           Ge  tau(   2) = (    0.12500000000    0.12500000000    0.12500000000  )
         3           Ge  tau(   3) = (    0.00000000000    0.00000000000    0.50000000000  )
         4           Ge  tau(   4) = (    0.12500000000    0.12500000000    0.62500000000  )
         5           Ge  tau(   5) = (    0.00000000000    0.50000000000    0.00000000000  )
         6           Ge  tau(   6) = (    0.12500000000    0.62500000000    0.12500000000  )
         7           Ge  tau(   7) = (    0.00000000000    0.50000000000    0.50000000000  )
         8           Ge  tau(   8) = (    0.12500000000    0.62500000000    0.62500000000  )
         9           Ge  tau(   9) = (    0.50000000000    0.00000000000    0.00000000000  )
        10           Ge  tau(  10) = (    0.62500000000    0.12500000000    0.12500000000  )
        11           Ge  tau(  11) = (    0.50000000000    0.00000000000    0.50000000000  )
        12           Ge  tau(  12) = (    0.62500000000    0.12500000000    0.62500000000  )
        13           Ge  tau(  13) = (    0.50000000000    0.50000000000    0.00000000000  )
        14           Ge  tau(  14) = (    0.62500000000    0.62500000000    0.12500000000  )
        15           Ge  tau(  15) = (    0.50000000000    0.50000000000    0.50000000000  )
        16           Ge  tau(  16) = (    0.62500000000    0.62500000000    0.62500000000  )

     number of k points=    24  gaussian smearing, width (Ry)=  0.0150
                       cart. coord. in units 2pi/alat
        k(    1) = (   0.0000000   0.0000000   0.0000000), wk =   0.0312500
        k(    2) = (   0.1767767   0.1767767  -0.1767767), wk =   0.0625000
        k(    3) = (  -0.3535534  -0.3535534   0.3535534), wk =   0.0312500
        k(    4) = (   0.3535534   0.0000000   0.0000000), wk =   0.1250000
        k(    5) = (  -0.1767767  -0.5303301   0.5303301), wk =   0.1250000
        k(    6) = (   0.0000000  -0.3535534   0.3535534), wk =   0.1250000
        k(    7) = (  -0.7071068   0.0000000   0.0000000), wk =   0.0625000
        k(    8) = (  -0.7071068   0.3535534   0.0000000), wk =   0.1250000
        k(    9) = (  -0.1767767   0.1767767   0.1767767), wk =   0.1250000
        k(   10) = (   0.1767767   0.1767767   0.1767767), wk =   0.0625000
        k(   11) = (   0.3535534  -0.3535534  -0.3535534), wk =   0.0625000
        k(   12) = (  -0.3535534  -0.3535534  -0.3535534), wk =   0.0312500
        k(   13) = (   0.0000000   0.0000000   0.3535534), wk =   0.0625000
        k(   14) = (   0.1767767  -0.5303301  -0.5303301), wk =   0.1250000
        k(   15) = (  -0.1767767   0.5303301  -0.5303301), wk =   0.1250000
        k(   16) = (  -0.5303301  -0.1767767  -0.5303301), wk =   0.1250000
        k(   17) = (   0.5303301   0.5303301  -0.1767767), wk =   0.0625000
        k(   18) = (  -0.5303301   0.5303301   0.1767767), wk =   0.1250000
        k(   19) = (  -0.5303301  -0.5303301  -0.1767767), wk =   0.0625000
        k(   20) = (   0.0000000  -0.3535534  -0.3535534), wk =   0.1250000
        k(   21) = (   0.3535534   0.3535534   0.0000000), wk =   0.0625000
        k(   22) = (  -0.3535534   0.3535534   0.0000000), wk =   0.0625000
        k(   23) = (   0.0000000   0.0000000  -0.7071068), wk =   0.0312500
        k(   24) = (   0.7071068  -0.0000000   0.3535534), wk =   0.0625000

                       cryst. coord.
        k(    1) = (   0.0000000   0.0000000   0.0000000), wk =   0.0312500
        k(    2) = (   0.0000000   0.0000000   0.2500000), wk =   0.0625000
        k(    3) = (   0.0000000   0.0000000  -0.5000000), wk =   0.0312500
        k(    4) = (   0.0000000   0.2500000   0.2500000), wk =   0.1250000
        k(    5) = (   0.0000000   0.2500000  -0.5000000), wk =   0.1250000
        k(    6) = (   0.0000000   0.2500000  -0.2500000), wk =   0.1250000
        k(    7) = (   0.0000000  -0.5000000  -0.5000000), wk =   0.0625000
        k(    8) = (   0.2500000  -0.5000000  -0.2500000), wk =   0.1250000
        k(    9) = (   0.2500000   0.0000000   0.0000000), wk =   0.1250000
        k(   10) = (   0.2500000   0.2500000   0.2500000), wk =   0.0625000
        k(   11) = (  -0.5000000   0.0000000   0.0000000), wk =   0.0625000
        k(   12) = (  -0.5000000  -0.5000000  -0.5000000), wk =   0.0312500
        k(   13) = (   0.2500000   0.2500000   0.0000000), wk =   0.0625000
        k(   14) = (  -0.7500000  -0.2500000  -0.2500000), wk =   0.1250000
        k(   15) = (   0.0000000  -0.5000000   0.2500000), wk =   0.1250000
        k(   16) = (  -0.5000000  -0.7500000  -0.5000000), wk =   0.1250000
        k(   17) = (   0.2500000   0.2500000   0.7500000), wk =   0.0625000
        k(   18) = (   0.5000000  -0.2500000   0.0000000), wk =   0.1250000
        k(   19) = (  -0.5000000  -0.5000000  -0.7500000), wk =   0.0625000
        k(   20) = (  -0.5000000  -0.2500000  -0.2500000), wk =   0.1250000
        k(   21) = (   0.2500000   0.2500000   0.5000000), wk =   0.0625000
        k(   22) = (   0.2500000  -0.2500000   0.0000000), wk =   0.0625000
        k(   23) = (  -0.5000000  -0.5000000   0.0000000), wk =   0.0312500
        k(   24) = (   0.2500000   0.7500000   0.5000000), wk =   0.0625000

     Dense  grid:   117565 G-vectors     FFT dimensions: (  72,  72,  72)

     Smooth grid:    69041 G-vectors     FFT dimensions: (  60,  60,  60)

     Largest allocated arrays     est. size (Mb)     dimensions
        Kohn-Sham Wavefunctions         2.24 Mb     (    1095,  134)
        NL pseudopotentials             4.81 Mb     (    1095,  288)
        Each V/rho on FFT grid          0.71 Mb     (   46656)
        Each G-vector array             0.11 Mb     (   14696)
        G-vector shells                 0.01 Mb     (     776)
     Largest temporary arrays     est. size (Mb)     dimensions
        Auxiliary wavefunctions         8.96 Mb     (    1095,  536)
        Each subspace H/S matrix        4.38 Mb     (     536,  536)
        Each <psi_i|beta_j> matrix      0.59 Mb     (     288,  134)
        Arrays for rho mixing           5.70 Mb     (   46656,    8)

     Check: negative/imaginary core charge=   -0.000001    0.000000

     Initial potential from superposition of free atoms

     starting charge  223.98707, renormalised to  224.00000
     Starting wfc are  144 randomized atomic wfcs

     total cpu time spent up to now is       37.7 secs

     per-process dynamical memory:    78.8 Mb

     Self-consistent Calculation

     iteration #  1     ecut=    35.00 Ry     beta=0.30
     Davidson diagonalization with overlap
     ethr =  1.00E-02,  avg # of iterations =  3.9

     Threshold (ethr) on eigenvalues was too large:
     Diagonalizing with lowered threshold

     Davidson diagonalization with overlap
     ethr =  1.11E-04,  avg # of iterations =  5.3

     total cpu time spent up to now is      262.5 secs

     total energy              =   -3411.03369572 Ry
     Harris-Foulkes estimate   =   -3411.06062204 Ry
     estimated scf accuracy    <       0.26571940 Ry

     iteration #  2     ecut=    35.00 Ry     beta=0.30
     Davidson diagonalization with overlap
     ethr =  1.19E-04,  avg # of iterations =  1.0

     total cpu time spent up to now is      335.8 secs

     total energy              =   -3410.98416186 Ry
     Harris-Foulkes estimate   =   -3411.03460691 Ry
     estimated scf accuracy    <       0.16305417 Ry

     iteration #  3     ecut=    35.00 Ry     beta=0.30
     Davidson diagonalization with overlap
     ethr =  7.28E-05,  avg # of iterations =  1.8

     total cpu time spent up to now is      423.0 secs

     total energy              =   -3410.99247200 Ry
     Harris-Foulkes estimate   =   -3410.99285668 Ry
     estimated scf accuracy    <       0.00294662 Ry

     iteration #  4     ecut=    35.00 Ry     beta=0.30
     Davidson diagonalization with overlap
     ethr =  1.32E-06,  avg # of iterations =  3.9

     total cpu time spent up to now is      578.6 secs

     total energy              =   -3410.99304496 Ry
     Harris-Foulkes estimate   =   -3410.99307375 Ry
     estimated scf accuracy    <       0.00031216 Ry

     iteration #  5     ecut=    35.00 Ry     beta=0.30
     Davidson diagonalization with overlap
     ethr =  1.39E-07,  avg # of iterations =  2.0

     total cpu time spent up to now is      673.6 secs

     total energy              =   -3410.99304691 Ry
     Harris-Foulkes estimate   =   -3410.99307166 Ry
     estimated scf accuracy    <       0.00006535 Ry

     iteration #  6     ecut=    35.00 Ry     beta=0.30
     Davidson diagonalization with overlap
     ethr =  2.92E-08,  avg # of iterations =  1.0

     total cpu time spent up to now is      752.0 secs

     total energy              =   -3410.99305076 Ry
     Harris-Foulkes estimate   =   -3410.99304842 Ry
     estimated scf accuracy    <       0.00000225 Ry

     iteration #  7     ecut=    35.00 Ry     beta=0.30
     Davidson diagonalization with overlap
     ethr =  1.00E-09,  avg # of iterations =  2.1

     total cpu time spent up to now is      862.1 secs

     total energy              =   -3410.99305147 Ry
     Harris-Foulkes estimate   =   -3410.99305133 Ry
     estimated scf accuracy    <       0.00000208 Ry

     iteration #  8     ecut=    35.00 Ry     beta=0.30
     Davidson diagonalization with overlap
     ethr =  9.28E-10,  avg # of iterations =  2.0

     total cpu time spent up to now is      957.9 secs

     total energy              =   -3410.99305197 Ry
     Harris-Foulkes estimate   =   -3410.99305162 Ry
     estimated scf accuracy    <       0.00000001 Ry

     iteration #  9     ecut=    35.00 Ry     beta=0.30
     Davidson diagonalization with overlap
     ethr =  5.47E-12,  avg # of iterations =  2.9

     total cpu time spent up to now is     1091.4 secs

     End of self-consistent calculation

          k = 0.0000 0.0000 0.0000 (  8609 PWs)   bands (ev):

   -16.6264 -16.6259 -16.6253 -16.6250 -16.6247 -16.6241 -16.6179 -16.6174
   -16.6171 -16.6169 -16.6167 -16.6162 -16.6160 -16.6154 -16.5905 -16.5903
   -16.5901 -16.5733 -16.5727 -16.5727 -16.5720 -16.5570 -16.5570 -16.5410
   -16.5408 -16.5407 -16.5406 -16.5405 -16.5402 -16.5161 -16.5161 -16.5151
   -16.5151 -16.5151 -16.5150 -16.5140 -16.5139 -16.4462 -16.4457 -16.4454
   -16.4454 -16.4451 -16.4447 -16.3897 -16.3893 -16.3892 -16.3890 -16.3889
   -16.3886 -16.3851 -16.3849 -16.3845 -16.3845 -16.3843 -16.3840 -16.3835
   -16.3834 -16.3716 -16.3712 -16.3711 -16.3708 -16.3501 -16.3501 -16.3499
   -16.3374 -16.3374 -16.3124 -16.3123 -16.3118 -16.3117 -16.3116 -16.3114
   -16.3112 -16.3111 -16.2986 -16.2985 -16.2983 -16.2983 -16.2980 -16.2977
    -4.5049  -2.4315  -2.4271  -2.4271  -2.4228  -0.6500  -0.6428  -0.6423
    -0.6423  -0.6418  -0.6347   0.6342   0.6390   0.6390   0.6437   5.1664
     5.1688   5.1692   5.1692   5.1696   5.1720   6.8238   6.8295   6.8311
     6.8312   6.8325   6.8326   6.8342   6.8398   8.1357   8.2220   8.2266
     8.2313   8.3174   8.3196   8.3196   8.3219   8.8945   8.8970   8.8998
     8.8998   8.9026   8.9051  10.7480  10.7515  10.7551  11.9181  11.9203
    11.9258  11.9259  11.9261  11.9263  11.9318  11.9340

     occupation numbers 
     1.0000   1.0000   1.0000   1.0000   1.0000   1.0000   1.0000   1.0000
     1.0000   1.0000   1.0000   1.0000   1.0000   1.0000   1.0000   1.0000
     1.0000   1.0000   1.0000   1.0000   1.0000   1.0000   1.0000   1.0000
     1.0000   1.0000   1.0000   1.0000   1.0000   1.0000   1.0000   1.0000
     1.0000   1.0000   1.0000   1.0000   1.0000   1.0000   1.0000   1.0000
     1.0000   1.0000   1.0000   1.0000   1.0000   1.0000   1.0000   1.0000
     1.0000   1.0000   1.0000   1.0000   1.0000   1.0000   1.0000   1.0000
     1.0000   1.0000   1.0000   1.0000   1.0000   1.0000   1.0000   1.0000
     1.0000   1.0000   1.0000   1.0000   1.0000   1.0000   1.0000   1.0000
     1.0000   1.0000   1.0000   1.0000   1.0000   1.0000   1.0000   1.0000
     1.0000   1.0000   1.0000   1.0000   1.0000   1.0000   1.0000   1.0000
     1.0000   1.0000   1.0000   1.0000   1.0000   1.0000   1.0000   1.0000
     1.0000   1.0000   1.0000   1.0000   1.0000   1.0000   1.0000   1.0000
     1.0000   1.0000   1.0000   1.0000   1.0000   0.6931   0.4628   0.4502
     0.4374   0.2253   0.2208   0.2207   0.2160   0.0000   0.0000   0.0000
     0.0000   0.0000   0.0000   0.0000   0.0000   0.0000   0.0000   0.0000
     0.0000   0.0000   0.0000   0.0000   0.0000   0.0000

          k = 0.1768 0.1768-0.1768 (  8627 PWs)   bands (ev):

   -16.6324 -16.6320 -16.6313 -16.6280 -16.6274 -16.6267 -16.6252 -16.6250
   -16.6243 -16.6191 -16.6190 -16.6184 -16.6151 -16.6148 -16.5989 -16.5986
   -16.5889 -16.5771 -16.5616 -16.5613 -16.5610 -16.5525 -16.5523 -16.5520
   -16.5458 -16.5458 -16.5182 -16.5182 -16.5084 -16.5082 -16.5076 -16.5066
   -16.5065 -16.5063 -16.5039 -16.5034 -16.5033 -16.4678 -16.4675 -16.4671
   -16.4246 -16.4242 -16.4238 -16.4216 -16.4215 -16.4213 -16.4057 -16.4057
   -16.4055 -16.3910 -16.3905 -16.3903 -16.3826 -16.3825 -16.3774 -16.3770
   -16.3767 -16.3755 -16.3752 -16.3749 -16.3682 -16.3621 -16.3620 -16.3537
   -16.3276 -16.3275 -16.3131 -16.3129 -16.3096 -16.3090 -16.3089 -16.3002
   -16.3001 -16.2996 -16.2993 -16.2992 -16.2991 -16.2934 -16.2933 -16.2931
    -4.3158  -2.9634  -2.3333  -2.3311  -2.3274  -1.4564  -1.4539  -1.4507
     0.2769   0.2800   0.2819   0.7635   0.7680   0.7687   1.5638   4.6739
     4.6746   4.6771   5.3439   5.3456   5.3460   5.5705   5.5715   5.5759
     5.8443   6.4781   6.4806   6.4812   6.9633   6.9668   7.8901   7.8940
     8.4473   9.0468   9.0477   9.0512   9.1862   9.5517   9.5542   9.5547
    10.0971  10.1010  10.1026  11.1959  11.1992  11.6468  11.7015  11.7077
    11.7079  11.9594  11.9642  12.6498  12.6548  12.6551

     occupation numbers 
     1.0000   1.0000   1.0000   1.0000   1.0000   1.0000   1.0000   1.0000
     1.0000   1.0000   1.0000   1.0000   1.0000   1.0000   1.0000   1.0000
     1.0000   1.0000   1.0000   1.0000   1.0000   1.0000   1.0000   1.0000
     1.0000   1.0000   1.0000   1.0000   1.0000   1.0000   1.0000   1.0000
     1.0000   1.0000   1.0000   1.0000   1.0000   1.0000   1.0000   1.0000
     1.0000   1.0000   1.0000   1.0000   1.0000   1.0000   1.0000   1.0000
     1.0000   1.0000   1.0000   1.0000   1.0000   1.0000   1.0000   1.0000
     1.0000   1.0000   1.0000   1.0000   1.0000   1.0000   1.0000   1.0000
     1.0000   1.0000   1.0000   1.0000   1.0000   1.0000   1.0000   1.0000
     1.0000   1.0000   1.0000   1.0000   1.0000   1.0000   1.0000   1.0000
     1.0000   1.0000   1.0000   1.0000   1.0000   1.0000   1.0000   1.0000
     1.0000   1.0000   1.0000   1.0000   1.0000   1.0000   1.0000   1.0000
     1.0000   1.0000   1.0000   1.0000   1.0000   1.0000   1.0000   1.0000
     1.0000   1.0000   1.0000   1.0000   1.0000   1.0000   0.9863   0.9854
     0.0490   0.0000   0.0000   0.0000   0.0000   0.0000   0.0000   0.0000
     0.0000   0.0000   0.0000   0.0000   0.0000   0.0000   0.0000   0.0000
     0.0000   0.0000   0.0000   0.0000   0.0000   0.0000

          k =-0.3536-0.3536 0.3536 (  8646 PWs)   bands (ev):

   -16.6375 -16.6371 -16.6363 -16.6359 -16.6350 -16.6340 -16.6246 -16.6242
   -16.6233 -16.6216 -16.6212 -16.6209 -16.6104 -16.6099 -16.6080 -16.6078
   -16.5833 -16.5823 -16.5558 -16.5556 -16.5550 -16.5538 -16.5535 -16.5533
   -16.5301 -16.5301 -16.5279 -16.5279 -16.4910 -16.4909 -16.4902 -16.4892
   -16.4885 -16.4884 -16.4713 -16.4713 -16.4711 -16.4703 -16.4699 -16.4699
   -16.4528 -16.4526 -16.4522 -16.4514 -16.4509 -16.4507 -16.4061 -16.4056
   -16.4054 -16.4044 -16.4041 -16.4038 -16.3768 -16.3762 -16.3759 -16.3756
   -16.3751 -16.3750 -16.3747 -16.3741 -16.3736 -16.3733 -16.3608 -16.3605
   -16.3186 -16.3183 -16.3173 -16.3172 -16.3055 -16.3049 -16.3049 -16.3031
   -16.3027 -16.3024 -16.2910 -16.2909 -16.2900 -16.2897 -16.2892 -16.2889
    -3.7699  -3.7642  -2.0255  -2.0201  -2.0197  -2.0187  -2.0183  -2.0105
     0.8411   0.8492   0.8505   0.8518   0.8518   0.8523   3.5004   3.5053
     4.5044   4.5047   4.5057   4.5078   4.5095   4.5153   5.8308   5.8348
     5.8365   5.8390   5.8404   5.8407   7.3428   7.3499   7.3521   7.3521
     8.8081   8.8147   9.5608   9.5616   9.5675   9.5681   9.5684   9.5692
    11.8149  11.8216  11.8225  11.8240  12.3639  12.3730  12.3734  12.3738
    12.3767  12.3767  13.5671  13.5717  13.5724  13.5752

     occupation numbers 
     1.0000   1.0000   1.0000   1.0000   1.0000   1.0000   1.0000   1.0000
     1.0000   1.0000   1.0000   1.0000   1.0000   1.0000   1.0000   1.0000
     1.0000   1.0000   1.0000   1.0000   1.0000   1.0000   1.0000   1.0000
     1.0000   1.0000   1.0000   1.0000   1.0000   1.0000   1.0000   1.0000
     1.0000   1.0000   1.0000   1.0000   1.0000   1.0000   1.0000   1.0000
     1.0000   1.0000   1.0000   1.0000   1.0000   1.0000   1.0000   1.0000
     1.0000   1.0000   1.0000   1.0000   1.0000   1.0000   1.0000   1.0000
     1.0000   1.0000   1.0000   1.0000   1.0000   1.0000   1.0000   1.0000
     1.0000   1.0000   1.0000   1.0000   1.0000   1.0000   1.0000   1.0000
     1.0000   1.0000   1.0000   1.0000   1.0000   1.0000   1.0000   1.0000
     1.0000   1.0000   1.0000   1.0000   1.0000   1.0000   1.0000   1.0000
     1.0000   1.0000   1.0000   1.0000   1.0000   1.0000   1.0000   1.0000
     1.0000   1.0000   1.0000   1.0000   1.0000   1.0000   1.0000   1.0000
     1.0000   1.0000   1.0000   1.0000   1.0000   1.0000   1.0000   1.0000
     0.0000   0.0000   0.0000   0.0000   0.0000   0.0000   0.0000   0.0000
     0.0000   0.0000   0.0000   0.0000   0.0000   0.0000   0.0000   0.0000
     0.0000   0.0000   0.0000   0.0000   0.0000   0.0000

          k = 0.3536 0.0000 0.0000 (  8620 PWs)   bands (ev):

   -16.6334 -16.6328 -16.6325 -16.6319 -16.6263 -16.6259 -16.6256 -16.6250
   -16.6225 -16.6222 -16.6207 -16.6206 -16.6195 -16.6191 -16.5986 -16.5969
   -16.5966 -16.5780 -16.5608 -16.5603 -16.5600 -16.5595 -16.5485 -16.5338
   -16.5227 -16.5225 -16.5224 -16.5223 -16.5155 -16.5145 -16.5145 -16.5133
   -16.5030 -16.5020 -16.5020 -16.5010 -16.4913 -16.4877 -16.4470 -16.4467
   -16.4467 -16.4464 -16.4381 -16.4050 -16.4048 -16.4046 -16.4045 -16.4037
   -16.4002 -16.3998 -16.3994 -16.3988 -16.3868 -16.3865 -16.3862 -16.3861
   -16.3840 -16.3837 -16.3835 -16.3832 -16.3826 -16.3496 -16.3456 -16.3424
   -16.3423 -16.3228 -16.3068 -16.3066 -16.3052 -16.3051 -16.3044 -16.3042
   -16.3035 -16.3032 -16.3030 -16.3028 -16.2919 -16.2918 -16.2916 -16.2914
    -4.2517  -2.5400  -2.5357  -2.5353  -2.5311  -2.2785  -0.5995  -0.5949
    -0.5949  -0.5904   1.0907   1.0953   1.0957   1.1003   1.3194   4.6951
     4.6962   4.6973   4.6984   5.4261   5.4288   5.4295   5.4321   5.4333
     5.4355   5.8012   6.7754   6.7797   6.7809   6.7852   7.3543   7.3583
     8.7309   9.5664   9.5683   9.5691   9.5709   9.7167  10.0788  10.0898
    10.0933  10.0941  10.0974  10.3944  11.9330  11.9343  11.9375  11.9387
    11.9421  11.9431  12.3520  12.3567  12.3570  12.3618

     occupation numbers 
     1.0000   1.0000   1.0000   1.0000   1.0000   1.0000   1.0000   1.0000
     1.0000   1.0000   1.0000   1.0000   1.0000   1.0000   1.0000   1.0000
     1.0000   1.0000   1.0000   1.0000   1.0000   1.0000   1.0000   1.0000
     1.0000   1.0000   1.0000   1.0000   1.0000   1.0000   1.0000   1.0000
     1.0000   1.0000   1.0000   1.0000   1.0000   1.0000   1.0000   1.0000
     1.0000   1.0000   1.0000   1.0000   1.0000   1.0000   1.0000   1.0000
     1.0000   1.0000   1.0000   1.0000   1.0000   1.0000   1.0000   1.0000
     1.0000   1.0000   1.0000   1.0000   1.0000   1.0000   1.0000   1.0000
     1.0000   1.0000   1.0000   1.0000   1.0000   1.0000   1.0000   1.0000
     1.0000   1.0000   1.0000   1.0000   1.0000   1.0000   1.0000   1.0000
     1.0000   1.0000   1.0000   1.0000   1.0000   1.0000   1.0000   1.0000
     1.0000   1.0000   1.0000   1.0000   1.0000   1.0000   1.0000   1.0000
     1.0000   1.0000   1.0000   1.0000   1.0000   1.0000   1.0000   1.0000
     1.0000   1.0000   1.0000   1.0000   1.0000   1.0000   1.0000   1.0000
     0.0001   0.0000   0.0000   0.0000   0.0000   0.0000   0.0000   0.0000
     0.0000   0.0000   0.0000   0.0000   0.0000   0.0000   0.0000   0.0000
     0.0000   0.0000   0.0000   0.0000   0.0000   0.0000

          k =-0.1768-0.5303 0.5303 (  8605 PWs)   bands (ev):

   -16.6405 -16.6394 -16.6378 -16.6324 -16.6318 -16.6309 -16.6304 -16.6254
   -16.6249 -16.6239 -16.6227 -16.6180 -16.6170 -16.6167 -16.6115 -16.6053
   -16.5887 -16.5794 -16.5712 -16.5546 -16.5541 -16.5422 -16.5349 -16.5318
   -16.5315 -16.5264 -16.5140 -16.5087 -16.5074 -16.5069 -16.5063 -16.4870
   -16.4811 -16.4804 -16.4790 -16.4787 -16.4780 -16.4701 -16.4698 -16.4694
   -16.4559 -16.4452 -16.4447 -16.4347 -16.4345 -16.4315 -16.4265 -16.4264
   -16.4207 -16.4040 -16.3967 -16.3948 -16.3946 -16.3910 -16.3902 -16.3874
   -16.3859 -16.3821 -16.3799 -16.3795 -16.3621 -16.3617 -16.3491 -16.3455
   -16.3282 -16.3157 -16.3135 -16.3130 -16.3064 -16.3043 -16.3029 -16.3023
   -16.2992 -16.2956 -16.2955 -16.2939 -16.2937 -16.2874 -16.2857 -16.2852
    -3.8182  -3.3536  -2.8449  -2.4740  -2.4697  -1.8585  -1.3381  -1.3341
     0.2058   0.2093   0.6419   1.4052   1.4095   2.1495   2.7151   4.0346
     4.0838   4.0958   4.0982   4.6864   4.6886   5.1496   5.1516   5.3801
     5.6731   5.8508   6.1375   6.1418   6.1561   6.7070   6.7958   7.3049
     9.4294   9.7713   9.7915  10.0725  10.4483  10.4518  10.6133  10.6162
    10.7902  10.8488  11.5798  11.5816  11.9627  12.1226  12.3703  12.3745
    12.7591  13.0119  13.0517  13.0534  13.1710  13.2444

     occupation numbers 
     1.0000   1.0000   1.0000   1.0000   1.0000   1.0000   1.0000   1.0000
     1.0000   1.0000   1.0000   1.0000   1.0000   1.0000   1.0000   1.0000
     1.0000   1.0000   1.0000   1.0000   1.0000   1.0000   1.0000   1.0000
     1.0000   1.0000   1.0000   1.0000   1.0000   1.0000   1.0000   1.0000
     1.0000   1.0000   1.0000   1.0000   1.0000   1.0000   1.0000   1.0000
     1.0000   1.0000   1.0000   1.0000   1.0000   1.0000   1.0000   1.0000
     1.0000   1.0000   1.0000   1.0000   1.0000   1.0000   1.0000   1.0000
     1.0000   1.0000   1.0000   1.0000   1.0000   1.0000   1.0000   1.0000
     1.0000   1.0000   1.0000   1.0000   1.0000   1.0000   1.0000   1.0000
     1.0000   1.0000   1.0000   1.0000   1.0000   1.0000   1.0000   1.0000
     1.0000   1.0000   1.0000   1.0000   1.0000   1.0000   1.0000   1.0000
     1.0000   1.0000   1.0000   1.0000   1.0000   1.0000   1.0000   1.0000
     1.0000   1.0000   1.0000   1.0000   1.0000   1.0000   1.0000   1.0000
     1.0000   1.0000   1.0000   1.0000   1.0000   1.0000   1.0000   1.0000
     0.0000   0.0000   0.0000   0.0000   0.0000   0.0000   0.0000   0.0000
     0.0000   0.0000   0.0000   0.0000   0.0000   0.0000   0.0000   0.0000
     0.0000   0.0000   0.0000   0.0000   0.0000   0.0000

          k = 0.0000-0.3536 0.3536 (  8602 PWs)   bands (ev):

   -16.6413 -16.6363 -16.6353 -16.6300 -16.6294 -16.6291 -16.6282 -16.6260
   -16.6253 -16.6250 -16.6233 -16.6220 -16.6145 -16.6132 -16.6095 -16.6033
   -16.5857 -16.5748 -16.5741 -16.5571 -16.5564 -16.5440 -16.5437 -16.5390
   -16.5382 -16.5274 -16.5201 -16.5190 -16.5022 -16.5016 -16.4960 -16.4952
   -16.4892 -16.4885 -16.4833 -16.4820 -16.4809 -16.4766 -16.4764 -16.4559
   -16.4487 -16.4483 -16.4426 -16.4384 -16.4298 -16.4291 -16.4131 -16.4129
   -16.4076 -16.4070 -16.4053 -16.4046 -16.3898 -16.3866 -16.3863 -16.3818
   -16.3770 -16.3763 -16.3728 -16.3715 -16.3711 -16.3614 -16.3610 -16.3419
   -16.3337 -16.3175 -16.3167 -16.3135 -16.3042 -16.3037 -16.3005 -16.3004
   -16.2979 -16.2976 -16.2975 -16.2972 -16.2970 -16.2899 -16.2894 -16.2838
    -4.0047  -3.0776  -3.0727  -2.1102  -2.1061  -1.9187  -1.9145  -1.1115
    -0.0524   0.5865   0.5907   1.1076   1.1114   2.0949   2.0993   3.9005
     4.5042   4.5073   4.5778   4.7303   4.7321   5.3435   5.3478   5.6065
     5.9224   5.9246   6.0256   6.0291   6.4789   6.4851   6.4864   7.8451
     9.3063   9.7773   9.7802   9.8774  10.0433  10.0465  10.5485  10.5502
    10.6897  10.6941  11.3194  11.4377  11.4801  11.4822  11.5587  11.5627
    12.2341  12.9254  12.9301  12.9495  13.7431  13.7477

     occupation numbers 
     1.0000   1.0000   1.0000   1.0000   1.0000   1.0000   1.0000   1.0000
     1.0000   1.0000   1.0000   1.0000   1.0000   1.0000   1.0000   1.0000
     1.0000   1.0000   1.0000   1.0000   1.0000   1.0000   1.0000   1.0000
     1.0000   1.0000   1.0000   1.0000   1.0000   1.0000   1.0000   1.0000
     1.0000   1.0000   1.0000   1.0000   1.0000   1.0000   1.0000   1.0000
     1.0000   1.0000   1.0000   1.0000   1.0000   1.0000   1.0000   1.0000
     1.0000   1.0000   1.0000   1.0000   1.0000   1.0000   1.0000   1.0000
     1.0000   1.0000   1.0000   1.0000   1.0000   1.0000   1.0000   1.0000
     1.0000   1.0000   1.0000   1.0000   1.0000   1.0000   1.0000   1.0000
     1.0000   1.0000   1.0000   1.0000   1.0000   1.0000   1.0000   1.0000
     1.0000   1.0000   1.0000   1.0000   1.0000   1.0000   1.0000   1.0000
     1.0000   1.0000   1.0000   1.0000   1.0000   1.0000   1.0000   1.0000
     1.0000   1.0000   1.0000   1.0000   1.0000   1.0000   1.0000   1.0000
     1.0000   1.0000   1.0000   1.0000   1.0000   1.0000   1.0000   0.9941
     0.0000   0.0000   0.0000   0.0000   0.0000   0.0000   0.0000   0.0000
     0.0000   0.0000   0.0000   0.0000   0.0000   0.0000   0.0000   0.0000
     0.0000   0.0000   0.0000   0.0000   0.0000   0.0000

          k =-0.7071 0.0000 0.0000 (  8616 PWs)   bands (ev):

   -16.6390 -16.6384 -16.6382 -16.6375 -16.6327 -16.6323 -16.6319 -16.6314
   -16.6244 -16.6241 -16.6234 -16.6231 -16.6109 -16.6106 -16.6096 -16.6093
   -16.5981 -16.5976 -16.5494 -16.5490 -16.5487 -16.5483 -16.5252 -16.5239
   -16.5148 -16.5136 -16.5136 -16.5127 -16.5011 -16.5006 -16.5005 -16.5000
   -16.4892 -16.4890 -16.4870 -16.4862 -16.4861 -16.4852 -16.4530 -16.4523
   -16.4522 -16.4515 -16.4359 -16.4359 -16.4205 -16.4200 -16.4200 -16.4195
   -16.4176 -16.4172 -16.4168 -16.4163 -16.3986 -16.3984 -16.3981 -16.3979
   -16.3854 -16.3847 -16.3844 -16.3837 -16.3689 -16.3682 -16.3261 -16.3258
   -16.3244 -16.3243 -16.3236 -16.3234 -16.3007 -16.3006 -16.3002 -16.3000
   -16.2969 -16.2967 -16.2965 -16.2964 -16.2865 -16.2864 -16.2863 -16.2860
    -3.5028  -3.4977  -2.6348  -2.6306  -2.6300  -2.6258  -0.5495  -0.5450
    -0.5449  -0.5404   1.6970   1.7014   1.7020   1.7063   3.4949   3.4976
     4.3283   4.3294   4.3303   4.3314   4.3646   4.3661   4.3671   4.3687
     6.1962   6.1988   6.2019   6.2046   6.7266   6.7309   6.7319   6.7363
     9.1736   9.1761  10.1164  10.1199  10.1206  10.1241  10.8872  10.8909
    12.4739  12.4766  12.4769  12.4795  12.8509  12.8543  12.8548  12.8580
    12.9698  12.9740  12.9746  12.9789  13.2469  13.2505

     occupation numbers 
     1.0000   1.0000   1.0000   1.0000   1.0000   1.0000   1.0000   1.0000
     1.0000   1.0000   1.0000   1.0000   1.0000   1.0000   1.0000   1.0000
     1.0000   1.0000   1.0000   1.0000   1.0000   1.0000   1.0000   1.0000
     1.0000   1.0000   1.0000   1.0000   1.0000   1.0000   1.0000   1.0000
     1.0000   1.0000   1.0000   1.0000   1.0000   1.0000   1.0000   1.0000
     1.0000   1.0000   1.0000   1.0000   1.0000   1.0000   1.0000   1.0000
     1.0000   1.0000   1.0000   1.0000   1.0000   1.0000   1.0000   1.0000
     1.0000   1.0000   1.0000   1.0000   1.0000   1.0000   1.0000   1.0000
     1.0000   1.0000   1.0000   1.0000   1.0000   1.0000   1.0000   1.0000
     1.0000   1.0000   1.0000   1.0000   1.0000   1.0000   1.0000   1.0000
     1.0000   1.0000   1.0000   1.0000   1.0000   1.0000   1.0000   1.0000
     1.0000   1.0000   1.0000   1.0000   1.0000   1.0000   1.0000   1.0000
     1.0000   1.0000   1.0000   1.0000   1.0000   1.0000   1.0000   1.0000
     1.0000   1.0000   1.0000   1.0000   1.0000   1.0000   1.0000   1.0000
     0.0000   0.0000   0.0000   0.0000   0.0000   0.0000   0.0000   0.0000
     0.0000   0.0000   0.0000   0.0000   0.0000   0.0000   0.0000   0.0000
     0.0000   0.0000   0.0000   0.0000   0.0000   0.0000

          k =-0.7071 0.3536 0.0000 (  8652 PWs)   bands (ev):

   -16.6417 -16.6401 -16.6399 -16.6383 -16.6311 -16.6304 -16.6302 -16.6295
   -16.6206 -16.6202 -16.6192 -16.6187 -16.6182 -16.6177 -16.6169 -16.6163
   -16.5761 -16.5756 -16.5754 -16.5749 -16.5329 -16.5328 -16.5324 -16.5322
   -16.5228 -16.5221 -16.5220 -16.5214 -16.4934 -16.4932 -16.4930 -16.4928
   -16.4840 -16.4836 -16.4835 -16.4832 -16.4583 -16.4579 -16.4576 -16.4573
   -16.4563 -16.4561 -16.4560 -16.4555 -16.4261 -16.4259 -16.4257 -16.4256
   -16.4235 -16.4226 -16.4224 -16.4220 -16.3943 -16.3941 -16.3939 -16.3937
   -16.3751 -16.3743 -16.3742 -16.3734 -16.3575 -16.3567 -16.3567 -16.3558
   -16.3149 -16.3145 -16.3141 -16.3135 -16.3072 -16.3065 -16.3062 -16.3055
   -16.2952 -16.2948 -16.2946 -16.2943 -16.2871 -16.2859 -16.2857 -16.2845
    -3.2805  -3.2758  -3.2757  -3.2712  -1.6659  -1.6609  -1.6606  -1.6556
     0.5627   0.5665   0.5680   0.5718   2.8474   2.8515   2.8519   2.8559
     3.9412   3.9436   3.9449   3.9473   5.3720   5.3751   5.3761   5.3791
     5.5082   5.5091   5.5129   5.5139   6.6126   6.6164   6.6167   6.6206
    10.5274  10.5307  10.5320  10.5352  10.8204  10.8234  10.8248  10.8277
    10.9574  10.9593  10.9599  10.9620  12.6752  12.6781  12.6789  12.6817
    12.7972  12.8008  12.8011  12.8049  13.1162  13.1184

     occupation numbers 
     1.0000   1.0000   1.0000   1.0000   1.0000   1.0000   1.0000   1.0000
     1.0000   1.0000   1.0000   1.0000   1.0000   1.0000   1.0000   1.0000
     1.0000   1.0000   1.0000   1.0000   1.0000   1.0000   1.0000   1.0000
     1.0000   1.0000   1.0000   1.0000   1.0000   1.0000   1.0000   1.0000
     1.0000   1.0000   1.0000   1.0000   1.0000   1.0000   1.0000   1.0000
     1.0000   1.0000   1.0000   1.0000   1.0000   1.0000   1.0000   1.0000
     1.0000   1.0000   1.0000   1.0000   1.0000   1.0000   1.0000   1.0000
     1.0000   1.0000   1.0000   1.0000   1.0000   1.0000   1.0000   1.0000
     1.0000   1.0000   1.0000   1.0000   1.0000   1.0000   1.0000   1.0000
     1.0000   1.0000   1.0000   1.0000   1.0000   1.0000   1.0000   1.0000
     1.0000   1.0000   1.0000   1.0000   1.0000   1.0000   1.0000   1.0000
     1.0000   1.0000   1.0000   1.0000   1.0000   1.0000   1.0000   1.0000
     1.0000   1.0000   1.0000   1.0000   1.0000   1.0000   1.0000   1.0000
     1.0000   1.0000   1.0000   1.0000   1.0000   1.0000   1.0000   1.0000
     0.0000   0.0000   0.0000   0.0000   0.0000   0.0000   0.0000   0.0000
     0.0000   0.0000   0.0000   0.0000   0.0000   0.0000   0.0000   0.0000
     0.0000   0.0000   0.0000   0.0000   0.0000   0.0000

          k =-0.1768 0.1768 0.1768 (  8627 PWs)   bands (ev):

   -16.6328 -16.6320 -16.6317 -16.6279 -16.6276 -16.6267 -16.6251 -16.6246
   -16.6237 -16.6196 -16.6191 -16.6183 -16.6150 -16.6145 -16.5989 -16.5985
   -16.5891 -16.5775 -16.5615 -16.5610 -16.5605 -16.5526 -16.5523 -16.5518
   -16.5458 -16.5457 -16.5182 -16.5182 -16.5086 -16.5083 -16.5077 -16.5068
   -16.5063 -16.5060 -16.5038 -16.5037 -16.5032 -16.4678 -16.4674 -16.4671
   -16.4246 -16.4242 -16.4238 -16.4218 -16.4215 -16.4213 -16.4057 -16.4056
   -16.4055 -16.3910 -16.3907 -16.3903 -16.3827 -16.3825 -16.3767 -16.3765
   -16.3763 -16.3761 -16.3758 -16.3756 -16.3679 -16.3621 -16.3620 -16.3536
   -16.3276 -16.3275 -16.3131 -16.3129 -16.3093 -16.3090 -16.3090 -16.3004
   -16.3002 -16.2999 -16.2996 -16.2990 -16.2990 -16.2933 -16.2932 -16.2927
    -4.3157  -2.9625  -2.3346  -2.3311  -2.3277  -1.4578  -1.4539  -1.4501
     0.2761   0.2802   0.2843   0.7637   0.7682   0.7727   1.5606   4.6723
     4.6739   4.6756   5.3442   5.3460   5.3478   5.5683   5.5704   5.5725
     5.8417   6.4796   6.4817   6.4838   6.9626   6.9686   7.8902   7.8969
     8.4494   9.0468   9.0499   9.0529   9.1874   9.5508   9.5531   9.5555
    10.0961  10.0994  10.1026  11.1939  11.1996  11.6467  11.7054  11.7077
    11.7101  11.9586  11.9669  12.6500  12.6501  12.6503

     occupation numbers 
     1.0000   1.0000   1.0000   1.0000   1.0000   1.0000   1.0000   1.0000
     1.0000   1.0000   1.0000   1.0000   1.0000   1.0000   1.0000   1.0000
     1.0000   1.0000   1.0000   1.0000   1.0000   1.0000   1.0000   1.0000
     1.0000   1.0000   1.0000   1.0000   1.0000   1.0000   1.0000   1.0000
     1.0000   1.0000   1.0000   1.0000   1.0000   1.0000   1.0000   1.0000
     1.0000   1.0000   1.0000   1.0000   1.0000   1.0000   1.0000   1.0000
     1.0000   1.0000   1.0000   1.0000   1.0000   1.0000   1.0000   1.0000
     1.0000   1.0000   1.0000   1.0000   1.0000   1.0000   1.0000   1.0000
     1.0000   1.0000   1.0000   1.0000   1.0000   1.0000   1.0000   1.0000
     1.0000   1.0000   1.0000   1.0000   1.0000   1.0000   1.0000   1.0000
     1.0000   1.0000   1.0000   1.0000   1.0000   1.0000   1.0000   1.0000
     1.0000   1.0000   1.0000   1.0000   1.0000   1.0000   1.0000   1.0000
     1.0000   1.0000   1.0000   1.0000   1.0000   1.0000   1.0000   1.0000
     1.0000   1.0000   1.0000   1.0000   1.0000   1.0000   0.9863   0.9846
     0.0475   0.0000   0.0000   0.0000   0.0000   0.0000   0.0000   0.0000
     0.0000   0.0000   0.0000   0.0000   0.0000   0.0000   0.0000   0.0000
     0.0000   0.0000   0.0000   0.0000   0.0000   0.0000

          k = 0.1768 0.1768 0.1768 (  8627 PWs)   bands (ev):

   -16.6332 -16.6319 -16.6313 -16.6282 -16.6275 -16.6270 -16.6252 -16.6245
   -16.6244 -16.6190 -16.6183 -16.6182 -16.6151 -16.6149 -16.5987 -16.5986
   -16.5894 -16.5779 -16.5612 -16.5610 -16.5606 -16.5524 -16.5521 -16.5518
   -16.5457 -16.5457 -16.5180 -16.5180 -16.5085 -16.5082 -16.5077 -16.5067
   -16.5065 -16.5063 -16.5040 -16.5035 -16.5035 -16.4678 -16.4674 -16.4671
   -16.4246 -16.4242 -16.4238 -16.4217 -16.4215 -16.4213 -16.4057 -16.4056
   -16.4055 -16.3910 -16.3906 -16.3902 -16.3828 -16.3827 -16.3775 -16.3772
   -16.3770 -16.3756 -16.3754 -16.3749 -16.3675 -16.3622 -16.3622 -16.3535
   -16.3275 -16.3275 -16.3128 -16.3128 -16.3096 -16.3095 -16.3089 -16.3002
   -16.3001 -16.2996 -16.2994 -16.2991 -16.2989 -16.2933 -16.2931 -16.2929
    -4.3157  -2.9616  -2.3349  -2.3311  -2.3290  -1.4572  -1.4540  -1.4516
     0.2786   0.2804   0.2835   0.7676   0.7683   0.7729   1.5574   4.6707
     4.6732   4.6740   5.3459   5.3464   5.3480   5.5648   5.5694   5.5704
     5.8392   6.4821   6.4828   6.4852   6.9644   6.9679   7.8932   7.8970
     8.4515   9.0486   9.0520   9.0528   9.1888   9.5515   9.5520   9.5545
    10.0960  10.0977  10.1016  11.1943  11.1976  11.6467  11.7076  11.7076
    11.7140  11.9614  11.9662  12.6452  12.6454  12.6504

     occupation numbers 
     1.0000   1.0000   1.0000   1.0000   1.0000   1.0000   1.0000   1.0000
     1.0000   1.0000   1.0000   1.0000   1.0000   1.0000   1.0000   1.0000
     1.0000   1.0000   1.0000   1.0000   1.0000   1.0000   1.0000   1.0000
     1.0000   1.0000   1.0000   1.0000   1.0000   1.0000   1.0000   1.0000
     1.0000   1.0000   1.0000   1.0000   1.0000   1.0000   1.0000   1.0000
     1.0000   1.0000   1.0000   1.0000   1.0000   1.0000   1.0000   1.0000
     1.0000   1.0000   1.0000   1.0000   1.0000   1.0000   1.0000   1.0000
     1.0000   1.0000   1.0000   1.0000   1.0000   1.0000   1.0000   1.0000
     1.0000   1.0000   1.0000   1.0000   1.0000   1.0000   1.0000   1.0000
     1.0000   1.0000   1.0000   1.0000   1.0000   1.0000   1.0000   1.0000
     1.0000   1.0000   1.0000   1.0000   1.0000   1.0000   1.0000   1.0000
     1.0000   1.0000   1.0000   1.0000   1.0000   1.0000   1.0000   1.0000
     1.0000   1.0000   1.0000   1.0000   1.0000   1.0000   1.0000   1.0000
     1.0000   1.0000   1.0000   1.0000   1.0000   1.0000   0.9856   0.9846
     0.0461   0.0000   0.0000   0.0000   0.0000   0.0000   0.0000   0.0000
     0.0000   0.0000   0.0000   0.0000   0.0000   0.0000   0.0000   0.0000
     0.0000   0.0000   0.0000   0.0000   0.0000   0.0000

          k = 0.3536-0.3536-0.3536 (  8646 PWs)   bands (ev):

   -16.6382 -16.6374 -16.6363 -16.6361 -16.6349 -16.6340 -16.6237 -16.6228
   -16.6227 -16.6225 -16.6222 -16.6215 -16.6092 -16.6091 -16.6090 -16.6084
   -16.5832 -16.5831 -16.5552 -16.5546 -16.5544 -16.5544 -16.5541 -16.5535
   -16.5290 -16.5289 -16.5289 -16.5288 -16.4908 -16.4901 -16.4897 -16.4897
   -16.4893 -16.4886 -16.4714 -16.4713 -16.4705 -16.4705 -16.4698 -16.4697
   -16.4528 -16.4527 -16.4520 -16.4519 -16.4512 -16.4511 -16.4059 -16.4053
   -16.4049 -16.4049 -16.4045 -16.4039 -16.3766 -16.3759 -16.3756 -16.3755
   -16.3751 -16.3750 -16.3747 -16.3746 -16.3743 -16.3737 -16.3605 -16.3604
   -16.3181 -16.3178 -16.3178 -16.3177 -16.3043 -16.3040 -16.3040 -16.3039
   -16.3038 -16.3037 -16.2915 -16.2910 -16.2899 -16.2899 -16.2887 -16.2882
    -3.7668  -3.7667  -2.0270  -2.0198  -2.0192  -2.0192  -2.0187  -2.0116
     0.8413   0.8492   0.8508   0.8508   0.8524   0.8604   3.5002   3.5002
     4.5012   4.5042   4.5057   4.5057   4.5073   4.5103   5.8345   5.8380
     5.8381   5.8381   5.8383   5.8418   7.3438   7.3499   7.3504   7.3565
     8.8136   8.8136   9.5606   9.5667   9.5671   9.5671   9.5675   9.5736
    11.8134  11.8205  11.8219  11.8290  12.3673  12.3723  12.3736  12.3736
    12.3749  12.3798  13.5674  13.5705  13.5723  13.5730

     occupation numbers 
     1.0000   1.0000   1.0000   1.0000   1.0000   1.0000   1.0000   1.0000
     1.0000   1.0000   1.0000   1.0000   1.0000   1.0000   1.0000   1.0000
     1.0000   1.0000   1.0000   1.0000   1.0000   1.0000   1.0000   1.0000
     1.0000   1.0000   1.0000   1.0000   1.0000   1.0000   1.0000   1.0000
     1.0000   1.0000   1.0000   1.0000   1.0000   1.0000   1.0000   1.0000
     1.0000   1.0000   1.0000   1.0000   1.0000   1.0000   1.0000   1.0000
     1.0000   1.0000   1.0000   1.0000   1.0000   1.0000   1.0000   1.0000
     1.0000   1.0000   1.0000   1.0000   1.0000   1.0000   1.0000   1.0000
     1.0000   1.0000   1.0000   1.0000   1.0000   1.0000   1.0000   1.0000
     1.0000   1.0000   1.0000   1.0000   1.0000   1.0000   1.0000   1.0000
     1.0000   1.0000   1.0000   1.0000   1.0000   1.0000   1.0000   1.0000
     1.0000   1.0000   1.0000   1.0000   1.0000   1.0000   1.0000   1.0000
     1.0000   1.0000   1.0000   1.0000   1.0000   1.0000   1.0000   1.0000
     1.0000   1.0000   1.0000   1.0000   1.0000   1.0000   1.0000   1.0000
     0.0000   0.0000   0.0000   0.0000   0.0000   0.0000   0.0000   0.0000
     0.0000   0.0000   0.0000   0.0000   0.0000   0.0000   0.0000   0.0000
     0.0000   0.0000   0.0000   0.0000   0.0000   0.0000

          k =-0.3536-0.3536-0.3536 (  8646 PWs)   bands (ev):

   -16.6385 -16.6372 -16.6362 -16.6359 -16.6350 -16.6347 -16.6242 -16.6238
   -16.6234 -16.6217 -16.6209 -16.6204 -16.6102 -16.6101 -16.6080 -16.6077
   -16.5840 -16.5830 -16.5554 -16.5552 -16.5549 -16.5537 -16.5531 -16.5528
   -16.5299 -16.5298 -16.5277 -16.5277 -16.4909 -16.4909 -16.4902 -16.4892
   -16.4885 -16.4884 -16.4711 -16.4711 -16.4707 -16.4699 -16.4698 -16.4697
   -16.4532 -16.4530 -16.4526 -16.4518 -16.4513 -16.4511 -16.4061 -16.4057
   -16.4054 -16.4045 -16.4042 -16.4037 -16.3769 -16.3764 -16.3759 -16.3758
   -16.3754 -16.3753 -16.3749 -16.3741 -16.3739 -16.3733 -16.3603 -16.3601
   -16.3184 -16.3183 -16.3172 -16.3171 -16.3055 -16.3053 -16.3048 -16.3032
   -16.3031 -16.3024 -16.2909 -16.2906 -16.2901 -16.2897 -16.2888 -16.2888
    -3.7693  -3.7636  -2.0281  -2.0202  -2.0198  -2.0188  -2.0184  -2.0131
     0.8494   0.8498   0.8499   0.8512   0.8525   0.8605   3.4950   3.4999
     4.4963   4.5020   4.5037   4.5058   4.5068   4.5071   5.8355   5.8359
     5.8372   5.8398   5.8415   5.8455   7.3481   7.3481   7.3503   7.3574
     8.8125   8.8190   9.5650   9.5658   9.5661   9.5667   9.5726   9.5733
    11.8184  11.8199  11.8208  11.8275  12.3705  12.3705  12.3734  12.3738
    12.3742  12.3833  13.5604  13.5688  13.5693  13.5724

     occupation numbers 
     1.0000   1.0000   1.0000   1.0000   1.0000   1.0000   1.0000   1.0000
     1.0000   1.0000   1.0000   1.0000   1.0000   1.0000   1.0000   1.0000
     1.0000   1.0000   1.0000   1.0000   1.0000   1.0000   1.0000   1.0000
     1.0000   1.0000   1.0000   1.0000   1.0000   1.0000   1.0000   1.0000
     1.0000   1.0000   1.0000   1.0000   1.0000   1.0000   1.0000   1.0000
     1.0000   1.0000   1.0000   1.0000   1.0000   1.0000   1.0000   1.0000
     1.0000   1.0000   1.0000   1.0000   1.0000   1.0000   1.0000   1.0000
     1.0000   1.0000   1.0000   1.0000   1.0000   1.0000   1.0000   1.0000
     1.0000   1.0000   1.0000   1.0000   1.0000   1.0000   1.0000   1.0000
     1.0000   1.0000   1.0000   1.0000   1.0000   1.0000   1.0000   1.0000
     1.0000   1.0000   1.0000   1.0000   1.0000   1.0000   1.0000   1.0000
     1.0000   1.0000   1.0000   1.0000   1.0000   1.0000   1.0000   1.0000
     1.0000   1.0000   1.0000   1.0000   1.0000   1.0000   1.0000   1.0000
     1.0000   1.0000   1.0000   1.0000   1.0000   1.0000   1.0000   1.0000
     0.0000   0.0000   0.0000   0.0000   0.0000   0.0000   0.0000   0.0000
     0.0000   0.0000   0.0000   0.0000   0.0000   0.0000   0.0000   0.0000
     0.0000   0.0000   0.0000   0.0000   0.0000   0.0000

          k = 0.0000 0.0000 0.3536 (  8620 PWs)   bands (ev):

   -16.6332 -16.6327 -16.6324 -16.6323 -16.6265 -16.6261 -16.6255 -16.6249
   -16.6228 -16.6211 -16.6207 -16.6204 -16.6201 -16.6191 -16.5985 -16.5968
   -16.5967 -16.5780 -16.5609 -16.5602 -16.5601 -16.5594 -16.5485 -16.5338
   -16.5227 -16.5226 -16.5224 -16.5222 -16.5155 -16.5145 -16.5145 -16.5134
   -16.5030 -16.5020 -16.5019 -16.5010 -16.4913 -16.4877 -16.4470 -16.4468
   -16.4466 -16.4465 -16.4381 -16.4049 -16.4049 -16.4046 -16.4045 -16.4037
   -16.4002 -16.3998 -16.3995 -16.3986 -16.3869 -16.3863 -16.3862 -16.3861
   -16.3839 -16.3835 -16.3834 -16.3834 -16.3827 -16.3496 -16.3456 -16.3424
   -16.3423 -16.3228 -16.3071 -16.3059 -16.3052 -16.3052 -16.3050 -16.3039
   -16.3036 -16.3031 -16.3030 -16.3027 -16.2919 -16.2918 -16.2916 -16.2915
    -4.2517  -2.5405  -2.5355  -2.5355  -2.5305  -2.2786  -0.6003  -0.5952
    -0.5945  -0.5895   1.0905   1.0955   1.0955   1.1005   1.3194   4.6950
     4.6951   4.6983   4.6986   5.4251   5.4295   5.4298   5.4322   5.4332
     5.4356   5.8012   6.7776   6.7803   6.7804   6.7830   7.3563   7.3563
     8.7309   9.5665   9.5687   9.5687   9.5708   9.7166  10.0785  10.0907
    10.0915  10.0963  10.0964  10.3944  11.9316  11.9372  11.9378  11.9383
    11.9392  11.9447  12.3521  12.3568  12.3569  12.3617

     occupation numbers 
     1.0000   1.0000   1.0000   1.0000   1.0000   1.0000   1.0000   1.0000
     1.0000   1.0000   1.0000   1.0000   1.0000   1.0000   1.0000   1.0000
     1.0000   1.0000   1.0000   1.0000   1.0000   1.0000   1.0000   1.0000
     1.0000   1.0000   1.0000   1.0000   1.0000   1.0000   1.0000   1.0000
     1.0000   1.0000   1.0000   1.0000   1.0000   1.0000   1.0000   1.0000
     1.0000   1.0000   1.0000   1.0000   1.0000   1.0000   1.0000   1.0000
     1.0000   1.0000   1.0000   1.0000   1.0000   1.0000   1.0000   1.0000
     1.0000   1.0000   1.0000   1.0000   1.0000   1.0000   1.0000   1.0000
     1.0000   1.0000   1.0000   1.0000   1.0000   1.0000   1.0000   1.0000
     1.0000   1.0000   1.0000   1.0000   1.0000   1.0000   1.0000   1.0000
     1.0000   1.0000   1.0000   1.0000   1.0000   1.0000   1.0000   1.0000
     1.0000   1.0000   1.0000   1.0000   1.0000   1.0000   1.0000   1.0000
     1.0000   1.0000   1.0000   1.0000   1.0000   1.0000   1.0000   1.0000
     1.0000   1.0000   1.0000   1.0000   1.0000   1.0000   1.0000   1.0000
     0.0001   0.0000   0.0000   0.0000   0.0000   0.0000   0.0000   0.0000
     0.0000   0.0000   0.0000   0.0000   0.0000   0.0000   0.0000   0.0000
     0.0000   0.0000   0.0000   0.0000   0.0000   0.0000

          k = 0.1768-0.5303-0.5303 (  8605 PWs)   bands (ev):

   -16.6408 -16.6393 -16.6382 -16.6323 -16.6317 -16.6305 -16.6298 -16.6256
   -16.6249 -16.6241 -16.6231 -16.6187 -16.6167 -16.6158 -16.6119 -16.6050
   -16.5888 -16.5794 -16.5718 -16.5542 -16.5536 -16.5424 -16.5349 -16.5316
   -16.5315 -16.5262 -16.5141 -16.5091 -16.5074 -16.5064 -16.5062 -16.4871
   -16.4813 -16.4806 -16.4789 -16.4786 -16.4777 -16.4701 -16.4700 -16.4694
   -16.4560 -16.4451 -16.4448 -16.4347 -16.4344 -16.4312 -16.4266 -16.4264
   -16.4210 -16.4040 -16.3970 -16.3948 -16.3946 -16.3911 -16.3903 -16.3873
   -16.3858 -16.3820 -16.3801 -16.3797 -16.3619 -16.3617 -16.3491 -16.3455
   -16.3283 -16.3152 -16.3138 -16.3132 -16.3063 -16.3041 -16.3027 -16.3023
   -16.2993 -16.2961 -16.2958 -16.2939 -16.2937 -16.2872 -16.2857 -16.2849
    -3.8181  -3.3529  -2.8447  -2.4753  -2.4711  -1.8561  -1.3390  -1.3351
     0.2075   0.2110   0.6372   1.4095   1.4138   2.1490   2.7110   4.0336
     4.0833   4.0945   4.0959   4.6860   4.6888   5.1507   5.1526   5.3777
     5.6730   5.8533   6.1336   6.1391   6.1589   6.7044   6.7991   7.3095
     9.4319   9.7751   9.7929  10.0743  10.4478  10.4515  10.6128  10.6166
    10.7901  10.8467  11.5763  11.5817  11.9581  12.1265  12.3720  12.3753
    12.7569  13.0126  13.0503  13.0543  13.1723  13.2431

     occupation numbers 
     1.0000   1.0000   1.0000   1.0000   1.0000   1.0000   1.0000   1.0000
     1.0000   1.0000   1.0000   1.0000   1.0000   1.0000   1.0000   1.0000
     1.0000   1.0000   1.0000   1.0000   1.0000   1.0000   1.0000   1.0000
     1.0000   1.0000   1.0000   1.0000   1.0000   1.0000   1.0000   1.0000
     1.0000   1.0000   1.0000   1.0000   1.0000   1.0000   1.0000   1.0000
     1.0000   1.0000   1.0000   1.0000   1.0000   1.0000   1.0000   1.0000
     1.0000   1.0000   1.0000   1.0000   1.0000   1.0000   1.0000   1.0000
     1.0000   1.0000   1.0000   1.0000   1.0000   1.0000   1.0000   1.0000
     1.0000   1.0000   1.0000   1.0000   1.0000   1.0000   1.0000   1.0000
     1.0000   1.0000   1.0000   1.0000   1.0000   1.0000   1.0000   1.0000
     1.0000   1.0000   1.0000   1.0000   1.0000   1.0000   1.0000   1.0000
     1.0000   1.0000   1.0000   1.0000   1.0000   1.0000   1.0000   1.0000
     1.0000   1.0000   1.0000   1.0000   1.0000   1.0000   1.0000   1.0000
     1.0000   1.0000   1.0000   1.0000   1.0000   1.0000   1.0000   1.0000
     0.0000   0.0000   0.0000   0.0000   0.0000   0.0000   0.0000   0.0000
     0.0000   0.0000   0.0000   0.0000   0.0000   0.0000   0.0000   0.0000
     0.0000   0.0000   0.0000   0.0000   0.0000   0.0000

          k =-0.1768 0.5303-0.5303 (  8605 PWs)   bands (ev):

   -16.6406 -16.6396 -16.6380 -16.6324 -16.6319 -16.6305 -16.6301 -16.6254
   -16.6250 -16.6241 -16.6227 -16.6189 -16.6164 -16.6161 -16.6115 -16.6054
   -16.5890 -16.5791 -16.5714 -16.5546 -16.5540 -16.5420 -16.5348 -16.5317
   -16.5315 -16.5263 -16.5140 -16.5093 -16.5073 -16.5064 -16.5062 -16.4869
   -16.4812 -16.4805 -16.4790 -16.4787 -16.4779 -16.4699 -16.4697 -16.4694
   -16.4560 -16.4453 -16.4450 -16.4347 -16.4344 -16.4317 -16.4266 -16.4264
   -16.4207 -16.4040 -16.3968 -16.3948 -16.3945 -16.3910 -16.3903 -16.3875
   -16.3858 -16.3820 -16.3799 -16.3796 -16.3621 -16.3618 -16.3492 -16.3454
   -16.3281 -16.3153 -16.3139 -16.3131 -16.3062 -16.3042 -16.3027 -16.3025
   -16.2993 -16.2959 -16.2956 -16.2939 -16.2937 -16.2874 -16.2856 -16.2851
    -3.8180  -3.3533  -2.8453  -2.4740  -2.4698  -1.8595  -1.3382  -1.3342
     0.2061   0.2096   0.6444   1.4055   1.4098   2.1517   2.7132   4.0318
     4.0827   4.0952   4.0966   4.6848   4.6876   5.1502   5.1521   5.3777
     5.6746   5.8511   6.1381   6.1436   6.1563   6.7105   6.7954   7.3043
     9.4295   9.7712   9.7930  10.0740  10.4501  10.4538  10.6122  10.6160
    10.7882  10.8496  11.5811  11.5866  11.9646  12.1219  12.3699  12.3733
    12.7608  13.0127  13.0485  13.0525  13.1711  13.2446

     occupation numbers 
     1.0000   1.0000   1.0000   1.0000   1.0000   1.0000   1.0000   1.0000
     1.0000   1.0000   1.0000   1.0000   1.0000   1.0000   1.0000   1.0000
     1.0000   1.0000   1.0000   1.0000   1.0000   1.0000   1.0000   1.0000
     1.0000   1.0000   1.0000   1.0000   1.0000   1.0000   1.0000   1.0000
     1.0000   1.0000   1.0000   1.0000   1.0000   1.0000   1.0000   1.0000
     1.0000   1.0000   1.0000   1.0000   1.0000   1.0000   1.0000   1.0000
     1.0000   1.0000   1.0000   1.0000   1.0000   1.0000   1.0000   1.0000
     1.0000   1.0000   1.0000   1.0000   1.0000   1.0000   1.0000   1.0000
     1.0000   1.0000   1.0000   1.0000   1.0000   1.0000   1.0000   1.0000
     1.0000   1.0000   1.0000   1.0000   1.0000   1.0000   1.0000   1.0000
     1.0000   1.0000   1.0000   1.0000   1.0000   1.0000   1.0000   1.0000
     1.0000   1.0000   1.0000   1.0000   1.0000   1.0000   1.0000   1.0000
     1.0000   1.0000   1.0000   1.0000   1.0000   1.0000   1.0000   1.0000
     1.0000   1.0000   1.0000   1.0000   1.0000   1.0000   1.0000   1.0000
     0.0000   0.0000   0.0000   0.0000   0.0000   0.0000   0.0000   0.0000
     0.0000   0.0000   0.0000   0.0000   0.0000   0.0000   0.0000   0.0000
     0.0000   0.0000   0.0000   0.0000   0.0000   0.0000

          k =-0.5303-0.1768-0.5303 (  8605 PWs)   bands (ev):

   -16.6410 -16.6393 -16.6381 -16.6324 -16.6318 -16.6309 -16.6302 -16.6252
   -16.6249 -16.6238 -16.6229 -16.6178 -16.6170 -16.6166 -16.6115 -16.6051
   -16.5892 -16.5791 -16.5719 -16.5542 -16.5536 -16.5423 -16.5348 -16.5316
   -16.5314 -16.5262 -16.5139 -16.5084 -16.5074 -16.5070 -16.5063 -16.4871
   -16.4813 -16.4806 -16.4789 -16.4785 -16.4778 -16.4702 -16.4698 -16.4694
   -16.4561 -16.4453 -16.4449 -16.4347 -16.4345 -16.4313 -16.4266 -16.4265
   -16.4209 -16.4041 -16.3969 -16.3948 -16.3947 -16.3911 -16.3903 -16.3874
   -16.3859 -16.3819 -16.3801 -16.3796 -16.3619 -16.3619 -16.3493 -16.3453
   -16.3282 -16.3156 -16.3134 -16.3131 -16.3064 -16.3041 -16.3030 -16.3024
   -16.2993 -16.2956 -16.2954 -16.2941 -16.2938 -16.2872 -16.2857 -16.2850
    -3.8179  -3.3526  -2.8452  -2.4753  -2.4711  -1.8572  -1.3391  -1.3351
     0.2078   0.2112   0.6396   1.4098   1.4141   2.1512   2.7091   4.0308
     4.0814   4.0938   4.0952   4.6850   4.6872   5.1512   5.1532   5.3754
     5.6745   5.8535   6.1355   6.1396   6.1593   6.7079   6.7987   7.3089
     9.4320   9.7749   9.7944  10.0759  10.4498  10.4532  10.6125  10.6155
    10.7880  10.8477  11.5813  11.5830  11.9600  12.1259  12.3708  12.3750
    12.7586  13.0133  13.0495  13.0513  13.1722  13.2436

     occupation numbers 
     1.0000   1.0000   1.0000   1.0000   1.0000   1.0000   1.0000   1.0000
     1.0000   1.0000   1.0000   1.0000   1.0000   1.0000   1.0000   1.0000
     1.0000   1.0000   1.0000   1.0000   1.0000   1.0000   1.0000   1.0000
     1.0000   1.0000   1.0000   1.0000   1.0000   1.0000   1.0000   1.0000
     1.0000   1.0000   1.0000   1.0000   1.0000   1.0000   1.0000   1.0000
     1.0000   1.0000   1.0000   1.0000   1.0000   1.0000   1.0000   1.0000
     1.0000   1.0000   1.0000   1.0000   1.0000   1.0000   1.0000   1.0000
     1.0000   1.0000   1.0000   1.0000   1.0000   1.0000   1.0000   1.0000
     1.0000   1.0000   1.0000   1.0000   1.0000   1.0000   1.0000   1.0000
     1.0000   1.0000   1.0000   1.0000   1.0000   1.0000   1.0000   1.0000
     1.0000   1.0000   1.0000   1.0000   1.0000   1.0000   1.0000   1.0000
     1.0000   1.0000   1.0000   1.0000   1.0000   1.0000   1.0000   1.0000
     1.0000   1.0000   1.0000   1.0000   1.0000   1.0000   1.0000   1.0000
     1.0000   1.0000   1.0000   1.0000   1.0000   1.0000   1.0000   1.0000
     0.0000   0.0000   0.0000   0.0000   0.0000   0.0000   0.0000   0.0000
     0.0000   0.0000   0.0000   0.0000   0.0000   0.0000   0.0000   0.0000
     0.0000   0.0000   0.0000   0.0000   0.0000   0.0000

          k = 0.5303 0.5303-0.1768 (  8605 PWs)   bands (ev):

   -16.6395 -16.6395 -16.6392 -16.6323 -16.6321 -16.6302 -16.6301 -16.6253
   -16.6243 -16.6240 -16.6237 -16.6187 -16.6169 -16.6161 -16.6117 -16.6051
   -16.5886 -16.5795 -16.5714 -16.5542 -16.5541 -16.5424 -16.5349 -16.5316
   -16.5316 -16.5264 -16.5139 -16.5091 -16.5069 -16.5069 -16.5064 -16.4870
   -16.4811 -16.4809 -16.4788 -16.4788 -16.4777 -16.4703 -16.4698 -16.4694
   -16.4559 -16.4450 -16.4447 -16.4346 -16.4345 -16.4313 -16.4264 -16.4264
   -16.4209 -16.4040 -16.3969 -16.3949 -16.3949 -16.3906 -16.3905 -16.3873
   -16.3857 -16.3821 -16.3798 -16.3797 -16.3620 -16.3617 -16.3490 -16.3456
   -16.3283 -16.3156 -16.3134 -16.3132 -16.3062 -16.3038 -16.3029 -16.3026
   -16.2991 -16.2961 -16.2959 -16.2937 -16.2936 -16.2868 -16.2857 -16.2856
    -3.8183  -3.3534  -2.8446  -2.4726  -2.4725  -1.8567  -1.3365  -1.3365
     0.2082   0.2083   0.6382   1.4093   1.4095   2.1482   2.7140   4.0353
     4.0847   4.0959   4.0971   4.6876   4.6886   5.1504   5.1512   5.3801
     5.6723   5.8519   6.1368   6.1380   6.1574   6.7040   6.7977   7.3075
     9.4307   9.7735   9.7913  10.0726  10.4487  10.4491  10.6129  10.6172
    10.7911  10.8473  11.5749  11.5816  11.9595  12.1249  12.3729  12.3740
    12.7572  13.0119  13.0522  13.0546  13.1717  13.2458

     occupation numbers 
     1.0000   1.0000   1.0000   1.0000   1.0000   1.0000   1.0000   1.0000
     1.0000   1.0000   1.0000   1.0000   1.0000   1.0000   1.0000   1.0000
     1.0000   1.0000   1.0000   1.0000   1.0000   1.0000   1.0000   1.0000
     1.0000   1.0000   1.0000   1.0000   1.0000   1.0000   1.0000   1.0000
     1.0000   1.0000   1.0000   1.0000   1.0000   1.0000   1.0000   1.0000
     1.0000   1.0000   1.0000   1.0000   1.0000   1.0000   1.0000   1.0000
     1.0000   1.0000   1.0000   1.0000   1.0000   1.0000   1.0000   1.0000
     1.0000   1.0000   1.0000   1.0000   1.0000   1.0000   1.0000   1.0000
     1.0000   1.0000   1.0000   1.0000   1.0000   1.0000   1.0000   1.0000
     1.0000   1.0000   1.0000   1.0000   1.0000   1.0000   1.0000   1.0000
     1.0000   1.0000   1.0000   1.0000   1.0000   1.0000   1.0000   1.0000
     1.0000   1.0000   1.0000   1.0000   1.0000   1.0000   1.0000   1.0000
     1.0000   1.0000   1.0000   1.0000   1.0000   1.0000   1.0000   1.0000
     1.0000   1.0000   1.0000   1.0000   1.0000   1.0000   1.0000   1.0000
     0.0000   0.0000   0.0000   0.0000   0.0000   0.0000   0.0000   0.0000
     0.0000   0.0000   0.0000   0.0000   0.0000   0.0000   0.0000   0.0000
     0.0000   0.0000   0.0000   0.0000   0.0000   0.0000

          k =-0.5303 0.5303 0.1768 (  8605 PWs)   bands (ev):

   -16.6410 -16.6394 -16.6375 -16.6321 -16.6317 -16.6310 -16.6307 -16.6255
   -16.6249 -16.6238 -16.6228 -16.6177 -16.6171 -16.6164 -16.6116 -16.6053
   -16.5889 -16.5792 -16.5716 -16.5545 -16.5537 -16.5422 -16.5348 -16.5318
   -16.5314 -16.5262 -16.5142 -16.5087 -16.5072 -16.5067 -16.5065 -16.4872
   -16.4809 -16.4807 -16.4790 -16.4786 -16.4778 -16.4701 -16.4698 -16.4694
   -16.4560 -16.4451 -16.4450 -16.4348 -16.4345 -16.4313 -16.4266 -16.4265
   -16.4208 -16.4041 -16.3969 -16.3946 -16.3944 -16.3909 -16.3906 -16.3874
   -16.3860 -16.3820 -16.3800 -16.3796 -16.3620 -16.3617 -16.3492 -16.3455
   -16.3282 -16.3153 -16.3139 -16.3130 -16.3064 -16.3045 -16.3027 -16.3020
   -16.2993 -16.2955 -16.2953 -16.2941 -16.2939 -16.2878 -16.2857 -16.2847
    -3.8180  -3.3531  -2.8451  -2.4750  -2.4700  -1.8578  -1.3389  -1.3343
     0.2052   0.2119   0.6407   1.4055   1.4138   2.1504   2.7121   4.0327
     4.0824   4.0947   4.0969   4.6850   4.6886   5.1495   5.1532   5.3777
     5.6738   5.8523   6.1371   6.1401   6.1577   6.7074   6.7973   7.3069
     9.4307   9.7732   9.7928  10.0741  10.4483  10.4533  10.6119  10.6168
    10.7893  10.8482  11.5803  11.5825  11.9614  12.1242  12.3701  12.3752
    12.7589  13.0126  13.0504  13.0525  13.1717  13.2409

     occupation numbers 
     1.0000   1.0000   1.0000   1.0000   1.0000   1.0000   1.0000   1.0000
     1.0000   1.0000   1.0000   1.0000   1.0000   1.0000   1.0000   1.0000
     1.0000   1.0000   1.0000   1.0000   1.0000   1.0000   1.0000   1.0000
     1.0000   1.0000   1.0000   1.0000   1.0000   1.0000   1.0000   1.0000
     1.0000   1.0000   1.0000   1.0000   1.0000   1.0000   1.0000   1.0000
     1.0000   1.0000   1.0000   1.0000   1.0000   1.0000   1.0000   1.0000
     1.0000   1.0000   1.0000   1.0000   1.0000   1.0000   1.0000   1.0000
     1.0000   1.0000   1.0000   1.0000   1.0000   1.0000   1.0000   1.0000
     1.0000   1.0000   1.0000   1.0000   1.0000   1.0000   1.0000   1.0000
     1.0000   1.0000   1.0000   1.0000   1.0000   1.0000   1.0000   1.0000
     1.0000   1.0000   1.0000   1.0000   1.0000   1.0000   1.0000   1.0000
     1.0000   1.0000   1.0000   1.0000   1.0000   1.0000   1.0000   1.0000
     1.0000   1.0000   1.0000   1.0000   1.0000   1.0000   1.0000   1.0000
     1.0000   1.0000   1.0000   1.0000   1.0000   1.0000   1.0000   1.0000
     0.0000   0.0000   0.0000   0.0000   0.0000   0.0000   0.0000   0.0000
     0.0000   0.0000   0.0000   0.0000   0.0000   0.0000   0.0000   0.0000
     0.0000   0.0000   0.0000   0.0000   0.0000   0.0000

          k =-0.5303-0.5303-0.1768 (  8605 PWs)   bands (ev):

   -16.6401 -16.6395 -16.6391 -16.6323 -16.6322 -16.6302 -16.6302 -16.6252
   -16.6245 -16.6237 -16.6233 -16.6187 -16.6168 -16.6160 -16.6114 -16.6053
   -16.5893 -16.5790 -16.5717 -16.5541 -16.5540 -16.5420 -16.5348 -16.5316
   -16.5314 -16.5263 -16.5137 -16.5091 -16.5069 -16.5069 -16.5064 -16.4869
   -16.4811 -16.4809 -16.4787 -16.4787 -16.4777 -16.4700 -16.4699 -16.4693
   -16.4561 -16.4453 -16.4451 -16.4346 -16.4346 -16.4316 -16.4265 -16.4265
   -16.4209 -16.4040 -16.3969 -16.3949 -16.3948 -16.3906 -16.3905 -16.3874
   -16.3857 -16.3820 -16.3799 -16.3798 -16.3620 -16.3619 -16.3493 -16.3453
   -16.3281 -16.3155 -16.3134 -16.3133 -16.3061 -16.3037 -16.3031 -16.3029
   -16.2992 -16.2959 -16.2957 -16.2938 -16.2936 -16.2868 -16.2856 -16.2855
    -3.8178  -3.3528  -2.8454  -2.4726  -2.4725  -1.8589  -1.3367  -1.3367
     0.2088   0.2089   0.6432   1.4099   1.4100   2.1525   2.7102   4.0296
     4.0818   4.0944   4.0949   4.6850   4.6860   5.1516   5.1523   5.3754
     5.6753   5.8524   6.1390   6.1405   6.1580   6.7110   6.7968   7.3063
     9.4308   9.7731   9.7943  10.0757  10.4525  10.4528  10.6115  10.6160
    10.7871  10.8491  11.5812  11.5879  11.9633  12.1235  12.3712  12.3724
    12.7606  13.0133  13.0482  13.0507  13.1716  13.2415

     occupation numbers 
     1.0000   1.0000   1.0000   1.0000   1.0000   1.0000   1.0000   1.0000
     1.0000   1.0000   1.0000   1.0000   1.0000   1.0000   1.0000   1.0000
     1.0000   1.0000   1.0000   1.0000   1.0000   1.0000   1.0000   1.0000
     1.0000   1.0000   1.0000   1.0000   1.0000   1.0000   1.0000   1.0000
     1.0000   1.0000   1.0000   1.0000   1.0000   1.0000   1.0000   1.0000
     1.0000   1.0000   1.0000   1.0000   1.0000   1.0000   1.0000   1.0000
     1.0000   1.0000   1.0000   1.0000   1.0000   1.0000   1.0000   1.0000
     1.0000   1.0000   1.0000   1.0000   1.0000   1.0000   1.0000   1.0000
     1.0000   1.0000   1.0000   1.0000   1.0000   1.0000   1.0000   1.0000
     1.0000   1.0000   1.0000   1.0000   1.0000   1.0000   1.0000   1.0000
     1.0000   1.0000   1.0000   1.0000   1.0000   1.0000   1.0000   1.0000
     1.0000   1.0000   1.0000   1.0000   1.0000   1.0000   1.0000   1.0000
     1.0000   1.0000   1.0000   1.0000   1.0000   1.0000   1.0000   1.0000
     1.0000   1.0000   1.0000   1.0000   1.0000   1.0000   1.0000   1.0000
     0.0000   0.0000   0.0000   0.0000   0.0000   0.0000   0.0000   0.0000
     0.0000   0.0000   0.0000   0.0000   0.0000   0.0000   0.0000   0.0000
     0.0000   0.0000   0.0000   0.0000   0.0000   0.0000

          k = 0.0000-0.3536-0.3536 (  8602 PWs)   bands (ev):

   -16.6417 -16.6364 -16.6355 -16.6301 -16.6293 -16.6291 -16.6283 -16.6258
   -16.6252 -16.6247 -16.6234 -16.6225 -16.6142 -16.6129 -16.6092 -16.6035
   -16.5862 -16.5750 -16.5743 -16.5568 -16.5561 -16.5437 -16.5435 -16.5390
   -16.5383 -16.5272 -16.5201 -16.5189 -16.5022 -16.5016 -16.4960 -16.4952
   -16.4892 -16.4884 -16.4831 -16.4820 -16.4807 -16.4767 -16.4765 -16.4555
   -16.4488 -16.4483 -16.4429 -16.4388 -16.4300 -16.4293 -16.4131 -16.4129
   -16.4076 -16.4069 -16.4053 -16.4046 -16.3897 -16.3867 -16.3864 -16.3820
   -16.3771 -16.3764 -16.3727 -16.3717 -16.3712 -16.3613 -16.3609 -16.3417
   -16.3336 -16.3175 -16.3167 -16.3136 -16.3039 -16.3035 -16.3007 -16.3005
   -16.2978 -16.2977 -16.2975 -16.2973 -16.2970 -16.2898 -16.2894 -16.2836
    -4.0045  -3.0771  -3.0722  -2.1113  -2.1071  -1.9202  -1.9160  -1.1077
    -0.0574   0.5900   0.5941   1.1107   1.1145   2.0928   2.0972   3.8987
     4.5006   4.5040   4.5733   4.7302   4.7321   5.3410   5.3454   5.6089
     5.9245   5.9267   6.0237   6.0270   6.4826   6.4853   6.4897   7.8508
     9.3103   9.7791   9.7819   9.8780  10.0442  10.0474  10.5457  10.5476
    10.6901  10.6944  11.3145  11.4408  11.4835  11.4855  11.5619  11.5663
    12.2315  12.9227  12.9276  12.9504  13.7403  13.7452

     occupation numbers 
     1.0000   1.0000   1.0000   1.0000   1.0000   1.0000   1.0000   1.0000
     1.0000   1.0000   1.0000   1.0000   1.0000   1.0000   1.0000   1.0000
     1.0000   1.0000   1.0000   1.0000   1.0000   1.0000   1.0000   1.0000
     1.0000   1.0000   1.0000   1.0000   1.0000   1.0000   1.0000   1.0000
     1.0000   1.0000   1.0000   1.0000   1.0000   1.0000   1.0000   1.0000
     1.0000   1.0000   1.0000   1.0000   1.0000   1.0000   1.0000   1.0000
     1.0000   1.0000   1.0000   1.0000   1.0000   1.0000   1.0000   1.0000
     1.0000   1.0000   1.0000   1.0000   1.0000   1.0000   1.0000   1.0000
     1.0000   1.0000   1.0000   1.0000   1.0000   1.0000   1.0000   1.0000
     1.0000   1.0000   1.0000   1.0000   1.0000   1.0000   1.0000   1.0000
     1.0000   1.0000   1.0000   1.0000   1.0000   1.0000   1.0000   1.0000
     1.0000   1.0000   1.0000   1.0000   1.0000   1.0000   1.0000   1.0000
     1.0000   1.0000   1.0000   1.0000   1.0000   1.0000   1.0000   1.0000
     1.0000   1.0000   1.0000   1.0000   1.0000   1.0000   1.0000   0.9934
     0.0000   0.0000   0.0000   0.0000   0.0000   0.0000   0.0000   0.0000
     0.0000   0.0000   0.0000   0.0000   0.0000   0.0000   0.0000   0.0000
     0.0000   0.0000   0.0000   0.0000   0.0000   0.0000

          k = 0.3536 0.3536 0.0000 (  8602 PWs)   bands (ev):

   -16.6412 -16.6363 -16.6360 -16.6299 -16.6296 -16.6286 -16.6284 -16.6260
   -16.6248 -16.6248 -16.6232 -16.6229 -16.6140 -16.6136 -16.6092 -16.6034
   -16.5860 -16.5750 -16.5742 -16.5566 -16.5566 -16.5438 -16.5437 -16.5388
   -16.5385 -16.5274 -16.5196 -16.5193 -16.5019 -16.5017 -16.4956 -16.4956
   -16.4891 -16.4889 -16.4820 -16.4820 -16.4818 -16.4765 -16.4765 -16.4557
   -16.4486 -16.4485 -16.4426 -16.4386 -16.4296 -16.4296 -16.4130 -16.4130
   -16.4073 -16.4073 -16.4050 -16.4050 -16.3897 -16.3865 -16.3865 -16.3821
   -16.3767 -16.3764 -16.3728 -16.3714 -16.3714 -16.3614 -16.3609 -16.3418
   -16.3336 -16.3175 -16.3169 -16.3133 -16.3037 -16.3036 -16.3009 -16.3008
   -16.2978 -16.2978 -16.2976 -16.2970 -16.2968 -16.2895 -16.2895 -16.2839
    -4.0046  -3.0756  -3.0742  -2.1088  -2.1086  -1.9174  -1.9172  -1.1095
    -0.0549   0.5903   0.5903   1.1110   1.1110   2.0927   2.0994   3.8996
     4.5041   4.5041   4.5753   4.7312   4.7312   5.3444   5.3444   5.6077
     5.9245   5.9246   6.0233   6.0295   6.4831   6.4846   6.4862   7.8479
     9.3083   9.7779   9.7812   9.8777  10.0453  10.0454  10.5480  10.5480
    10.6921  10.6922  11.3170  11.4394  11.4808  11.4848  11.5623  11.5623
    12.2328  12.9237  12.9294  12.9497  13.7427  13.7457

     occupation numbers 
     1.0000   1.0000   1.0000   1.0000   1.0000   1.0000   1.0000   1.0000
     1.0000   1.0000   1.0000   1.0000   1.0000   1.0000   1.0000   1.0000
     1.0000   1.0000   1.0000   1.0000   1.0000   1.0000   1.0000   1.0000
     1.0000   1.0000   1.0000   1.0000   1.0000   1.0000   1.0000   1.0000
     1.0000   1.0000   1.0000   1.0000   1.0000   1.0000   1.0000   1.0000
     1.0000   1.0000   1.0000   1.0000   1.0000   1.0000   1.0000   1.0000
     1.0000   1.0000   1.0000   1.0000   1.0000   1.0000   1.0000   1.0000
     1.0000   1.0000   1.0000   1.0000   1.0000   1.0000   1.0000   1.0000
     1.0000   1.0000   1.0000   1.0000   1.0000   1.0000   1.0000   1.0000
     1.0000   1.0000   1.0000   1.0000   1.0000   1.0000   1.0000   1.0000
     1.0000   1.0000   1.0000   1.0000   1.0000   1.0000   1.0000   1.0000
     1.0000   1.0000   1.0000   1.0000   1.0000   1.0000   1.0000   1.0000
     1.0000   1.0000   1.0000   1.0000   1.0000   1.0000   1.0000   1.0000
     1.0000   1.0000   1.0000   1.0000   1.0000   1.0000   1.0000   0.9938
     0.0000   0.0000   0.0000   0.0000   0.0000   0.0000   0.0000   0.0000
     0.0000   0.0000   0.0000   0.0000   0.0000   0.0000   0.0000   0.0000
     0.0000   0.0000   0.0000   0.0000   0.0000   0.0000

          k =-0.3536 0.3536 0.0000 (  8602 PWs)   bands (ev):

   -16.6417 -16.6361 -16.6353 -16.6299 -16.6294 -16.6292 -16.6285 -16.6259
   -16.6255 -16.6251 -16.6229 -16.6222 -16.6136 -16.6134 -16.6097 -16.6033
   -16.5859 -16.5746 -16.5745 -16.5569 -16.5563 -16.5441 -16.5435 -16.5387
   -16.5385 -16.5272 -16.5197 -16.5196 -16.5021 -16.5019 -16.4956 -16.4955
   -16.4888 -16.4885 -16.4837 -16.4821 -16.4803 -16.4767 -16.4764 -16.4558
   -16.4487 -16.4484 -16.4428 -16.4386 -16.4297 -16.4294 -16.4132 -16.4129
   -16.4073 -16.4073 -16.4051 -16.4047 -16.3897 -16.3866 -16.3865 -16.3817
   -16.3771 -16.3767 -16.3727 -16.3716 -16.3710 -16.3612 -16.3611 -16.3418
   -16.3336 -16.3170 -16.3169 -16.3138 -16.3044 -16.3038 -16.3002 -16.3001
   -16.2979 -16.2977 -16.2975 -16.2973 -16.2971 -16.2900 -16.2895 -16.2835
    -4.0046  -3.0750  -3.0749  -2.1113  -2.1060  -1.9192  -1.9154  -1.1096
    -0.0549   0.5863   0.5943   1.1072   1.1148   2.0960   2.0961   3.8996
     4.5040   4.5043   4.5754   4.7304   4.7319   5.3428   5.3460   5.6078
     5.9224   5.9266   6.0263   6.0264   6.4809   6.4839   6.4893   7.8479
     9.3083   9.7796   9.7796   9.8776  10.0426  10.0482  10.5472  10.5488
    10.6915  10.6927  11.3169  11.4393  11.4827  11.4829  11.5597  11.5651
    12.2328  12.9258  12.9266  12.9506  13.7441  13.7443

     occupation numbers 
     1.0000   1.0000   1.0000   1.0000   1.0000   1.0000   1.0000   1.0000
     1.0000   1.0000   1.0000   1.0000   1.0000   1.0000   1.0000   1.0000
     1.0000   1.0000   1.0000   1.0000   1.0000   1.0000   1.0000   1.0000
     1.0000   1.0000   1.0000   1.0000   1.0000   1.0000   1.0000   1.0000
     1.0000   1.0000   1.0000   1.0000   1.0000   1.0000   1.0000   1.0000
     1.0000   1.0000   1.0000   1.0000   1.0000   1.0000   1.0000   1.0000
     1.0000   1.0000   1.0000   1.0000   1.0000   1.0000   1.0000   1.0000
     1.0000   1.0000   1.0000   1.0000   1.0000   1.0000   1.0000   1.0000
     1.0000   1.0000   1.0000   1.0000   1.0000   1.0000   1.0000   1.0000
     1.0000   1.0000   1.0000   1.0000   1.0000   1.0000   1.0000   1.0000
     1.0000   1.0000   1.0000   1.0000   1.0000   1.0000   1.0000   1.0000
     1.0000   1.0000   1.0000   1.0000   1.0000   1.0000   1.0000   1.0000
     1.0000   1.0000   1.0000   1.0000   1.0000   1.0000   1.0000   1.0000
     1.0000   1.0000   1.0000   1.0000   1.0000   1.0000   1.0000   0.9938
     0.0000   0.0000   0.0000   0.0000   0.0000   0.0000   0.0000   0.0000
     0.0000   0.0000   0.0000   0.0000   0.0000   0.0000   0.0000   0.0000
     0.0000   0.0000   0.0000   0.0000   0.0000   0.0000

          k = 0.0000 0.0000-0.7071 (  8616 PWs)   bands (ev):

   -16.6389 -16.6384 -16.6380 -16.6379 -16.6329 -16.6324 -16.6319 -16.6312
   -16.6241 -16.6238 -16.6235 -16.6234 -16.6103 -16.6102 -16.6101 -16.6098
   -16.5979 -16.5977 -16.5496 -16.5489 -16.5489 -16.5482 -16.5246 -16.5245
   -16.5148 -16.5137 -16.5135 -16.5126 -16.5008 -16.5007 -16.5004 -16.5003
   -16.4892 -16.4890 -16.4870 -16.4862 -16.4861 -16.4852 -16.4524 -16.4523
   -16.4522 -16.4521 -16.4360 -16.4358 -16.4201 -16.4200 -16.4199 -16.4199
   -16.4178 -16.4170 -16.4169 -16.4162 -16.3985 -16.3982 -16.3982 -16.3980
   -16.3852 -16.3846 -16.3845 -16.3838 -16.3686 -16.3685 -16.3260 -16.3259
   -16.3241 -16.3239 -16.3239 -16.3238 -16.3006 -16.3004 -16.3003 -16.3001
   -16.2970 -16.2967 -16.2966 -16.2963 -16.2866 -16.2864 -16.2862 -16.2861
    -3.5003  -3.5002  -2.6357  -2.6303  -2.6303  -2.6250  -0.5502  -0.5450
    -0.5449  -0.5396   1.6974   1.7017   1.7017   1.7059   3.4962   3.4962
     4.3276   4.3292   4.3305   4.3320   4.3648   4.3666   4.3669   4.3685
     6.2004   6.2004   6.2004   6.2005   6.7284   6.7314   6.7315   6.7344
     9.1749   9.1749  10.1191  10.1202  10.1202  10.1213  10.8890  10.8890
    12.4755  12.4761  12.4774  12.4781  12.8502  12.8540  12.8550  12.8589
    12.9707  12.9743  12.9744  12.9779  13.2460  13.2506

     occupation numbers 
     1.0000   1.0000   1.0000   1.0000   1.0000   1.0000   1.0000   1.0000
     1.0000   1.0000   1.0000   1.0000   1.0000   1.0000   1.0000   1.0000
     1.0000   1.0000   1.0000   1.0000   1.0000   1.0000   1.0000   1.0000
     1.0000   1.0000   1.0000   1.0000   1.0000   1.0000   1.0000   1.0000
     1.0000   1.0000   1.0000   1.0000   1.0000   1.0000   1.0000   1.0000
     1.0000   1.0000   1.0000   1.0000   1.0000   1.0000   1.0000   1.0000
     1.0000   1.0000   1.0000   1.0000   1.0000   1.0000   1.0000   1.0000
     1.0000   1.0000   1.0000   1.0000   1.0000   1.0000   1.0000   1.0000
     1.0000   1.0000   1.0000   1.0000   1.0000   1.0000   1.0000   1.0000
     1.0000   1.0000   1.0000   1.0000   1.0000   1.0000   1.0000   1.0000
     1.0000   1.0000   1.0000   1.0000   1.0000   1.0000   1.0000   1.0000
     1.0000   1.0000   1.0000   1.0000   1.0000   1.0000   1.0000   1.0000
     1.0000   1.0000   1.0000   1.0000   1.0000   1.0000   1.0000   1.0000
     1.0000   1.0000   1.0000   1.0000   1.0000   1.0000   1.0000   1.0000
     0.0000   0.0000   0.0000   0.0000   0.0000   0.0000   0.0000   0.0000
     0.0000   0.0000   0.0000   0.0000   0.0000   0.0000   0.0000   0.0000
     0.0000   0.0000   0.0000   0.0000   0.0000   0.0000

          k = 0.7071-0.0000 0.3536 (  8652 PWs)   bands (ev):

   -16.6416 -16.6407 -16.6391 -16.6384 -16.6311 -16.6304 -16.6300 -16.6297
   -16.6208 -16.6203 -16.6191 -16.6189 -16.6178 -16.6174 -16.6171 -16.6163
   -16.5761 -16.5756 -16.5755 -16.5749 -16.5330 -16.5327 -16.5325 -16.5322
   -16.5230 -16.5224 -16.5217 -16.5213 -16.4934 -16.4932 -16.4929 -16.4928
   -16.4841 -16.4838 -16.4833 -16.4831 -16.4583 -16.4581 -16.4575 -16.4573
   -16.4565 -16.4562 -16.4558 -16.4554 -16.4259 -16.4259 -16.4258 -16.4257
   -16.4234 -16.4228 -16.4225 -16.4220 -16.3944 -16.3940 -16.3939 -16.3935
   -16.3751 -16.3744 -16.3740 -16.3733 -16.3576 -16.3571 -16.3563 -16.3558
   -16.3151 -16.3146 -16.3139 -16.3135 -16.3071 -16.3067 -16.3059 -16.3056
   -16.2952 -16.2951 -16.2944 -16.2943 -16.2868 -16.2865 -16.2851 -16.2848
    -3.2812  -3.2762  -3.2754  -3.2704  -1.6648  -1.6613  -1.6602  -1.6567
     0.5621   0.5668   0.5677   0.5724   2.8475   2.8513   2.8521   2.8559
     3.9420   3.9433   3.9452   3.9465   5.3742   5.3753   5.3760   5.3770
     5.5084   5.5103   5.5116   5.5137   6.6113   6.6156   6.6175   6.6219
    10.5287  10.5313  10.5314  10.5340  10.8209  10.8240  10.8242  10.8273
    10.9577  10.9585  10.9608  10.9616  12.6754  12.6777  12.6794  12.6814
    12.7957  12.8001  12.8018  12.8064  13.1167  13.1172

     occupation numbers 
     1.0000   1.0000   1.0000   1.0000   1.0000   1.0000   1.0000   1.0000
     1.0000   1.0000   1.0000   1.0000   1.0000   1.0000   1.0000   1.0000
     1.0000   1.0000   1.0000   1.0000   1.0000   1.0000   1.0000   1.0000
     1.0000   1.0000   1.0000   1.0000   1.0000   1.0000   1.0000   1.0000
     1.0000   1.0000   1.0000   1.0000   1.0000   1.0000   1.0000   1.0000
     1.0000   1.0000   1.0000   1.0000   1.0000   1.0000   1.0000   1.0000
     1.0000   1.0000   1.0000   1.0000   1.0000   1.0000   1.0000   1.0000
     1.0000   1.0000   1.0000   1.0000   1.0000   1.0000   1.0000   1.0000
     1.0000   1.0000   1.0000   1.0000   1.0000   1.0000   1.0000   1.0000
     1.0000   1.0000   1.0000   1.0000   1.0000   1.0000   1.0000   1.0000
     1.0000   1.0000   1.0000   1.0000   1.0000   1.0000   1.0000   1.0000
     1.0000   1.0000   1.0000   1.0000   1.0000   1.0000   1.0000   1.0000
     1.0000   1.0000   1.0000   1.0000   1.0000   1.0000   1.0000   1.0000
     1.0000   1.0000   1.0000   1.0000   1.0000   1.0000   1.0000   1.0000
     0.0000   0.0000   0.0000   0.0000   0.0000   0.0000   0.0000   0.0000
     0.0000   0.0000   0.0000   0.0000   0.0000   0.0000   0.0000   0.0000
     0.0000   0.0000   0.0000   0.0000   0.0000   0.0000

     the Fermi energy is     8.2085 ev

!    total energy              =   -3410.99305231 Ry
     Harris-Foulkes estimate   =   -3410.99305197 Ry
     estimated scf accuracy    <          8.0E-10 Ry

     The total energy is the sum of the following terms:

     one-electron contribution =   -2235.44964772 Ry
     hartree contribution      =    1322.20996207 Ry
     xc contribution           =    -922.07108267 Ry
     ewald contribution        =   -1575.68085118 Ry
     smearing contrib. (-TS)   =      -0.00143280 Ry

     convergence has been achieved in   9 iterations

     Forces acting on atoms (Ry/au):

     atom    1 type  1   force =  -0.24751002E-02 -0.24751002E-02 -0.34121001E-04
     atom    2 type  1   force =   0.10699102E-02  0.10699102E-02  0.89094174E-03
     atom    3 type  1   force =   0.18688903E-03  0.18688903E-03  0.24611329E-05
     atom    4 type  1   force =   0.10478013E-02  0.10478013E-02 -0.86207039E-03
     atom    5 type  1   force =   0.10138282E-03 -0.13800128E-03  0.85624120E-04
     atom    6 type  1   force =   0.18467714E-03  0.18141463E-03  0.23679999E-05
     atom    7 type  1   force =  -0.13809340E-03  0.98643903E-04 -0.86113704E-04
     atom    8 type  1   force =  -0.70713385E-04 -0.68009144E-04 -0.10949740E-06
     atom    9 type  1   force =  -0.13800128E-03  0.10138282E-03  0.85624120E-04
     atom   10 type  1   force =   0.18141463E-03  0.18467714E-03  0.23679999E-05
     atom   11 type  1   force =   0.98643903E-04 -0.13809340E-03 -0.86113704E-04
     atom   12 type  1   force =  -0.68009144E-04 -0.70713385E-04 -0.10949740E-06
     atom   13 type  1   force =   0.14518198E-04  0.14518198E-04  0.99708409E-06
     atom   14 type  1   force =  -0.13270584E-04 -0.13270584E-04 -0.58428417E-04
     atom   15 type  1   force =   0.29911739E-04  0.29911739E-04  0.27649679E-06
     atom   16 type  1   force =  -0.11960981E-04 -0.11960981E-04  0.56405522E-04
     The non-local contrib.  to forces
     atom    1 type  1   force =   0.11553390E-04  0.11553390E-04  0.93453525E-06
     atom    2 type  1   force =  -0.44328302E-03 -0.44328302E-03  0.17993826E-03
     atom    3 type  1   force =  -0.21317169E-03 -0.21317169E-03 -0.44751626E-05
     atom    4 type  1   force =  -0.45278162E-03 -0.45278162E-03 -0.16681363E-03
     atom    5 type  1   force =  -0.81041403E-04  0.92050350E-03 -0.13199455E-03
     atom    6 type  1   force =  -0.61274448E-03 -0.62938009E-03  0.67248615E-05
     atom    7 type  1   force =   0.92294334E-03 -0.81238428E-04  0.13297450E-03
     atom    8 type  1   force =   0.37840827E-03  0.37866860E-03 -0.44664954E-07
     atom    9 type  1   force =   0.92050350E-03 -0.81041403E-04 -0.13199455E-03
     atom   10 type  1   force =  -0.62938009E-03 -0.61274448E-03  0.67248615E-05
     atom   11 type  1   force =  -0.81238428E-04  0.92294334E-03  0.13297450E-03
     atom   12 type  1   force =   0.37866860E-03  0.37840827E-03 -0.44664954E-07
     atom   13 type  1   force =   0.51600811E-04  0.51600811E-04  0.34203331E-05
     atom   14 type  1   force =   0.15719924E-04  0.15719924E-04  0.36159276E-03
     atom   15 type  1   force =  -0.18291198E-03 -0.18291198E-03  0.26543018E-07
     atom   16 type  1   force =   0.16659776E-04  0.16659776E-04 -0.36233446E-03
     The ionic contribution  to forces
     atom    1 type  1   force =  -0.10714269E+00 -0.10714269E+00 -0.10478426E-02
     atom    2 type  1   force =   0.49170957E-01  0.49170957E-01  0.84346142E-01
     atom    3 type  1   force =   0.39191746E-01  0.39191746E-01 -0.25224267E-12
     atom    4 type  1   force =   0.49060388E-01  0.49060388E-01 -0.83549037E-01
     atom    5 type  1   force =   0.14532833E-01 -0.76375955E-02  0.24658311E-01
     atom    6 type  1   force =  -0.34663864E-01 -0.34995584E-01  0.17739828E-03
     atom    7 type  1   force =  -0.76375955E-02  0.14532833E-01 -0.24658311E-01
     atom    8 type  1   force =   0.12858692E-01  0.12932464E-01 -0.50605296E-04
     atom    9 type  1   force =  -0.76375955E-02  0.14532833E-01  0.24658311E-01
     atom   10 type  1   force =  -0.34995584E-01 -0.34663864E-01  0.17739828E-03
     atom   11 type  1   force =   0.14532833E-01 -0.76375955E-02 -0.24658311E-01
     atom   12 type  1   force =   0.12932464E-01  0.12858692E-01 -0.50605296E-04
     atom   13 type  1   force =  -0.10125364E-01 -0.10125364E-01  0.14743762E-12
     atom   14 type  1   force =   0.13777063E-02  0.13777063E-02  0.11504023E-01
     atom   15 type  1   force =   0.71427746E-02  0.71427746E-02  0.13145041E-12
     atom   16 type  1   force =   0.14022968E-02  0.14022968E-02 -0.11506872E-01
     The local contribution  to forces
     atom    1 type  1   force =   0.10447749E+00  0.10447749E+00  0.10119488E-02
     atom    2 type  1   force =  -0.47565814E-01 -0.47565814E-01 -0.83522192E-01
     atom    3 type  1   force =  -0.38784621E-01 -0.38784621E-01  0.37908618E-05
     atom    4 type  1   force =  -0.47467222E-01 -0.47467222E-01  0.82742522E-01
     atom    5 type  1   force =  -0.14350602E-01  0.65968925E-02 -0.24434028E-01
     atom    6 type  1   force =   0.35441126E-01  0.35785097E-01 -0.18065302E-03
     atom    7 type  1   force =   0.65956126E-02 -0.14349718E-01  0.24432217E-01
     atom    8 type  1   force =  -0.13311138E-01 -0.13385717E-01  0.50596087E-04
     atom    9 type  1   force =   0.65968925E-02 -0.14350602E-01 -0.24434028E-01
     atom   10 type  1   force =   0.35785097E-01  0.35441126E-01 -0.18065302E-03
     atom   11 type  1   force =  -0.14349718E-01  0.65956126E-02  0.24432217E-01
     atom   12 type  1   force =  -0.13385717E-01 -0.13311138E-01  0.50596087E-04
     atom   13 type  1   force =   0.10082479E-01  0.10082479E-01 -0.33943346E-05
     atom   14 type  1   force =  -0.14047215E-02 -0.14047215E-02 -0.11927975E-01
     atom   15 type  1   force =  -0.69280369E-02 -0.69280369E-02 -0.40081414E-07
     atom   16 type  1   force =  -0.14306378E-02 -0.14306378E-02  0.11932142E-01
     The core correction contribution to forces
     atom    1 type  1   force =   0.17208356E-03  0.17208356E-03  0.28127584E-05
     atom    2 type  1   force =  -0.93211849E-04 -0.93211849E-04 -0.12797270E-03
     atom    3 type  1   force =  -0.17564183E-05 -0.17564183E-05  0.85331364E-07
     atom    4 type  1   force =  -0.91577857E-04 -0.91577857E-04  0.12520968E-03
     atom    5 type  1   force =  -0.13722442E-05 -0.19076801E-04 -0.34802726E-06
     atom    6 type  1   force =   0.33695559E-04  0.34666018E-04 -0.45650748E-06
     atom    7 type  1   force =  -0.19157389E-04 -0.14177756E-05  0.34855163E-06
     atom    8 type  1   force =  -0.73478798E-05 -0.73533857E-05  0.45370645E-08
     atom    9 type  1   force =  -0.19076801E-04 -0.13722442E-05 -0.34802726E-06
     atom   10 type  1   force =   0.34666018E-04  0.33695559E-04 -0.45650749E-06
     atom   11 type  1   force =  -0.14177756E-05 -0.19157388E-04  0.34855163E-06
     atom   12 type  1   force =  -0.73533857E-05 -0.73478798E-05  0.45370586E-08
     atom   13 type  1   force =  -0.10494082E-05 -0.10494082E-05 -0.10865755E-06
     atom   14 type  1   force =  -0.58991281E-06 -0.58991280E-06 -0.67348445E-05
     atom   15 type  1   force =   0.40653988E-05  0.40653988E-05  0.34928805E-08
     atom   16 type  1   force =  -0.61548519E-06 -0.61548519E-06  0.67474034E-05
     The Hubbard contrib.    to forces
     atom    1 type  1   force =   0.00000000E+00  0.00000000E+00  0.00000000E+00
     atom    2 type  1   force =   0.00000000E+00  0.00000000E+00  0.00000000E+00
     atom    3 type  1   force =   0.00000000E+00  0.00000000E+00  0.00000000E+00
     atom    4 type  1   force =   0.00000000E+00  0.00000000E+00  0.00000000E+00
     atom    5 type  1   force =   0.00000000E+00  0.00000000E+00  0.00000000E+00
     atom    6 type  1   force =   0.00000000E+00  0.00000000E+00  0.00000000E+00
     atom    7 type  1   force =   0.00000000E+00  0.00000000E+00  0.00000000E+00
     atom    8 type  1   force =   0.00000000E+00  0.00000000E+00  0.00000000E+00
     atom    9 type  1   force =   0.00000000E+00  0.00000000E+00  0.00000000E+00
     atom   10 type  1   force =   0.00000000E+00  0.00000000E+00  0.00000000E+00
     atom   11 type  1   force =   0.00000000E+00  0.00000000E+00  0.00000000E+00
     atom   12 type  1   force =   0.00000000E+00  0.00000000E+00  0.00000000E+00
     atom   13 type  1   force =   0.00000000E+00  0.00000000E+00  0.00000000E+00
     atom   14 type  1   force =   0.00000000E+00  0.00000000E+00  0.00000000E+00
     atom   15 type  1   force =   0.00000000E+00  0.00000000E+00  0.00000000E+00
     atom   16 type  1   force =   0.00000000E+00  0.00000000E+00  0.00000000E+00
     The SCF correction term to forces
     atom    1 type  1   force =   0.64400782E-05  0.64400782E-05 -0.19660361E-05
     atom    2 type  1   force =   0.12383411E-05  0.12383411E-05  0.15033993E-04
     atom    3 type  1   force =  -0.53310631E-05 -0.53310631E-05  0.30685334E-05
     atom    4 type  1   force =  -0.10280596E-05 -0.10280596E-05 -0.13942649E-04
     atom    5 type  1   force =   0.15428116E-05  0.12517740E-05 -0.63070850E-05
     atom    6 type  1   force =  -0.13559683E-04 -0.13407739E-04 -0.63717598E-06
     atom    7 type  1   force =   0.80365031E-07 -0.18380803E-05  0.66647146E-05
     atom    8 type  1   force =   0.10648655E-04  0.13905036E-04 -0.51729620E-07
     atom    9 type  1   force =   0.12517740E-05  0.15428116E-05 -0.63070850E-05
     atom   10 type  1   force =  -0.13407739E-04 -0.13559683E-04 -0.63717598E-06
     atom   11 type  1   force =  -0.18380803E-05  0.80365033E-07  0.66647146E-05
     atom   12 type  1   force =   0.13905036E-04  0.10648655E-04 -0.51729622E-07
     atom   13 type  1   force =   0.68285248E-05  0.68285248E-05  0.10881738E-05
     atom   14 type  1   force =  -0.14086316E-05 -0.14086316E-05  0.10673478E-04
     atom   15 type  1   force =  -0.60025744E-05 -0.60025744E-05  0.29497303E-06
     atom   16 type  1   force =   0.31248288E-06  0.31248288E-06 -0.13269775E-04

     Total force =     0.004319     Total SCF correction =     0.000051


     entering subroutine stress ...

          total   stress  (Ry/bohr**3)                   (kbar)     P=    0.19
   0.0000013049   0.0000000192   0.0000014561          0.19      0.00      0.21
   0.0000000192   0.0000013049   0.0000014561          0.00      0.19      0.21
   0.0000014561   0.0000014561   0.0000013189          0.21      0.21      0.19

     kinetic stress (kbar)   9996.63     -0.00     -0.21
                               -0.00   9996.63     -0.21
                               -0.21     -0.21   9996.63

     local   stress (kbar)   1777.19     -0.07    -35.60
                               -0.07   1777.19    -35.60
                              -35.60    -35.60   1776.96

     nonloc. stress (kbar)   2937.36      0.00      0.17
                                0.00   2937.36      0.17
                                0.17      0.17   2937.36

     hartree stress (kbar)  26306.42      0.02     13.91
                                0.02  26306.42     13.91
                               13.91     13.91  26306.51

     exc-cor stress (kbar)  19474.21      0.00      0.01
                                0.00  19474.21      0.01
                                0.01      0.01  19474.21

     corecor stress (kbar) -29142.11     -0.00     -0.01
                               -0.00 -29142.11     -0.01
                               -0.01     -0.01 -29142.11

     ewald   stress (kbar) -31349.51      0.05     21.95
                                0.05 -31349.51     21.95
                               21.95     21.95 -31349.37

     hubbard stress (kbar)      0.00      0.00      0.00
                                0.00      0.00      0.00
                                0.00      0.00      0.00

     london  stress (kbar)      0.00      0.00      0.00
                                0.00      0.00      0.00
                                0.00      0.00      0.00

     XDM     stress (kbar)      0.00      0.00      0.00
                                0.00      0.00      0.00
                                0.00      0.00      0.00

     dft-nl  stress (kbar)      0.00      0.00      0.00
                                0.00      0.00      0.00
                                0.00      0.00      0.00



     Writing output data file Ge_diamond.scf.in.super.222.x001.save

     init_run     :     36.19s CPU     37.55s WALL (       1 calls)
     electrons    :    984.70s CPU   1053.80s WALL (       1 calls)
     forces       :      9.92s CPU      9.25s WALL (       1 calls)
     stress       :     61.77s CPU     63.25s WALL (       1 calls)

     Called by init_run:
     wfcinit      :     34.52s CPU     35.76s WALL (       1 calls)
     potinit      :      0.14s CPU      0.15s WALL (       1 calls)

     Called by electrons:
     c_bands      :    845.68s CPU    910.62s WALL (      10 calls)
     sum_band     :    128.76s CPU    132.57s WALL (      10 calls)
     v_of_rho     :      1.20s CPU      1.22s WALL (      10 calls)
     v_h          :      0.09s CPU      0.09s WALL (      10 calls)
     v_xc         :      1.33s CPU      1.36s WALL (      12 calls)
     newd         :      8.25s CPU      8.49s WALL (      10 calls)
     mix_rho      :      1.76s CPU      1.81s WALL (      10 calls)

     Called by c_bands:
     init_us_2    :      3.67s CPU      3.90s WALL (     552 calls)
     cegterg      :    828.38s CPU    892.02s WALL (     240 calls)

     Called by sum_band:
     sum_band:bec :      0.72s CPU      0.80s WALL (     240 calls)
     addusdens    :      8.00s CPU      8.19s WALL (      10 calls)

     Called by *egterg:
     h_psi        :    470.63s CPU    479.82s WALL (     887 calls)
     s_psi        :     37.10s CPU     30.42s WALL (     887 calls)
     g_psi        :      1.02s CPU      1.02s WALL (     623 calls)
     cdiaghg      :    182.08s CPU    248.00s WALL (     839 calls)
     cegterg:over :     75.32s CPU     70.89s WALL (     623 calls)
     cegterg:upda :     26.24s CPU     23.26s WALL (     623 calls)
     cegterg:last :     14.92s CPU     12.04s WALL (     240 calls)

     Called by h_psi:
     h_psi:vloc   :    378.76s CPU    395.27s WALL (     887 calls)
     h_psi:vnl    :     90.39s CPU     82.96s WALL (     887 calls)
     add_vuspsi   :     36.71s CPU     31.59s WALL (     887 calls)

     General routines
     calbec       :     88.91s CPU     85.28s WALL (    1175 calls)
     fft          :      1.89s CPU      1.91s WALL (     185 calls)
     ffts         :      0.89s CPU      0.89s WALL (     272 calls)
     fftw         :    399.96s CPU    418.78s WALL (  190496 calls)
     interpolate  :      0.24s CPU      0.25s WALL (      20 calls)

     Parallel routines
     fft_scatter  :    227.68s CPU    239.38s WALL (  190953 calls)

     PWSCF        : 18m16.51s CPU    19m29.30s WALL


   This run was terminated on:  12:56:37  28Sep2017            

=------------------------------------------------------------------------------=
   JOB DONE.
=------------------------------------------------------------------------------=
