
     Program PWSCF v.5.1 starts on  8Mar2018 at 16:27: 3 

     This program is part of the open-source Quantum ESPRESSO suite
     for quantum simulation of materials; please cite
         "P. Giannozzi et al., J. Phys.:Condens. Matter 21 395502 (2009);
          URL http://www.quantum-espresso.org", 
     in publications or presentations arising from this work. More details at
     http://www.quantum-espresso.org/quote

     Parallel version (MPI), running on     4 processors
     R & G space division:  proc/nbgrp/npool/nimage =       4
     Reading input from /tmp/Ge_diamond.scf.in.sx.27057/Ge_diamond.scf.in.sx.t
Warning: card &IONS ignored
Warning: card   ION_DYNAMICS='BFGS', ignored
Warning: card / ignored
Warning: card &CELL ignored
Warning: card  CELL_DYNAMICS = 'BFGS' ignored
Warning: card / ignored
     Message from routine read_cards :
     DEPRECATED: no units specified in CELL_PARAMETERS card

     Current dimensions of program PWSCF are:
     Max number of different atomic species (ntypx) = 10
     Max number of k-points (npk) =  40000
     Max angular momentum in pseudopotentials (lmaxx) =  3
 kfg - two_fermi_energies  F

     Subspace diagonalization in iterative solution of the eigenvalue problem:
     a serial algorithm will be used


     Parallelization info
     --------------------
     sticks:   dense  smooth     PW     G-vecs:    dense   smooth      PW
     Min         200     139     42                 3690     2160     367
     Max         201     140     43                 3691     2168     368
     Sum         801     559    169                14761     8657    1471



     bravais-lattice index     =            0
     lattice parameter (alat)  =     7.580942038  a.u.
     unit-cell volume          =     309.6140 (a.u.)^3
     number of atoms/cell      =            2
     number of atomic types    =            1
     number of electrons       =        28.00
     number of Kohn-Sham states=           18
     kinetic-energy cutoff     =      35.0000  Ry
     charge density cutoff     =     200.0000  Ry
     convergence threshold     =      1.0E-09
     mixing beta               =       0.3000
     number of iterations used =            8  local-TF  mixing
     Exchange-correlation      = SLA  PW   PSX  PSC ( 1  4 10  8 0)
     A smooth kinetic-energy cutoff is imposed at      34.5000 Ry
     height of the smooth step-function =             800.0000 Ry
     width of the smooth step-function  =               1.0000 Ry


     celldm(1)=   7.580942  celldm(2)=   0.000000  celldm(3)=   0.000000
     celldm(4)=   0.000000  celldm(5)=   0.000000  celldm(6)=   0.000000

     crystal axes: (cart. coord. in units of alat)
               a(1) = (   0.000000000000   0.707106781187   0.707106781187 )  
               a(2) = (   0.710642315092   0.000000000000   0.707106781187 )  
               a(3) = (   0.710642315092   0.707106781187   0.000000000000 )  

     reciprocal axes: (cart. coord. in units 2 pi/alat)
               b(1) = ( -0.703589  0.707107  0.707107 )  
               b(2) = (  0.703589 -0.707107  0.707107 )  
               b(3) = (  0.703589  0.707107 -0.707107 )  


     PseudoPot. # 1 for Ge read from file:
     /users/kfg/psuedo/gbrv_1.5/ge.pbesol.UPF
     MD5 check sum: 7bed0412183f5e553a4d27ec7023354d
     Pseudo is Ultrasoft + core correction, Zval = 14.0
     Generated by new atomic code, or converted to UPF format
     Using radial grid of  873 points,  6 beta functions with: 
                l(1) =   0
                l(2) =   0
                l(3) =   1
                l(4) =   1
                l(5) =   2
                l(6) =   2
     Q(r) pseudized with  8 coefficients,  rinner =    1.400   1.400   1.400
                                                       1.400   1.400

     atomic species   valence    mass     pseudopotential
        Ge            14.00    72.64000     Ge( 1.00)

     16 Sym. Ops., with inversion, found ( 8 have fractional translation)


                                    s                        frac. trans.

      isym =  1     identity                                     

 cryst.   s( 1) = (     1          0          0      )
                  (     0          1          0      )
                  (     0          0          1      )

 cart.    s( 1) = (  1.0000000  0.0000000  0.0000000 )
                  (  0.0000000  1.0000000  0.0000000 )
                  (  0.0000000  0.0000000  1.0000000 )


      isym =  2     180 deg rotation - cart. axis [0,0,1]        

 cryst.   s( 2) = (     0          1         -1      )
                  (     1          0         -1      )
                  (     0          0         -1      )

 cart.    s( 2) = ( -1.0000000  0.0000000  0.0000000 )
                  (  0.0000000 -1.0000000  0.0000000 )
                  (  0.0000000  0.0000000  1.0000000 )


      isym =  3     180 deg rotation - cart. axis [0,1,0]        

 cryst.   s( 3) = (     0         -1          1      )
                  (     0         -1          0      )
                  (     1         -1          0      )

 cart.    s( 3) = ( -1.0000000  0.0000000  0.0000000 )
                  (  0.0000000  1.0000000  0.0000000 )
                  (  0.0000000  0.0000000 -1.0000000 )


      isym =  4     180 deg rotation - cart. axis [1,0,0]        

 cryst.   s( 4) = (    -1          0          0      )
                  (    -1          0          1      )
                  (    -1          1          0      )

 cart.    s( 4) = (  1.0000000  0.0000000  0.0000000 )
                  (  0.0000000 -1.0000000  0.0000000 )
                  (  0.0000000  0.0000000 -1.0000000 )


      isym =  5     180 deg rotation - cart. axis [0,1,1]        

 cryst.   s( 5) = (     1          0          0      )    f =( -0.2500000 )
                  (     1         -1          0      )       ( -0.2500000 )
                  (     1          0         -1      )       ( -0.2500000 )

 cart.    s( 5) = ( -1.0000000  0.0000000  0.0000000 )    f =( -0.3553212 )
                  (  0.0000000  0.0000000  1.0000000 )       ( -0.3535534 )
                  (  0.0000000  1.0000000  0.0000000 )       ( -0.3535534 )


      isym =  6     180 deg rotation - cart. axis [0,1,-1]       

 cryst.   s( 6) = (    -1          0          0      )    f =( -0.2500000 )
                  (     0          0         -1      )       ( -0.2500000 )
                  (     0         -1          0      )       ( -0.2500000 )

 cart.    s( 6) = ( -1.0000000  0.0000000  0.0000000 )    f =( -0.3553212 )
                  (  0.0000000  0.0000000 -1.0000000 )       ( -0.3535534 )
                  (  0.0000000 -1.0000000  0.0000000 )       ( -0.3535534 )


      isym =  7      90 deg rotation - cart. axis [-1,0,0]       

 cryst.   s( 7) = (     0         -1          1      )    f =( -0.2500000 )
                  (     0          0          1      )       ( -0.2500000 )
                  (    -1          0          1      )       ( -0.2500000 )

 cart.    s( 7) = (  1.0000000  0.0000000  0.0000000 )    f =( -0.3553212 )
                  (  0.0000000  0.0000000  1.0000000 )       ( -0.3535534 )
                  (  0.0000000 -1.0000000  0.0000000 )       ( -0.3535534 )


      isym =  8      90 deg rotation - cart. axis [1,0,0]        

 cryst.   s( 8) = (     0          1         -1      )    f =( -0.2500000 )
                  (    -1          1          0      )       ( -0.2500000 )
                  (     0          1          0      )       ( -0.2500000 )

 cart.    s( 8) = (  1.0000000  0.0000000  0.0000000 )    f =( -0.3553212 )
                  (  0.0000000  0.0000000 -1.0000000 )       ( -0.3535534 )
                  (  0.0000000  1.0000000  0.0000000 )       ( -0.3535534 )


      isym =  9     inversion                                    

 cryst.   s( 9) = (    -1          0          0      )    f =( -0.2500000 )
                  (     0         -1          0      )       ( -0.2500000 )
                  (     0          0         -1      )       ( -0.2500000 )

 cart.    s( 9) = ( -1.0000000  0.0000000  0.0000000 )    f =( -0.3553212 )
                  (  0.0000000 -1.0000000  0.0000000 )       ( -0.3535534 )
                  (  0.0000000  0.0000000 -1.0000000 )       ( -0.3535534 )


      isym = 10     inv. 180 deg rotation - cart. axis [0,0,1]   

 cryst.   s(10) = (     0         -1          1      )    f =( -0.2500000 )
                  (    -1          0          1      )       ( -0.2500000 )
                  (     0          0          1      )       ( -0.2500000 )

 cart.    s(10) = (  1.0000000  0.0000000  0.0000000 )    f =( -0.3553212 )
                  (  0.0000000  1.0000000  0.0000000 )       ( -0.3535534 )
                  (  0.0000000  0.0000000 -1.0000000 )       ( -0.3535534 )


      isym = 11     inv. 180 deg rotation - cart. axis [0,1,0]   

 cryst.   s(11) = (     0          1         -1      )    f =( -0.2500000 )
                  (     0          1          0      )       ( -0.2500000 )
                  (    -1          1          0      )       ( -0.2500000 )

 cart.    s(11) = (  1.0000000  0.0000000  0.0000000 )    f =( -0.3553212 )
                  (  0.0000000 -1.0000000  0.0000000 )       ( -0.3535534 )
                  (  0.0000000  0.0000000  1.0000000 )       ( -0.3535534 )


      isym = 12     inv. 180 deg rotation - cart. axis [1,0,0]   

 cryst.   s(12) = (     1          0          0      )    f =( -0.2500000 )
                  (     1          0         -1      )       ( -0.2500000 )
                  (     1         -1          0      )       ( -0.2500000 )

 cart.    s(12) = ( -1.0000000  0.0000000  0.0000000 )    f =( -0.3553212 )
                  (  0.0000000  1.0000000  0.0000000 )       ( -0.3535534 )
                  (  0.0000000  0.0000000  1.0000000 )       ( -0.3535534 )


      isym = 13     inv. 180 deg rotation - cart. axis [0,1,1]   

 cryst.   s(13) = (    -1          0          0      )
                  (    -1          1          0      )
                  (    -1          0          1      )

 cart.    s(13) = (  1.0000000  0.0000000  0.0000000 )
                  (  0.0000000  0.0000000 -1.0000000 )
                  (  0.0000000 -1.0000000  0.0000000 )


      isym = 14     inv. 180 deg rotation - cart. axis [0,1,-1]  

 cryst.   s(14) = (     1          0          0      )
                  (     0          0          1      )
                  (     0          1          0      )

 cart.    s(14) = (  1.0000000  0.0000000  0.0000000 )
                  (  0.0000000  0.0000000  1.0000000 )
                  (  0.0000000  1.0000000  0.0000000 )


      isym = 15     inv.  90 deg rotation - cart. axis [-1,0,0]  

 cryst.   s(15) = (     0          1         -1      )
                  (     0          0         -1      )
                  (     1          0         -1      )

 cart.    s(15) = ( -1.0000000  0.0000000  0.0000000 )
                  (  0.0000000  0.0000000 -1.0000000 )
                  (  0.0000000  1.0000000  0.0000000 )


      isym = 16     inv.  90 deg rotation - cart. axis [1,0,0]   

 cryst.   s(16) = (     0         -1          1      )
                  (     1         -1          0      )
                  (     0         -1          0      )

 cart.    s(16) = ( -1.0000000  0.0000000  0.0000000 )
                  (  0.0000000  0.0000000  1.0000000 )
                  (  0.0000000 -1.0000000  0.0000000 )


     point group D_4h(4/mmm)
     there are 10 classes
     the character table:

       E     2C4   C2    2C2'  2C2'' i     2S4   s_h   2s_v  2s_d 
A_1g   1.00  1.00  1.00  1.00  1.00  1.00  1.00  1.00  1.00  1.00
A_2g   1.00  1.00  1.00 -1.00 -1.00  1.00  1.00  1.00 -1.00 -1.00
B_1g   1.00 -1.00  1.00  1.00 -1.00  1.00 -1.00  1.00  1.00 -1.00
B_2g   1.00 -1.00  1.00 -1.00  1.00  1.00 -1.00  1.00 -1.00  1.00
E_g    2.00  0.00 -2.00  0.00  0.00  2.00  0.00 -2.00  0.00  0.00
A_1u   1.00  1.00  1.00  1.00  1.00 -1.00 -1.00 -1.00 -1.00 -1.00
A_2u   1.00  1.00  1.00 -1.00 -1.00 -1.00 -1.00 -1.00  1.00  1.00
B_1u   1.00 -1.00  1.00  1.00 -1.00 -1.00  1.00 -1.00 -1.00  1.00
B_2u   1.00 -1.00  1.00 -1.00  1.00 -1.00  1.00 -1.00  1.00 -1.00
E_u    2.00  0.00 -2.00  0.00  0.00 -2.00  0.00  2.00  0.00  0.00

     the symmetry operations in each class:
     E        1
     2C2'     2    3
     C2       4
     2C2''    5    6
     2C4      7    8
     i        9
     2s_v    10   11
     s_h     12
     2s_d    13   14
     2S4     15   16

   Cartesian axes

     site n.     atom                  positions (alat units)
         1           Ge  tau(   1) = (    0.00000000000    0.00000000000    0.00000000000  )
         2           Ge  tau(   2) = (    0.35532115755    0.35355339059    0.35355339059  )

   Crystallographic axes

     site n.     atom                  positions (cryst. coord.)
         1           Ge  tau(   1) = (    0.00000000000    0.00000000000    0.00000000000  )
         2           Ge  tau(   2) = (    0.25000000000    0.25000000000    0.25000000000  )

     number of k points=    59  gaussian smearing, width (Ry)=  0.0150
                       cart. coord. in units 2pi/alat
        k(    1) = (   0.0000000   0.0000000   0.0000000), wk =   0.0039063
        k(    2) = (   0.0879486   0.0883883  -0.0883883), wk =   0.0312500
        k(    3) = (   0.1758972   0.1767767  -0.1767767), wk =   0.0312500
        k(    4) = (   0.2638458   0.2651650  -0.2651650), wk =   0.0312500
        k(    5) = (  -0.3517944  -0.3535534   0.3535534), wk =   0.0156250
        k(    6) = (   0.1758972   0.0000000   0.0000000), wk =   0.0078125
        k(    7) = (   0.2638458   0.0883883  -0.0883883), wk =   0.0312500
        k(    8) = (   0.3517944   0.1767767  -0.1767767), wk =   0.0312500
        k(    9) = (  -0.2638458  -0.4419417   0.4419417), wk =   0.0312500
        k(   10) = (  -0.1758972  -0.3535534   0.3535534), wk =   0.0312500
        k(   11) = (  -0.0879486  -0.2651650   0.2651650), wk =   0.0312500
        k(   12) = (   0.0000000  -0.1767767   0.1767767), wk =   0.0156250
        k(   13) = (   0.3517944   0.0000000   0.0000000), wk =   0.0078125
        k(   14) = (   0.4397430   0.0883883  -0.0883883), wk =   0.0312500
        k(   15) = (  -0.1758972  -0.5303301   0.5303301), wk =   0.0312500
        k(   16) = (  -0.0879486  -0.4419417   0.4419417), wk =   0.0312500
        k(   17) = (   0.0000000  -0.3535534   0.3535534), wk =   0.0156250
        k(   18) = (   0.5276916   0.0000000   0.0000000), wk =   0.0078125
        k(   19) = (  -0.0879486  -0.6187184   0.6187184), wk =   0.0312500
        k(   20) = (   0.0000000  -0.5303301   0.5303301), wk =   0.0156250
        k(   21) = (  -0.7035888   0.0000000   0.0000000), wk =   0.0039063
        k(   22) = (   0.0000000   0.1767767   0.0000000), wk =   0.0156250
        k(   23) = (   0.0879486   0.2651650  -0.0883883), wk =   0.0625000
        k(   24) = (   0.1758972   0.3535534  -0.1767767), wk =   0.0625000
        k(   25) = (  -0.4397430  -0.2651650   0.4419417), wk =   0.0625000
        k(   26) = (  -0.3517944  -0.1767767   0.3535534), wk =   0.0625000
        k(   27) = (  -0.2638458  -0.0883883   0.2651650), wk =   0.0625000
        k(   28) = (  -0.1758972   0.0000000   0.1767767), wk =   0.0312500
        k(   29) = (   0.3517944   0.1767767   0.0000000), wk =   0.0312500
        k(   30) = (  -0.2638458  -0.4419417   0.6187184), wk =   0.0625000
        k(   31) = (  -0.1758972  -0.3535534   0.5303301), wk =   0.0625000
        k(   32) = (  -0.0879486  -0.2651650   0.4419417), wk =   0.0625000
        k(   33) = (   0.0000000  -0.1767767   0.3535534), wk =   0.0312500
        k(   34) = (  -0.1758972  -0.5303301   0.7071068), wk =   0.0312500
        k(   35) = (  -0.0879486  -0.4419417   0.6187184), wk =   0.0625000
        k(   36) = (   0.0000000  -0.3535534   0.5303301), wk =   0.0312500
        k(   37) = (  -0.7035888   0.1767767   0.0000000), wk =   0.0156250
        k(   38) = (   0.0000000   0.3535534   0.0000000), wk =   0.0156250
        k(   39) = (   0.0879486   0.4419417  -0.0883883), wk =   0.0625000
        k(   40) = (  -0.5276916  -0.1767767   0.5303301), wk =   0.0625000
        k(   41) = (  -0.4397430  -0.0883883   0.4419417), wk =   0.0625000
        k(   42) = (  -0.3517944   0.0000000   0.3535534), wk =   0.0312500
        k(   43) = (   0.1758972   0.3535534   0.0000000), wk =   0.0312500
        k(   44) = (  -0.4397430  -0.2651650   0.6187184), wk =   0.0625000
        k(   45) = (  -0.3517944  -0.1767767   0.5303301), wk =   0.0312500
        k(   46) = (  -0.1758972  -0.3535534   0.7071068), wk =   0.0312500
        k(   47) = (  -0.0879486  -0.2651650   0.6187184), wk =   0.0625000
        k(   48) = (   0.0000000  -0.1767767   0.5303301), wk =   0.0312500
        k(   49) = (  -0.7035888   0.3535534   0.0000000), wk =   0.0156250
        k(   50) = (   0.0000000   0.5303301   0.0000000), wk =   0.0156250
        k(   51) = (  -0.6156402  -0.0883883   0.6187184), wk =   0.0625000
        k(   52) = (  -0.5276916   0.0000000   0.5303301), wk =   0.0312500
        k(   53) = (  -0.5276916  -0.1767767   0.7071068), wk =   0.0312500
        k(   54) = (  -0.4397430  -0.0883883   0.6187184), wk =   0.0625000
        k(   55) = (  -0.3517944  -0.0000000   0.5303301), wk =   0.0312500
        k(   56) = (  -0.7035888   0.5303301  -0.0000000), wk =   0.0156250
        k(   57) = (   0.0000000  -0.7071068   0.0000000), wk =   0.0078125
        k(   58) = (   0.1758972  -0.7071068   0.0000000), wk =   0.0156250
        k(   59) = (   0.3517944  -0.7071068   0.0000000), wk =   0.0078125

                       cryst. coord.
        k(    1) = (   0.0000000   0.0000000   0.0000000), wk =   0.0039063
        k(    2) = (   0.0000000   0.0000000   0.1250000), wk =   0.0312500
        k(    3) = (   0.0000000   0.0000000   0.2500000), wk =   0.0312500
        k(    4) = (   0.0000000   0.0000000   0.3750000), wk =   0.0312500
        k(    5) = (   0.0000000  -0.0000000  -0.5000000), wk =   0.0156250
        k(    6) = (   0.0000000   0.1250000   0.1250000), wk =   0.0078125
        k(    7) = (   0.0000000   0.1250000   0.2500000), wk =   0.0312500
        k(    8) = (   0.0000000   0.1250000   0.3750000), wk =   0.0312500
        k(    9) = (   0.0000000   0.1250000  -0.5000000), wk =   0.0312500
        k(   10) = (   0.0000000   0.1250000  -0.3750000), wk =   0.0312500
        k(   11) = (   0.0000000   0.1250000  -0.2500000), wk =   0.0312500
        k(   12) = (   0.0000000   0.1250000  -0.1250000), wk =   0.0156250
        k(   13) = (   0.0000000   0.2500000   0.2500000), wk =   0.0078125
        k(   14) = (   0.0000000   0.2500000   0.3750000), wk =   0.0312500
        k(   15) = (   0.0000000   0.2500000  -0.5000000), wk =   0.0312500
        k(   16) = (   0.0000000   0.2500000  -0.3750000), wk =   0.0312500
        k(   17) = (   0.0000000   0.2500000  -0.2500000), wk =   0.0156250
        k(   18) = (   0.0000000   0.3750000   0.3750000), wk =   0.0078125
        k(   19) = (   0.0000000   0.3750000  -0.5000000), wk =   0.0312500
        k(   20) = (   0.0000000   0.3750000  -0.3750000), wk =   0.0156250
        k(   21) = (   0.0000000  -0.5000000  -0.5000000), wk =   0.0039063
        k(   22) = (   0.1250000   0.0000000   0.1250000), wk =   0.0156250
        k(   23) = (   0.1250000   0.0000000   0.2500000), wk =   0.0625000
        k(   24) = (   0.1250000   0.0000000   0.3750000), wk =   0.0625000
        k(   25) = (   0.1250000  -0.0000000  -0.5000000), wk =   0.0625000
        k(   26) = (   0.1250000  -0.0000000  -0.3750000), wk =   0.0625000
        k(   27) = (   0.1250000  -0.0000000  -0.2500000), wk =   0.0625000
        k(   28) = (   0.1250000  -0.0000000  -0.1250000), wk =   0.0312500
        k(   29) = (   0.1250000   0.2500000   0.3750000), wk =   0.0312500
        k(   30) = (   0.1250000   0.2500000  -0.5000000), wk =   0.0625000
        k(   31) = (   0.1250000   0.2500000  -0.3750000), wk =   0.0625000
        k(   32) = (   0.1250000   0.2500000  -0.2500000), wk =   0.0625000
        k(   33) = (   0.1250000   0.2500000  -0.1250000), wk =   0.0312500
        k(   34) = (   0.1250000   0.3750000  -0.5000000), wk =   0.0312500
        k(   35) = (   0.1250000   0.3750000  -0.3750000), wk =   0.0625000
        k(   36) = (   0.1250000   0.3750000  -0.2500000), wk =   0.0312500
        k(   37) = (   0.1250000  -0.5000000  -0.3750000), wk =   0.0156250
        k(   38) = (   0.2500000   0.0000000   0.2500000), wk =   0.0156250
        k(   39) = (   0.2500000   0.0000000   0.3750000), wk =   0.0625000
        k(   40) = (   0.2500000  -0.0000000  -0.5000000), wk =   0.0625000
        k(   41) = (   0.2500000  -0.0000000  -0.3750000), wk =   0.0625000
        k(   42) = (   0.2500000  -0.0000000  -0.2500000), wk =   0.0312500
        k(   43) = (   0.2500000   0.1250000   0.3750000), wk =   0.0312500
        k(   44) = (   0.2500000   0.1250000  -0.5000000), wk =   0.0625000
        k(   45) = (   0.2500000   0.1250000  -0.3750000), wk =   0.0312500
        k(   46) = (   0.2500000   0.3750000  -0.3750000), wk =   0.0312500
        k(   47) = (   0.2500000   0.3750000  -0.2500000), wk =   0.0625000
        k(   48) = (   0.2500000   0.3750000  -0.1250000), wk =   0.0312500
        k(   49) = (   0.2500000  -0.5000000  -0.2500000), wk =   0.0156250
        k(   50) = (   0.3750000   0.0000000   0.3750000), wk =   0.0156250
        k(   51) = (   0.3750000  -0.0000000  -0.5000000), wk =   0.0625000
        k(   52) = (   0.3750000  -0.0000000  -0.3750000), wk =   0.0312500
        k(   53) = (   0.3750000   0.1250000  -0.5000000), wk =   0.0312500
        k(   54) = (   0.3750000   0.1250000  -0.3750000), wk =   0.0625000
        k(   55) = (   0.3750000   0.1250000  -0.2500000), wk =   0.0312500
        k(   56) = (   0.3750000  -0.5000000  -0.1250000), wk =   0.0156250
        k(   57) = (  -0.5000000   0.0000000  -0.5000000), wk =   0.0078125
        k(   58) = (  -0.5000000   0.1250000  -0.3750000), wk =   0.0156250
        k(   59) = (  -0.5000000   0.2500000  -0.2500000), wk =   0.0078125

     Dense  grid:    14761 G-vectors     FFT dimensions: (  36,  36,  36)

     Smooth grid:     8657 G-vectors     FFT dimensions: (  30,  30,  30)

     Largest allocated arrays     est. size (Mb)     dimensions
        Kohn-Sham Wavefunctions         0.08 Mb     (     282,   18)
        NL pseudopotentials             0.15 Mb     (     282,   36)
        Each V/rho on FFT grid          0.18 Mb     (   11664)
        Each G-vector array             0.03 Mb     (    3691)
        G-vector shells                 0.01 Mb     (     916)
     Largest temporary arrays     est. size (Mb)     dimensions
        Auxiliary wavefunctions         0.31 Mb     (     282,   72)
        Each subspace H/S matrix        0.08 Mb     (      72,   72)
        Each <psi_i|beta_j> matrix      0.01 Mb     (      36,   18)
        Arrays for rho mixing           1.42 Mb     (   11664,    8)

     Check: negative/imaginary core charge=   -0.000002    0.000000

     Initial potential from superposition of free atoms

     starting charge   27.99838, renormalised to   28.00000
     Starting wfc are   18 randomized atomic wfcs

     total cpu time spent up to now is        2.2 secs

     Self-consistent Calculation

     iteration #  1     ecut=    35.00 Ry     beta=0.30
     Davidson diagonalization with overlap
     ethr =  1.00E-02,  avg # of iterations =  3.0

     Threshold (ethr) on eigenvalues was too large:
     Diagonalizing with lowered threshold

     Davidson diagonalization with overlap
     ethr =  1.12E-04,  avg # of iterations =  2.2

     total cpu time spent up to now is       11.9 secs

     total energy              =    -426.37913361 Ry
     Harris-Foulkes estimate   =    -426.38245096 Ry
     estimated scf accuracy    <       0.03291744 Ry

     iteration #  2     ecut=    35.00 Ry     beta=0.30
     Davidson diagonalization with overlap
     ethr =  1.18E-04,  avg # of iterations =  1.0

     total cpu time spent up to now is       15.7 secs

     total energy              =    -426.37301111 Ry
     Harris-Foulkes estimate   =    -426.37924379 Ry
     estimated scf accuracy    <       0.02020672 Ry

     iteration #  3     ecut=    35.00 Ry     beta=0.30
     Davidson diagonalization with overlap
     ethr =  7.22E-05,  avg # of iterations =  1.1

     total cpu time spent up to now is       19.6 secs

     total energy              =    -426.37403711 Ry
     Harris-Foulkes estimate   =    -426.37408951 Ry
     estimated scf accuracy    <       0.00036536 Ry

     iteration #  4     ecut=    35.00 Ry     beta=0.30
     Davidson diagonalization with overlap
     ethr =  1.30E-06,  avg # of iterations =  2.6

     total cpu time spent up to now is       25.4 secs

     total energy              =    -426.37411098 Ry
     Harris-Foulkes estimate   =    -426.37411792 Ry
     estimated scf accuracy    <       0.00004016 Ry

     iteration #  5     ecut=    35.00 Ry     beta=0.30
     Davidson diagonalization with overlap
     ethr =  1.43E-07,  avg # of iterations =  2.0

     total cpu time spent up to now is       30.1 secs

     total energy              =    -426.37411070 Ry
     Harris-Foulkes estimate   =    -426.37411451 Ry
     estimated scf accuracy    <       0.00001094 Ry

     iteration #  6     ecut=    35.00 Ry     beta=0.30
     Davidson diagonalization with overlap
     ethr =  3.91E-08,  avg # of iterations =  1.0

     total cpu time spent up to now is       34.2 secs

     total energy              =    -426.37411128 Ry
     Harris-Foulkes estimate   =    -426.37411099 Ry
     estimated scf accuracy    <       0.00000016 Ry

     iteration #  7     ecut=    35.00 Ry     beta=0.30
     Davidson diagonalization with overlap
     ethr =  5.58E-10,  avg # of iterations =  2.3

     total cpu time spent up to now is       39.7 secs

     total energy              =    -426.37411138 Ry
     Harris-Foulkes estimate   =    -426.37411137 Ry
     estimated scf accuracy    <       0.00000020 Ry

     iteration #  8     ecut=    35.00 Ry     beta=0.30
     Davidson diagonalization with overlap
     ethr =  5.58E-10,  avg # of iterations =  2.0

     total cpu time spent up to now is       45.0 secs

     total energy              =    -426.37411146 Ry
     Harris-Foulkes estimate   =    -426.37411143 Ry
     estimated scf accuracy    <       0.00000001 Ry

     iteration #  9     ecut=    35.00 Ry     beta=0.30
     Davidson diagonalization with overlap
     ethr =  3.91E-11,  avg # of iterations =  2.0

     total cpu time spent up to now is       50.6 secs

     End of self-consistent calculation

          k = 0.0000 0.0000 0.0000 (  1067 PWs)   bands (ev):

   -16.6488 -16.6488 -16.6476 -16.6152 -16.6148 -16.4122 -16.4101 -16.4101
   -16.3995 -16.3983  -4.5321   8.0257   8.1361   8.1745   8.1745  10.6766
    10.6766  10.7004

     occupation numbers 
     1.0000   1.0000   1.0000   1.0000   1.0000   1.0000   1.0000   1.0000
     1.0000   1.0000   1.0000   0.7732   0.4939   0.3891   0.3891   0.0000
     0.0000   0.0000

          k = 0.0879 0.0884-0.0884 (  1069 PWs)   bands (ev):

   -16.6570 -16.6563 -16.6471 -16.6044 -16.6040 -16.4232 -16.4230 -16.4145
   -16.3889 -16.3889  -4.3438   5.7692   7.8168   7.8451   9.1005  11.1210
    11.1325  11.5674

     occupation numbers 
     1.0000   1.0000   1.0000   1.0000   1.0000   1.0000   1.0000   1.0000
     1.0000   1.0000   1.0000   1.0000   0.9860   0.9773   0.0000   0.0000
     0.0000   0.0000

          k = 0.1759 0.1768-0.1768 (  1081 PWs)   bands (ev):

   -16.6673 -16.6664 -16.6413 -16.5878 -16.5875 -16.4363 -16.4361 -16.4213
   -16.3798 -16.3789  -3.7976   3.4413   7.2727   7.3082   8.7319  11.7470
    11.7525  13.6547

     occupation numbers 
     1.0000   1.0000   1.0000   1.0000   1.0000   1.0000   1.0000   1.0000
     1.0000   1.0000   1.0000   1.0000   1.0000   1.0000   0.0000   0.0000
     0.0000   0.0000

          k = 0.2638 0.2652-0.2652 (  1083 PWs)   bands (ev):

   -16.6736 -16.6723 -16.6358 -16.5771 -16.5769 -16.4437 -16.4434 -16.4287
   -16.3752 -16.3738  -2.9979   1.5125   6.8868   6.9287   8.3689  11.8815
    11.9065  15.2545

     occupation numbers 
     1.0000   1.0000   1.0000   1.0000   1.0000   1.0000   1.0000   1.0000
     1.0000   1.0000   1.0000   1.0000   1.0000   1.0000   0.0517   0.0000
     0.0000   0.0000

          k =-0.3518-0.3536 0.3536 (  1074 PWs)   bands (ev):

   -16.6753 -16.6739 -16.6307 -16.5740 -16.5739 -16.4456 -16.4453 -16.4318
   -16.3741 -16.3725  -2.4664   0.5968   6.7524   6.7969   8.2394  11.8436
    11.8739  15.1228

     occupation numbers 
     1.0000   1.0000   1.0000   1.0000   1.0000   1.0000   1.0000   1.0000
     1.0000   1.0000   1.0000   1.0000   1.0000   1.0000   0.2325   0.0000
     0.0000   0.0000

          k = 0.1759 0.0000 0.0000 (  1070 PWs)   bands (ev):

   -16.6563 -16.6552 -16.6552 -16.6067 -16.5923 -16.4453 -16.4076 -16.4030
   -16.4030 -16.3841  -4.2813   5.7084   7.3111   7.3111  10.0375  10.2885
    11.8574  11.8574

     occupation numbers 
     1.0000   1.0000   1.0000   1.0000   1.0000   1.0000   1.0000   1.0000
     1.0000   1.0000   1.0000   1.0000   1.0000   1.0000   0.0000   0.0000
     0.0000   0.0000

          k = 0.2638 0.0884-0.0884 (  1074 PWs)   bands (ev):

   -16.6697 -16.6638 -16.6474 -16.5933 -16.5723 -16.4654 -16.4233 -16.4058
   -16.3889 -16.3754  -3.8511   3.9613   6.6486   6.7578  10.0176  10.7132
    12.6813  12.9212

     occupation numbers 
     1.0000   1.0000   1.0000   1.0000   1.0000   1.0000   1.0000   1.0000
     1.0000   1.0000   1.0000   1.0000   1.0000   1.0000   0.0000   0.0000
     0.0000   0.0000

          k = 0.3518 0.1768-0.1768 (  1082 PWs)   bands (ev):

   -16.6806 -16.6722 -16.6334 -16.5784 -16.5604 -16.4742 -16.4380 -16.4212
   -16.3778 -16.3656  -3.1127   2.0424   5.9573   6.4491   9.7121  11.4048
    12.8636  13.6839

     occupation numbers 
     1.0000   1.0000   1.0000   1.0000   1.0000   1.0000   1.0000   1.0000
     1.0000   1.0000   1.0000   1.0000   1.0000   1.0000   0.0000   0.0000
     0.0000   0.0000

          k =-0.2638-0.4419 0.4419 (  1090 PWs)   bands (ev):

   -16.6847 -16.6775 -16.6197 -16.5669 -16.5625 -16.4670 -16.4517 -16.4361
   -16.3701 -16.3615  -2.3726   0.7231   5.4981   6.4492   9.4864  11.6238
    12.5928  15.2470

     occupation numbers 
     1.0000   1.0000   1.0000   1.0000   1.0000   1.0000   1.0000   1.0000
     1.0000   1.0000   1.0000   1.0000   1.0000   1.0000   0.0000   0.0000
     0.0000   0.0000

          k =-0.1759-0.3536 0.3536 (  1084 PWs)   bands (ev):

   -16.6828 -16.6790 -16.6187 -16.5734 -16.5612 -16.4606 -16.4478 -16.4430
   -16.3662 -16.3656  -2.5717   1.0447   5.3581   6.7469   9.5000  11.8589
    12.2953  15.3814

     occupation numbers 
     1.0000   1.0000   1.0000   1.0000   1.0000   1.0000   1.0000   1.0000
     1.0000   1.0000   1.0000   1.0000   1.0000   1.0000   0.0000   0.0000
     0.0000   0.0000

          k =-0.0879-0.2652 0.2652 (  1084 PWs)   bands (ev):

   -16.6760 -16.6737 -16.6296 -16.5854 -16.5676 -16.4575 -16.4418 -16.4236
   -16.3777 -16.3677  -3.3839   2.6515   5.6043   7.2691   9.7192  11.8895
    12.0381  13.7402

     occupation numbers 
     1.0000   1.0000   1.0000   1.0000   1.0000   1.0000   1.0000   1.0000
     1.0000   1.0000   1.0000   1.0000   1.0000   1.0000   0.0000   0.0000
     0.0000   0.0000

          k = 0.0000-0.1768 0.1768 (  1075 PWs)   bands (ev):

   -16.6680 -16.6605 -16.6438 -16.5978 -16.5859 -16.4426 -16.4327 -16.4033
   -16.3960 -16.3752  -4.0329   4.5079   6.4147   7.8035   9.7972  11.2413
    11.3413  12.8828

     occupation numbers 
     1.0000   1.0000   1.0000   1.0000   1.0000   1.0000   1.0000   1.0000
     1.0000   1.0000   1.0000   1.0000   1.0000   0.9890   0.0000   0.0000
     0.0000   0.0000

          k = 0.3518 0.0000 0.0000 (  1062 PWs)   bands (ev):

   -16.6688 -16.6688 -16.6560 -16.5832 -16.5475 -16.4969 -16.4301 -16.3868
   -16.3844 -16.3844  -3.5373   3.4110   6.1658   6.1658   9.1437  10.8075
    13.9191  13.9191

     occupation numbers 
     1.0000   1.0000   1.0000   1.0000   1.0000   1.0000   1.0000   1.0000
     1.0000   1.0000   1.0000   1.0000   1.0000   1.0000   0.0000   0.0000
     0.0000   0.0000

          k = 0.4397 0.0884-0.0884 (  1071 PWs)   bands (ev):

   -16.6825 -16.6757 -16.6383 -16.5660 -16.5286 -16.5167 -16.4471 -16.4094
   -16.3739 -16.3651  -2.8874   2.0785   5.3363   5.8217   9.3962  10.7907
    13.8160  14.5457

     occupation numbers 
     1.0000   1.0000   1.0000   1.0000   1.0000   1.0000   1.0000   1.0000
     1.0000   1.0000   1.0000   1.0000   1.0000   1.0000   0.0000   0.0000
     0.0000   0.0000

          k =-0.1759-0.5303 0.5303 (  1086 PWs)   bands (ev):

   -16.6937 -16.6811 -16.6136 -16.5491 -16.5298 -16.5124 -16.4658 -16.4346
   -16.3650 -16.3517  -2.0662   0.7938   4.4544   5.8098   9.5266  12.3235
    13.4897  14.3099

     occupation numbers 
     1.0000   1.0000   1.0000   1.0000   1.0000   1.0000   1.0000   1.0000
     1.0000   1.0000   1.0000   1.0000   1.0000   1.0000   0.0000   0.0000
     0.0000   0.0000

          k =-0.0879-0.4419 0.4419 (  1089 PWs)   bands (ev):

   -16.6963 -16.6833 -16.6016 -16.5452 -16.5375 -16.4927 -16.4814 -16.4469
   -16.3604 -16.3491  -1.8992   0.5827   4.0273   6.1288   9.7324  13.0751
    13.7654  14.8657

     occupation numbers 
     1.0000   1.0000   1.0000   1.0000   1.0000   1.0000   1.0000   1.0000
     1.0000   1.0000   1.0000   1.0000   1.0000   1.0000   0.0000   0.0000
     0.0000   0.0000

          k = 0.0000-0.3536 0.3536 (  1085 PWs)   bands (ev):

   -16.6892 -16.6819 -16.6076 -16.5721 -16.5455 -16.4775 -16.4594 -16.4446
   -16.3615 -16.3591  -2.6641   1.6381   4.3070   6.6994  10.0708  12.8953
    13.1442  13.3481

     occupation numbers 
     1.0000   1.0000   1.0000   1.0000   1.0000   1.0000   1.0000   1.0000
     1.0000   1.0000   1.0000   1.0000   1.0000   1.0000   0.0000   0.0000
     0.0000   0.0000

          k = 0.5277 0.0000 0.0000 (  1082 PWs)   bands (ev):

   -16.6800 -16.6800 -16.6370 -16.5516 -16.5473 -16.4973 -16.4646 -16.4099
   -16.3666 -16.3666  -2.3271   1.2441   5.4061   5.4061   8.7036   9.6671
    16.0997  16.0997

     occupation numbers 
     1.0000   1.0000   1.0000   1.0000   1.0000   1.0000   1.0000   1.0000
     1.0000   1.0000   1.0000   1.0000   1.0000   1.0000   0.0000   0.0000
     0.0000   0.0000

          k =-0.0879-0.6187 0.6187 (  1086 PWs)   bands (ev):

   -16.6898 -16.6831 -16.6115 -16.5666 -16.5273 -16.4848 -16.4804 -16.4356
   -16.3608 -16.3545  -1.5083   0.2141   4.6429   5.3205   9.0172  10.0653
    15.9200  16.3667

     occupation numbers 
     1.0000   1.0000   1.0000   1.0000   1.0000   1.0000   1.0000   1.0000
     1.0000   1.0000   1.0000   1.0000   1.0000   1.0000   0.0000   0.0000
     0.0000   0.0000

          k = 0.0000-0.5303 0.5303 (  1085 PWs)   bands (ev):

   -16.6987 -16.6843 -16.5981 -16.5426 -16.5157 -16.5011 -16.4989 -16.4491
   -16.3585 -16.3458  -1.1601  -0.1173   3.8594   5.5818   9.2740  12.2009
    15.2332  15.4506

     occupation numbers 
     1.0000   1.0000   1.0000   1.0000   1.0000   1.0000   1.0000   1.0000
     1.0000   1.0000   1.0000   1.0000   1.0000   1.0000   0.0000   0.0000
     0.0000   0.0000

          k =-0.7036 0.0000 0.0000 (  1098 PWs)   bands (ev):

   -16.6835 -16.6835 -16.6001 -16.6001 -16.5056 -16.5056 -16.4483 -16.4483
   -16.3592 -16.3592  -0.7044  -0.7044   5.1448   5.1448   8.8673   8.8673
    17.5301  17.5301

     occupation numbers 
     1.0000   1.0000   1.0000   1.0000   1.0000   1.0000   1.0000   1.0000
     1.0000   1.0000   1.0000   1.0000   1.0000   1.0000   0.0000   0.0000
     0.0000   0.0000

          k = 0.0000 0.1768 0.0000 (  1062 PWs)   bands (ev):

   -16.6564 -16.6551 -16.6539 -16.6069 -16.5924 -16.4438 -16.4066 -16.4047
   -16.4031 -16.3844  -4.2793   5.7309   7.2784   7.3027  10.0041  10.3047
    11.8435  11.8896

     occupation numbers 
     1.0000   1.0000   1.0000   1.0000   1.0000   1.0000   1.0000   1.0000
     1.0000   1.0000   1.0000   1.0000   1.0000   1.0000   0.0000   0.0000
     0.0000   0.0000

          k = 0.0879 0.2652-0.0884 (  1076 PWs)   bands (ev):

   -16.6696 -16.6629 -16.6467 -16.5935 -16.5731 -16.4638 -16.4227 -16.4070
   -16.3899 -16.3755  -3.8472   3.9704   6.6487   6.7345   9.9938  10.7043
    12.6796  12.9453

     occupation numbers 
     1.0000   1.0000   1.0000   1.0000   1.0000   1.0000   1.0000   1.0000
     1.0000   1.0000   1.0000   1.0000   1.0000   1.0000   0.0000   0.0000
     0.0000   0.0000

          k = 0.1759 0.3536-0.1768 (  1081 PWs)   bands (ev):

   -16.6808 -16.6710 -16.6325 -16.5786 -16.5613 -16.4727 -16.4374 -16.4226
   -16.3789 -16.3654  -3.1077   2.0427   5.9765   6.4198   9.6967  11.4122
    12.8456  13.6631

     occupation numbers 
     1.0000   1.0000   1.0000   1.0000   1.0000   1.0000   1.0000   1.0000
     1.0000   1.0000   1.0000   1.0000   1.0000   1.0000   0.0000   0.0000
     0.0000   0.0000

          k =-0.4397-0.2652 0.4419 (  1091 PWs)   bands (ev):

   -16.6854 -16.6763 -16.6192 -16.5670 -16.5631 -16.4657 -16.4512 -16.4377
   -16.3713 -16.3609  -2.3696   0.7234   5.5256   6.4158   9.4686  11.6474
    12.5718  15.2049

     occupation numbers 
     1.0000   1.0000   1.0000   1.0000   1.0000   1.0000   1.0000   1.0000
     1.0000   1.0000   1.0000   1.0000   1.0000   1.0000   0.0000   0.0000
     0.0000   0.0000

          k =-0.3518-0.1768 0.3536 (  1085 PWs)   bands (ev):

   -16.6837 -16.6780 -16.6187 -16.5735 -16.5612 -16.4604 -16.4464 -16.4447
   -16.3673 -16.3645  -2.5743   1.0502   5.3870   6.7120   9.4830  11.8759
    12.2820  15.4032

     occupation numbers 
     1.0000   1.0000   1.0000   1.0000   1.0000   1.0000   1.0000   1.0000
     1.0000   1.0000   1.0000   1.0000   1.0000   1.0000   0.0000   0.0000
     0.0000   0.0000

          k =-0.2638-0.0884 0.2652 (  1084 PWs)   bands (ev):

   -16.6753 -16.6748 -16.6300 -16.5848 -16.5677 -16.4574 -16.4432 -16.4228
   -16.3763 -16.3685  -3.3871   2.6566   5.6312   7.2361   9.7058  11.8894
    12.0590  13.7478

     occupation numbers 
     1.0000   1.0000   1.0000   1.0000   1.0000   1.0000   1.0000   1.0000
     1.0000   1.0000   1.0000   1.0000   1.0000   1.0000   0.0000   0.0000
     0.0000   0.0000

          k =-0.1759 0.0000 0.1768 (  1071 PWs)   bands (ev):

   -16.6673 -16.6617 -16.6441 -16.5971 -16.5861 -16.4425 -16.4340 -16.4031
   -16.3942 -16.3756  -4.0348   4.5070   6.4414   7.7756   9.7874  11.2473
    11.3820  12.8588

     occupation numbers 
     1.0000   1.0000   1.0000   1.0000   1.0000   1.0000   1.0000   1.0000
     1.0000   1.0000   1.0000   1.0000   1.0000   0.9935   0.0000   0.0000
     0.0000   0.0000

          k = 0.3518 0.1768 0.0000 (  1078 PWs)   bands (ev):

   -16.6771 -16.6762 -16.6345 -16.5808 -16.5515 -16.4868 -16.4356 -16.4168
   -16.3751 -16.3679  -3.3132   2.7846   5.3418   6.5569  10.4986  10.8788
    12.7283  13.6095

     occupation numbers 
     1.0000   1.0000   1.0000   1.0000   1.0000   1.0000   1.0000   1.0000
     1.0000   1.0000   1.0000   1.0000   1.0000   1.0000   0.0000   0.0000
     0.0000   0.0000

          k =-0.2638-0.4419 0.6187 (  1081 PWs)   bands (ev):

   -16.6894 -16.6819 -16.6134 -16.5660 -16.5396 -16.4956 -16.4517 -16.4396
   -16.3641 -16.3573  -2.5149   1.3556   4.6481   6.0807  10.5579  11.5192
    13.0024  14.2127

     occupation numbers 
     1.0000   1.0000   1.0000   1.0000   1.0000   1.0000   1.0000   1.0000
     1.0000   1.0000   1.0000   1.0000   1.0000   1.0000   0.0000   0.0000
     0.0000   0.0000

          k =-0.1759-0.3536 0.5303 (  1086 PWs)   bands (ev):

   -16.6933 -16.6833 -16.6027 -16.5549 -16.5412 -16.4904 -16.4676 -16.4467
   -16.3618 -16.3516  -1.9598   0.5410   4.4532   5.8772  10.4843  11.5088
    13.8612  15.0034

     occupation numbers 
     1.0000   1.0000   1.0000   1.0000   1.0000   1.0000   1.0000   1.0000
     1.0000   1.0000   1.0000   1.0000   1.0000   1.0000   0.0000   0.0000
     0.0000   0.0000

          k =-0.0879-0.2652 0.4419 (  1078 PWs)   bands (ev):

   -16.6888 -16.6818 -16.6125 -16.5659 -16.5403 -16.4945 -16.4515 -16.4407
   -16.3646 -16.3576  -2.5072   1.3526   4.6268   6.0979  10.5422  11.5255
    12.9736  14.2004

     occupation numbers 
     1.0000   1.0000   1.0000   1.0000   1.0000   1.0000   1.0000   1.0000
     1.0000   1.0000   1.0000   1.0000   1.0000   1.0000   0.0000   0.0000
     0.0000   0.0000

          k = 0.0000-0.1768 0.3536 (  1079 PWs)   bands (ev):

   -16.6773 -16.6748 -16.6334 -16.5810 -16.5525 -16.4855 -16.4346 -16.4183
   -16.3767 -16.3678  -3.3062   2.7898   5.3106   6.5724  10.4518  10.8844
    12.7535  13.5974

     occupation numbers 
     1.0000   1.0000   1.0000   1.0000   1.0000   1.0000   1.0000   1.0000
     1.0000   1.0000   1.0000   1.0000   1.0000   1.0000   0.0000   0.0000
     0.0000   0.0000

          k =-0.1759-0.5303 0.7071 (  1077 PWs)   bands (ev):

   -16.6876 -16.6867 -16.6160 -16.5482 -16.5372 -16.5076 -16.4660 -16.4312
   -16.3593 -16.3587  -2.1566   1.0449   4.7031   5.3027  10.0173  10.6456
    13.6597  15.9678

     occupation numbers 
     1.0000   1.0000   1.0000   1.0000   1.0000   1.0000   1.0000   1.0000
     1.0000   1.0000   1.0000   1.0000   1.0000   1.0000   0.0000   0.0000
     0.0000   0.0000

          k =-0.0879-0.4419 0.6187 (  1088 PWs)   bands (ev):

   -16.6970 -16.6889 -16.5912 -16.5392 -16.5299 -16.5039 -16.4868 -16.4541
   -16.3554 -16.3476  -1.3869   0.1510   4.0552   5.1163  10.4166  12.3342
    13.1695  15.1265

     occupation numbers 
     1.0000   1.0000   1.0000   1.0000   1.0000   1.0000   1.0000   1.0000
     1.0000   1.0000   1.0000   1.0000   1.0000   1.0000   0.0000   0.0000
     0.0000   0.0000

          k = 0.0000-0.3536 0.5303 (  1092 PWs)   bands (ev):

   -16.6971 -16.6882 -16.5919 -16.5423 -16.5174 -16.5164 -16.4836 -16.4538
   -16.3561 -16.3482  -1.7014   0.5075   3.8926   5.4775  10.7856  12.5949
    13.0383  14.8639

     occupation numbers 
     1.0000   1.0000   1.0000   1.0000   1.0000   1.0000   1.0000   1.0000
     1.0000   1.0000   1.0000   1.0000   1.0000   1.0000   0.0000   0.0000
     0.0000   0.0000

          k =-0.7036 0.1768 0.0000 (  1090 PWs)   bands (ev):

   -16.6905 -16.6905 -16.5823 -16.5823 -16.5068 -16.5068 -16.4636 -16.4636
   -16.3530 -16.3530  -0.6541  -0.6541   4.6668   4.6668  10.0622  10.0622
    15.6427  15.6427

     occupation numbers 
     1.0000   1.0000   1.0000   1.0000   1.0000   1.0000   1.0000   1.0000
     1.0000   1.0000   1.0000   1.0000   1.0000   1.0000   0.0000   0.0000
     0.0000   0.0000

          k = 0.0000 0.3536 0.0000 (  1084 PWs)   bands (ev):

   -16.6682 -16.6672 -16.6554 -16.5834 -16.5487 -16.4952 -16.4293 -16.3877
   -16.3864 -16.3851  -3.5297   3.4384   6.1323   6.1452   9.0997  10.8139
    13.8848  13.9625

     occupation numbers 
     1.0000   1.0000   1.0000   1.0000   1.0000   1.0000   1.0000   1.0000
     1.0000   1.0000   1.0000   1.0000   1.0000   1.0000   0.0000   0.0000
     0.0000   0.0000

          k = 0.0879 0.4419-0.0884 (  1071 PWs)   bands (ev):

   -16.6817 -16.6744 -16.6370 -16.5660 -16.5296 -16.5151 -16.4463 -16.4109
   -16.3751 -16.3658  -2.8768   2.0972   5.3254   5.7911   9.3546  10.7681
    13.8299  14.5391

     occupation numbers 
     1.0000   1.0000   1.0000   1.0000   1.0000   1.0000   1.0000   1.0000
     1.0000   1.0000   1.0000   1.0000   1.0000   1.0000   0.0000   0.0000
     0.0000   0.0000

          k =-0.5277-0.1768 0.5303 (  1086 PWs)   bands (ev):

   -16.6935 -16.6798 -16.6123 -16.5491 -16.5304 -16.5115 -16.4653 -16.4363
   -16.3663 -16.3520  -2.0562   0.8026   4.4646   5.7757   9.4906  12.2762
    13.4948  14.2958

     occupation numbers 
     1.0000   1.0000   1.0000   1.0000   1.0000   1.0000   1.0000   1.0000
     1.0000   1.0000   1.0000   1.0000   1.0000   1.0000   0.0000   0.0000
     0.0000   0.0000

          k =-0.4397-0.0884 0.4419 (  1084 PWs)   bands (ev):

   -16.6966 -16.6822 -16.6003 -16.5468 -16.5374 -16.4911 -16.4810 -16.4486
   -16.3615 -16.3486  -1.8996   0.5957   4.0482   6.0925   9.6917  13.0920
    13.7601  14.8130

     occupation numbers 
     1.0000   1.0000   1.0000   1.0000   1.0000   1.0000   1.0000   1.0000
     1.0000   1.0000   1.0000   1.0000   1.0000   1.0000   0.0000   0.0000
     0.0000   0.0000

          k =-0.3518 0.0000 0.3536 (  1083 PWs)   bands (ev):

   -16.6901 -16.6809 -16.6074 -16.5727 -16.5456 -16.4773 -16.4583 -16.4457
   -16.3625 -16.3582  -2.6687   1.6501   4.3325   6.6628  10.0323  12.8941
    13.1849  13.3555

     occupation numbers 
     1.0000   1.0000   1.0000   1.0000   1.0000   1.0000   1.0000   1.0000
     1.0000   1.0000   1.0000   1.0000   1.0000   1.0000   0.0000   0.0000
     0.0000   0.0000

          k = 0.1759 0.3536 0.0000 (  1080 PWs)   bands (ev):

   -16.6764 -16.6759 -16.6335 -16.5808 -16.5529 -16.4851 -16.4354 -16.4183
   -16.3755 -16.3687  -3.3076   2.7959   5.3306   6.5526  10.4422  10.8540
    12.7195  13.6655

     occupation numbers 
     1.0000   1.0000   1.0000   1.0000   1.0000   1.0000   1.0000   1.0000
     1.0000   1.0000   1.0000   1.0000   1.0000   1.0000   0.0000   0.0000
     0.0000   0.0000

          k =-0.4397-0.2652 0.6187 (  1079 PWs)   bands (ev):

   -16.6892 -16.6810 -16.6122 -16.5660 -16.5409 -16.4937 -16.4515 -16.4416
   -16.3651 -16.3574  -2.5086   1.3612   4.6476   6.0797  10.5069  11.4849
    12.9582  14.2551

     occupation numbers 
     1.0000   1.0000   1.0000   1.0000   1.0000   1.0000   1.0000   1.0000
     1.0000   1.0000   1.0000   1.0000   1.0000   1.0000   0.0000   0.0000
     0.0000   0.0000

          k =-0.3518-0.1768 0.5303 (  1086 PWs)   bands (ev):

   -16.6934 -16.6823 -16.6017 -16.5548 -16.5424 -16.4883 -16.4681 -16.4483
   -16.3628 -16.3514  -1.9572   0.5468   4.4675   5.8666  10.4349  11.4750
    13.8939  14.9616

     occupation numbers 
     1.0000   1.0000   1.0000   1.0000   1.0000   1.0000   1.0000   1.0000
     1.0000   1.0000   1.0000   1.0000   1.0000   1.0000   0.0000   0.0000
     0.0000   0.0000

          k =-0.1759-0.3536 0.7071 (  1090 PWs)   bands (ev):

   -16.6975 -16.6877 -16.5915 -16.5435 -16.5169 -16.5168 -16.4822 -16.4545
   -16.3567 -16.3475  -1.7071   0.5169   3.9129   5.4494  10.7519  12.6468
    13.0753  14.8098

     occupation numbers 
     1.0000   1.0000   1.0000   1.0000   1.0000   1.0000   1.0000   1.0000
     1.0000   1.0000   1.0000   1.0000   1.0000   1.0000   0.0000   0.0000
     0.0000   0.0000

          k =-0.0879-0.2652 0.6187 (  1087 PWs)   bands (ev):

   -16.6967 -16.6882 -16.5902 -16.5385 -16.5293 -16.5051 -16.4864 -16.4554
   -16.3561 -16.3478  -1.3786   0.1592   4.0522   5.0970  10.3787  12.2853
    13.2078  15.1678

     occupation numbers 
     1.0000   1.0000   1.0000   1.0000   1.0000   1.0000   1.0000   1.0000
     1.0000   1.0000   1.0000   1.0000   1.0000   1.0000   0.0000   0.0000
     0.0000   0.0000

          k = 0.0000-0.1768 0.5303 (  1079 PWs)   bands (ev):

   -16.6863 -16.6862 -16.6146 -16.5481 -16.5357 -16.5087 -16.4654 -16.4329
   -16.3601 -16.3596  -2.1432   1.0590   4.6716   5.2970   9.9688  10.6171
    13.7022  15.9420

     occupation numbers 
     1.0000   1.0000   1.0000   1.0000   1.0000   1.0000   1.0000   1.0000
     1.0000   1.0000   1.0000   1.0000   1.0000   1.0000   0.0000   0.0000
     0.0000   0.0000

          k =-0.7036 0.3536 0.0000 (  1084 PWs)   bands (ev):

   -16.6957 -16.6957 -16.5604 -16.5604 -16.5120 -16.5120 -16.4797 -16.4797
   -16.3483 -16.3483  -0.5957  -0.5957   4.2884   4.2884  12.4118  12.4118
    12.8060  12.8060

     occupation numbers 
     1.0000   1.0000   1.0000   1.0000   1.0000   1.0000   1.0000   1.0000
     1.0000   1.0000   1.0000   1.0000   1.0000   1.0000   0.0000   0.0000
     0.0000   0.0000

          k = 0.0000 0.5303 0.0000 (  1078 PWs)   bands (ev):

   -16.6790 -16.6783 -16.6357 -16.5499 -16.5472 -16.4985 -16.4640 -16.4112
   -16.3684 -16.3677  -2.3114   1.2726   5.3707   5.3764   8.6569   9.6477
    16.0513  16.1489

     occupation numbers 
     1.0000   1.0000   1.0000   1.0000   1.0000   1.0000   1.0000   1.0000
     1.0000   1.0000   1.0000   1.0000   1.0000   1.0000   0.0001   0.0000
     0.0000   0.0000

          k =-0.6156-0.0884 0.6187 (  1085 PWs)   bands (ev):

   -16.6888 -16.6817 -16.6101 -16.5649 -16.5271 -16.4843 -16.4822 -16.4373
   -16.3623 -16.3556  -1.4903   0.2368   4.6235   5.2861   8.9767  10.0192
    15.9222  16.3655

     occupation numbers 
     1.0000   1.0000   1.0000   1.0000   1.0000   1.0000   1.0000   1.0000
     1.0000   1.0000   1.0000   1.0000   1.0000   1.0000   0.0000   0.0000
     0.0000   0.0000

          k =-0.5277 0.0000 0.5303 (  1087 PWs)   bands (ev):

   -16.6983 -16.6830 -16.5966 -16.5407 -16.5156 -16.5034 -16.4985 -16.4508
   -16.3599 -16.3462  -1.1524  -0.0965   3.8613   5.5459   9.2328  12.1364
    15.2401  15.4451

     occupation numbers 
     1.0000   1.0000   1.0000   1.0000   1.0000   1.0000   1.0000   1.0000
     1.0000   1.0000   1.0000   1.0000   1.0000   1.0000   0.0000   0.0000
     0.0000   0.0000

          k =-0.5277-0.1768 0.7071 (  1078 PWs)   bands (ev):

   -16.6867 -16.6855 -16.6144 -16.5482 -16.5353 -16.5092 -16.4654 -16.4331
   -16.3604 -16.3596  -2.1435   1.0639   4.6851   5.2909   9.9553  10.6040
    13.6141  16.0189

     occupation numbers 
     1.0000   1.0000   1.0000   1.0000   1.0000   1.0000   1.0000   1.0000
     1.0000   1.0000   1.0000   1.0000   1.0000   1.0000   0.0000   0.0000
     0.0000   0.0000

          k =-0.4397-0.0884 0.6187 (  1089 PWs)   bands (ev):

   -16.6965 -16.6877 -16.5895 -16.5373 -16.5294 -16.5059 -16.4868 -16.4562
   -16.3566 -16.3480  -1.3763   0.1651   4.0569   5.1018  10.3523  12.2628
    13.1260  15.1037

     occupation numbers 
     1.0000   1.0000   1.0000   1.0000   1.0000   1.0000   1.0000   1.0000
     1.0000   1.0000   1.0000   1.0000   1.0000   1.0000   0.0000   0.0000
     0.0000   0.0000

          k =-0.3518-0.0000 0.5303 (  1092 PWs)   bands (ev):

   -16.6972 -16.6871 -16.5905 -16.5432 -16.5185 -16.5144 -16.4835 -16.4556
   -16.3573 -16.3479  -1.7006   0.5225   3.9083   5.4602  10.7146  12.5618
    13.0131  14.8027

     occupation numbers 
     1.0000   1.0000   1.0000   1.0000   1.0000   1.0000   1.0000   1.0000
     1.0000   1.0000   1.0000   1.0000   1.0000   1.0000   0.0000   0.0000
     0.0000   0.0000

          k =-0.7036 0.5303-0.0000 (  1082 PWs)   bands (ev):

   -16.6896 -16.6896 -16.5808 -16.5808 -16.5065 -16.5065 -16.4653 -16.4653
   -16.3540 -16.3540  -0.6366  -0.6366   4.6432   4.6432  10.0186  10.0186
    15.6905  15.6905

     occupation numbers 
     1.0000   1.0000   1.0000   1.0000   1.0000   1.0000   1.0000   1.0000
     1.0000   1.0000   1.0000   1.0000   1.0000   1.0000   0.0000   0.0000
     0.0000   0.0000

          k = 0.0000-0.7071 0.0000 (  1098 PWs)   bands (ev):

   -16.6821 -16.6821 -16.5985 -16.5985 -16.5052 -16.5052 -16.4499 -16.4499
   -16.3607 -16.3607  -0.6806  -0.6806   5.1102   5.1102   8.8282   8.8282
    17.5334  17.5334

     occupation numbers 
     1.0000   1.0000   1.0000   1.0000   1.0000   1.0000   1.0000   1.0000
     1.0000   1.0000   1.0000   1.0000   1.0000   1.0000   0.0000   0.0000
     0.0000   0.0000

          k = 0.1759-0.7071 0.0000 (  1086 PWs)   bands (ev):

   -16.6894 -16.6894 -16.5804 -16.5804 -16.5066 -16.5066 -16.4657 -16.4657
   -16.3542 -16.3542  -0.6348  -0.6348   4.6484   4.6484  10.0047  10.0047
    15.5988  15.5988

     occupation numbers 
     1.0000   1.0000   1.0000   1.0000   1.0000   1.0000   1.0000   1.0000
     1.0000   1.0000   1.0000   1.0000   1.0000   1.0000   0.0000   0.0000
     0.0000   0.0000

          k = 0.3518-0.7071 0.0000 (  1084 PWs)   bands (ev):

   -16.6951 -16.6951 -16.5586 -16.5586 -16.5123 -16.5123 -16.4815 -16.4815
   -16.3490 -16.3490  -0.5867  -0.5867   4.2892   4.2892  12.3490  12.3490
    12.7504  12.7504

     occupation numbers 
     1.0000   1.0000   1.0000   1.0000   1.0000   1.0000   1.0000   1.0000
     1.0000   1.0000   1.0000   1.0000   1.0000   1.0000   0.0000   0.0000
     0.0000   0.0000

     the Fermi energy is     8.1339 ev

!    total energy              =    -426.37411151 Ry
     Harris-Foulkes estimate   =    -426.37411147 Ry
     estimated scf accuracy    <          3.2E-10 Ry

     The total energy is the sum of the following terms:

     one-electron contribution =    -279.97155002 Ry
     hartree contribution      =     165.48463032 Ry
     xc contribution           =    -115.25318414 Ry
     ewald contribution        =    -196.63382047 Ry
     smearing contrib. (-TS)   =      -0.00018719 Ry

     convergence has been achieved in   9 iterations

     Forces acting on atoms (Ry/au):

     atom    1 type  1   force =   0.55503373E-30  0.00000000E+00  0.00000000E+00
     atom    2 type  1   force =  -0.55503373E-30  0.00000000E+00  0.00000000E+00
     The non-local contrib.  to forces
     atom    1 type  1   force =  -0.30513302E-18 -0.61331737E-18  0.61331737E-18
     atom    2 type  1   force =   0.45769953E-18 -0.15332934E-18 -0.45998803E-18
     The ionic contribution  to forces
     atom    1 type  1   force =   0.67501560E-13 -0.12434498E-13  0.30198066E-13
     atom    2 type  1   force =  -0.60396133E-13  0.15543122E-13 -0.28421709E-13
     The local contribution  to forces
     atom    1 type  1   force =  -0.88817842E-14 -0.60396133E-13 -0.39079850E-13
     atom    2 type  1   force =  -0.10480505E-12  0.95923269E-13  0.88817842E-13
     The core correction contribution to forces
     atom    1 type  1   force =   0.68833828E-14 -0.82711615E-14 -0.96589403E-14
     atom    2 type  1   force =  -0.12656542E-13  0.12573276E-13  0.12323476E-13
     The Hubbard contrib.    to forces
     atom    1 type  1   force =   0.00000000E+00  0.00000000E+00  0.00000000E+00
     atom    2 type  1   force =   0.00000000E+00  0.00000000E+00  0.00000000E+00
     The SCF correction term to forces
     atom    1 type  1   force =  -0.74319016E-14  0.61438891E-14  0.82350152E-15
     atom    2 type  1   force =  -0.33196411E-14 -0.34933722E-14  0.45893177E-15

     Total force =     0.000000     Total SCF correction =     0.000000


     entering subroutine stress ...

          total   stress  (Ry/bohr**3)                   (kbar)     P=   -3.02
  -0.0000364854  -0.0000000000  -0.0000000000         -5.37     -0.00     -0.00
  -0.0000000000  -0.0000125211   0.0000000000         -0.00     -1.84      0.00
  -0.0000000000   0.0000000000  -0.0000125211         -0.00      0.00     -1.84

     kinetic stress (kbar)   9940.23      0.00     -0.00
                                0.00   9944.86      0.00
                               -0.00      0.00   9944.86

     local   stress (kbar)   1443.81     -0.00     -0.00
                               -0.00   1805.14     -0.00
                               -0.00     -0.00   1805.14

     nonloc. stress (kbar)   2922.27     -0.00     -0.00
                               -0.00   2920.59      0.00
                               -0.00      0.00   2920.59

     hartree stress (kbar)  26306.63      0.00      0.00
                                0.00  26159.55      0.00
                                0.00      0.00  26159.55

     exc-cor stress (kbar)  19378.18     -0.00      0.00
                               -0.00  19378.08     -0.00
                                0.00     -0.00  19378.08

     corecor stress (kbar) -28997.08     -0.00     -0.00
                               -0.00 -28997.02     -0.00
                               -0.00     -0.00 -28997.02

     ewald   stress (kbar) -30999.40      0.00      0.00
                                0.00 -31213.03     -0.00
                                0.00     -0.00 -31213.03

     hubbard stress (kbar)      0.00      0.00      0.00
                                0.00      0.00      0.00
                                0.00      0.00      0.00

     london  stress (kbar)      0.00      0.00      0.00
                                0.00      0.00      0.00
                                0.00      0.00      0.00

     XDM     stress (kbar)      0.00      0.00      0.00
                                0.00      0.00      0.00
                                0.00      0.00      0.00

     dft-nl  stress (kbar)      0.00      0.00      0.00
                                0.00      0.00      0.00
                                0.00      0.00      0.00



     Writing output data file Ge_diamond.scf.in.sx.save

     init_run     :      1.75s CPU      1.82s WALL (       1 calls)
     electrons    :     48.97s CPU     48.40s WALL (       1 calls)
     forces       :      0.56s CPU      0.50s WALL (       1 calls)
     stress       :      1.04s CPU      1.06s WALL (       1 calls)

     Called by init_run:
     wfcinit      :      1.44s CPU      1.46s WALL (       1 calls)
     potinit      :      0.05s CPU      0.05s WALL (       1 calls)

     Called by electrons:
     c_bands      :     41.37s CPU     40.77s WALL (      10 calls)
     sum_band     :      6.80s CPU      6.80s WALL (      10 calls)
     v_of_rho     :      0.20s CPU      0.20s WALL (      10 calls)
     v_h          :      0.01s CPU      0.01s WALL (      10 calls)
     v_xc         :      0.23s CPU      0.23s WALL (      12 calls)
     newd         :      0.43s CPU      0.42s WALL (      10 calls)
     mix_rho      :      0.20s CPU      0.22s WALL (      10 calls)

     Called by c_bands:
     init_us_2    :      0.45s CPU      0.56s WALL (    1357 calls)
     cegterg      :     40.26s CPU     39.50s WALL (     590 calls)

     Called by sum_band:
     sum_band:bec :      0.04s CPU      0.03s WALL (     590 calls)
     addusdens    :      0.42s CPU      0.43s WALL (      10 calls)

     Called by *egterg:
     h_psi        :     30.41s CPU     30.26s WALL (    1781 calls)
     s_psi        :      1.22s CPU      0.99s WALL (    1781 calls)
     g_psi        :      0.07s CPU      0.06s WALL (    1132 calls)
     cdiaghg      :      2.60s CPU      2.91s WALL (    1663 calls)
     cegterg:over :      2.91s CPU      2.53s WALL (    1132 calls)
     cegterg:upda :      1.34s CPU      1.09s WALL (    1132 calls)
     cegterg:last :      0.79s CPU      0.65s WALL (     590 calls)

     Called by h_psi:
     h_psi:vloc   :     26.36s CPU     27.09s WALL (    1781 calls)
     h_psi:vnl    :      3.99s CPU      3.12s WALL (    1781 calls)
     add_vuspsi   :      1.49s CPU      1.17s WALL (    1781 calls)

     General routines
     calbec       :      3.66s CPU      2.90s WALL (    2489 calls)
     fft          :      0.22s CPU      0.21s WALL (     185 calls)
     ffts         :      0.12s CPU      0.15s WALL (     276 calls)
     fftw         :     29.68s CPU     30.48s WALL (   63970 calls)
     interpolate  :      0.02s CPU      0.03s WALL (      20 calls)

     Parallel routines
     fft_scatter  :     10.72s CPU     11.03s WALL (   64431 calls)

     PWSCF        :    52.98s CPU        53.73s WALL


   This run was terminated on:  16:27:56   8Mar2018            

=------------------------------------------------------------------------------=
   JOB DONE.
=------------------------------------------------------------------------------=
