
     Program PWSCF v.5.1 starts on 13Feb2017 at 12:15:14 

     This program is part of the open-source Quantum ESPRESSO suite
     for quantum simulation of materials; please cite
         "P. Giannozzi et al., J. Phys.:Condens. Matter 21 395502 (2009);
          URL http://www.quantum-espresso.org", 
     in publications or presentations arising from this work. More details at
     http://www.quantum-espresso.org/quote

     Parallel version (MPI), running on    16 processors
     R & G space division:  proc/nbgrp/npool/nimage =      16
     Reading input from /tmp/Ge_diamond.scf.in.super.444.a.02.4642/Ge_diamond.scf.in.super.444.a.02.t
Warning: card &IONS ignored
Warning: card   ION_DYNAMICS='BFGS', ignored
Warning: card / ignored
Warning: card &CELL ignored
Warning: card  CELL_DYNAMICS = 'BFGS' ignored
Warning: card / ignored
     Message from routine read_cards :
     DEPRECATED: no units specified in CELL_PARAMETERS card

     Current dimensions of program PWSCF are:
     Max number of different atomic species (ntypx) = 10
     Max number of k-points (npk) =  40000
     Max angular momentum in pseudopotentials (lmaxx) =  3

     Subspace diagonalization in iterative solution of the eigenvalue problem:
     a serial algorithm will be used


     Parallelization info
     --------------------
     sticks:   dense  smooth     PW     G-vecs:    dense   smooth      PW
     Min         793     553    145                58871    34448    4637
     Max         795     554    146                58873    34482    4641
     Sum       12703    8863   2335               941961   551433   74249



     bravais-lattice index     =            0
     lattice parameter (alat)  =    30.323768153  a.u.
     unit-cell volume          =   19716.7125 (a.u.)^3
     number of atoms/cell      =          128
     number of atomic types    =            1
     number of electrons       =      1792.00
     number of Kohn-Sham states=         1075
     kinetic-energy cutoff     =      35.0000  Ry
     charge density cutoff     =     200.0000  Ry
     convergence threshold     =      1.0E-09
     mixing beta               =       0.3000
     number of iterations used =            8  local-TF  mixing
     Exchange-correlation      = SLA  PW   PSX  PSC ( 1  4 10  8 0)
     A smooth kinetic-energy cutoff is imposed at      34.5000 Ry
     height of the smooth step-function =             800.0000 Ry
     width of the smooth step-function  =               1.0000 Ry


     celldm(1)=  30.323768  celldm(2)=   0.000000  celldm(3)=   0.000000
     celldm(4)=   0.000000  celldm(5)=   0.000000  celldm(6)=   0.000000

     crystal axes: (cart. coord. in units of alat)
               a(1) = (   0.000000000000   0.707106781187   0.707106781187 )  
               a(2) = (   0.707106781187   0.000000000000   0.707106781187 )  
               a(3) = (   0.707106781187   0.707106781187  -0.000000000000 )  

     reciprocal axes: (cart. coord. in units 2 pi/alat)
               b(1) = ( -0.707107  0.707107  0.707107 )  
               b(2) = (  0.707107 -0.707107  0.707107 )  
               b(3) = (  0.707107  0.707107 -0.707107 )  


     PseudoPot. # 1 for Ge read from file:
     /users/kfg/psuedo/gbrv_1.5/ge.pbesol.UPF
     MD5 check sum: 7bed0412183f5e553a4d27ec7023354d
     Pseudo is Ultrasoft + core correction, Zval = 14.0
     Generated by new atomic code, or converted to UPF format
     Using radial grid of  873 points,  6 beta functions with: 
                l(1) =   0
                l(2) =   0
                l(3) =   1
                l(4) =   1
                l(5) =   2
                l(6) =   2
     Q(r) pseudized with  8 coefficients,  rinner =    1.400   1.400   1.400
                                                       1.400   1.400

     atomic species   valence    mass     pseudopotential
        Ge            14.00    72.64000     Ge( 1.00)

     No symmetry found


                                    s                        frac. trans.

      isym =  1     identity                                     

 cryst.   s( 1) = (     1          0          0      )
                  (     0          1          0      )
                  (     0          0          1      )

 cart.    s( 1) = (  1.0000000  0.0000000  0.0000000 )
                  (  0.0000000  1.0000000  0.0000000 )
                  (  0.0000000  0.0000000  1.0000000 )


     point group C_1 (1)    
     there are  1 classes
     the character table:

       E    
A      1.00

     the symmetry operations in each class:
     E        1

   Cartesian axes

     site n.     atom                  positions (alat units)
         1           Ge  tau(   1) = (    0.00311043564    0.00298436764   -0.00159874661  )
         2           Ge  tau(   2) = (    0.08801981397    0.08636523271    0.08834891953  )
         3           Ge  tau(   3) = (    0.17830413733    0.17672857591   -0.00070791137  )
         4           Ge  tau(   4) = (    0.26708500318    0.26229139587    0.08548982309  )
         5           Ge  tau(   5) = (    0.35556724398    0.35375591873   -0.00280586873  )
         6           Ge  tau(   6) = (    0.44019626368    0.44307545432    0.08630849207  )
         7           Ge  tau(   7) = (    0.52779495252    0.52722507645   -0.00275629232  )
         8           Ge  tau(   8) = (    0.61576729106    0.62164060424    0.08814319545  )
         9           Ge  tau(   9) = (    0.17783360912    0.00279939962    0.17584597761  )
        10           Ge  tau(  10) = (    0.26577958234    0.08595385445    0.26762321060  )
        11           Ge  tau(  11) = (    0.35632919011    0.17449307350    0.17496449545  )
        12           Ge  tau(  12) = (    0.44290026469    0.26511985629    0.26341184311  )
        13           Ge  tau(  13) = (    0.53094389861    0.35440118557    0.17569354846  )
        14           Ge  tau(  14) = (    0.61809485364    0.44166989966    0.26268248171  )
        15           Ge  tau(  15) = (    0.70499256415    0.52940837288    0.17384172088  )
        16           Ge  tau(  16) = (    0.79660947756    0.62163032917    0.26205739720  )
        17           Ge  tau(  17) = (    0.35179150488   -0.00071838934    0.35362358255  )
        18           Ge  tau(  18) = (    0.43938337200    0.08558644105    0.44446766009  )
        19           Ge  tau(  19) = (    0.52753698020    0.17819148259    0.35537571367  )
        20           Ge  tau(  20) = (    0.62011490969    0.26200416560    0.44259690990  )
        21           Ge  tau(  21) = (    0.70938796868    0.35410506895    0.35086895079  )
        22           Ge  tau(  22) = (    0.79380209861    0.44064042563    0.44427274259  )
        23           Ge  tau(  23) = (    0.88671330427    0.53080327872    0.35428444703  )
        24           Ge  tau(  24) = (    0.96901398340    0.62116081538    0.44485850255  )
        25           Ge  tau(  25) = (    0.52802478530   -0.00256438049    0.53254672775  )
        26           Ge  tau(  26) = (    0.61654596388    0.08894480249    0.62107545644  )
        27           Ge  tau(  27) = (    0.70474654285    0.17783789005    0.52989653878  )
        28           Ge  tau(  28) = (    0.79730524259    0.26794330057    0.61770993409  )
        29           Ge  tau(  29) = (    0.88223339599    0.35250475793    0.52783313370  )
        30           Ge  tau(  30) = (    0.97468414455    0.44173663202    0.61883321093  )
        31           Ge  tau(  31) = (    1.06371277172    0.52891333720    0.53230947883  )
        32           Ge  tau(  32) = (    1.14633154788    0.61844405150    0.61940108763  )
        33           Ge  tau(  33) = (   -0.00150689433    0.17937011800    0.17764741949  )
        34           Ge  tau(  34) = (    0.08786148329    0.26659872515    0.26562231715  )
        35           Ge  tau(  35) = (    0.17420112940    0.35582630490    0.17848917696  )
        36           Ge  tau(  36) = (    0.26261516563    0.43980326568    0.26229008923  )
        37           Ge  tau(  37) = (    0.35318881451    0.53197689567    0.17371860695  )
        38           Ge  tau(  38) = (    0.44393108135    0.62074769129    0.26636399353  )
        39           Ge  tau(  39) = (    0.53060024556    0.70817617785    0.17522395104  )
        40           Ge  tau(  40) = (    0.61691104338    0.79226905545    0.26463975945  )
        41           Ge  tau(  41) = (    0.17760323729    0.17533284133    0.35565277327  )
        42           Ge  tau(  42) = (    0.26555905418    0.26339691698    0.44276498456  )
        43           Ge  tau(  43) = (    0.35628382718    0.35435283878    0.35159336228  )
        44           Ge  tau(  44) = (    0.44210610798    0.44417635371    0.43973009858  )
        45           Ge  tau(  45) = (    0.52895377644    0.52780938552    0.35403588728  )
        46           Ge  tau(  46) = (    0.62081076547    0.62124424676    0.44284226543  )
        47           Ge  tau(  47) = (    0.70681203159    0.70612561725    0.35219555901  )
        48           Ge  tau(  48) = (    0.79736963696    0.79241445471    0.44220042446  )
        49           Ge  tau(  49) = (    0.35371350852    0.17827838291    0.53184440837  )
        50           Ge  tau(  50) = (    0.44026781908    0.26544418720    0.62126960519  )
        51           Ge  tau(  51) = (    0.52931652683    0.35671459037    0.53315278011  )
        52           Ge  tau(  52) = (    0.61947614825    0.43988753746    0.61778758435  )
        53           Ge  tau(  53) = (    0.71037125686    0.52948343729    0.52714220754  )
        54           Ge  tau(  54) = (    0.79637981845    0.61639929774    0.61841959530  )
        55           Ge  tau(  55) = (    0.88676294415    0.70836595321    0.52922738142  )
        56           Ge  tau(  56) = (    0.97318445765    0.79415422331    0.62053965680  )
        57           Ge  tau(  57) = (    0.52753413788    0.17832341213    0.70528106835  )
        58           Ge  tau(  58) = (    0.61851393236    0.26241091860    0.79254418481  )
        59           Ge  tau(  59) = (    0.70413904986    0.35513997922    0.70839496730  )
        60           Ge  tau(  60) = (    0.79328152960    0.44471640437    0.79460327507  )
        61           Ge  tau(  61) = (    0.88256444228    0.52781430320    0.70611535643  )
        62           Ge  tau(  62) = (    0.97115123008    0.62033291387    0.79641906853  )
        63           Ge  tau(  63) = (    1.05871459279    0.70666043785    0.70497324284  )
        64           Ge  tau(  64) = (    1.14969684486    0.79275670710    0.79349948951  )
        65           Ge  tau(  65) = (   -0.00021818410    0.35684292767    0.35410211908  )
        66           Ge  tau(  66) = (    0.09108098092    0.44238339806    0.43969726582  )
        67           Ge  tau(  67) = (    0.17504909073    0.52873564532    0.35034274835  )
        68           Ge  tau(  68) = (    0.26468103608    0.61904291210    0.43998973742  )
        69           Ge  tau(  69) = (    0.35440630721    0.70607982848    0.35092009033  )
        70           Ge  tau(  70) = (    0.43990068208    0.79335449742    0.44432748741  )
        71           Ge  tau(  71) = (    0.53089268051    0.88141105758    0.35187144450  )
        72           Ge  tau(  72) = (    0.61707329268    0.97379079388    0.44294624577  )
        73           Ge  tau(  73) = (    0.17874632651    0.35653173452    0.52764236358  )
        74           Ge  tau(  74) = (    0.26834539391    0.44173144573    0.62175670007  )
        75           Ge  tau(  75) = (    0.35069009976    0.53311309654    0.53302335347  )
        76           Ge  tau(  76) = (    0.44080829105    0.61715978322    0.62032358351  )
        77           Ge  tau(  77) = (    0.53015478690    0.70819665825    0.53327540472  )
        78           Ge  tau(  78) = (    0.61781272572    0.79812004741    0.61973490226  )
        79           Ge  tau(  79) = (    0.70731974025    0.88545049471    0.53254629510  )
        80           Ge  tau(  80) = (    0.79309727445    0.97410175789    0.61868649563  )
        81           Ge  tau(  81) = (    0.35662213448    0.35192030534    0.70645175511  )
        82           Ge  tau(  82) = (    0.44509007479    0.44195786747    0.79759009949  )
        83           Ge  tau(  83) = (    0.53170176012    0.53077569722    0.70886918603  )
        84           Ge  tau(  84) = (    0.62048175688    0.61822988996    0.79846088658  )
        85           Ge  tau(  85) = (    0.70981442608    0.70790485612    0.70861668222  )
        86           Ge  tau(  86) = (    0.79744351315    0.79281885295    0.79222119941  )
        87           Ge  tau(  87) = (    0.88538057276    0.88162788595    0.70798836224  )
        88           Ge  tau(  88) = (    0.97168104028    0.97478671722    0.79564291428  )
        89           Ge  tau(  89) = (    0.53250954996    0.35249803178    0.88124281017  )
        90           Ge  tau(  90) = (    0.61704726400    0.44240355529    0.97248555516  )
        91           Ge  tau(  91) = (    0.70612570326    0.53224361593    0.88511404809  )
        92           Ge  tau(  92) = (    0.79795056353    0.61747786073    0.97183000450  )
        93           Ge  tau(  93) = (    0.88251660915    0.70744753092    0.88641102333  )
        94           Ge  tau(  94) = (    0.97046922689    0.79804806794    0.97464500960  )
        95           Ge  tau(  95) = (    1.05981235609    0.88192920991    0.88343672272  )
        96           Ge  tau(  96) = (    1.14627846230    0.97094466205    0.97510832020  )
        97           Ge  tau(  97) = (   -0.00103450563    0.53287571385    0.52994879181  )
        98           Ge  tau(  98) = (    0.08901890878    0.62114233139    0.61951153579  )
        99           Ge  tau(  99) = (    0.17810708413    0.70631279690    0.52755438885  )
       100           Ge  tau( 100) = (    0.26463543334    0.79559082936    0.61840651278  )
       101           Ge  tau( 101) = (    0.35556800603    0.88460423182    0.52916760668  )
       102           Ge  tau( 102) = (    0.44319201975    0.97441173630    0.61564868608  )
       103           Ge  tau( 103) = (    0.53093527140    1.05837061819    0.52879574282  )
       104           Ge  tau( 104) = (    0.62135837851    1.15233799559    0.61626611082  )
       105           Ge  tau( 105) = (    0.17483330761    0.53178802715    0.70402918100  )
       106           Ge  tau( 106) = (    0.26810164480    0.61755548572    0.79369683753  )
       107           Ge  tau( 107) = (    0.35589171886    0.70563079348    0.70738599195  )
       108           Ge  tau( 108) = (    0.44142595288    0.79541842669    0.79667498437  )
       109           Ge  tau( 109) = (    0.53358081766    0.88288909381    0.70626309461  )
       110           Ge  tau( 110) = (    0.62148402541    0.96975216950    0.79860382549  )
       111           Ge  tau( 111) = (    0.70497464402    1.06381516645    0.70628635955  )
       112           Ge  tau( 112) = (    0.79795505139    1.14949297518    0.79345533772  )
       113           Ge  tau( 113) = (    0.35580239466    0.52799129697    0.88655050452  )
       114           Ge  tau( 114) = (    0.44342352407    0.61689265047    0.97368816451  )
       115           Ge  tau( 115) = (    0.53018552094    0.70814817986    0.88205362458  )
       116           Ge  tau( 116) = (    0.61909294341    0.79637528674    0.97478061940  )
       117           Ge  tau( 117) = (    0.70526077564    0.88138571784    0.88713492099  )
       118           Ge  tau( 118) = (    0.79513438292    0.97412511521    0.97485966025  )
       119           Ge  tau( 119) = (    0.88145036497    1.05737596452    0.88562438164  )
       120           Ge  tau( 120) = (    0.97321666287    1.14580128434    0.97239771953  )
       121           Ge  tau( 121) = (    0.53223252943    0.52765926662    1.06149885501  )
       122           Ge  tau( 122) = (    0.61708427027    0.61806431939    1.15150169177  )
       123           Ge  tau( 123) = (    0.70479922141    0.70753231541    1.06338731137  )
       124           Ge  tau( 124) = (    0.79540826677    0.79244753526    1.15167207370  )
       125           Ge  tau( 125) = (    0.88319022970    0.88135373309    1.05806283745  )
       126           Ge  tau( 126) = (    0.97024359647    0.97099622142    1.15161285643  )
       127           Ge  tau( 127) = (    1.06073451977    1.06234734633    1.05879953677  )
       128           Ge  tau( 128) = (    1.15079327894    1.14734589489    1.15138650644  )

   Crystallographic axes

     site n.     atom                  positions (cryst. coord.)
         1           Ge  tau(   1) = (   -0.00121962810   -0.00104134103    0.00544016130  )
         2           Ge  tau(   2) = (    0.06130215448    0.06364208574    0.06083672894  )
         3           Ge  tau(   3) = (   -0.00161465909    0.00061352123    0.25154660801  )
         4           Ge  tau(   4) = (    0.05706084140    0.06384002586    0.31387520794  )
         5           Ge  tau(   5) = (   -0.00326484917   -0.00070324844    0.50355126721  )
         6           Ge  tau(   6) = (    0.06306521524    0.05899342479    0.56353810141  )
         7           Ge  tau(   7) = (   -0.00235195622   -0.00154602975    0.74796080976  )
         8           Ge  tau(   8) = (    0.06647971080    0.05817359164    0.81265286264  )
         9           Ge  tau(   9) = (    0.00057400673    0.24810975969    0.00338494218  )
        10           Ge  tau(  10) = (    0.06208219540    0.31639417865    0.05947491130  )
        11           Ge  tau(  11) = (   -0.00485896992    0.25229613232    0.25162944101  )
        12           Ge  tau(  12) = (    0.06055056816    0.31197003285    0.31438552825  )
        13           Ge  tau(  13) = (   -0.00060045004    0.24906864909    0.50179941319  )
        14           Ge  tau(  14) = (    0.06099328279    0.31049584544    0.56362227941  )
        15           Ge  tau(  15) = (   -0.00123211263    0.24708143200    0.74992861360  )
        16           Ge  tau(  16) = (    0.06157362023    0.30903150501    0.81754442207  )
        17           Ge  tau(  17) = (    0.00078749656    0.49931176985   -0.00180345252  )
        18           Ge  tau(  18) = (    0.06411388743    0.56445830551    0.05692361826  )
        19           Ge  tau(  19) = (    0.00426400666    0.49831314735    0.24773680471  )
        20           Ge  tau(  20) = (    0.05974074076    0.56618581189    0.31078910362  )
        21           Ge  tau(  21) = (   -0.00312113322    0.49932476205    0.50390132424  )
        22           Ge  tau(  22) = (    0.06442525516    0.56387128281    0.55873441089  )
        23           Ge  tau(  23) = (   -0.00114945759    0.50218332752    0.75181865331  )
        24           Ge  tau(  24) = (    0.06859312986    0.56053179779    0.80986091967  )
        25           Ge  tau(  25) = (    0.00138420533    0.75175059965   -0.00501078700  )
        26           Ge  tau(  26) = (    0.06609630789    0.81223702586    0.05969063809  )
        27           Ge  tau(  27) = (    0.00211275444    0.74727411736    0.24938800157  )
        28           Ge  tau(  28) = (    0.06247146430    0.81110230211    0.31645758531  )
        29           Ge  tau(  29) = (   -0.00134032399    0.74780910033    0.49985733346  )
        30           Ge  tau(  30) = (    0.06073035974    0.81443196001    0.56397957625  )
        31           Ge  tau(  31) = (   -0.00176066455    0.75455994890    0.74975707934  )
        32           Ge  tau(  32) = (    0.06470988095    0.81125553773    0.80990208426  )
        33           Ge  tau(  33) = (    0.25351505696   -0.00228366699    0.00015259660  )
        34           Ge  tau(  34) = (    0.31420965747    0.06143702592    0.06281787535  )
        35           Ge  tau(  35) = (    0.25463930063   -0.00221748583    0.24857508561  )
        36           Ge  tau(  36) = (    0.31075800783    0.06017619364    0.31121773528  )
        37           Ge  tau(  37) = (    0.24925986958   -0.00358465960    0.50306907115  )
        38           Ge  tau(  38) = (    0.31337601001    0.06331956217    0.56449379383  )
        39           Ge  tau(  39) = (    0.24946718991   -0.00166310189    0.75204516536  )
        40           Ge  tau(  40) = (    0.31112540795    0.06313172901    0.80931223531  )
        41           Ge  tau(  41) = (    0.24987907535    0.25308990011   -0.00192099321  )
        42           Ge  tau(  42) = (    0.31155326118    0.31461098493    0.06094623111  )
        43           Ge  tau(  43) = (    0.24724863570    0.24997946568    0.25388195477  )
        44           Ge  tau(  44) = (    0.31240001939    0.30947224981    0.31576020411  )
        45           Ge  tau(  45) = (    0.24953197010    0.25115038326    0.49690322125  )
        46           Ge  tau(  46) = (    0.31344328645    0.31283025132    0.56512875287  )
        47           Ge  tau(  47) = (    0.24855449984    0.24952523632    0.75005792481  )
        48           Ge  tau(  48) = (    0.30917907581    0.31618676175    0.81146419306  )
        49           Ge  tau(  49) = (    0.25201942071    0.50012215467    0.00010428628  )
        50           Ge  tau(  50) = (    0.31568497516    0.56292292638    0.05970979444  )
        51           Ge  tau(  51) = (    0.25494794651    0.49904394594    0.24952266509  )
        52           Ge  tau(  52) = (    0.30985346571    0.56383011474    0.31224145569  )
        53           Ge  tau(  53) = (    0.24483882575    0.50065283346    0.50396383231  )
        54           Ge  tau(  54) = (    0.31002324278    0.56455413613    0.56169700392  )
        55           Ge  tau(  55) = (    0.24807454816    0.50036599223    0.75370619000  )
        56           Ge  tau(  56) = (    0.31219430658    0.56538129206    0.81090936664  )
        57           Ge  tau(  57) = (    0.25177975383    0.74563829831    0.00040763409  )
        58           Ge  tau(  58) = (    0.30861051163    0.81221622331    0.06249456836  )
        59           Ge  tau(  59) = (    0.25413127566    0.74769049462    0.24811249950  )
        60           Ge  tau(  60) = (    0.31539660042    0.80834212789    0.31352737004  )
        61           Ge  tau(  61) = (    0.24845272786    0.75014518580    0.49798941814  )
        62           Ge  tau(  62) = (    0.31508731367    0.81121933438    0.56219590631  )
        63           Ge  tau(  63) = (    0.24955148026    0.74743124088    0.74981729493  )
        64           Ge  tau(  64) = (    0.30869407802    0.81348366178    0.81243320883  )
        65           Ge  tau(  65) = (    0.50286834307   -0.00209232379    0.00178376488  )
        66           Ge  tau(  66) = (    0.55932123974    0.06250459692    0.06630336157  )
        67           Ge  tau(  67) = (    0.49782389426   -0.00236442807    0.24992122626  )
        68           Ge  tau(  68) = (    0.56169141250    0.06054804146    0.31376746947  )
        69           Ge  tau(  69) = (    0.49680870718   -0.00053275613    0.50173896237  )
        70           Ge  tau(  70) = (    0.56411656908    0.06425738975    0.55785612094  )
        71           Ge  tau(  71) = (    0.49666460587    0.00095676315    0.74983886579  )
        72           Ge  tau(  72) = (    0.56544765816    0.06097293001    0.81170048947  )
        73           Ge  tau(  73) = (    0.49881276092    0.24738622573    0.00539925345  )
        74           Ge  tau(  74) = (    0.56225083187    0.31704592587    0.06245176960  )
        75           Ge  tau(  75) = (    0.50589696584    0.24791188970    0.24803880556  )
        76           Ge  tau(  76) = (    0.56333434841    0.31393567645    0.30946138717  )
        77           Ge  tau(  77) = (    0.50297726949    0.25118804035    0.49856404944  )
        78           Ge  tau(  78) = (    0.56571528179    0.31072222206    0.56299691366  )
        79           Ge  tau(  79) = (    0.50252456098    0.25060963214    0.74969153745  )
        80           Ge  tau(  80) = (    0.56546691415    0.30948791882    0.81212100299  )
        81           Ge  tau(  81) = (    0.49621213135    0.50286152189    0.00147833733  )
        82           Ge  tau(  82) = (    0.56176656292    0.56619617300    0.06325624725  )
        83           Ge  tau(  83) = (    0.50059138306    0.50190103377    0.25003880652  )
        84           Ge  tau(  84) = (    0.56300479705    0.56618941778    0.31130429800  )
        85           Ge  tau(  85) = (    0.49971739140    0.50241793112    0.50141125700  )
        86           Ge  tau(  86) = (    0.55691485371    0.56345511089    0.56430032064  )
        87           Ge  tau(  87) = (    0.49796982165    0.50327692224    0.74884029163  )
        88           Ge  tau(  88) = (    0.56480054532    0.56040845486    0.81375605060  )
        89           Ge  tau(  89) = (    0.49584540175    0.75042013214    0.00266209551  )
        90           Ge  tau(  90) = (    0.56415937994    0.81114288139    0.06149372799  )
        91           Ge  tau(  91) = (    0.50291694246    0.74882334860    0.24978919768  )
        92           Ge  tau(  92) = (    0.55957411438    0.81480105831    0.31367145073  )
        93           Ge  tau(  93) = (    0.50299471312    0.75057977791    0.49748717978  )
        94           Ge  tau(  94) = (    0.56725792483    0.81109826625    0.56135247628  )
        95           Ge  tau(  95) = (    0.49890171847    0.75046647630    0.74833453125  )
        96           Ge  tau(  96) = (    0.56552598648    0.81348542473    0.80759712291  )
        97           Ge  tau(  97) = (    0.75226192111   -0.00280115237    0.00133814048  )
        98           Ge  tau(  98) = (    0.81432888854    0.06179272742    0.06409902068  )
        99           Ge  tau(  99) = (    0.74653512716   -0.00046055556    0.25234200949  )
       100           Ge  tau( 100) = (    0.81272159976    0.06183727768    0.31241374123  )
       101           Ge  tau( 101) = (    0.74826310582    0.00009290032    0.50275619616  )
       102           Ge  tau( 102) = (    0.81095842462    0.05970029689    0.56706786818  )
       103           Ge  tau( 103) = (    0.74686816596    0.00096194527    0.74989391630  )
       104           Ge  tau( 104) = (    0.81122523389    0.06030665807    0.81842678792  )
       105           Ge  tau( 105) = (    0.75022891080    0.24541870528    0.00183292951  )
       106           Ge  tau( 106) = (    0.80832959665    0.31412723540    0.06502574678  )
       107           Ge  tau( 107) = (    0.74750030313    0.25289456052    0.25041233503  )
       108           Ge  tau( 108) = (    0.81364476256    0.31302380513    0.31124676422  )
       109           Ge  tau( 109) = (    0.74640167428    0.25240517271    0.50219205625  )
       110           Ge  tau( 110) = (    0.81096094685    0.31843541413    0.56047572340  )
       111           Ge  tau( 111) = (    0.75315844107    0.24568130753    0.75130339518  )
       112           Ge  tau( 112) = (    0.80963249963    0.31248280012    0.81599605573  )
       113           Ge  tau( 113) = (    0.74864181408    0.50512993314   -0.00194936109  )
       114           Ge  tau( 114) = (    0.81116269949    0.56584030829    0.06125525333  )
       115           Ge  tau( 115) = (    0.74954470224    0.49786749639    0.25192805789  )
       116           Ge  tau( 116) = (    0.81463153331    0.56391643899    0.31161319794  )
       117           Ge  tau( 117) = (    0.75183825942    0.50275997750    0.49462937643  )
       118           Ge  tau( 118) = (    0.81589543704    0.56276431590    0.56172551233  )
       119           Ge  tau( 119) = (    0.75062919027    0.50183282142    0.74472623928  )
       120           Ge  tau( 120) = (    0.80962477767    0.56555326532    0.81078293843  )
       121           Ge  tau( 121) = (    0.74735925346    0.75382682374   -0.00113636229  )
       122           Ge  tau( 122) = (    0.81492765417    0.81354165542    0.05914728873  )
       123           Ge  tau( 123) = (    0.75386096820    0.74999578960    0.24674082807  )
       124           Ge  tau( 124) = (    0.81226157969    0.81644868634    0.30842847215  )
       125           Ge  tau( 125) = (    0.74686480808    0.74946200649    0.49955759451  )
       126           Ge  tau( 126) = (    0.81484544629    0.81378107387    0.55835057906  )
       127           Ge  tau( 127) = (    0.74982477297    0.74754389177    0.75256125217  )
       128           Ge  tau( 128) = (    0.81171553783    0.81659087511    0.81087658746  )

     number of k points=     8  gaussian smearing, width (Ry)=  0.0150
                       cart. coord. in units 2pi/alat
        k(    1) = (   0.0000000   0.0000000   0.0000000), wk =   0.2500000
        k(    2) = (  -0.3535534  -0.3535534   0.3535534), wk =   0.2500000
        k(    3) = (  -0.7071068   0.0000000   0.0000000), wk =   0.2500000
        k(    4) = (   0.3535534   0.3535534   0.3535534), wk =   0.2500000
        k(    5) = (   0.3535534  -0.3535534  -0.3535534), wk =   0.2500000
        k(    6) = (  -0.3535534   0.3535534  -0.3535534), wk =   0.2500000
        k(    7) = (   0.0000000  -0.7071068   0.0000000), wk =   0.2500000
        k(    8) = (   0.0000000   0.0000000  -0.7071068), wk =   0.2500000

                       cryst. coord.
        k(    1) = (   0.0000000   0.0000000   0.0000000), wk =   0.2500000
        k(    2) = (   0.0000000   0.0000000  -0.5000000), wk =   0.2500000
        k(    3) = (   0.0000000  -0.5000000  -0.5000000), wk =   0.2500000
        k(    4) = (   0.5000000   0.5000000   0.5000000), wk =   0.2500000
        k(    5) = (  -0.5000000   0.0000000   0.0000000), wk =   0.2500000
        k(    6) = (   0.0000000  -0.5000000   0.0000000), wk =   0.2500000
        k(    7) = (  -0.5000000   0.0000000  -0.5000000), wk =   0.2500000
        k(    8) = (  -0.5000000  -0.5000000   0.0000000), wk =   0.2500000

     Dense  grid:   941961 G-vectors     FFT dimensions: ( 144, 144, 144)

     Smooth grid:   551433 G-vectors     FFT dimensions: ( 120, 120, 120)

     Largest allocated arrays     est. size (Mb)     dimensions
        Kohn-Sham Wavefunctions        70.96 Mb     (    4326, 1075)
        NL pseudopotentials           152.09 Mb     (    4326, 2304)
        Each V/rho on FFT grid          2.85 Mb     (  186624)
        Each G-vector array             0.45 Mb     (   58872)
        G-vector shells                 0.02 Mb     (    3076)
     Largest temporary arrays     est. size (Mb)     dimensions
        Auxiliary wavefunctions       283.84 Mb     (    4326, 4300)
        Each subspace H/S matrix      282.14 Mb     (    4300, 4300)
        Each <psi_i|beta_j> matrix     37.79 Mb     (    2304, 1075)
        Arrays for rho mixing          22.78 Mb     (  186624,    8)

     Check: negative/imaginary core charge=   -0.000002    0.000000

     Initial potential from superposition of free atoms

     starting charge 1791.89656, renormalised to 1792.00000
     Starting wfc are 1152 randomized atomic wfcs

     total cpu time spent up to now is     1092.3 secs

     Self-consistent Calculation

     iteration #  1     ecut=    35.00 Ry     beta=0.30
     Davidson diagonalization with overlap
     ethr =  1.00E-02,  avg # of iterations =  4.4

     Threshold (ethr) on eigenvalues was too large:
     Diagonalizing with lowered threshold

     Davidson diagonalization with overlap
     ethr =  1.11E-04,  avg # of iterations =  6.6

     total cpu time spent up to now is    15265.7 secs

     total energy              =  -27288.12472472 Ry
     Harris-Foulkes estimate   =  -27288.34150706 Ry
     estimated scf accuracy    <       2.13125669 Ry

     iteration #  2     ecut=    35.00 Ry     beta=0.30
     Davidson diagonalization with overlap
     ethr =  1.19E-04,  avg # of iterations =  1.0

     total cpu time spent up to now is    18497.8 secs

     total energy              =  -27287.72555544 Ry
     Harris-Foulkes estimate   =  -27288.13198154 Ry
     estimated scf accuracy    <       1.30771785 Ry

     iteration #  3     ecut=    35.00 Ry     beta=0.30
     Davidson diagonalization with overlap
     ethr =  7.30E-05,  avg # of iterations =  2.0

     total cpu time spent up to now is    22225.6 secs

     total energy              =  -27287.79286283 Ry
     Harris-Foulkes estimate   =  -27287.79608521 Ry
     estimated scf accuracy    <       0.02410594 Ry

     iteration #  4     ecut=    35.00 Ry     beta=0.30
     Davidson diagonalization with overlap
     ethr =  1.35E-06,  avg # of iterations =  8.0

     total cpu time spent up to now is    37918.6 secs

     total energy              =  -27287.79756199 Ry
     Harris-Foulkes estimate   =  -27287.79779818 Ry
     estimated scf accuracy    <       0.00258128 Ry

     iteration #  5     ecut=    35.00 Ry     beta=0.30
     Davidson diagonalization with overlap
     ethr =  1.44E-07,  avg # of iterations =  2.0

     total cpu time spent up to now is    42144.9 secs

     total energy              =  -27287.79755694 Ry
     Harris-Foulkes estimate   =  -27287.79776712 Ry
     estimated scf accuracy    <       0.00056596 Ry

     iteration #  6     ecut=    35.00 Ry     beta=0.30
     Davidson diagonalization with overlap
     ethr =  3.16E-08,  avg # of iterations =  1.6

     total cpu time spent up to now is    45544.4 secs

     total energy              =  -27287.79759502 Ry
     Harris-Foulkes estimate   =  -27287.79757350 Ry
     estimated scf accuracy    <       0.00003582 Ry

     iteration #  7     ecut=    35.00 Ry     beta=0.30
     Davidson diagonalization with overlap
     ethr =  2.00E-09,  avg # of iterations =  2.1

     total cpu time spent up to now is    49977.2 secs

     total energy              =  -27287.79759813 Ry
     Harris-Foulkes estimate   =  -27287.79759995 Ry
     estimated scf accuracy    <       0.00003112 Ry

     iteration #  8     ecut=    35.00 Ry     beta=0.30
     Davidson diagonalization with overlap
     ethr =  1.74E-09,  avg # of iterations =  2.0

     total cpu time spent up to now is    53774.3 secs

     total energy              =  -27287.79760427 Ry
     Harris-Foulkes estimate   =  -27287.79760041 Ry
     estimated scf accuracy    <       0.00000277 Ry

     iteration #  9     ecut=    35.00 Ry     beta=0.30
     Davidson diagonalization with overlap
     ethr =  1.54E-10,  avg # of iterations =  3.0

     total cpu time spent up to now is    58620.2 secs

     total energy              =  -27287.79760385 Ry
     Harris-Foulkes estimate   =  -27287.79760518 Ry
     estimated scf accuracy    <       0.00000618 Ry

     iteration # 10     ecut=    35.00 Ry     beta=0.30
     Davidson diagonalization with overlap
     ethr =  1.54E-10,  avg # of iterations =  2.0

     total cpu time spent up to now is    62841.7 secs

     total energy              =  -27287.79760514 Ry
     Harris-Foulkes estimate   =  -27287.79760443 Ry
     estimated scf accuracy    <       0.00000007 Ry

     iteration # 11     ecut=    35.00 Ry     beta=0.30
     Davidson diagonalization with overlap
     ethr =  3.88E-12,  avg # of iterations =  2.0

     total cpu time spent up to now is    68281.3 secs

     total energy              =  -27287.79760550 Ry
     Harris-Foulkes estimate   =  -27287.79760515 Ry
     estimated scf accuracy    <       0.00000001 Ry

     iteration # 12     ecut=    35.00 Ry     beta=0.30
     Davidson diagonalization with overlap
     ethr =  7.09E-13,  avg # of iterations =  2.5

     total cpu time spent up to now is    72750.1 secs

     total energy              =  -27287.79760567 Ry
     Harris-Foulkes estimate   =  -27287.79760551 Ry
     estimated scf accuracy    <          1.7E-09 Ry

     iteration # 13     ecut=    35.00 Ry     beta=0.30
     Davidson diagonalization with overlap
     ethr =  1.00E-13,  avg # of iterations =  2.0

     total cpu time spent up to now is    76843.4 secs

     End of self-consistent calculation

          k = 0.0000 0.0000 0.0000 ( 69041 PWs)   bands (ev):

   -16.7714 -16.7475 -16.7215 -16.7205 -16.7169 -16.7139 -16.7129 -16.7074
   -16.7043 -16.7030 -16.7014 -16.6975 -16.6970 -16.6927 -16.6914 -16.6883
   -16.6870 -16.6859 -16.6850 -16.6817 -16.6808 -16.6796 -16.6761 -16.6751
   -16.6748 -16.6740 -16.6709 -16.6700 -16.6696 -16.6687 -16.6669 -16.6658
   -16.6645 -16.6640 -16.6625 -16.6609 -16.6603 -16.6597 -16.6592 -16.6584
   -16.6582 -16.6575 -16.6556 -16.6554 -16.6539 -16.6529 -16.6521 -16.6516
   -16.6508 -16.6504 -16.6497 -16.6489 -16.6479 -16.6473 -16.6462 -16.6461
   -16.6457 -16.6445 -16.6442 -16.6438 -16.6425 -16.6420 -16.6413 -16.6412
   -16.6397 -16.6388 -16.6383 -16.6376 -16.6372 -16.6366 -16.6363 -16.6360
   -16.6355 -16.6341 -16.6331 -16.6330 -16.6323 -16.6315 -16.6310 -16.6298
   -16.6291 -16.6285 -16.6277 -16.6275 -16.6268 -16.6260 -16.6245 -16.6240
   -16.6231 -16.6229 -16.6221 -16.6217 -16.6205 -16.6202 -16.6194 -16.6180
   -16.6173 -16.6168 -16.6167 -16.6154 -16.6148 -16.6144 -16.6139 -16.6130
   -16.6121 -16.6113 -16.6103 -16.6101 -16.6093 -16.6084 -16.6081 -16.6076
   -16.6063 -16.6060 -16.6054 -16.6045 -16.6037 -16.6034 -16.6026 -16.6017
   -16.6015 -16.6002 -16.5994 -16.5986 -16.5973 -16.5966 -16.5959 -16.5954
   -16.5945 -16.5936 -16.5933 -16.5920 -16.5916 -16.5905 -16.5895 -16.5893
   -16.5884 -16.5872 -16.5858 -16.5852 -16.5846 -16.5831 -16.5824 -16.5817
   -16.5813 -16.5790 -16.5783 -16.5782 -16.5777 -16.5769 -16.5765 -16.5757
   -16.5743 -16.5732 -16.5730 -16.5714 -16.5700 -16.5695 -16.5688 -16.5681
   -16.5670 -16.5668 -16.5660 -16.5653 -16.5637 -16.5629 -16.5624 -16.5616
   -16.5607 -16.5598 -16.5596 -16.5584 -16.5577 -16.5569 -16.5567 -16.5557
   -16.5549 -16.5539 -16.5535 -16.5530 -16.5526 -16.5515 -16.5508 -16.5503
   -16.5496 -16.5489 -16.5487 -16.5476 -16.5472 -16.5466 -16.5460 -16.5457
   -16.5449 -16.5435 -16.5432 -16.5425 -16.5423 -16.5414 -16.5407 -16.5405
   -16.5398 -16.5387 -16.5385 -16.5378 -16.5373 -16.5367 -16.5360 -16.5351
   -16.5347 -16.5341 -16.5322 -16.5321 -16.5316 -16.5306 -16.5300 -16.5293
   -16.5286 -16.5285 -16.5276 -16.5272 -16.5264 -16.5251 -16.5235 -16.5227
   -16.5222 -16.5220 -16.5213 -16.5204 -16.5196 -16.5189 -16.5178 -16.5172
   -16.5155 -16.5150 -16.5146 -16.5134 -16.5130 -16.5127 -16.5123 -16.5116
   -16.5105 -16.5099 -16.5097 -16.5083 -16.5083 -16.5072 -16.5068 -16.5062
   -16.5055 -16.5050 -16.5046 -16.5041 -16.5032 -16.5027 -16.5019 -16.5014
   -16.5009 -16.5007 -16.4995 -16.4985 -16.4981 -16.4979 -16.4972 -16.4969
   -16.4957 -16.4953 -16.4948 -16.4941 -16.4933 -16.4932 -16.4918 -16.4911
   -16.4907 -16.4901 -16.4886 -16.4882 -16.4880 -16.4878 -16.4872 -16.4864
   -16.4862 -16.4853 -16.4844 -16.4838 -16.4828 -16.4821 -16.4812 -16.4808
   -16.4801 -16.4800 -16.4795 -16.4792 -16.4783 -16.4777 -16.4768 -16.4763
   -16.4751 -16.4743 -16.4737 -16.4736 -16.4731 -16.4719 -16.4716 -16.4703
   -16.4702 -16.4694 -16.4687 -16.4683 -16.4677 -16.4669 -16.4663 -16.4654
   -16.4649 -16.4646 -16.4641 -16.4635 -16.4628 -16.4623 -16.4610 -16.4605
   -16.4602 -16.4597 -16.4588 -16.4579 -16.4577 -16.4568 -16.4562 -16.4561
   -16.4553 -16.4545 -16.4543 -16.4541 -16.4526 -16.4521 -16.4514 -16.4504
   -16.4500 -16.4494 -16.4486 -16.4480 -16.4477 -16.4472 -16.4463 -16.4459
   -16.4451 -16.4446 -16.4438 -16.4432 -16.4423 -16.4410 -16.4410 -16.4400
   -16.4392 -16.4384 -16.4377 -16.4375 -16.4370 -16.4364 -16.4354 -16.4352
   -16.4341 -16.4336 -16.4332 -16.4314 -16.4311 -16.4297 -16.4292 -16.4279
   -16.4274 -16.4268 -16.4263 -16.4251 -16.4247 -16.4242 -16.4239 -16.4234
   -16.4228 -16.4216 -16.4213 -16.4204 -16.4202 -16.4195 -16.4189 -16.4174
   -16.4164 -16.4162 -16.4157 -16.4151 -16.4144 -16.4143 -16.4130 -16.4124
   -16.4120 -16.4117 -16.4102 -16.4092 -16.4090 -16.4087 -16.4082 -16.4079
   -16.4071 -16.4067 -16.4053 -16.4052 -16.4047 -16.4043 -16.4036 -16.4031
   -16.4028 -16.4023 -16.4018 -16.4014 -16.4007 -16.4001 -16.3998 -16.3992
   -16.3983 -16.3978 -16.3971 -16.3967 -16.3961 -16.3951 -16.3950 -16.3943
   -16.3937 -16.3931 -16.3923 -16.3916 -16.3913 -16.3912 -16.3905 -16.3902
   -16.3894 -16.3891 -16.3887 -16.3885 -16.3877 -16.3869 -16.3866 -16.3864
   -16.3852 -16.3847 -16.3843 -16.3839 -16.3835 -16.3829 -16.3824 -16.3820
   -16.3809 -16.3804 -16.3800 -16.3795 -16.3790 -16.3786 -16.3780 -16.3777
   -16.3773 -16.3767 -16.3764 -16.3763 -16.3756 -16.3753 -16.3749 -16.3735
   -16.3728 -16.3724 -16.3722 -16.3717 -16.3711 -16.3710 -16.3705 -16.3703
   -16.3695 -16.3687 -16.3684 -16.3678 -16.3670 -16.3663 -16.3660 -16.3659
   -16.3655 -16.3646 -16.3642 -16.3638 -16.3634 -16.3628 -16.3619 -16.3613
   -16.3608 -16.3602 -16.3600 -16.3590 -16.3585 -16.3581 -16.3574 -16.3570
   -16.3568 -16.3555 -16.3552 -16.3544 -16.3531 -16.3527 -16.3524 -16.3506
   -16.3500 -16.3490 -16.3484 -16.3479 -16.3461 -16.3453 -16.3443 -16.3432
   -16.3412 -16.3403 -16.3388 -16.3378 -16.3373 -16.3359 -16.3351 -16.3347
   -16.3338 -16.3333 -16.3322 -16.3313 -16.3300 -16.3294 -16.3289 -16.3284
   -16.3282 -16.3271 -16.3263 -16.3260 -16.3247 -16.3245 -16.3240 -16.3231
   -16.3223 -16.3215 -16.3213 -16.3209 -16.3204 -16.3197 -16.3189 -16.3187
   -16.3185 -16.3178 -16.3169 -16.3161 -16.3157 -16.3155 -16.3145 -16.3136
   -16.3134 -16.3123 -16.3117 -16.3116 -16.3111 -16.3107 -16.3098 -16.3094
   -16.3089 -16.3084 -16.3078 -16.3076 -16.3071 -16.3064 -16.3060 -16.3053
   -16.3047 -16.3032 -16.3030 -16.3024 -16.3019 -16.3011 -16.3011 -16.3000
   -16.2998 -16.2995 -16.2992 -16.2988 -16.2982 -16.2976 -16.2972 -16.2961
   -16.2958 -16.2957 -16.2947 -16.2946 -16.2943 -16.2941 -16.2938 -16.2928
   -16.2924 -16.2921 -16.2919 -16.2908 -16.2902 -16.2900 -16.2895 -16.2888
   -16.2883 -16.2879 -16.2874 -16.2871 -16.2866 -16.2860 -16.2857 -16.2845
   -16.2839 -16.2831 -16.2829 -16.2826 -16.2811 -16.2806 -16.2803 -16.2797
   -16.2788 -16.2771 -16.2767 -16.2755 -16.2749 -16.2742 -16.2726 -16.2716
   -16.2706 -16.2693 -16.2681 -16.2670 -16.2666 -16.2661 -16.2640 -16.2624
   -16.2612 -16.2585 -16.2578 -16.2558 -16.2539 -16.2517 -16.2498 -16.2477
    -4.5233  -3.8524  -3.8327  -3.8140  -3.7984  -3.7782  -3.7631  -3.7477
    -3.7285  -3.5608  -3.5509  -3.5286  -3.4948  -3.4724  -3.4718  -2.7477
    -2.7098  -2.7001  -2.6852  -2.6822  -2.6668  -2.6536  -2.6373  -2.6182
    -2.5982  -2.5774  -2.5620  -2.4802  -2.4632  -2.4238  -2.4025  -2.1596
    -2.1358  -2.1277  -2.1168  -2.1059  -2.0930  -2.0820  -2.0710  -2.0593
    -2.0488  -2.0347  -2.0331  -2.0195  -2.0110  -2.0021  -1.9861  -1.9807
    -1.9693  -1.9620  -1.9536  -1.9279  -1.9205  -1.9139  -1.8849  -0.7251
    -0.7136  -0.6950  -0.6725  -0.6438  -0.6382  -0.6207  -0.6015  -0.5865
    -0.5750  -0.5637  -0.5487  -0.5318  -0.5141  -0.4844  -0.4804  -0.4646
    -0.4529   0.5624   0.5782   0.6248   0.6548   0.7237   0.7377   0.7479
     0.7581   0.7789   0.7879   0.7947   0.8118   0.8218   0.8333   0.8377
     0.8442   0.8449   0.8599   0.8770   0.8873   0.9031   0.9121   0.9246
     0.9344   0.9445   0.9585   0.9752   0.9958   1.6217   1.6374   1.6502
     1.6849   1.6943   1.6981   1.7030   1.7312   1.7370   1.7626   1.7776
     1.7904   3.3995   3.4037   3.4388   3.4451   3.4573   3.4633   3.4773
     3.4978   3.5147   3.5198   3.5283   3.5550   3.5710   3.5832   4.2409
     4.2488   4.2673   4.2777   4.2822   4.2895   4.2942   4.3007   4.3049
     4.3137   4.3175   4.3248   4.3271   4.3343   4.3439   4.3498   4.3590
     4.3779   4.3836   4.3860   4.3968   4.3995   4.4051   4.4247   4.4347
     4.4448   4.4468   4.4571   4.4688   4.4758   4.4799   4.4956   4.4990
     4.5088   4.5121   4.5149   4.5214   4.5295   4.5324   4.5468   4.5479
     4.5540   4.5657   4.5703   4.5787   4.5871   4.5929   4.6055   5.1459
     5.1521   5.1572   5.1689   5.1858   5.1928   5.7485   5.7569   5.7675
     5.7702   5.7766   5.7869   5.7921   5.7965   5.8084   5.8225   5.8271
     5.8302   5.8338   5.8380   5.8462   5.8581   5.8647   5.8699   5.8804
     5.8860   5.8946   5.9017   5.9131   5.9187   6.1303   6.1483   6.1573
     6.1741   6.1944   6.2032   6.2109   6.2268   6.2312   6.2413   6.2510
     6.2667   6.6414   6.6625   6.6771   6.6965   6.7098   6.7149   6.7195
     6.7333   6.7491   6.7598   6.7780   6.7835   6.8052   6.8202   6.8324
     6.8524   6.8571   6.8716   6.9036   6.9222   7.2578   7.2754   7.2869
     7.3004   7.3222   7.3422   7.3543   7.3638   7.3698   7.3780   7.3856
     7.3968   7.4151   7.4297   7.4530   7.4912   8.1302   8.1911   8.2424
     8.2850   8.2927   8.3056   8.3266   8.3334   8.7448   8.7472   8.7647
     8.7875   8.7955   8.8090   8.8168   8.8382   8.8543   8.8730   8.8854
     8.9089   8.9246   8.9377   9.1085   9.1231   9.1593   9.1616   9.1864
     9.2092   9.4498   9.4653   9.4807   9.4853   9.4904   9.4985   9.5128
     9.5160   9.5249   9.5279   9.5413   9.5566   9.5602   9.5752   9.5784
     9.5852   9.5949   9.6082   9.6226   9.6291   9.6349   9.6458   9.6651
     9.6759  10.0334  10.0683  10.0796  10.1027  10.1071  10.1141  10.1177
    10.1295  10.1429  10.1682  10.1748  10.1925  10.6988  10.7355  10.7724
    10.8568  10.8622  10.8743  10.8954  10.9004  10.9264  11.6929  11.7025
    11.7135  11.7348  11.7388  11.7535  11.7676  11.7793  11.7803  11.7994
    11.8063  11.8117  11.8360  11.8531  11.8661  11.8712  11.8781  11.8904
    11.9117  11.9318  11.9558  11.9738  11.9837  11.9917  12.2551  12.2619
    12.2794  12.2924  12.2953  12.3049  12.3144  12.3254  12.3303  12.3420
    12.3458  12.3464  12.3550  12.3633  12.3734  12.3788  12.3834  12.3891
    12.3914  12.4010  12.4072  12.4138  12.4239  12.4323  12.4387  12.4573
    12.4634  12.4761  12.4803  12.4878  12.4964  12.5116  12.5268  12.5386
    12.5516  12.5667  12.7775  12.7887  12.7984  12.8112  12.8290  12.8320
    12.8428  12.8526  12.8649  12.8812  12.8872  12.8910  12.9076  12.9299
    12.9386  12.9505  12.9598  12.9929  12.9967  13.0089  13.0220  13.0268
    13.0413  13.0773  13.1688  13.1942  13.2043  13.2106  13.2206  13.2283
    13.2368  13.2450  13.2558  13.2686  13.2978  13.3057  13.3686  13.3799
    13.3846  13.4027  13.4111  13.4163  13.4327  13.4396  13.4450  13.4576
    13.4673  13.4753  13.4942

     occupation numbers 
     1.0000   1.0000   1.0000   1.0000   1.0000   1.0000   1.0000   1.0000
     1.0000   1.0000   1.0000   1.0000   1.0000   1.0000   1.0000   1.0000
     1.0000   1.0000   1.0000   1.0000   1.0000   1.0000   1.0000   1.0000
     1.0000   1.0000   1.0000   1.0000   1.0000   1.0000   1.0000   1.0000
     1.0000   1.0000   1.0000   1.0000   1.0000   1.0000   1.0000   1.0000
     1.0000   1.0000   1.0000   1.0000   1.0000   1.0000   1.0000   1.0000
     1.0000   1.0000   1.0000   1.0000   1.0000   1.0000   1.0000   1.0000
     1.0000   1.0000   1.0000   1.0000   1.0000   1.0000   1.0000   1.0000
     1.0000   1.0000   1.0000   1.0000   1.0000   1.0000   1.0000   1.0000
     1.0000   1.0000   1.0000   1.0000   1.0000   1.0000   1.0000   1.0000
     1.0000   1.0000   1.0000   1.0000   1.0000   1.0000   1.0000   1.0000
     1.0000   1.0000   1.0000   1.0000   1.0000   1.0000   1.0000   1.0000
     1.0000   1.0000   1.0000   1.0000   1.0000   1.0000   1.0000   1.0000
     1.0000   1.0000   1.0000   1.0000   1.0000   1.0000   1.0000   1.0000
     1.0000   1.0000   1.0000   1.0000   1.0000   1.0000   1.0000   1.0000
     1.0000   1.0000   1.0000   1.0000   1.0000   1.0000   1.0000   1.0000
     1.0000   1.0000   1.0000   1.0000   1.0000   1.0000   1.0000   1.0000
     1.0000   1.0000   1.0000   1.0000   1.0000   1.0000   1.0000   1.0000
     1.0000   1.0000   1.0000   1.0000   1.0000   1.0000   1.0000   1.0000
     1.0000   1.0000   1.0000   1.0000   1.0000   1.0000   1.0000   1.0000
     1.0000   1.0000   1.0000   1.0000   1.0000   1.0000   1.0000   1.0000
     1.0000   1.0000   1.0000   1.0000   1.0000   1.0000   1.0000   1.0000
     1.0000   1.0000   1.0000   1.0000   1.0000   1.0000   1.0000   1.0000
     1.0000   1.0000   1.0000   1.0000   1.0000   1.0000   1.0000   1.0000
     1.0000   1.0000   1.0000   1.0000   1.0000   1.0000   1.0000   1.0000
     1.0000   1.0000   1.0000   1.0000   1.0000   1.0000   1.0000   1.0000
     1.0000   1.0000   1.0000   1.0000   1.0000   1.0000   1.0000   1.0000
     1.0000   1.0000   1.0000   1.0000   1.0000   1.0000   1.0000   1.0000
     1.0000   1.0000   1.0000   1.0000   1.0000   1.0000   1.0000   1.0000
     1.0000   1.0000   1.0000   1.0000   1.0000   1.0000   1.0000   1.0000
     1.0000   1.0000   1.0000   1.0000   1.0000   1.0000   1.0000   1.0000
     1.0000   1.0000   1.0000   1.0000   1.0000   1.0000   1.0000   1.0000
     1.0000   1.0000   1.0000   1.0000   1.0000   1.0000   1.0000   1.0000
     1.0000   1.0000   1.0000   1.0000   1.0000   1.0000   1.0000   1.0000
     1.0000   1.0000   1.0000   1.0000   1.0000   1.0000   1.0000   1.0000
     1.0000   1.0000   1.0000   1.0000   1.0000   1.0000   1.0000   1.0000
     1.0000   1.0000   1.0000   1.0000   1.0000   1.0000   1.0000   1.0000
     1.0000   1.0000   1.0000   1.0000   1.0000   1.0000   1.0000   1.0000
     1.0000   1.0000   1.0000   1.0000   1.0000   1.0000   1.0000   1.0000
     1.0000   1.0000   1.0000   1.0000   1.0000   1.0000   1.0000   1.0000
     1.0000   1.0000   1.0000   1.0000   1.0000   1.0000   1.0000   1.0000
     1.0000   1.0000   1.0000   1.0000   1.0000   1.0000   1.0000   1.0000
     1.0000   1.0000   1.0000   1.0000   1.0000   1.0000   1.0000   1.0000
     1.0000   1.0000   1.0000   1.0000   1.0000   1.0000   1.0000   1.0000
     1.0000   1.0000   1.0000   1.0000   1.0000   1.0000   1.0000   1.0000
     1.0000   1.0000   1.0000   1.0000   1.0000   1.0000   1.0000   1.0000
     1.0000   1.0000   1.0000   1.0000   1.0000   1.0000   1.0000   1.0000
     1.0000   1.0000   1.0000   1.0000   1.0000   1.0000   1.0000   1.0000
     1.0000   1.0000   1.0000   1.0000   1.0000   1.0000   1.0000   1.0000
     1.0000   1.0000   1.0000   1.0000   1.0000   1.0000   1.0000   1.0000
     1.0000   1.0000   1.0000   1.0000   1.0000   1.0000   1.0000   1.0000
     1.0000   1.0000   1.0000   1.0000   1.0000   1.0000   1.0000   1.0000
     1.0000   1.0000   1.0000   1.0000   1.0000   1.0000   1.0000   1.0000
     1.0000   1.0000   1.0000   1.0000   1.0000   1.0000   1.0000   1.0000
     1.0000   1.0000   1.0000   1.0000   1.0000   1.0000   1.0000   1.0000
     1.0000   1.0000   1.0000   1.0000   1.0000   1.0000   1.0000   1.0000
     1.0000   1.0000   1.0000   1.0000   1.0000   1.0000   1.0000   1.0000
     1.0000   1.0000   1.0000   1.0000   1.0000   1.0000   1.0000   1.0000
     1.0000   1.0000   1.0000   1.0000   1.0000   1.0000   1.0000   1.0000
     1.0000   1.0000   1.0000   1.0000   1.0000   1.0000   1.0000   1.0000
     1.0000   1.0000   1.0000   1.0000   1.0000   1.0000   1.0000   1.0000
     1.0000   1.0000   1.0000   1.0000   1.0000   1.0000   1.0000   1.0000
     1.0000   1.0000   1.0000   1.0000   1.0000   1.0000   1.0000   1.0000
     1.0000   1.0000   1.0000   1.0000   1.0000   1.0000   1.0000   1.0000
     1.0000   1.0000   1.0000   1.0000   1.0000   1.0000   1.0000   1.0000
     1.0000   1.0000   1.0000   1.0000   1.0000   1.0000   1.0000   1.0000
     1.0000   1.0000   1.0000   1.0000   1.0000   1.0000   1.0000   1.0000
     1.0000   1.0000   1.0000   1.0000   1.0000   1.0000   1.0000   1.0000
     1.0000   1.0000   1.0000   1.0000   1.0000   1.0000   1.0000   1.0000
     1.0000   1.0000   1.0000   1.0000   1.0000   1.0000   1.0000   1.0000
     1.0000   1.0000   1.0000   1.0000   1.0000   1.0000   1.0000   1.0000
     1.0000   1.0000   1.0000   1.0000   1.0000   1.0000   1.0000   1.0000
     1.0000   1.0000   1.0000   1.0000   1.0000   1.0000   1.0000   1.0000
     1.0000   1.0000   1.0000   1.0000   1.0000   1.0000   1.0000   1.0000
     1.0000   1.0000   1.0000   1.0000   1.0000   1.0000   1.0000   1.0000
     1.0000   1.0000   1.0000   1.0000   1.0000   1.0000   1.0000   1.0000
     1.0000   1.0000   1.0000   1.0000   1.0000   1.0000   1.0000   1.0000
     1.0000   1.0000   1.0000   1.0000   1.0000   1.0000   1.0000   1.0000
     1.0000   1.0000   1.0000   1.0000   1.0000   1.0000   1.0000   1.0000
     1.0000   1.0000   1.0000   1.0000   1.0000   1.0000   1.0000   1.0000
     1.0000   1.0000   1.0000   1.0000   1.0000   1.0000   1.0000   1.0000
     1.0000   1.0000   1.0000   1.0000   1.0000   1.0000   1.0000   1.0000
     1.0000   1.0000   1.0000   1.0000   1.0000   1.0000   1.0000   1.0000
     1.0000   1.0000   1.0000   1.0000   1.0000   1.0000   1.0000   1.0000
     1.0000   1.0000   1.0000   1.0000   1.0000   1.0000   1.0000   1.0000
     1.0000   1.0000   1.0000   1.0000   1.0000   1.0000   1.0000   1.0000
     1.0000   1.0000   1.0000   1.0000   1.0000   1.0000   1.0000   1.0000
     1.0000   1.0000   1.0000   1.0000   1.0000   1.0000   1.0000   1.0000
     1.0000   1.0000   1.0000   1.0000   1.0000   1.0000   1.0000   1.0000
     1.0000   1.0000   1.0000   1.0000   1.0000   1.0000   1.0000   1.0000
     1.0000   1.0000   1.0000   1.0000   1.0000   1.0000   1.0000   1.0000
     1.0000   1.0000   1.0000   1.0000   1.0000   1.0000   1.0000   1.0000
     1.0000   1.0000   1.0000   1.0000   1.0000   1.0000   1.0000   1.0000
     1.0000   1.0000   1.0000   1.0000   1.0000   1.0000   1.0000   1.0000
     1.0000   1.0000   1.0000   1.0000   1.0000   1.0000   1.0000   1.0000
     1.0000   1.0000   1.0000   1.0000   1.0000   1.0000   1.0000   1.0000
     1.0000   1.0000   1.0000   1.0000   1.0000   1.0000   1.0000   1.0000
     1.0000   1.0000   1.0000   1.0000   1.0000   1.0000   1.0000   1.0000
     1.0000   1.0000   1.0000   1.0000   1.0000   1.0000   1.0000   1.0000
     1.0000   1.0000   1.0000   1.0000   1.0000   1.0000   1.0000   1.0000
     1.0000   1.0000   1.0000   1.0000   1.0000   1.0000   1.0000   1.0000
     1.0000   1.0000   1.0000   1.0000   1.0000   1.0000   1.0000   1.0000
     1.0000   1.0000   1.0000   1.0000   1.0000   1.0000   1.0000   1.0000
     1.0000   1.0000   1.0000   1.0000   1.0000   1.0000   1.0000   1.0000
     1.0000   1.0000   1.0000   1.0000   1.0000   1.0000   1.0000   1.0000
     1.0000   1.0000   1.0000   1.0000   1.0000   1.0000   1.0000   1.0000
     1.0000   1.0000   1.0000   1.0000   1.0000   1.0000   1.0000   1.0000
     1.0000   1.0000   1.0000   1.0000   1.0000   1.0000   1.0000   1.0000
     1.0000   1.0000   1.0000   1.0000   1.0000   1.0000   1.0000   1.0000
     1.0000   1.0000   1.0000   1.0000   1.0000   1.0000   1.0000   1.0000
     1.0000   1.0000   1.0000   1.0000   1.0000   1.0000   1.0000   1.0000
     1.0000   1.0000   1.0000   1.0000   1.0000   0.7170   0.5606   0.4194
     0.3091   0.2904   0.2607   0.2157   0.2022   0.0001   0.0001   0.0001
     0.0000   0.0000   0.0000   0.0000   0.0000   0.0000   0.0000   0.0000
     0.0000   0.0000   0.0000   0.0000   0.0000   0.0000   0.0000   0.0000
     0.0000   0.0000   0.0000   0.0000   0.0000   0.0000   0.0000   0.0000
     0.0000   0.0000   0.0000   0.0000   0.0000   0.0000   0.0000   0.0000
     0.0000   0.0000   0.0000   0.0000   0.0000   0.0000   0.0000   0.0000
     0.0000   0.0000   0.0000   0.0000   0.0000   0.0000   0.0000   0.0000
     0.0000   0.0000   0.0000   0.0000   0.0000   0.0000   0.0000   0.0000
     0.0000   0.0000   0.0000   0.0000   0.0000   0.0000   0.0000   0.0000
     0.0000   0.0000   0.0000   0.0000   0.0000   0.0000   0.0000   0.0000
     0.0000   0.0000   0.0000   0.0000   0.0000   0.0000   0.0000   0.0000
     0.0000   0.0000   0.0000   0.0000   0.0000   0.0000   0.0000   0.0000
     0.0000   0.0000   0.0000   0.0000   0.0000   0.0000   0.0000   0.0000
     0.0000   0.0000   0.0000   0.0000   0.0000   0.0000   0.0000   0.0000
     0.0000   0.0000   0.0000   0.0000   0.0000   0.0000   0.0000   0.0000
     0.0000   0.0000   0.0000   0.0000   0.0000   0.0000   0.0000   0.0000
     0.0000   0.0000   0.0000   0.0000   0.0000   0.0000   0.0000   0.0000
     0.0000   0.0000   0.0000   0.0000   0.0000   0.0000   0.0000   0.0000
     0.0000   0.0000   0.0000   0.0000   0.0000   0.0000   0.0000   0.0000
     0.0000   0.0000   0.0000   0.0000   0.0000   0.0000   0.0000   0.0000
     0.0000   0.0000   0.0000   0.0000   0.0000   0.0000   0.0000   0.0000
     0.0000   0.0000   0.0000   0.0000   0.0000   0.0000   0.0000   0.0000
     0.0000   0.0000   0.0000

          k =-0.3536-0.3536 0.3536 ( 68884 PWs)   bands (ev):

   -16.7714 -16.7475 -16.7213 -16.7206 -16.7168 -16.7137 -16.7131 -16.7073
   -16.7041 -16.7031 -16.7015 -16.6973 -16.6966 -16.6926 -16.6913 -16.6886
   -16.6875 -16.6867 -16.6854 -16.6818 -16.6808 -16.6793 -16.6762 -16.6752
   -16.6743 -16.6740 -16.6708 -16.6699 -16.6693 -16.6686 -16.6670 -16.6658
   -16.6646 -16.6638 -16.6618 -16.6609 -16.6599 -16.6595 -16.6593 -16.6584
   -16.6581 -16.6575 -16.6565 -16.6547 -16.6547 -16.6534 -16.6526 -16.6514
   -16.6505 -16.6496 -16.6492 -16.6489 -16.6479 -16.6471 -16.6465 -16.6463
   -16.6456 -16.6452 -16.6442 -16.6435 -16.6428 -16.6418 -16.6412 -16.6407
   -16.6401 -16.6396 -16.6386 -16.6385 -16.6377 -16.6370 -16.6363 -16.6362
   -16.6358 -16.6349 -16.6334 -16.6328 -16.6322 -16.6310 -16.6308 -16.6297
   -16.6296 -16.6292 -16.6285 -16.6274 -16.6267 -16.6254 -16.6250 -16.6244
   -16.6236 -16.6226 -16.6219 -16.6214 -16.6205 -16.6197 -16.6187 -16.6186
   -16.6183 -16.6169 -16.6165 -16.6154 -16.6152 -16.6148 -16.6138 -16.6129
   -16.6123 -16.6116 -16.6105 -16.6099 -16.6092 -16.6087 -16.6080 -16.6078
   -16.6074 -16.6059 -16.6058 -16.6045 -16.6037 -16.6034 -16.6032 -16.6026
   -16.6015 -16.6003 -16.5988 -16.5986 -16.5981 -16.5966 -16.5964 -16.5949
   -16.5943 -16.5938 -16.5933 -16.5928 -16.5920 -16.5896 -16.5889 -16.5888
   -16.5886 -16.5870 -16.5857 -16.5851 -16.5831 -16.5829 -16.5820 -16.5813
   -16.5803 -16.5784 -16.5780 -16.5774 -16.5772 -16.5762 -16.5753 -16.5739
   -16.5735 -16.5726 -16.5722 -16.5717 -16.5706 -16.5696 -16.5691 -16.5687
   -16.5684 -16.5656 -16.5651 -16.5646 -16.5637 -16.5636 -16.5626 -16.5617
   -16.5610 -16.5608 -16.5604 -16.5594 -16.5587 -16.5580 -16.5575 -16.5558
   -16.5549 -16.5544 -16.5541 -16.5532 -16.5515 -16.5506 -16.5505 -16.5501
   -16.5489 -16.5480 -16.5478 -16.5469 -16.5463 -16.5457 -16.5449 -16.5448
   -16.5442 -16.5436 -16.5430 -16.5423 -16.5419 -16.5403 -16.5395 -16.5388
   -16.5383 -16.5376 -16.5373 -16.5367 -16.5362 -16.5359 -16.5347 -16.5338
   -16.5335 -16.5332 -16.5324 -16.5314 -16.5312 -16.5304 -16.5293 -16.5286
   -16.5277 -16.5272 -16.5268 -16.5262 -16.5253 -16.5245 -16.5243 -16.5232
   -16.5231 -16.5222 -16.5215 -16.5213 -16.5200 -16.5198 -16.5192 -16.5185
   -16.5176 -16.5170 -16.5166 -16.5162 -16.5157 -16.5144 -16.5143 -16.5132
   -16.5122 -16.5119 -16.5111 -16.5105 -16.5096 -16.5094 -16.5088 -16.5087
   -16.5071 -16.5061 -16.5046 -16.5042 -16.5033 -16.5027 -16.5027 -16.5017
   -16.5012 -16.5007 -16.5002 -16.5001 -16.4987 -16.4979 -16.4975 -16.4961
   -16.4959 -16.4955 -16.4950 -16.4942 -16.4940 -16.4931 -16.4922 -16.4914
   -16.4914 -16.4901 -16.4895 -16.4893 -16.4884 -16.4879 -16.4872 -16.4865
   -16.4860 -16.4855 -16.4843 -16.4836 -16.4830 -16.4827 -16.4814 -16.4810
   -16.4806 -16.4799 -16.4797 -16.4792 -16.4785 -16.4779 -16.4773 -16.4767
   -16.4762 -16.4755 -16.4753 -16.4746 -16.4734 -16.4728 -16.4726 -16.4715
   -16.4708 -16.4696 -16.4694 -16.4687 -16.4685 -16.4678 -16.4669 -16.4658
   -16.4656 -16.4653 -16.4640 -16.4635 -16.4630 -16.4616 -16.4604 -16.4600
   -16.4591 -16.4591 -16.4580 -16.4575 -16.4567 -16.4559 -16.4551 -16.4545
   -16.4542 -16.4530 -16.4521 -16.4514 -16.4510 -16.4497 -16.4492 -16.4484
   -16.4482 -16.4478 -16.4473 -16.4468 -16.4456 -16.4448 -16.4447 -16.4440
   -16.4433 -16.4427 -16.4422 -16.4411 -16.4408 -16.4392 -16.4384 -16.4383
   -16.4377 -16.4369 -16.4368 -16.4359 -16.4353 -16.4342 -16.4332 -16.4329
   -16.4322 -16.4316 -16.4312 -16.4309 -16.4303 -16.4295 -16.4291 -16.4285
   -16.4280 -16.4274 -16.4263 -16.4258 -16.4253 -16.4252 -16.4238 -16.4234
   -16.4228 -16.4227 -16.4216 -16.4208 -16.4203 -16.4197 -16.4196 -16.4185
   -16.4182 -16.4177 -16.4165 -16.4155 -16.4151 -16.4146 -16.4144 -16.4138
   -16.4133 -16.4129 -16.4117 -16.4111 -16.4108 -16.4096 -16.4087 -16.4081
   -16.4078 -16.4073 -16.4063 -16.4061 -16.4058 -16.4049 -16.4040 -16.4034
   -16.4030 -16.4021 -16.4017 -16.4011 -16.4002 -16.3999 -16.3992 -16.3990
   -16.3984 -16.3977 -16.3974 -16.3969 -16.3965 -16.3959 -16.3946 -16.3941
   -16.3936 -16.3931 -16.3925 -16.3920 -16.3916 -16.3909 -16.3901 -16.3898
   -16.3893 -16.3884 -16.3880 -16.3879 -16.3875 -16.3872 -16.3862 -16.3860
   -16.3858 -16.3847 -16.3844 -16.3839 -16.3834 -16.3833 -16.3826 -16.3821
   -16.3818 -16.3815 -16.3811 -16.3809 -16.3801 -16.3801 -16.3789 -16.3786
   -16.3778 -16.3773 -16.3768 -16.3762 -16.3760 -16.3758 -16.3751 -16.3748
   -16.3746 -16.3734 -16.3730 -16.3726 -16.3724 -16.3715 -16.3708 -16.3703
   -16.3699 -16.3692 -16.3688 -16.3681 -16.3673 -16.3671 -16.3669 -16.3659
   -16.3656 -16.3646 -16.3642 -16.3635 -16.3634 -16.3629 -16.3619 -16.3617
   -16.3611 -16.3603 -16.3595 -16.3584 -16.3578 -16.3571 -16.3566 -16.3555
   -16.3550 -16.3538 -16.3533 -16.3525 -16.3524 -16.3518 -16.3515 -16.3509
   -16.3492 -16.3481 -16.3476 -16.3462 -16.3449 -16.3442 -16.3434 -16.3424
   -16.3419 -16.3416 -16.3398 -16.3394 -16.3387 -16.3372 -16.3350 -16.3347
   -16.3344 -16.3334 -16.3326 -16.3318 -16.3312 -16.3308 -16.3301 -16.3297
   -16.3291 -16.3277 -16.3267 -16.3261 -16.3252 -16.3248 -16.3240 -16.3236
   -16.3231 -16.3224 -16.3216 -16.3208 -16.3195 -16.3192 -16.3187 -16.3185
   -16.3182 -16.3174 -16.3167 -16.3165 -16.3159 -16.3145 -16.3141 -16.3133
   -16.3126 -16.3122 -16.3110 -16.3109 -16.3107 -16.3101 -16.3097 -16.3093
   -16.3089 -16.3075 -16.3071 -16.3068 -16.3064 -16.3062 -16.3053 -16.3045
   -16.3038 -16.3032 -16.3027 -16.3022 -16.3016 -16.3009 -16.3005 -16.3001
   -16.2994 -16.2989 -16.2983 -16.2980 -16.2978 -16.2972 -16.2970 -16.2966
   -16.2960 -16.2956 -16.2950 -16.2948 -16.2944 -16.2941 -16.2933 -16.2931
   -16.2924 -16.2917 -16.2917 -16.2911 -16.2905 -16.2901 -16.2896 -16.2891
   -16.2884 -16.2881 -16.2876 -16.2869 -16.2866 -16.2859 -16.2851 -16.2847
   -16.2839 -16.2833 -16.2830 -16.2819 -16.2814 -16.2814 -16.2799 -16.2791
   -16.2789 -16.2776 -16.2768 -16.2751 -16.2747 -16.2739 -16.2730 -16.2713
   -16.2703 -16.2694 -16.2686 -16.2674 -16.2666 -16.2662 -16.2652 -16.2623
   -16.2616 -16.2594 -16.2572 -16.2554 -16.2540 -16.2515 -16.2500 -16.2476
    -4.3458  -4.3269  -3.8973  -3.8574  -3.8434  -3.8194  -3.8111  -3.7911
    -3.4390  -3.3924  -3.3876  -3.3578  -3.3364  -3.3271  -3.0192  -2.9864
    -2.9322  -2.8867  -2.8649  -2.8531  -2.8437  -2.8247  -2.5559  -2.5458
    -2.5329  -2.5313  -2.5154  -2.5061  -2.4751  -2.4646  -2.4554  -2.4497
    -2.4138  -2.3963  -2.3599  -2.3486  -2.3328  -2.3222  -2.3080  -2.2645
    -1.9377  -1.9149  -1.8986  -1.8628  -1.8544  -1.8384  -1.5415  -1.5115
    -1.5019  -1.4724  -1.4514  -1.4336  -1.4082  -1.3872  -1.3710  -1.3506
    -1.3467  -1.3333  -1.3153  -1.3103  -1.2928  -1.2725  -1.2573  -1.2281
     0.0877   0.1172   0.1265   0.1427   0.1520   0.1656   0.1802   0.1943
     0.2168   0.2236   0.2351   0.2415   0.2488   0.2629   0.2961   0.3184
     0.3332   0.3604   0.5847   0.6211   0.6550   0.6796   0.6936   0.7071
     0.7347   0.7450   0.7744   0.7935   0.8090   0.8345   1.2929   1.3116
     1.3477   1.3494   1.3746   1.3843   1.4023   1.4257   1.4449   1.4575
     1.4786   1.5164   1.5973   1.6102   2.1148   2.1177   2.1598   2.1759
     2.2045   2.2388   2.6517   2.6896   2.6982   2.7256   2.7498   2.7618
     3.9035   3.9339   3.9485   3.9754   3.9929   4.0115   4.0286   4.0300
     4.0500   4.0533   4.0624   4.0701   4.0800   4.0885   4.0971   4.1007
     4.1114   4.1186   4.1321   4.1347   4.1401   4.1442   4.1525   4.1718
     4.6015   4.6090   4.6210   4.6356   4.6465   4.6516   4.6597   4.6655
     4.6726   4.6906   4.6933   4.6952   4.7023   4.7098   4.7167   4.7305
     4.7354   4.7571   5.0911   5.0986   5.1131   5.1219   5.1349   5.1386
     5.1453   5.1628   5.1686   5.1772   5.1822   5.1891   5.2965   5.3091
     5.3178   5.3197   5.3367   5.3411   5.3544   5.3575   5.3676   5.3976
     5.4135   5.4169   5.5383   5.5625   5.5827   5.5955   5.6056   5.6157
     5.6607   5.6759   5.6843   5.6880   5.7056   5.7093   5.8111   5.8158
     5.8253   5.8466   5.8629   5.8667   5.8831   5.8946   6.0657   6.0864
     6.0974   6.1115   6.1227   6.1350   6.1372   6.1501   6.1583   6.1632
     6.1753   6.1809   6.1853   6.2068   6.2117   6.2219   6.2238   6.2446
     6.4332   6.4410   6.4653   6.4722   6.4919   6.4987   6.6742   6.7102
     6.7220   6.7302   6.7639   6.7687   6.7734   6.7903   6.8085   6.8171
     6.8305   6.8422   6.9215   6.9384   7.0172   7.0279   7.2519   7.2728
     7.2946   7.3175   7.3282   7.3505   7.8374   7.8463   7.9359   7.9529
     8.4044   8.4302   8.9757   8.9889   9.0023   9.0125   9.0395   9.0579
     9.1587   9.1770   9.3424   9.3716   9.3930   9.4107   9.4159   9.4269
     9.5051   9.5330   9.5443   9.5605   9.5754   9.5792   9.6874   9.7041
     9.7149   9.7326   9.7432   9.7649   9.7739   9.7805   9.8059   9.8179
     9.8373   9.8652  10.0120  10.0236  10.0380  10.0584  10.0688  10.0834
    10.0947  10.1007  10.1157  10.1290  10.1407  10.1448  10.3644  10.3950
    10.4016  10.4091  10.4364  10.4453  10.4542  10.4550  10.4618  10.4897
    10.4944  10.5016  10.5442  10.5606  10.5685  10.5809  10.5943  10.6002
    10.6091  10.6232  10.6302  10.6331  10.6686  10.6698  10.7313  10.7663
    10.7721  10.7840  10.8037  10.8273  10.8347  10.8536  10.8588  10.8863
    10.8902  10.9026  11.1405  11.1539  11.2265  11.2438  11.4993  11.5400
    11.5512  11.5568  11.5670  11.5888  11.5921  11.5927  11.6110  11.6194
    11.6351  11.6384  11.6487  11.6614  11.6783  11.6908  11.6964  11.7098
    11.7210  11.7587  11.8758  11.8871  11.9324  11.9468  11.9645  11.9793
    11.9920  12.0162  12.0366  12.0551  12.0613  12.0945  12.1111  12.1198
    12.1433  12.1552  12.2896  12.2975  12.3193  12.3294  12.3437  12.3493
    12.3603  12.3714  12.3899  12.3967  12.4071  12.4298  12.6236  12.6442
    12.6672  12.6786  12.6858  12.6948  12.7258  12.7531  12.7668  12.7820
    12.7957  12.8465  12.9383  12.9627  12.9830  12.9879  12.9979  13.0017
    13.0052  13.0197  13.0210  13.0311  13.0392  13.0453  13.0480  13.0567
    13.0657  13.0742  13.0858  13.0902  13.1161  13.1345  13.1430  13.1631
    13.1865  13.1933  13.2052  13.2136  13.2232  13.2274  13.2476  13.2542
    13.2665  13.2780  13.2887

     occupation numbers 
     1.0000   1.0000   1.0000   1.0000   1.0000   1.0000   1.0000   1.0000
     1.0000   1.0000   1.0000   1.0000   1.0000   1.0000   1.0000   1.0000
     1.0000   1.0000   1.0000   1.0000   1.0000   1.0000   1.0000   1.0000
     1.0000   1.0000   1.0000   1.0000   1.0000   1.0000   1.0000   1.0000
     1.0000   1.0000   1.0000   1.0000   1.0000   1.0000   1.0000   1.0000
     1.0000   1.0000   1.0000   1.0000   1.0000   1.0000   1.0000   1.0000
     1.0000   1.0000   1.0000   1.0000   1.0000   1.0000   1.0000   1.0000
     1.0000   1.0000   1.0000   1.0000   1.0000   1.0000   1.0000   1.0000
     1.0000   1.0000   1.0000   1.0000   1.0000   1.0000   1.0000   1.0000
     1.0000   1.0000   1.0000   1.0000   1.0000   1.0000   1.0000   1.0000
     1.0000   1.0000   1.0000   1.0000   1.0000   1.0000   1.0000   1.0000
     1.0000   1.0000   1.0000   1.0000   1.0000   1.0000   1.0000   1.0000
     1.0000   1.0000   1.0000   1.0000   1.0000   1.0000   1.0000   1.0000
     1.0000   1.0000   1.0000   1.0000   1.0000   1.0000   1.0000   1.0000
     1.0000   1.0000   1.0000   1.0000   1.0000   1.0000   1.0000   1.0000
     1.0000   1.0000   1.0000   1.0000   1.0000   1.0000   1.0000   1.0000
     1.0000   1.0000   1.0000   1.0000   1.0000   1.0000   1.0000   1.0000
     1.0000   1.0000   1.0000   1.0000   1.0000   1.0000   1.0000   1.0000
     1.0000   1.0000   1.0000   1.0000   1.0000   1.0000   1.0000   1.0000
     1.0000   1.0000   1.0000   1.0000   1.0000   1.0000   1.0000   1.0000
     1.0000   1.0000   1.0000   1.0000   1.0000   1.0000   1.0000   1.0000
     1.0000   1.0000   1.0000   1.0000   1.0000   1.0000   1.0000   1.0000
     1.0000   1.0000   1.0000   1.0000   1.0000   1.0000   1.0000   1.0000
     1.0000   1.0000   1.0000   1.0000   1.0000   1.0000   1.0000   1.0000
     1.0000   1.0000   1.0000   1.0000   1.0000   1.0000   1.0000   1.0000
     1.0000   1.0000   1.0000   1.0000   1.0000   1.0000   1.0000   1.0000
     1.0000   1.0000   1.0000   1.0000   1.0000   1.0000   1.0000   1.0000
     1.0000   1.0000   1.0000   1.0000   1.0000   1.0000   1.0000   1.0000
     1.0000   1.0000   1.0000   1.0000   1.0000   1.0000   1.0000   1.0000
     1.0000   1.0000   1.0000   1.0000   1.0000   1.0000   1.0000   1.0000
     1.0000   1.0000   1.0000   1.0000   1.0000   1.0000   1.0000   1.0000
     1.0000   1.0000   1.0000   1.0000   1.0000   1.0000   1.0000   1.0000
     1.0000   1.0000   1.0000   1.0000   1.0000   1.0000   1.0000   1.0000
     1.0000   1.0000   1.0000   1.0000   1.0000   1.0000   1.0000   1.0000
     1.0000   1.0000   1.0000   1.0000   1.0000   1.0000   1.0000   1.0000
     1.0000   1.0000   1.0000   1.0000   1.0000   1.0000   1.0000   1.0000
     1.0000   1.0000   1.0000   1.0000   1.0000   1.0000   1.0000   1.0000
     1.0000   1.0000   1.0000   1.0000   1.0000   1.0000   1.0000   1.0000
     1.0000   1.0000   1.0000   1.0000   1.0000   1.0000   1.0000   1.0000
     1.0000   1.0000   1.0000   1.0000   1.0000   1.0000   1.0000   1.0000
     1.0000   1.0000   1.0000   1.0000   1.0000   1.0000   1.0000   1.0000
     1.0000   1.0000   1.0000   1.0000   1.0000   1.0000   1.0000   1.0000
     1.0000   1.0000   1.0000   1.0000   1.0000   1.0000   1.0000   1.0000
     1.0000   1.0000   1.0000   1.0000   1.0000   1.0000   1.0000   1.0000
     1.0000   1.0000   1.0000   1.0000   1.0000   1.0000   1.0000   1.0000
     1.0000   1.0000   1.0000   1.0000   1.0000   1.0000   1.0000   1.0000
     1.0000   1.0000   1.0000   1.0000   1.0000   1.0000   1.0000   1.0000
     1.0000   1.0000   1.0000   1.0000   1.0000   1.0000   1.0000   1.0000
     1.0000   1.0000   1.0000   1.0000   1.0000   1.0000   1.0000   1.0000
     1.0000   1.0000   1.0000   1.0000   1.0000   1.0000   1.0000   1.0000
     1.0000   1.0000   1.0000   1.0000   1.0000   1.0000   1.0000   1.0000
     1.0000   1.0000   1.0000   1.0000   1.0000   1.0000   1.0000   1.0000
     1.0000   1.0000   1.0000   1.0000   1.0000   1.0000   1.0000   1.0000
     1.0000   1.0000   1.0000   1.0000   1.0000   1.0000   1.0000   1.0000
     1.0000   1.0000   1.0000   1.0000   1.0000   1.0000   1.0000   1.0000
     1.0000   1.0000   1.0000   1.0000   1.0000   1.0000   1.0000   1.0000
     1.0000   1.0000   1.0000   1.0000   1.0000   1.0000   1.0000   1.0000
     1.0000   1.0000   1.0000   1.0000   1.0000   1.0000   1.0000   1.0000
     1.0000   1.0000   1.0000   1.0000   1.0000   1.0000   1.0000   1.0000
     1.0000   1.0000   1.0000   1.0000   1.0000   1.0000   1.0000   1.0000
     1.0000   1.0000   1.0000   1.0000   1.0000   1.0000   1.0000   1.0000
     1.0000   1.0000   1.0000   1.0000   1.0000   1.0000   1.0000   1.0000
     1.0000   1.0000   1.0000   1.0000   1.0000   1.0000   1.0000   1.0000
     1.0000   1.0000   1.0000   1.0000   1.0000   1.0000   1.0000   1.0000
     1.0000   1.0000   1.0000   1.0000   1.0000   1.0000   1.0000   1.0000
     1.0000   1.0000   1.0000   1.0000   1.0000   1.0000   1.0000   1.0000
     1.0000   1.0000   1.0000   1.0000   1.0000   1.0000   1.0000   1.0000
     1.0000   1.0000   1.0000   1.0000   1.0000   1.0000   1.0000   1.0000
     1.0000   1.0000   1.0000   1.0000   1.0000   1.0000   1.0000   1.0000
     1.0000   1.0000   1.0000   1.0000   1.0000   1.0000   1.0000   1.0000
     1.0000   1.0000   1.0000   1.0000   1.0000   1.0000   1.0000   1.0000
     1.0000   1.0000   1.0000   1.0000   1.0000   1.0000   1.0000   1.0000
     1.0000   1.0000   1.0000   1.0000   1.0000   1.0000   1.0000   1.0000
     1.0000   1.0000   1.0000   1.0000   1.0000   1.0000   1.0000   1.0000
     1.0000   1.0000   1.0000   1.0000   1.0000   1.0000   1.0000   1.0000
     1.0000   1.0000   1.0000   1.0000   1.0000   1.0000   1.0000   1.0000
     1.0000   1.0000   1.0000   1.0000   1.0000   1.0000   1.0000   1.0000
     1.0000   1.0000   1.0000   1.0000   1.0000   1.0000   1.0000   1.0000
     1.0000   1.0000   1.0000   1.0000   1.0000   1.0000   1.0000   1.0000
     1.0000   1.0000   1.0000   1.0000   1.0000   1.0000   1.0000   1.0000
     1.0000   1.0000   1.0000   1.0000   1.0000   1.0000   1.0000   1.0000
     1.0000   1.0000   1.0000   1.0000   1.0000   1.0000   1.0000   1.0000
     1.0000   1.0000   1.0000   1.0000   1.0000   1.0000   1.0000   1.0000
     1.0000   1.0000   1.0000   1.0000   1.0000   1.0000   1.0000   1.0000
     1.0000   1.0000   1.0000   1.0000   1.0000   1.0000   1.0000   1.0000
     1.0000   1.0000   1.0000   1.0000   1.0000   1.0000   1.0000   1.0000
     1.0000   1.0000   1.0000   1.0000   1.0000   1.0000   1.0000   1.0000
     1.0000   1.0000   1.0000   1.0000   1.0000   1.0000   1.0000   1.0000
     1.0000   1.0000   1.0000   1.0000   1.0000   1.0000   1.0000   1.0000
     1.0000   1.0000   1.0000   1.0000   1.0000   1.0000   1.0000   1.0000
     1.0000   1.0000   1.0000   1.0000   1.0000   1.0000   1.0000   1.0000
     1.0000   1.0000   1.0000   1.0000   1.0000   1.0000   1.0000   1.0000
     1.0000   1.0000   1.0000   1.0000   1.0000   1.0000   1.0000   1.0000
     1.0000   1.0000   1.0000   1.0000   1.0000   1.0000   1.0000   1.0000
     1.0000   1.0000   1.0000   1.0000   1.0000   1.0000   1.0000   1.0000
     1.0000   1.0000   1.0000   1.0000   1.0000   1.0000   1.0000   1.0000
     1.0000   1.0000   1.0000   1.0000   1.0000   1.0000   1.0000   1.0000
     1.0000   1.0000   1.0000   1.0000   1.0000   1.0000   1.0000   1.0000
     1.0000   1.0000   1.0000   1.0000   1.0000   1.0000   1.0000   1.0000
     1.0000   1.0000   1.0000   1.0000   1.0000   1.0000   1.0000   1.0000
     1.0000   1.0000   1.0000   1.0000   1.0000   1.0000   1.0000   1.0000
     1.0000   1.0000   1.0000   1.0000   1.0000   1.0000   1.0000   1.0000
     1.0000   1.0000   1.0000   1.0000   1.0000   1.0000   1.0000   1.0000
     1.0000   1.0000   1.0000   1.0000   1.0000   1.0000   1.0000   1.0000
     1.0000   1.0000   1.0000   1.0000   1.0000   1.0000   1.0000   1.0000
     1.0000   1.0000   1.0000   1.0000   1.0000   1.0000   1.0000   1.0000
     1.0000   1.0000   1.0000   1.0000   1.0000   1.0000   1.0000   1.0000
     1.0000   1.0000   1.0000   1.0000   1.0000   1.0000   1.0000   1.0000
     1.0000   1.0000   1.0000   1.0000   1.0000   1.0000   1.0000   1.0000
     1.0000   1.0000   1.0000   1.0000   1.0000   1.0000   1.0000   1.0000
     1.0000   1.0000   1.0000   1.0000   1.0000   1.0000   1.0000   1.0000
     1.0000   1.0000   1.0000   1.0000   0.9954   0.9945   0.9726   0.9643
     0.0924   0.0662   0.0000   0.0000   0.0000   0.0000   0.0000   0.0000
     0.0000   0.0000   0.0000   0.0000   0.0000   0.0000   0.0000   0.0000
     0.0000   0.0000   0.0000   0.0000   0.0000   0.0000   0.0000   0.0000
     0.0000   0.0000   0.0000   0.0000   0.0000   0.0000   0.0000   0.0000
     0.0000   0.0000   0.0000   0.0000   0.0000   0.0000   0.0000   0.0000
     0.0000   0.0000   0.0000   0.0000   0.0000   0.0000   0.0000   0.0000
     0.0000   0.0000   0.0000   0.0000   0.0000   0.0000   0.0000   0.0000
     0.0000   0.0000   0.0000   0.0000   0.0000   0.0000   0.0000   0.0000
     0.0000   0.0000   0.0000   0.0000   0.0000   0.0000   0.0000   0.0000
     0.0000   0.0000   0.0000   0.0000   0.0000   0.0000   0.0000   0.0000
     0.0000   0.0000   0.0000   0.0000   0.0000   0.0000   0.0000   0.0000
     0.0000   0.0000   0.0000   0.0000   0.0000   0.0000   0.0000   0.0000
     0.0000   0.0000   0.0000   0.0000   0.0000   0.0000   0.0000   0.0000
     0.0000   0.0000   0.0000   0.0000   0.0000   0.0000   0.0000   0.0000
     0.0000   0.0000   0.0000   0.0000   0.0000   0.0000   0.0000   0.0000
     0.0000   0.0000   0.0000   0.0000   0.0000   0.0000   0.0000   0.0000
     0.0000   0.0000   0.0000   0.0000   0.0000   0.0000   0.0000   0.0000
     0.0000   0.0000   0.0000   0.0000   0.0000   0.0000   0.0000   0.0000
     0.0000   0.0000   0.0000   0.0000   0.0000   0.0000   0.0000   0.0000
     0.0000   0.0000   0.0000   0.0000   0.0000   0.0000   0.0000   0.0000
     0.0000   0.0000   0.0000   0.0000   0.0000   0.0000   0.0000   0.0000
     0.0000   0.0000   0.0000   0.0000   0.0000   0.0000   0.0000   0.0000
     0.0000   0.0000   0.0000

          k =-0.7071 0.0000 0.0000 ( 68952 PWs)   bands (ev):

   -16.7713 -16.7475 -16.7214 -16.7204 -16.7164 -16.7138 -16.7129 -16.7076
   -16.7042 -16.7027 -16.7011 -16.6975 -16.6971 -16.6924 -16.6915 -16.6887
   -16.6877 -16.6872 -16.6844 -16.6819 -16.6807 -16.6799 -16.6763 -16.6748
   -16.6746 -16.6741 -16.6704 -16.6702 -16.6693 -16.6692 -16.6665 -16.6657
   -16.6643 -16.6637 -16.6621 -16.6619 -16.6602 -16.6595 -16.6592 -16.6584
   -16.6579 -16.6562 -16.6558 -16.6548 -16.6541 -16.6535 -16.6530 -16.6526
   -16.6505 -16.6497 -16.6492 -16.6490 -16.6484 -16.6472 -16.6465 -16.6459
   -16.6453 -16.6447 -16.6440 -16.6432 -16.6432 -16.6419 -16.6415 -16.6407
   -16.6402 -16.6393 -16.6392 -16.6380 -16.6375 -16.6371 -16.6364 -16.6361
   -16.6358 -16.6345 -16.6337 -16.6328 -16.6323 -16.6312 -16.6307 -16.6304
   -16.6298 -16.6294 -16.6283 -16.6277 -16.6265 -16.6261 -16.6254 -16.6245
   -16.6237 -16.6220 -16.6213 -16.6211 -16.6210 -16.6208 -16.6196 -16.6194
   -16.6176 -16.6170 -16.6163 -16.6152 -16.6148 -16.6135 -16.6132 -16.6130
   -16.6124 -16.6118 -16.6112 -16.6099 -16.6094 -16.6085 -16.6080 -16.6078
   -16.6076 -16.6063 -16.6053 -16.6049 -16.6039 -16.6031 -16.6024 -16.6020
   -16.6018 -16.6006 -16.5992 -16.5989 -16.5971 -16.5966 -16.5961 -16.5959
   -16.5955 -16.5943 -16.5920 -16.5912 -16.5904 -16.5898 -16.5882 -16.5877
   -16.5872 -16.5866 -16.5859 -16.5852 -16.5842 -16.5835 -16.5831 -16.5806
   -16.5800 -16.5797 -16.5792 -16.5784 -16.5780 -16.5765 -16.5760 -16.5752
   -16.5745 -16.5729 -16.5720 -16.5715 -16.5707 -16.5698 -16.5686 -16.5684
   -16.5672 -16.5661 -16.5648 -16.5647 -16.5635 -16.5630 -16.5629 -16.5615
   -16.5609 -16.5604 -16.5600 -16.5596 -16.5588 -16.5577 -16.5566 -16.5563
   -16.5554 -16.5537 -16.5526 -16.5522 -16.5517 -16.5513 -16.5505 -16.5495
   -16.5487 -16.5479 -16.5477 -16.5469 -16.5465 -16.5460 -16.5451 -16.5442
   -16.5440 -16.5428 -16.5425 -16.5416 -16.5410 -16.5403 -16.5398 -16.5392
   -16.5380 -16.5371 -16.5367 -16.5359 -16.5355 -16.5355 -16.5347 -16.5339
   -16.5334 -16.5318 -16.5315 -16.5314 -16.5310 -16.5308 -16.5296 -16.5287
   -16.5285 -16.5275 -16.5269 -16.5259 -16.5252 -16.5250 -16.5247 -16.5236
   -16.5230 -16.5226 -16.5221 -16.5214 -16.5207 -16.5198 -16.5192 -16.5182
   -16.5177 -16.5169 -16.5164 -16.5160 -16.5149 -16.5144 -16.5135 -16.5132
   -16.5127 -16.5117 -16.5106 -16.5103 -16.5098 -16.5092 -16.5083 -16.5077
   -16.5069 -16.5059 -16.5058 -16.5054 -16.5048 -16.5032 -16.5030 -16.5029
   -16.5021 -16.5016 -16.5010 -16.5002 -16.5000 -16.4994 -16.4987 -16.4980
   -16.4973 -16.4966 -16.4963 -16.4957 -16.4949 -16.4940 -16.4937 -16.4933
   -16.4916 -16.4914 -16.4909 -16.4906 -16.4889 -16.4880 -16.4878 -16.4868
   -16.4860 -16.4856 -16.4854 -16.4841 -16.4833 -16.4828 -16.4821 -16.4814
   -16.4810 -16.4803 -16.4799 -16.4785 -16.4781 -16.4774 -16.4771 -16.4762
   -16.4753 -16.4746 -16.4741 -16.4727 -16.4725 -16.4723 -16.4718 -16.4703
   -16.4698 -16.4697 -16.4689 -16.4685 -16.4673 -16.4666 -16.4653 -16.4647
   -16.4642 -16.4639 -16.4627 -16.4619 -16.4617 -16.4611 -16.4607 -16.4599
   -16.4587 -16.4575 -16.4574 -16.4569 -16.4562 -16.4554 -16.4549 -16.4544
   -16.4536 -16.4526 -16.4520 -16.4514 -16.4511 -16.4503 -16.4500 -16.4489
   -16.4482 -16.4482 -16.4474 -16.4468 -16.4464 -16.4461 -16.4453 -16.4449
   -16.4435 -16.4427 -16.4420 -16.4417 -16.4410 -16.4404 -16.4391 -16.4388
   -16.4382 -16.4372 -16.4364 -16.4363 -16.4349 -16.4346 -16.4338 -16.4329
   -16.4321 -16.4314 -16.4306 -16.4301 -16.4293 -16.4288 -16.4285 -16.4280
[...]
     atom   77 type  1   force =   0.00000000E+00  0.00000000E+00  0.00000000E+00
     atom   78 type  1   force =   0.00000000E+00  0.00000000E+00  0.00000000E+00
     atom   79 type  1   force =   0.00000000E+00  0.00000000E+00  0.00000000E+00
     atom   80 type  1   force =   0.00000000E+00  0.00000000E+00  0.00000000E+00
     atom   81 type  1   force =   0.00000000E+00  0.00000000E+00  0.00000000E+00
     atom   82 type  1   force =   0.00000000E+00  0.00000000E+00  0.00000000E+00
     atom   83 type  1   force =   0.00000000E+00  0.00000000E+00  0.00000000E+00
     atom   84 type  1   force =   0.00000000E+00  0.00000000E+00  0.00000000E+00
     atom   85 type  1   force =   0.00000000E+00  0.00000000E+00  0.00000000E+00
     atom   86 type  1   force =   0.00000000E+00  0.00000000E+00  0.00000000E+00
     atom   87 type  1   force =   0.00000000E+00  0.00000000E+00  0.00000000E+00
     atom   88 type  1   force =   0.00000000E+00  0.00000000E+00  0.00000000E+00
     atom   89 type  1   force =   0.00000000E+00  0.00000000E+00  0.00000000E+00
     atom   90 type  1   force =   0.00000000E+00  0.00000000E+00  0.00000000E+00
     atom   91 type  1   force =   0.00000000E+00  0.00000000E+00  0.00000000E+00
     atom   92 type  1   force =   0.00000000E+00  0.00000000E+00  0.00000000E+00
     atom   93 type  1   force =   0.00000000E+00  0.00000000E+00  0.00000000E+00
     atom   94 type  1   force =   0.00000000E+00  0.00000000E+00  0.00000000E+00
     atom   95 type  1   force =   0.00000000E+00  0.00000000E+00  0.00000000E+00
     atom   96 type  1   force =   0.00000000E+00  0.00000000E+00  0.00000000E+00
     atom   97 type  1   force =   0.00000000E+00  0.00000000E+00  0.00000000E+00
     atom   98 type  1   force =   0.00000000E+00  0.00000000E+00  0.00000000E+00
     atom   99 type  1   force =   0.00000000E+00  0.00000000E+00  0.00000000E+00
     atom  100 type  1   force =   0.00000000E+00  0.00000000E+00  0.00000000E+00
     atom  101 type  1   force =   0.00000000E+00  0.00000000E+00  0.00000000E+00
     atom  102 type  1   force =   0.00000000E+00  0.00000000E+00  0.00000000E+00
     atom  103 type  1   force =   0.00000000E+00  0.00000000E+00  0.00000000E+00
     atom  104 type  1   force =   0.00000000E+00  0.00000000E+00  0.00000000E+00
     atom  105 type  1   force =   0.00000000E+00  0.00000000E+00  0.00000000E+00
     atom  106 type  1   force =   0.00000000E+00  0.00000000E+00  0.00000000E+00
     atom  107 type  1   force =   0.00000000E+00  0.00000000E+00  0.00000000E+00
     atom  108 type  1   force =   0.00000000E+00  0.00000000E+00  0.00000000E+00
     atom  109 type  1   force =   0.00000000E+00  0.00000000E+00  0.00000000E+00
     atom  110 type  1   force =   0.00000000E+00  0.00000000E+00  0.00000000E+00
     atom  111 type  1   force =   0.00000000E+00  0.00000000E+00  0.00000000E+00
     atom  112 type  1   force =   0.00000000E+00  0.00000000E+00  0.00000000E+00
     atom  113 type  1   force =   0.00000000E+00  0.00000000E+00  0.00000000E+00
     atom  114 type  1   force =   0.00000000E+00  0.00000000E+00  0.00000000E+00
     atom  115 type  1   force =   0.00000000E+00  0.00000000E+00  0.00000000E+00
     atom  116 type  1   force =   0.00000000E+00  0.00000000E+00  0.00000000E+00
     atom  117 type  1   force =   0.00000000E+00  0.00000000E+00  0.00000000E+00
     atom  118 type  1   force =   0.00000000E+00  0.00000000E+00  0.00000000E+00
     atom  119 type  1   force =   0.00000000E+00  0.00000000E+00  0.00000000E+00
     atom  120 type  1   force =   0.00000000E+00  0.00000000E+00  0.00000000E+00
     atom  121 type  1   force =   0.00000000E+00  0.00000000E+00  0.00000000E+00
     atom  122 type  1   force =   0.00000000E+00  0.00000000E+00  0.00000000E+00
     atom  123 type  1   force =   0.00000000E+00  0.00000000E+00  0.00000000E+00
     atom  124 type  1   force =   0.00000000E+00  0.00000000E+00  0.00000000E+00
     atom  125 type  1   force =   0.00000000E+00  0.00000000E+00  0.00000000E+00
     atom  126 type  1   force =   0.00000000E+00  0.00000000E+00  0.00000000E+00
     atom  127 type  1   force =   0.00000000E+00  0.00000000E+00  0.00000000E+00
     atom  128 type  1   force =   0.00000000E+00  0.00000000E+00  0.00000000E+00
     The SCF correction term to forces
     atom    1 type  1   force =  -0.48944271E-05  0.36791612E-05  0.53638304E-05
     atom    2 type  1   force =   0.38763752E-05  0.38439915E-06 -0.29189143E-05
     atom    3 type  1   force =  -0.50508012E-05  0.26356485E-05 -0.13698334E-05
     atom    4 type  1   force =  -0.33654968E-05 -0.69341616E-05 -0.16394518E-05
     atom    5 type  1   force =  -0.26862436E-05  0.65128710E-05  0.66011189E-05
     atom    6 type  1   force =   0.91427840E-05  0.37750403E-05 -0.13567975E-05
     atom    7 type  1   force =  -0.50834114E-05  0.89241314E-05 -0.20299589E-05
     atom    8 type  1   force =  -0.33225422E-05 -0.52231681E-05  0.97390866E-06
     atom    9 type  1   force =  -0.98074956E-05 -0.27749696E-05  0.49359025E-05
     atom   10 type  1   force =  -0.15463826E-05  0.14174604E-06 -0.33334205E-05
     atom   11 type  1   force =   0.40544466E-05  0.73766792E-05  0.58641257E-05
     atom   12 type  1   force =   0.23290417E-05  0.25552651E-05  0.52039077E-05
     atom   13 type  1   force =  -0.43741696E-05 -0.29381644E-05  0.61100887E-05
     atom   14 type  1   force =  -0.56146164E-06 -0.26984023E-06 -0.87252398E-05
     atom   15 type  1   force =   0.21194357E-05  0.53953961E-05  0.89832242E-06
     atom   16 type  1   force =  -0.35424298E-05 -0.38135780E-06  0.84024033E-07
     atom   17 type  1   force =  -0.70386033E-05  0.61937710E-05  0.10444357E-04
     atom   18 type  1   force =   0.54881325E-05  0.54648052E-05  0.23787083E-05
     atom   19 type  1   force =  -0.69908333E-06  0.71583860E-05 -0.48569524E-06
     atom   20 type  1   force =  -0.19385847E-05 -0.10499274E-04  0.92851592E-06
     atom   21 type  1   force =  -0.20318187E-05 -0.40133630E-06  0.53328618E-05
     atom   22 type  1   force =   0.50179773E-05 -0.38658135E-06 -0.20977712E-05
     atom   23 type  1   force =  -0.36725937E-05  0.25315187E-05 -0.22246728E-05
     atom   24 type  1   force =  -0.20158268E-05 -0.30575540E-05 -0.83831984E-06
     atom   25 type  1   force =  -0.73723938E-05 -0.33641602E-05  0.76217033E-05
     atom   26 type  1   force =  -0.40647002E-06  0.27391347E-05 -0.37088742E-05
     atom   27 type  1   force =  -0.20367652E-05  0.53359438E-05  0.18590653E-06
     atom   28 type  1   force =  -0.16412677E-05 -0.26404475E-05 -0.10619500E-05
     atom   29 type  1   force =  -0.79315615E-05 -0.55804168E-05  0.19277431E-05
     atom   30 type  1   force =   0.32351069E-05 -0.69612214E-06 -0.62089842E-05
     atom   31 type  1   force =   0.37340358E-05  0.12346516E-04  0.82935074E-05
     atom   32 type  1   force =   0.34874663E-05 -0.62622268E-06  0.32125633E-05
     atom   33 type  1   force =  -0.59033471E-05 -0.56335800E-05 -0.30127664E-05
     atom   34 type  1   force =  -0.22813140E-05  0.30364077E-05  0.10332454E-05
     atom   35 type  1   force =   0.51491013E-05  0.68509443E-05  0.40479351E-05
     atom   36 type  1   force =  -0.33778003E-05  0.33274497E-05  0.96919767E-05
     atom   37 type  1   force =  -0.58142460E-05 -0.12550940E-05 -0.22649983E-05
     atom   38 type  1   force =  -0.28060542E-06  0.28513158E-05 -0.23493512E-05
     atom   39 type  1   force =   0.44924157E-05  0.21056279E-05 -0.49018189E-05
     atom   40 type  1   force =  -0.37403750E-05  0.79343598E-06  0.60376090E-05
     atom   41 type  1   force =   0.37421104E-05 -0.59744959E-06  0.82790673E-05
     atom   42 type  1   force =   0.35959004E-06  0.70976388E-05  0.49568179E-05
     atom   43 type  1   force =   0.21647672E-05 -0.41065797E-05 -0.27114602E-05
     atom   44 type  1   force =  -0.65057293E-05  0.22832549E-06  0.26318510E-06
     atom   45 type  1   force =  -0.29121904E-05 -0.51109809E-05  0.37326185E-05
     atom   46 type  1   force =   0.22104765E-05  0.56561639E-05 -0.51219772E-05
     atom   47 type  1   force =   0.26718129E-05 -0.26581926E-05 -0.61416641E-05
     atom   48 type  1   force =  -0.60201353E-05  0.16285251E-05  0.10353131E-06
     atom   49 type  1   force =  -0.53376744E-05 -0.27131341E-05 -0.56016513E-06
     atom   50 type  1   force =  -0.30149772E-05 -0.18544320E-05  0.15435369E-05
     atom   51 type  1   force =   0.38711861E-05  0.82720134E-06 -0.29999215E-05
     atom   52 type  1   force =  -0.37537295E-05 -0.45482382E-05  0.69012156E-05
     atom   53 type  1   force =  -0.23444958E-05 -0.64143682E-05 -0.47539499E-05
     atom   54 type  1   force =   0.27288866E-05  0.87177555E-06 -0.20501933E-05
     atom   55 type  1   force =   0.79056561E-05  0.47688516E-05 -0.34968054E-05
     atom   56 type  1   force =   0.15944443E-05  0.44442629E-05  0.91495932E-05
     atom   57 type  1   force =   0.10284525E-05 -0.41870193E-05  0.97785873E-06
     atom   58 type  1   force =  -0.23542819E-05  0.57058736E-05  0.55489770E-06
     atom   59 type  1   force =   0.14623222E-06 -0.33772075E-05 -0.53288170E-05
     atom   60 type  1   force =  -0.83981963E-05 -0.11777768E-05  0.32998133E-05
     atom   61 type  1   force =   0.19875863E-05  0.17472171E-05  0.56761114E-05
     atom   62 type  1   force =   0.50810839E-05  0.89387967E-05  0.38186015E-05
     atom   63 type  1   force =   0.25540723E-05 -0.57600707E-06 -0.57210971E-05
     atom   64 type  1   force =  -0.51764978E-05  0.68065716E-06  0.18480667E-05
     atom   65 type  1   force =  -0.59237352E-07  0.22270270E-05  0.62144615E-05
     atom   66 type  1   force =   0.10070418E-04  0.21926302E-05 -0.29223312E-05
     atom   67 type  1   force =  -0.29207680E-05  0.34706608E-05 -0.10123931E-05
     atom   68 type  1   force =  -0.26483172E-05 -0.86888861E-05 -0.22547323E-05
     atom   69 type  1   force =  -0.51615738E-05  0.13135061E-05  0.50409504E-05
     atom   70 type  1   force =   0.60379333E-05  0.19391078E-05 -0.60978788E-05
     atom   71 type  1   force =  -0.42119329E-05  0.17634645E-05 -0.55601559E-05
     atom   72 type  1   force =   0.32469526E-06 -0.48545648E-05 -0.74785743E-06
     atom   73 type  1   force =  -0.27953669E-05 -0.45507161E-05  0.27019940E-05
     atom   74 type  1   force =   0.77564744E-06 -0.12648081E-05 -0.11661358E-04
     atom   75 type  1   force =   0.19191281E-06  0.26186243E-06  0.12569452E-05
     atom   76 type  1   force =  -0.26559999E-05 -0.33807455E-05 -0.14034122E-05
     atom   77 type  1   force =  -0.70180826E-05 -0.30669385E-05  0.99390519E-06
     atom   78 type  1   force =   0.30385169E-05  0.25582813E-05 -0.95064062E-05
     atom   79 type  1   force =   0.77364788E-05  0.91155182E-05  0.45408672E-05
     atom   80 type  1   force =   0.18480543E-05 -0.91752256E-06  0.40614723E-06
     atom   81 type  1   force =  -0.42470494E-05 -0.22129720E-05  0.18757802E-05
     atom   82 type  1   force =   0.74928372E-05 -0.45287216E-05 -0.14988472E-05
     atom   83 type  1   force =  -0.39431085E-05 -0.40801307E-06 -0.38005273E-05
     atom   84 type  1   force =   0.26205386E-05 -0.11235153E-04  0.24529390E-05
     atom   85 type  1   force =   0.93294338E-06  0.56680202E-05  0.78057068E-05
     atom   86 type  1   force =   0.12689692E-04  0.23853038E-05 -0.41826244E-06
     atom   87 type  1   force =   0.13418551E-05  0.41777131E-05 -0.27036333E-05
     atom   88 type  1   force =   0.51203218E-06 -0.13013741E-04 -0.20151723E-05
     atom   89 type  1   force =  -0.69537353E-05 -0.46454144E-05 -0.12972290E-05
     atom   90 type  1   force =   0.52592010E-05 -0.32194784E-05 -0.54782076E-05
     atom   91 type  1   force =   0.52129866E-05  0.76099898E-05  0.25033036E-05
     atom   92 type  1   force =   0.59238339E-05 -0.49381176E-05  0.12238872E-05
     atom   93 type  1   force =  -0.30839231E-05 -0.21727880E-05  0.24904287E-05
     atom   94 type  1   force =   0.25155796E-05 -0.91948626E-06 -0.11132731E-04
     atom   95 type  1   force =  -0.10267702E-06  0.54586809E-05  0.31687304E-06
     atom   96 type  1   force =   0.64329010E-06 -0.61041411E-05 -0.16895716E-05
     atom   97 type  1   force =  -0.24431693E-05 -0.40401030E-05 -0.35532426E-05
     atom   98 type  1   force =  -0.26801255E-05  0.89468965E-07 -0.38328961E-05
     atom   99 type  1   force =   0.19091644E-05 -0.76768208E-06 -0.76113346E-05
     atom  100 type  1   force =  -0.47517607E-05  0.10101288E-05  0.40922450E-05
     atom  101 type  1   force =  -0.37331860E-05 -0.82175295E-05 -0.84727871E-05
     atom  102 type  1   force =   0.31961786E-07  0.61264613E-05 -0.40829535E-05
     atom  103 type  1   force =   0.78740565E-05  0.12013561E-05 -0.60948501E-05
     atom  104 type  1   force =   0.87519666E-06  0.18616371E-05  0.68986382E-05
     atom  105 type  1   force =   0.25216555E-05 -0.76724655E-05 -0.53353208E-06
     atom  106 type  1   force =  -0.14673719E-05  0.61224821E-05 -0.20041160E-05
     atom  107 type  1   force =   0.32347893E-05 -0.81315564E-05 -0.75394014E-05
     atom  108 type  1   force =  -0.91264481E-05 -0.11859910E-06  0.36262370E-05
     atom  109 type  1   force =   0.85383260E-05 -0.29547924E-05  0.16684560E-05
     atom  110 type  1   force =   0.18525910E-05  0.10966303E-04  0.30810560E-05
     atom  111 type  1   force =   0.97131360E-05 -0.26808825E-05 -0.69337418E-05
     atom  112 type  1   force =  -0.11505221E-04 -0.86628808E-06 -0.11315333E-05
     atom  113 type  1   force =  -0.35483860E-05 -0.11184154E-04 -0.47364126E-05
     atom  114 type  1   force =  -0.18603662E-05 -0.57700555E-06  0.16723624E-05
     atom  115 type  1   force =   0.10205116E-04  0.35636421E-05 -0.29213804E-05
     atom  116 type  1   force =   0.55835429E-06  0.47341140E-05  0.92873194E-05
     atom  117 type  1   force =   0.65416484E-06 -0.35382367E-05 -0.54190039E-06
     atom  118 type  1   force =  -0.26534612E-05  0.22930421E-05 -0.79000104E-06
     atom  119 type  1   force =   0.65361092E-05 -0.14283059E-05 -0.55131949E-05
     atom  120 type  1   force =   0.63001876E-06 -0.16949924E-05  0.84280032E-05
     atom  121 type  1   force =   0.73892077E-05 -0.29316863E-05  0.50635424E-05
     atom  122 type  1   force =   0.51535171E-05  0.44664817E-05  0.44106976E-05
     atom  123 type  1   force =   0.52955041E-05 -0.20047476E-05 -0.28850928E-05
     atom  124 type  1   force =  -0.64426105E-05 -0.22208559E-05  0.23531700E-05
     atom  125 type  1   force =   0.33902726E-05 -0.55601889E-05 -0.32435851E-06
     atom  126 type  1   force =  -0.87362741E-07  0.69378150E-05 -0.11539718E-05
     atom  127 type  1   force =   0.13338841E-06 -0.54298607E-05 -0.93650674E-05
     atom  128 type  1   force =  -0.31263064E-05 -0.39793958E-05  0.13009693E-05

     Total force =     0.316573     Total SCF correction =     0.000092


     entering subroutine stress ...

          total   stress  (Ry/bohr**3)                   (kbar)     P=    2.35
   0.0000162550  -0.0000249083   0.0000047574          2.39     -3.66      0.70
  -0.0000249083   0.0000158215   0.0000018626         -3.66      2.33      0.27
   0.0000047574   0.0000018626   0.0000159017          0.70      0.27      2.34

     kinetic stress (kbar)   9997.46      3.19     -1.11
                                3.19   9997.48     -0.13
                               -1.11     -0.13   9997.50

     local   stress (kbar)   1733.24    538.06   -170.05
                              538.06   1742.58    -22.86
                             -170.05    -22.86   1747.28

     nonloc. stress (kbar)   2938.78     -2.63      0.82
                               -2.63   2938.75      0.11
                                0.82      0.11   2938.74

     hartree stress (kbar)  26326.79   -208.31     66.31
                             -208.31  26322.79      9.05
                               66.31      9.05  26320.78

     exc-cor stress (kbar)  19474.14     -0.14      0.04
                               -0.14  19474.14      0.01
                                0.04      0.01  19474.14

     corecor stress (kbar) -29142.21      0.16     -0.05
                                0.16 -29142.21     -0.01
                               -0.05     -0.01 -29142.21

     ewald   stress (kbar) -31325.81   -333.99    104.73
                             -333.99 -31331.20     14.11
                              104.73     14.11 -31333.89

     hubbard stress (kbar)      0.00      0.00      0.00
                                0.00      0.00      0.00
                                0.00      0.00      0.00

     london  stress (kbar)      0.00      0.00      0.00
                                0.00      0.00      0.00
                                0.00      0.00      0.00

     XDM     stress (kbar)      0.00      0.00      0.00
                                0.00      0.00      0.00
                                0.00      0.00      0.00

     dft-nl  stress (kbar)      0.00      0.00      0.00
                                0.00      0.00      0.00
                                0.00      0.00      0.00



     Writing output data file Ge_diamond.scf.in.super.444.a.022.save

     init_run     :   1338.98s CPU   1090.81s WALL (       1 calls)
     electrons    :  89802.36s CPU  75751.43s WALL (       1 calls)
     forces       :    867.01s CPU    620.31s WALL (       1 calls)
     stress       :   4329.00s CPU   4293.45s WALL (       1 calls)

     Called by init_run:
     wfcinit      :   1308.91s CPU   1060.37s WALL (       1 calls)
     potinit      :      0.65s CPU      0.72s WALL (       1 calls)

     Called by electrons:
     c_bands      :  84248.10s CPU  70720.90s WALL (      14 calls)
     sum_band     :   5083.53s CPU   4553.66s WALL (      14 calls)
     v_of_rho     :      7.32s CPU      8.27s WALL (      14 calls)
     v_h          :      0.45s CPU      0.59s WALL (      14 calls)
     v_xc         :      7.73s CPU      8.67s WALL (      16 calls)
     newd         :    477.82s CPU    481.68s WALL (      14 calls)
     mix_rho      :     12.10s CPU     13.38s WALL (      14 calls)

     Called by c_bands:
     init_us_2    :     40.61s CPU     41.32s WALL (     248 calls)
     cegterg      :  83921.05s CPU  70382.44s WALL (     112 calls)

     Called by sum_band:
     sum_band:bec :     21.60s CPU     21.69s WALL (     112 calls)
     addusdens    :    388.96s CPU    391.23s WALL (      14 calls)

     Called by *egterg:
     h_psi        :  20637.91s CPU  17950.57s WALL (     450 calls)
     s_psi        :   5951.27s CPU   3927.51s WALL (     450 calls)
     g_psi        :      9.84s CPU     11.78s WALL (     330 calls)
     cdiaghg      :  40360.15s CPU  36757.55s WALL (     434 calls)
     cegterg:over :   8102.59s CPU   5595.47s WALL (     330 calls)
     cegterg:upda :   3722.93s CPU   2501.79s WALL (     330 calls)
     cegterg:last :   2657.08s CPU   1724.31s WALL (     112 calls)

     Called by h_psi:
     h_psi:vloc   :   8387.60s CPU   9715.05s WALL (     450 calls)
     h_psi:vnl    :  12225.92s CPU   8210.53s WALL (     450 calls)
     add_vuspsi   :   5909.77s CPU   3913.49s WALL (     450 calls)

     General routines
     calbec       :  10162.91s CPU   7162.18s WALL (     578 calls)
     fft          :    138.97s CPU    141.09s WALL (     249 calls)
     ffts         :      7.86s CPU      8.73s WALL (     430 calls)
     fftw         :   9201.79s CPU  10796.46s WALL (  689928 calls)
     interpolate  :      1.67s CPU      2.10s WALL (      28 calls)

     Parallel routines
     fft_scatter  :   5560.21s CPU   6544.90s WALL (  690607 calls)

     PWSCF        :     1d    2h46m CPU        0d   22h44m WALL


   This run was terminated on:  10:59:15  14Feb2017            

=------------------------------------------------------------------------------=
   JOB DONE.
=------------------------------------------------------------------------------=
