
     Program PWSCF v.5.1 starts on  8Mar2018 at 16:27: 3 

     This program is part of the open-source Quantum ESPRESSO suite
     for quantum simulation of materials; please cite
         "P. Giannozzi et al., J. Phys.:Condens. Matter 21 395502 (2009);
          URL http://www.quantum-espresso.org", 
     in publications or presentations arising from this work. More details at
     http://www.quantum-espresso.org/quote

     Parallel version (MPI), running on     4 processors
     R & G space division:  proc/nbgrp/npool/nimage =       4
     Reading input from /tmp/Ge_diamond.scf.in.sxy.28349/Ge_diamond.scf.in.sxy.t
Warning: card &IONS ignored
Warning: card   ION_DYNAMICS='BFGS', ignored
Warning: card / ignored
Warning: card &CELL ignored
Warning: card  CELL_DYNAMICS = 'BFGS' ignored
Warning: card / ignored
     Message from routine read_cards :
     DEPRECATED: no units specified in CELL_PARAMETERS card

     Current dimensions of program PWSCF are:
     Max number of different atomic species (ntypx) = 10
     Max number of k-points (npk) =  40000
     Max angular momentum in pseudopotentials (lmaxx) =  3
 kfg - two_fermi_energies  F

     Subspace diagonalization in iterative solution of the eigenvalue problem:
     a serial algorithm will be used


     Parallelization info
     --------------------
     sticks:   dense  smooth     PW     G-vecs:    dense   smooth      PW
     Min         197     139     42                 3661     2145     367
     Max         199     140     43                 3663     2157     368
     Sum         793     559    169                14649     8609    1471



     bravais-lattice index     =            0
     lattice parameter (alat)  =     7.580942043  a.u.
     unit-cell volume          =     308.0736 (a.u.)^3
     number of atoms/cell      =            2
     number of atomic types    =            1
     number of electrons       =        28.00
     number of Kohn-Sham states=           18
     kinetic-energy cutoff     =      35.0000  Ry
     charge density cutoff     =     200.0000  Ry
     convergence threshold     =      1.0E-09
     mixing beta               =       0.3000
     number of iterations used =            8  local-TF  mixing
     Exchange-correlation      = SLA  PW   PSX  PSC ( 1  4 10  8 0)
     A smooth kinetic-energy cutoff is imposed at      34.5000 Ry
     height of the smooth step-function =             800.0000 Ry
     width of the smooth step-function  =               1.0000 Ry


     celldm(1)=   7.580942  celldm(2)=   0.000000  celldm(3)=   0.000000
     celldm(4)=   0.000000  celldm(5)=   0.000000  celldm(6)=   0.000000

     crystal axes: (cart. coord. in units of alat)
               a(1) = (   0.000035355339   0.707106780745   0.707106780745 )  
               a(2) = (   0.707106780745   0.000035355339   0.707106780745 )  
               a(3) = (   0.707142136084   0.707142136084   0.000000000000 )  

     reciprocal axes: (cart. coord. in units 2 pi/alat)
               b(1) = ( -0.707142  0.707142  0.707107 )  
               b(2) = (  0.707142 -0.707142  0.707107 )  
               b(3) = (  0.707071  0.707071 -0.707107 )  


     PseudoPot. # 1 for Ge read from file:
     /users/kfg/psuedo/gbrv_1.5/ge.pbesol.UPF
     MD5 check sum: 7bed0412183f5e553a4d27ec7023354d
     Pseudo is Ultrasoft + core correction, Zval = 14.0
     Generated by new atomic code, or converted to UPF format
     Using radial grid of  873 points,  6 beta functions with: 
                l(1) =   0
                l(2) =   0
                l(3) =   1
                l(4) =   1
                l(5) =   2
                l(6) =   2
     Q(r) pseudized with  8 coefficients,  rinner =    1.400   1.400   1.400
                                                       1.400   1.400

     atomic species   valence    mass     pseudopotential
        Ge            14.00    72.64000     Ge( 1.00)

      8 Sym. Ops., with inversion, found ( 4 have fractional translation)


                                    s                        frac. trans.

      isym =  1     identity                                     

 cryst.   s( 1) = (     1          0          0      )
                  (     0          1          0      )
                  (     0          0          1      )

 cart.    s( 1) = (  1.0000000  0.0000000  0.0000000 )
                  (  0.0000000  1.0000000  0.0000000 )
                  (  0.0000000  0.0000000  1.0000000 )


      isym =  2     180 deg rotation - cart. axis [0,0,1]        

 cryst.   s( 2) = (     0          1         -1      )
                  (     1          0         -1      )
                  (     0          0         -1      )

 cart.    s( 2) = ( -1.0000000  0.0000000 -0.0000000 )
                  (  0.0000000 -1.0000000 -0.0000000 )
                  (  0.0000000  0.0000000  1.0000000 )


      isym =  3     180 deg rotation - cart. axis [1,1,0]        

 cryst.   s( 3) = (    -1          0          1      )    f =( -0.2500000 )
                  (     0         -1          1      )       ( -0.2500000 )
                  (     0          0          1      )       ( -0.2500000 )

 cart.    s( 3) = (  0.0000000  1.0000000  0.0000000 )    f =( -0.3535711 )
                  (  1.0000000  0.0000000  0.0000000 )       ( -0.3535711 )
                  (  0.0000000  0.0000000 -1.0000000 )       ( -0.3535534 )


      isym =  4     180 deg rotation - cart. axis [1,-1,0]       

 cryst.   s( 4) = (     0         -1          0      )    f =( -0.2500000 )
                  (    -1          0          0      )       ( -0.2500000 )
                  (     0          0         -1      )       ( -0.2500000 )

 cart.    s( 4) = (  0.0000000 -1.0000000 -0.0000000 )    f =( -0.3535711 )
                  ( -1.0000000  0.0000000 -0.0000000 )       ( -0.3535711 )
                  (  0.0000000  0.0000000 -1.0000000 )       ( -0.3535534 )


      isym =  5     inversion                                    

 cryst.   s( 5) = (    -1          0          0      )    f =( -0.2500000 )
                  (     0         -1          0      )       ( -0.2500000 )
                  (     0          0         -1      )       ( -0.2500000 )

 cart.    s( 5) = ( -1.0000000  0.0000000 -0.0000000 )    f =( -0.3535711 )
                  (  0.0000000 -1.0000000 -0.0000000 )       ( -0.3535711 )
                  (  0.0000000  0.0000000 -1.0000000 )       ( -0.3535534 )


      isym =  6     inv. 180 deg rotation - cart. axis [0,0,1]   

 cryst.   s( 6) = (     0         -1          1      )    f =( -0.2500000 )
                  (    -1          0          1      )       ( -0.2500000 )
                  (     0          0          1      )       ( -0.2500000 )

 cart.    s( 6) = (  1.0000000  0.0000000  0.0000000 )    f =( -0.3535711 )
                  (  0.0000000  1.0000000  0.0000000 )       ( -0.3535711 )
                  (  0.0000000  0.0000000 -1.0000000 )       ( -0.3535534 )


      isym =  7     inv. 180 deg rotation - cart. axis [1,1,0]   

 cryst.   s( 7) = (     1          0         -1      )
                  (     0          1         -1      )
                  (     0          0         -1      )

 cart.    s( 7) = (  0.0000000 -1.0000000 -0.0000000 )
                  ( -1.0000000  0.0000000 -0.0000000 )
                  (  0.0000000  0.0000000  1.0000000 )


      isym =  8     inv. 180 deg rotation - cart. axis [1,-1,0]  

 cryst.   s( 8) = (     0          1          0      )
                  (     1          0          0      )
                  (     0          0          1      )

 cart.    s( 8) = (  0.0000000  1.0000000  0.0000000 )
                  (  1.0000000  0.0000000  0.0000000 )
                  (  0.0000000  0.0000000  1.0000000 )


     point group D_2h (mmm) 
     there are  8 classes
     the character table:

       E     C2_z  C2_y  C2_x  i     s_xy  s_xz  s_yz 
A_g    1.00  1.00  1.00  1.00  1.00  1.00  1.00  1.00
B_1g   1.00  1.00 -1.00 -1.00  1.00  1.00 -1.00 -1.00
B_2g   1.00 -1.00  1.00 -1.00  1.00 -1.00  1.00 -1.00
B_3g   1.00 -1.00 -1.00  1.00  1.00 -1.00 -1.00  1.00
A_u    1.00  1.00  1.00  1.00 -1.00 -1.00 -1.00 -1.00
B_1u   1.00  1.00 -1.00 -1.00 -1.00 -1.00  1.00  1.00
B_2u   1.00 -1.00  1.00 -1.00 -1.00  1.00 -1.00  1.00
B_3u   1.00 -1.00 -1.00  1.00 -1.00  1.00  1.00 -1.00

     the symmetry operations in each class:
     E        1
     C2_z     2
     C2_y     3
     C2_x     4
     i        5
     s_xy     6
     s_xz     7
     s_yz     8

   Cartesian axes

     site n.     atom                  positions (alat units)
         1           Ge  tau(   1) = (    0.00000000000    0.00000000000    0.00000000000  )
         2           Ge  tau(   2) = (    0.35357106804    0.35357106804    0.35355339037  )

   Crystallographic axes

     site n.     atom                  positions (cryst. coord.)
         1           Ge  tau(   1) = (    0.00000000000    0.00000000000    0.00000000000  )
         2           Ge  tau(   2) = (    0.25000000000    0.25000000000    0.25000000000  )

     number of k points=    95  gaussian smearing, width (Ry)=  0.0150
                       cart. coord. in units 2pi/alat
        k(    1) = (   0.0000000   0.0000000   0.0000000), wk =   0.0039063
        k(    2) = (   0.0883839   0.0883839  -0.0883883), wk =   0.0156250
        k(    3) = (   0.1767679   0.1767679  -0.1767767), wk =   0.0156250
        k(    4) = (   0.2651518   0.2651518  -0.2651650), wk =   0.0156250
        k(    5) = (  -0.3535357  -0.3535357   0.3535534), wk =   0.0078125
        k(    6) = (   0.0883928  -0.0883928   0.0883883), wk =   0.0156250
        k(    7) = (   0.1767767  -0.0000088   0.0000000), wk =   0.0156250
        k(    8) = (   0.2651606   0.0883751  -0.0883883), wk =   0.0312500
        k(    9) = (   0.3535446   0.1767590  -0.1767767), wk =   0.0312500
        k(   10) = (  -0.2651429  -0.4419285   0.4419417), wk =   0.0312500
        k(   11) = (  -0.1767590  -0.3535446   0.3535534), wk =   0.0312500
        k(   12) = (  -0.0883751  -0.2651606   0.2651650), wk =   0.0312500
        k(   13) = (   0.0000088  -0.1767767   0.1767767), wk =   0.0312500
        k(   14) = (   0.1767855  -0.1767855   0.1767767), wk =   0.0156250
        k(   15) = (   0.2651695  -0.0884016   0.0883883), wk =   0.0312500
        k(   16) = (   0.3535534  -0.0000177   0.0000000), wk =   0.0156250
        k(   17) = (   0.4419373   0.0883663  -0.0883883), wk =   0.0312500
        k(   18) = (  -0.1767502  -0.5303212   0.5303301), wk =   0.0312500
        k(   19) = (  -0.0883663  -0.4419373   0.4419417), wk =   0.0312500
        k(   20) = (   0.0000177  -0.3535534   0.3535534), wk =   0.0312500
        k(   21) = (   0.0884016  -0.2651695   0.2651650), wk =   0.0312500
        k(   22) = (   0.2651783  -0.2651783   0.2651650), wk =   0.0156250
        k(   23) = (   0.3535622  -0.1767944   0.1767767), wk =   0.0312500
        k(   24) = (   0.4419462  -0.0884104   0.0883883), wk =   0.0312500
        k(   25) = (   0.5303301  -0.0000265   0.0000000), wk =   0.0156250
        k(   26) = (  -0.0883574  -0.6187140   0.6187184), wk =   0.0312500
        k(   27) = (   0.0000265  -0.5303301   0.5303301), wk =   0.0312500
        k(   28) = (   0.0884104  -0.4419462   0.4419417), wk =   0.0312500
        k(   29) = (   0.1767944  -0.3535622   0.3535534), wk =   0.0312500
        k(   30) = (  -0.3535711   0.3535711  -0.3535534), wk =   0.0078125
        k(   31) = (  -0.2651871   0.4419550  -0.4419417), wk =   0.0312500
        k(   32) = (  -0.1768032   0.5303389  -0.5303301), wk =   0.0312500
        k(   33) = (  -0.0884193   0.6187229  -0.6187184), wk =   0.0312500
        k(   34) = (  -0.7071068   0.0000354  -0.0000000), wk =   0.0078125
        k(   35) = (   0.0000000   0.0000000   0.1767767), wk =   0.0078125
        k(   36) = (   0.1767679   0.1767679   0.0000000), wk =   0.0078125
        k(   37) = (   0.2651518   0.2651518  -0.0883883), wk =   0.0156250
        k(   38) = (  -0.3535357  -0.3535357   0.5303301), wk =   0.0156250
        k(   39) = (  -0.2651518  -0.2651518   0.4419417), wk =   0.0156250
        k(   40) = (  -0.1767679  -0.1767679   0.3535534), wk =   0.0156250
        k(   41) = (  -0.0883839  -0.0883839   0.2651650), wk =   0.0156250
        k(   42) = (   0.0883928  -0.0883928   0.2651650), wk =   0.0156250
        k(   43) = (   0.3535446   0.1767590   0.0000000), wk =   0.0156250
        k(   44) = (  -0.2651429  -0.4419285   0.6187184), wk =   0.0312500
        k(   45) = (  -0.1767590  -0.3535446   0.5303301), wk =   0.0312500
        k(   46) = (  -0.0883751  -0.2651606   0.4419417), wk =   0.0312500
        k(   47) = (   0.0000088  -0.1767767   0.3535534), wk =   0.0312500
        k(   48) = (   0.1767855  -0.1767855   0.3535534), wk =   0.0156250
        k(   49) = (   0.3535534  -0.0000177   0.1767767), wk =   0.0312500
        k(   50) = (  -0.1767502  -0.5303212   0.7071068), wk =   0.0156250
        k(   51) = (  -0.0883663  -0.4419373   0.6187184), wk =   0.0312500
        k(   52) = (   0.0000177  -0.3535534   0.5303301), wk =   0.0312500
        k(   53) = (   0.0884016  -0.2651695   0.4419417), wk =   0.0312500
        k(   54) = (  -0.4419638   0.4419638  -0.2651650), wk =   0.0156250
        k(   55) = (  -0.2651960   0.6187317  -0.4419417), wk =   0.0312500
        k(   56) = (  -0.1768121   0.7071156  -0.5303301), wk =   0.0312500
        k(   57) = (  -0.7071156   0.1768121   0.0000000), wk =   0.0156250
        k(   58) = (  -0.6187317   0.2651960  -0.0883883), wk =   0.0312500
        k(   59) = (  -0.5303478   0.3535799  -0.1767767), wk =   0.0312500
        k(   60) = (  -0.3535711   0.3535711  -0.1767767), wk =   0.0156250
        k(   61) = (  -0.1768032   0.5303389  -0.3535534), wk =   0.0156250
        k(   62) = (  -0.0884193   0.6187229  -0.4419417), wk =   0.0312500
        k(   63) = (  -0.7071068   0.0000354   0.1767767), wk =   0.0156250
        k(   64) = (  -0.5303389   0.1768032   0.0000000), wk =   0.0156250
        k(   65) = (  -0.4419550   0.2651871  -0.0883883), wk =   0.0312500
        k(   66) = (  -0.2651783   0.2651783  -0.0883883), wk =   0.0156250
        k(   67) = (  -0.0000265   0.5303301  -0.3535534), wk =   0.0312500
        k(   68) = (  -0.6187140  -0.0883574   0.2651650), wk =   0.0312500
        k(   69) = (  -0.3535622   0.1767944  -0.0000000), wk =   0.0156250
        k(   70) = (  -0.1767855   0.1767855   0.0000000), wk =   0.0078125
        k(   71) = (   0.0883663   0.4419373  -0.2651650), wk =   0.0312500
        k(   72) = (  -0.5303212  -0.1767502   0.3535534), wk =   0.0156250
        k(   73) = (   0.0000000   0.0000000   0.3535534), wk =   0.0078125
        k(   74) = (  -0.3535357  -0.3535357   0.7071068), wk =   0.0078125
        k(   75) = (  -0.2651518  -0.2651518   0.6187184), wk =   0.0156250
        k(   76) = (  -0.1767679  -0.1767679   0.5303301), wk =   0.0156250
        k(   77) = (  -0.0883839  -0.0883839   0.4419417), wk =   0.0156250
        k(   78) = (   0.0883928  -0.0883928   0.4419417), wk =   0.0156250
        k(   79) = (  -0.1767590  -0.3535446   0.7071068), wk =   0.0156250
        k(   80) = (  -0.0883751  -0.2651606   0.6187184), wk =   0.0312500
        k(   81) = (   0.0000088  -0.1767767   0.5303301), wk =   0.0312500
        k(   82) = (  -0.5303566   0.5303566  -0.1767767), wk =   0.0156250
        k(   83) = (  -0.7071245   0.3535887  -0.0000000), wk =   0.0156250
        k(   84) = (  -0.6187405   0.4419727  -0.0883883), wk =   0.0312500
        k(   85) = (  -0.4419638   0.4419638  -0.0883883), wk =   0.0156250
        k(   86) = (  -0.5303478   0.3535799   0.0000000), wk =   0.0156250
        k(   87) = (  -0.3535711   0.3535711   0.0000000), wk =   0.0078125
        k(   88) = (  -0.7071068   0.0000354   0.3535534), wk =   0.0078125
        k(   89) = (   0.0000000   0.0000000   0.5303301), wk =   0.0078125
        k(   90) = (  -0.1767679  -0.1767679   0.7071068), wk =   0.0078125
        k(   91) = (  -0.0883839  -0.0883839   0.6187184), wk =   0.0156250
        k(   92) = (  -0.6187494   0.6187494  -0.0883883), wk =   0.0156250
        k(   93) = (  -0.7071333   0.5303654  -0.0000000), wk =   0.0156250
        k(   94) = (  -0.5303566   0.5303566   0.0000000), wk =   0.0078125
        k(   95) = (   0.0000000   0.0000000  -0.7071068), wk =   0.0039063

                       cryst. coord.
        k(    1) = (   0.0000000   0.0000000   0.0000000), wk =   0.0039063
        k(    2) = (   0.0000000   0.0000000   0.1250000), wk =   0.0156250
        k(    3) = (   0.0000000   0.0000000   0.2500000), wk =   0.0156250
        k(    4) = (   0.0000000   0.0000000   0.3750000), wk =   0.0156250
        k(    5) = (  -0.0000000  -0.0000000  -0.5000000), wk =   0.0078125
        k(    6) = (   0.0000000   0.1250000   0.0000000), wk =   0.0156250
        k(    7) = (  -0.0000000   0.1250000   0.1250000), wk =   0.0156250
        k(    8) = (   0.0000000   0.1250000   0.2500000), wk =   0.0312500
        k(    9) = (   0.0000000   0.1250000   0.3750000), wk =   0.0312500
        k(   10) = (   0.0000000   0.1250000  -0.5000000), wk =   0.0312500
        k(   11) = (   0.0000000   0.1250000  -0.3750000), wk =   0.0312500
        k(   12) = (  -0.0000000   0.1250000  -0.2500000), wk =   0.0312500
        k(   13) = (   0.0000000   0.1250000  -0.1250000), wk =   0.0312500
        k(   14) = (   0.0000000   0.2500000   0.0000000), wk =   0.0156250
        k(   15) = (   0.0000000   0.2500000   0.1250000), wk =   0.0312500
        k(   16) = (  -0.0000000   0.2500000   0.2500000), wk =   0.0156250
        k(   17) = (   0.0000000   0.2500000   0.3750000), wk =   0.0312500
        k(   18) = (  -0.0000000   0.2500000  -0.5000000), wk =   0.0312500
        k(   19) = (   0.0000000   0.2500000  -0.3750000), wk =   0.0312500
        k(   20) = (   0.0000000   0.2500000  -0.2500000), wk =   0.0312500
        k(   21) = (  -0.0000000   0.2500000  -0.1250000), wk =   0.0312500
        k(   22) = (  -0.0000000   0.3750000   0.0000000), wk =   0.0156250
        k(   23) = (  -0.0000000   0.3750000   0.1250000), wk =   0.0312500
        k(   24) = (  -0.0000000   0.3750000   0.2500000), wk =   0.0312500
        k(   25) = (  -0.0000000   0.3750000   0.3750000), wk =   0.0156250
        k(   26) = (   0.0000000   0.3750000  -0.5000000), wk =   0.0312500
        k(   27) = (   0.0000000   0.3750000  -0.3750000), wk =   0.0312500
        k(   28) = (  -0.0000000   0.3750000  -0.2500000), wk =   0.0312500
        k(   29) = (  -0.0000000   0.3750000  -0.1250000), wk =   0.0312500
        k(   30) = (   0.0000000  -0.5000000   0.0000000), wk =   0.0078125
        k(   31) = (   0.0000000  -0.5000000   0.1250000), wk =   0.0312500
        k(   32) = (   0.0000000  -0.5000000   0.2500000), wk =   0.0312500
        k(   33) = (   0.0000000  -0.5000000   0.3750000), wk =   0.0312500
        k(   34) = (   0.0000000  -0.5000000  -0.5000000), wk =   0.0078125
        k(   35) = (   0.1250000   0.1250000   0.0000000), wk =   0.0078125
        k(   36) = (   0.1250000   0.1250000   0.2500000), wk =   0.0078125
        k(   37) = (   0.1250000   0.1250000   0.3750000), wk =   0.0156250
        k(   38) = (   0.1250000   0.1250000  -0.5000000), wk =   0.0156250
        k(   39) = (   0.1250000   0.1250000  -0.3750000), wk =   0.0156250
        k(   40) = (   0.1250000   0.1250000  -0.2500000), wk =   0.0156250
        k(   41) = (   0.1250000   0.1250000  -0.1250000), wk =   0.0156250
        k(   42) = (   0.1250000   0.2500000   0.0000000), wk =   0.0156250
        k(   43) = (   0.1250000   0.2500000   0.3750000), wk =   0.0156250
        k(   44) = (   0.1250000   0.2500000  -0.5000000), wk =   0.0312500
        k(   45) = (   0.1250000   0.2500000  -0.3750000), wk =   0.0312500
        k(   46) = (   0.1250000   0.2500000  -0.2500000), wk =   0.0312500
        k(   47) = (   0.1250000   0.2500000  -0.1250000), wk =   0.0312500
        k(   48) = (   0.1250000   0.3750000   0.0000000), wk =   0.0156250
        k(   49) = (   0.1250000   0.3750000   0.2500000), wk =   0.0312500
        k(   50) = (   0.1250000   0.3750000  -0.5000000), wk =   0.0156250
        k(   51) = (   0.1250000   0.3750000  -0.3750000), wk =   0.0312500
        k(   52) = (   0.1250000   0.3750000  -0.2500000), wk =   0.0312500
        k(   53) = (   0.1250000   0.3750000  -0.1250000), wk =   0.0312500
        k(   54) = (   0.1250000  -0.5000000   0.0000000), wk =   0.0156250
        k(   55) = (   0.1250000  -0.5000000   0.2500000), wk =   0.0312500
        k(   56) = (   0.1250000  -0.5000000   0.3750000), wk =   0.0312500
        k(   57) = (   0.1250000  -0.5000000  -0.3750000), wk =   0.0156250
        k(   58) = (   0.1250000  -0.5000000  -0.2500000), wk =   0.0312500
        k(   59) = (   0.1250000  -0.5000000  -0.1250000), wk =   0.0312500
        k(   60) = (   0.1250000  -0.3750000   0.0000000), wk =   0.0156250
        k(   61) = (   0.1250000  -0.3750000   0.2500000), wk =   0.0156250
        k(   62) = (   0.1250000  -0.3750000   0.3750000), wk =   0.0312500
        k(   63) = (   0.1250000  -0.3750000  -0.5000000), wk =   0.0156250
        k(   64) = (   0.1250000  -0.3750000  -0.2500000), wk =   0.0156250
        k(   65) = (   0.1250000  -0.3750000  -0.1250000), wk =   0.0312500
        k(   66) = (   0.1250000  -0.2500000   0.0000000), wk =   0.0156250
        k(   67) = (   0.1250000  -0.2500000   0.3750000), wk =   0.0312500
        k(   68) = (   0.1250000  -0.2500000  -0.5000000), wk =   0.0312500
        k(   69) = (   0.1250000  -0.2500000  -0.1250000), wk =   0.0156250
        k(   70) = (   0.1250000  -0.1250000   0.0000000), wk =   0.0078125
        k(   71) = (   0.1250000  -0.1250000   0.3750000), wk =   0.0312500
        k(   72) = (   0.1250000  -0.1250000  -0.5000000), wk =   0.0156250
        k(   73) = (   0.2500000   0.2500000   0.0000000), wk =   0.0078125
        k(   74) = (   0.2500000   0.2500000  -0.5000000), wk =   0.0078125
        k(   75) = (   0.2500000   0.2500000  -0.3750000), wk =   0.0156250
        k(   76) = (   0.2500000   0.2500000  -0.2500000), wk =   0.0156250
        k(   77) = (   0.2500000   0.2500000  -0.1250000), wk =   0.0156250
        k(   78) = (   0.2500000   0.3750000   0.0000000), wk =   0.0156250
        k(   79) = (   0.2500000   0.3750000  -0.3750000), wk =   0.0156250
        k(   80) = (   0.2500000   0.3750000  -0.2500000), wk =   0.0312500
        k(   81) = (   0.2500000   0.3750000  -0.1250000), wk =   0.0312500
        k(   82) = (   0.2500000  -0.5000000   0.0000000), wk =   0.0156250
        k(   83) = (   0.2500000  -0.5000000  -0.2500000), wk =   0.0156250
        k(   84) = (   0.2500000  -0.5000000  -0.1250000), wk =   0.0312500
        k(   85) = (   0.2500000  -0.3750000   0.0000000), wk =   0.0156250
        k(   86) = (   0.2500000  -0.3750000  -0.1250000), wk =   0.0156250
        k(   87) = (   0.2500000  -0.2500000   0.0000000), wk =   0.0078125
        k(   88) = (   0.2500000  -0.2500000  -0.5000000), wk =   0.0078125
        k(   89) = (   0.3750000   0.3750000   0.0000000), wk =   0.0078125
        k(   90) = (   0.3750000   0.3750000  -0.2500000), wk =   0.0078125
        k(   91) = (   0.3750000   0.3750000  -0.1250000), wk =   0.0156250
        k(   92) = (   0.3750000  -0.5000000   0.0000000), wk =   0.0156250
        k(   93) = (   0.3750000  -0.5000000  -0.1250000), wk =   0.0156250
        k(   94) = (   0.3750000  -0.3750000   0.0000000), wk =   0.0078125
        k(   95) = (  -0.5000000  -0.5000000   0.0000000), wk =   0.0039063

     Dense  grid:    14649 G-vectors     FFT dimensions: (  36,  36,  36)

     Smooth grid:     8609 G-vectors     FFT dimensions: (  30,  30,  30)

     Largest allocated arrays     est. size (Mb)     dimensions
        Kohn-Sham Wavefunctions         0.08 Mb     (     277,   18)
        NL pseudopotentials             0.15 Mb     (     277,   36)
        Each V/rho on FFT grid          0.18 Mb     (   11664)
        Each G-vector array             0.03 Mb     (    3662)
        G-vector shells                 0.01 Mb     (    1862)
     Largest temporary arrays     est. size (Mb)     dimensions
        Auxiliary wavefunctions         0.30 Mb     (     277,   72)
        Each subspace H/S matrix        0.08 Mb     (      72,   72)
        Each <psi_i|beta_j> matrix      0.01 Mb     (      36,   18)
        Arrays for rho mixing           1.42 Mb     (   11664,    8)

     Check: negative/imaginary core charge=   -0.000001    0.000000

     Initial potential from superposition of free atoms

     starting charge   27.99838, renormalised to   28.00000
     Starting wfc are   18 randomized atomic wfcs

     total cpu time spent up to now is        3.0 secs

     Self-consistent Calculation

     iteration #  1     ecut=    35.00 Ry     beta=0.30
     Davidson diagonalization with overlap
     ethr =  1.00E-02,  avg # of iterations =  3.1

     Threshold (ethr) on eigenvalues was too large:
     Diagonalizing with lowered threshold

     Davidson diagonalization with overlap
     ethr =  1.13E-04,  avg # of iterations =  2.1

     total cpu time spent up to now is       18.5 secs

     total energy              =    -426.37922028 Ry
     Harris-Foulkes estimate   =    -426.38258299 Ry
     estimated scf accuracy    <       0.03320033 Ry

     iteration #  2     ecut=    35.00 Ry     beta=0.30
     Davidson diagonalization with overlap
     ethr =  1.19E-04,  avg # of iterations =  1.0

     total cpu time spent up to now is       25.0 secs

     total energy              =    -426.37302406 Ry
     Harris-Foulkes estimate   =    -426.37933175 Ry
     estimated scf accuracy    <       0.02037482 Ry

     iteration #  3     ecut=    35.00 Ry     beta=0.30
     Davidson diagonalization with overlap
     ethr =  7.28E-05,  avg # of iterations =  1.1

     total cpu time spent up to now is       31.8 secs

     total energy              =    -426.37406035 Ry
     Harris-Foulkes estimate   =    -426.37411435 Ry
     estimated scf accuracy    <       0.00036952 Ry

     iteration #  4     ecut=    35.00 Ry     beta=0.30
     Davidson diagonalization with overlap
     ethr =  1.32E-06,  avg # of iterations =  2.7

     total cpu time spent up to now is       41.4 secs

     total energy              =    -426.37413440 Ry
     Harris-Foulkes estimate   =    -426.37414085 Ry
     estimated scf accuracy    <       0.00003955 Ry

     iteration #  5     ecut=    35.00 Ry     beta=0.30
     Davidson diagonalization with overlap
     ethr =  1.41E-07,  avg # of iterations =  2.0

     total cpu time spent up to now is       48.5 secs

     total energy              =    -426.37413411 Ry
     Harris-Foulkes estimate   =    -426.37413781 Ry
     estimated scf accuracy    <       0.00001054 Ry

     iteration #  6     ecut=    35.00 Ry     beta=0.30
     Davidson diagonalization with overlap
     ethr =  3.77E-08,  avg # of iterations =  1.0

     total cpu time spent up to now is       54.7 secs

     total energy              =    -426.37413467 Ry
     Harris-Foulkes estimate   =    -426.37413438 Ry
     estimated scf accuracy    <       0.00000016 Ry

     iteration #  7     ecut=    35.00 Ry     beta=0.30
     Davidson diagonalization with overlap
     ethr =  5.76E-10,  avg # of iterations =  2.1

     total cpu time spent up to now is       63.3 secs

     total energy              =    -426.37413476 Ry
     Harris-Foulkes estimate   =    -426.37413476 Ry
     estimated scf accuracy    <       0.00000020 Ry

     iteration #  8     ecut=    35.00 Ry     beta=0.30
     Davidson diagonalization with overlap
     ethr =  5.76E-10,  avg # of iterations =  2.0

     total cpu time spent up to now is       71.6 secs

     total energy              =    -426.37413484 Ry
     Harris-Foulkes estimate   =    -426.37413481 Ry
     estimated scf accuracy    <       0.00000001 Ry

     iteration #  9     ecut=    35.00 Ry     beta=0.30
     Davidson diagonalization with overlap
     ethr =  4.09E-11,  avg # of iterations =  2.0

     total cpu time spent up to now is       79.6 secs

     End of self-consistent calculation

          k = 0.0000 0.0000 0.0000 (  1067 PWs)   bands (ev):

   -16.5905 -16.5905 -16.5904 -16.5570 -16.5570 -16.3501 -16.3501 -16.3500
   -16.3376 -16.3376  -4.5049   8.1357   8.2265   8.2266   8.2267  10.7508
    10.7515  10.7523

     occupation numbers 
     1.0000   1.0000   1.0000   1.0000   1.0000   1.0000   1.0000   1.0000
     1.0000   1.0000   1.0000   0.6930   0.4503   0.4501   0.4499   0.0000
     0.0000   0.0000

          k = 0.0884 0.0884-0.0884 (  1064 PWs)   bands (ev):

   -16.5990 -16.5989 -16.5892 -16.5458 -16.5458 -16.3623 -16.3622 -16.3537
   -16.3276 -16.3276  -4.3157   5.8415   7.8936   7.8937   9.1876  11.1964
    11.1974  11.6465

     occupation numbers 
     1.0000   1.0000   1.0000   1.0000   1.0000   1.0000   1.0000   1.0000
     1.0000   1.0000   1.0000   1.0000   0.9855   0.9854   0.0000   0.0000
     0.0000   0.0000

          k = 0.1768 0.1768-0.1768 (  1077 PWs)   bands (ev):

   -16.6092 -16.6092 -16.5832 -16.5290 -16.5290 -16.3755 -16.3754 -16.3606
   -16.3179 -16.3179  -3.7668   3.5001   7.3503   7.3503   8.8139  11.8208
    11.8217  13.7478

     occupation numbers 
     1.0000   1.0000   1.0000   1.0000   1.0000   1.0000   1.0000   1.0000
     1.0000   1.0000   1.0000   1.0000   1.0000   1.0000   0.0000   0.0000
     0.0000   0.0000

          k = 0.2652 0.2652-0.2652 (  1077 PWs)   bands (ev):

   -16.6152 -16.6152 -16.5776 -16.5182 -16.5182 -16.3827 -16.3826 -16.3680
   -16.3130 -16.3129  -2.9627   1.5606   6.9658   6.9658   8.4498  11.9625
    11.9633  15.3272

     occupation numbers 
     1.0000   1.0000   1.0000   1.0000   1.0000   1.0000   1.0000   1.0000
     1.0000   1.0000   1.0000   1.0000   1.0000   1.0000   0.0473   0.0000
     0.0000   0.0000

          k =-0.3535-0.3535 0.3536 (  1068 PWs)   bands (ev):

   -16.6170 -16.6169 -16.5728 -16.5152 -16.5152 -16.3846 -16.3846 -16.3713
   -16.3118 -16.3117  -2.4274   0.6391   6.8320   6.8321   8.3200  11.9258
    11.9266  15.1902

     occupation numbers 
     1.0000   1.0000   1.0000   1.0000   1.0000   1.0000   1.0000   1.0000
     1.0000   1.0000   1.0000   1.0000   1.0000   1.0000   0.2199   0.0000
     0.0000   0.0000

          k = 0.0884-0.0884 0.0884 (  1064 PWs)   bands (ev):

   -16.5990 -16.5989 -16.5893 -16.5458 -16.5458 -16.3623 -16.3623 -16.3537
   -16.3276 -16.3276  -4.3157   5.8418   7.8934   7.8935   9.1872  11.1961
    11.1971  11.6472

     occupation numbers 
     1.0000   1.0000   1.0000   1.0000   1.0000   1.0000   1.0000   1.0000
     1.0000   1.0000   1.0000   1.0000   0.9855   0.9855   0.0000   0.0000
     0.0000   0.0000

          k = 0.1768-0.0000 0.0000 (  1062 PWs)   bands (ev):

   -16.5987 -16.5969 -16.5969 -16.5485 -16.5337 -16.3838 -16.3458 -16.3424
   -16.3424 -16.3229  -4.2517   5.8011   7.3563   7.3563  10.0794  10.3943
    11.9378  11.9378

     occupation numbers 
     1.0000   1.0000   1.0000   1.0000   1.0000   1.0000   1.0000   1.0000
     1.0000   1.0000   1.0000   1.0000   1.0000   1.0000   0.0000   0.0000
     0.0000   0.0000

          k = 0.2652 0.0884-0.0884 (  1065 PWs)   bands (ev):

   -16.6120 -16.6055 -16.5890 -16.5349 -16.5140 -16.4041 -16.3619 -16.3456
   -16.3283 -16.3139  -3.8181   4.0328   6.7073   6.7973  10.0743  10.7898
    12.7588  13.0127

     occupation numbers 
     1.0000   1.0000   1.0000   1.0000   1.0000   1.0000   1.0000   1.0000
     1.0000   1.0000   1.0000   1.0000   1.0000   1.0000   0.0000   0.0000
     0.0000   0.0000

          k = 0.3535 0.1768-0.1768 (  1076 PWs)   bands (ev):

   -16.6233 -16.6137 -16.5747 -16.5197 -16.5020 -16.4130 -16.3768 -16.3613
   -16.3170 -16.3037  -3.0751   2.0961   6.0263   6.4840   9.7799  11.4833
    12.9265  13.7445

     occupation numbers 
     1.0000   1.0000   1.0000   1.0000   1.0000   1.0000   1.0000   1.0000
     1.0000   1.0000   1.0000   1.0000   1.0000   1.0000   0.0000   0.0000
     0.0000   0.0000

          k =-0.2651-0.4419 0.4419 (  1082 PWs)   bands (ev):

   -16.6277 -16.6190 -16.5611 -16.5080 -16.5039 -16.4057 -16.3907 -16.3766
   -16.3092 -16.2994  -2.3314   0.7683   5.5705   6.4819   9.5535  11.7081
    12.6501  15.3005

     occupation numbers 
     1.0000   1.0000   1.0000   1.0000   1.0000   1.0000   1.0000   1.0000
     1.0000   1.0000   1.0000   1.0000   1.0000   1.0000   0.0000   0.0000
     0.0000   0.0000

          k =-0.1768-0.3535 0.3536 (  1080 PWs)   bands (ev):

   -16.6259 -16.6207 -16.5603 -16.5146 -16.5021 -16.3999 -16.3864 -16.3835
   -16.3052 -16.3033  -2.5357   1.0956   5.4299   6.7805   9.5690  11.9386
    12.3568  15.4820

     occupation numbers 
     1.0000   1.0000   1.0000   1.0000   1.0000   1.0000   1.0000   1.0000
     1.0000   1.0000   1.0000   1.0000   1.0000   1.0000   0.0000   0.0000
     0.0000   0.0000

          k =-0.0884-0.2652 0.2652 (  1076 PWs)   bands (ev):

   -16.6179 -16.6169 -16.5717 -16.5263 -16.5087 -16.3968 -16.3821 -16.3621
   -16.3153 -16.3065  -3.3532   2.7120   5.6740   7.3070   9.7930  11.9613
    12.1243  13.8282

     occupation numbers 
     1.0000   1.0000   1.0000   1.0000   1.0000   1.0000   1.0000   1.0000
     1.0000   1.0000   1.0000   1.0000   1.0000   1.0000   0.0000   0.0000
     0.0000   0.0000

          k = 0.0000-0.1768 0.1768 (  1055 PWs)   bands (ev):

   -16.6099 -16.6036 -16.5861 -16.5388 -16.5272 -16.3819 -16.3729 -16.3419
   -16.3337 -16.3139  -4.0046   4.5754   6.4862   7.8479   9.8776  11.3170
    11.4394  12.9498

     occupation numbers 
     1.0000   1.0000   1.0000   1.0000   1.0000   1.0000   1.0000   1.0000
     1.0000   1.0000   1.0000   1.0000   1.0000   0.9938   0.0000   0.0000
     0.0000   0.0000

          k = 0.1768-0.1768 0.1768 (  1077 PWs)   bands (ev):

   -16.6092 -16.6092 -16.5833 -16.5290 -16.5290 -16.3755 -16.3755 -16.3605
   -16.3179 -16.3179  -3.7667   3.5003   7.3499   7.3499   8.8133  11.8207
    11.8216  13.7479

     occupation numbers 
     1.0000   1.0000   1.0000   1.0000   1.0000   1.0000   1.0000   1.0000
     1.0000   1.0000   1.0000   1.0000   1.0000   1.0000   0.0000   0.0000
     0.0000   0.0000

          k = 0.2652-0.0884 0.0884 (  1065 PWs)   bands (ev):

   -16.6119 -16.6055 -16.5891 -16.5349 -16.5139 -16.4041 -16.3619 -16.3455
   -16.3283 -16.3139  -3.8180   4.0329   6.7075   6.7971  10.0740  10.7884
    12.7589  13.0127

     occupation numbers 
     1.0000   1.0000   1.0000   1.0000   1.0000   1.0000   1.0000   1.0000
     1.0000   1.0000   1.0000   1.0000   1.0000   1.0000   0.0000   0.0000
     0.0000   0.0000

          k = 0.3536-0.0000 0.0000 (  1062 PWs)   bands (ev):

   -16.6103 -16.6103 -16.5979 -16.5246 -16.4893 -16.4360 -16.3687 -16.3260
   -16.3240 -16.3240  -3.5002   3.4962   6.2004   6.2004   9.1749  10.8890
    14.0067  14.0067

     occupation numbers 
     1.0000   1.0000   1.0000   1.0000   1.0000   1.0000   1.0000   1.0000
     1.0000   1.0000   1.0000   1.0000   1.0000   1.0000   0.0000   0.0000
     0.0000   0.0000

          k = 0.4419 0.0884-0.0884 (  1067 PWs)   bands (ev):

   -16.6244 -16.6171 -16.5793 -16.5070 -16.4697 -16.4561 -16.3859 -16.3493
   -16.3131 -16.3039  -2.8451   2.1505   5.3776   5.8523   9.4308  10.8485
    13.9106  14.6251

     occupation numbers 
     1.0000   1.0000   1.0000   1.0000   1.0000   1.0000   1.0000   1.0000
     1.0000   1.0000   1.0000   1.0000   1.0000   1.0000   0.0000   0.0000
     0.0000   0.0000

          k =-0.1768-0.5303 0.5303 (  1082 PWs)   bands (ev):

   -16.6362 -16.6226 -16.5544 -16.4898 -16.4706 -16.4521 -16.4050 -16.3751
   -16.3041 -16.2900  -2.0195   0.8511   4.5057   5.8382   9.5672  12.3740
    13.5724  14.3804

     occupation numbers 
     1.0000   1.0000   1.0000   1.0000   1.0000   1.0000   1.0000   1.0000
     1.0000   1.0000   1.0000   1.0000   1.0000   1.0000   0.0000   0.0000
     0.0000   0.0000

          k =-0.0884-0.4419 0.4419 (  1081 PWs)   bands (ev):

   -16.6392 -16.6250 -16.5423 -16.4870 -16.4780 -16.4316 -16.4210 -16.3875
   -16.2994 -16.2869  -1.8580   0.6409   4.0832   6.1576   9.7734  13.1722
    13.8399  14.9190

     occupation numbers 
     1.0000   1.0000   1.0000   1.0000   1.0000   1.0000   1.0000   1.0000
     1.0000   1.0000   1.0000   1.0000   1.0000   1.0000   0.0000   0.0000
     0.0000   0.0000

          k = 0.0000-0.3536 0.3536 (  1081 PWs)   bands (ev):

   -16.6323 -16.6238 -16.5490 -16.5137 -16.4862 -16.4171 -16.3984 -16.3847
   -16.3005 -16.2967  -2.6303   1.7017   4.3665   6.7314  10.1202  12.9743
    13.2506  13.4337

     occupation numbers 
     1.0000   1.0000   1.0000   1.0000   1.0000   1.0000   1.0000   1.0000
     1.0000   1.0000   1.0000   1.0000   1.0000   1.0000   0.0000   0.0000
     0.0000   0.0000

          k = 0.0884-0.2652 0.2652 (  1076 PWs)   bands (ev):

   -16.6179 -16.6169 -16.5717 -16.5263 -16.5087 -16.3969 -16.3821 -16.3621
   -16.3153 -16.3065  -3.3530   2.7122   5.6736   7.3068   9.7926  11.9615
    12.1241  13.8286

     occupation numbers 
     1.0000   1.0000   1.0000   1.0000   1.0000   1.0000   1.0000   1.0000
     1.0000   1.0000   1.0000   1.0000   1.0000   1.0000   0.0000   0.0000
     0.0000   0.0000

          k = 0.2652-0.2652 0.2652 (  1077 PWs)   bands (ev):

   -16.6152 -16.6151 -16.5776 -16.5182 -16.5182 -16.3827 -16.3827 -16.3680
   -16.3130 -16.3129  -2.9623   1.5606   6.9653   6.9654   8.4490  11.9622
    11.9630  15.3269

     occupation numbers 
     1.0000   1.0000   1.0000   1.0000   1.0000   1.0000   1.0000   1.0000
     1.0000   1.0000   1.0000   1.0000   1.0000   1.0000   0.0478   0.0000
     0.0000   0.0000

          k = 0.3536-0.1768 0.1768 (  1076 PWs)   bands (ev):

   -16.6232 -16.6137 -16.5747 -16.5197 -16.5019 -16.4130 -16.3768 -16.3613
   -16.3170 -16.3038  -3.0747   2.0960   6.0263   6.4837   9.7793  11.4823
    12.9266  13.7439

     occupation numbers 
     1.0000   1.0000   1.0000   1.0000   1.0000   1.0000   1.0000   1.0000
     1.0000   1.0000   1.0000   1.0000   1.0000   1.0000   0.0000   0.0000
     0.0000   0.0000

          k = 0.4419-0.0884 0.0884 (  1067 PWs)   bands (ev):

   -16.6244 -16.6171 -16.5794 -16.5070 -16.4697 -16.4561 -16.3860 -16.3493
   -16.3131 -16.3039  -2.8449   2.1502   5.3779   5.8521   9.4307  10.8478
    13.9096  14.6250

     occupation numbers 
     1.0000   1.0000   1.0000   1.0000   1.0000   1.0000   1.0000   1.0000
     1.0000   1.0000   1.0000   1.0000   1.0000   1.0000   0.0000   0.0000
     0.0000   0.0000

          k = 0.5303-0.0000 0.0000 (  1074 PWs)   bands (ev):

   -16.6214 -16.6214 -16.5781 -16.4914 -16.4880 -16.4382 -16.4036 -16.3497
   -16.3059 -16.3059  -2.2786   1.3193   5.4332   5.4332   8.7309   9.7166
    16.1954  16.1954

     occupation numbers 
     1.0000   1.0000   1.0000   1.0000   1.0000   1.0000   1.0000   1.0000
     1.0000   1.0000   1.0000   1.0000   1.0000   1.0000   0.0001   0.0000
     0.0000   0.0000

          k =-0.0884-0.6187 0.6187 (  1080 PWs)   bands (ev):

   -16.6317 -16.6245 -16.5523 -16.5066 -16.4676 -16.4242 -16.4216 -16.3761
   -16.3001 -16.2934  -1.4541   0.2804   4.6739   5.3460   9.0499  10.0995
    16.0222  16.4581

     occupation numbers 
     1.0000   1.0000   1.0000   1.0000   1.0000   1.0000   1.0000   1.0000
     1.0000   1.0000   1.0000   1.0000   1.0000   1.0000   0.0000   0.0000
     0.0000   0.0000

          k = 0.0000-0.5303 0.5303 (  1069 PWs)   bands (ev):

   -16.6411 -16.6259 -16.5386 -16.4821 -16.4558 -16.4428 -16.4387 -16.3898
   -16.2977 -16.2841  -1.1096  -0.0549   3.8996   5.6077   9.3083  12.2328
    15.3341  15.5387

     occupation numbers 
     1.0000   1.0000   1.0000   1.0000   1.0000   1.0000   1.0000   1.0000
     1.0000   1.0000   1.0000   1.0000   1.0000   1.0000   0.0000   0.0000
     0.0000   0.0000

          k = 0.0884-0.4419 0.4419 (  1081 PWs)   bands (ev):

   -16.6392 -16.6250 -16.5423 -16.4870 -16.4780 -16.4316 -16.4210 -16.3875
   -16.2994 -16.2869  -1.8576   0.6406   4.0831   6.1575   9.7732  13.1712
    13.8397  14.9191

     occupation numbers 
     1.0000   1.0000   1.0000   1.0000   1.0000   1.0000   1.0000   1.0000
     1.0000   1.0000   1.0000   1.0000   1.0000   1.0000   0.0000   0.0000
     0.0000   0.0000

          k = 0.1768-0.3536 0.3536 (  1080 PWs)   bands (ev):

   -16.6259 -16.6207 -16.5603 -16.5146 -16.5021 -16.3999 -16.3864 -16.3835
   -16.3052 -16.3033  -2.5353   1.0955   5.4295   6.7801   9.5684  11.9380
    12.3568  15.4824

     occupation numbers 
     1.0000   1.0000   1.0000   1.0000   1.0000   1.0000   1.0000   1.0000
     1.0000   1.0000   1.0000   1.0000   1.0000   1.0000   0.0000   0.0000
     0.0000   0.0000

          k =-0.3536 0.3536-0.3536 (  1068 PWs)   bands (ev):

   -16.6169 -16.6169 -16.5729 -16.5152 -16.5152 -16.3846 -16.3846 -16.3713
   -16.3118 -16.3117  -2.4267   0.6388   6.8316   6.8316   8.3192  11.9254
    11.9263  15.1897

     occupation numbers 
     1.0000   1.0000   1.0000   1.0000   1.0000   1.0000   1.0000   1.0000
     1.0000   1.0000   1.0000   1.0000   1.0000   1.0000   0.2215   0.0000
     0.0000   0.0000

          k =-0.2652 0.4420-0.4419 (  1082 PWs)   bands (ev):

   -16.6277 -16.6190 -16.5612 -16.5079 -16.5039 -16.4057 -16.3907 -16.3766
   -16.3092 -16.2994  -2.3308   0.7680   5.5703   6.4815   9.5527  11.7073
    12.6501  15.2998

     occupation numbers 
     1.0000   1.0000   1.0000   1.0000   1.0000   1.0000   1.0000   1.0000
     1.0000   1.0000   1.0000   1.0000   1.0000   1.0000   0.0000   0.0000
     0.0000   0.0000

          k =-0.1768 0.5303-0.5303 (  1082 PWs)   bands (ev):

   -16.6361 -16.6226 -16.5545 -16.4898 -16.4706 -16.4521 -16.4050 -16.3751
   -16.3041 -16.2900  -2.0190   0.8506   4.5058   5.8381   9.5670  12.3732
    13.5716  14.3801

     occupation numbers 
     1.0000   1.0000   1.0000   1.0000   1.0000   1.0000   1.0000   1.0000
     1.0000   1.0000   1.0000   1.0000   1.0000   1.0000   0.0000   0.0000
     0.0000   0.0000

          k =-0.0884 0.6187-0.6187 (  1080 PWs)   bands (ev):

   -16.6317 -16.6245 -16.5523 -16.5066 -16.4676 -16.4242 -16.4216 -16.3761
   -16.3001 -16.2935  -1.4538   0.2801   4.6740   5.3460   9.0499  10.0992
    16.0210  16.4577

     occupation numbers 
     1.0000   1.0000   1.0000   1.0000   1.0000   1.0000   1.0000   1.0000
     1.0000   1.0000   1.0000   1.0000   1.0000   1.0000   0.0000   0.0000
     0.0000   0.0000

          k =-0.7071 0.0000-0.0000 (  1090 PWs)   bands (ev):

   -16.6250 -16.6250 -16.5407 -16.5407 -16.4455 -16.4455 -16.3889 -16.3889
   -16.2985 -16.2985  -0.6423  -0.6423   5.1692   5.1692   8.8998   8.8998
    17.6393  17.6393

     occupation numbers 
     1.0000   1.0000   1.0000   1.0000   1.0000   1.0000   1.0000   1.0000
     1.0000   1.0000   1.0000   1.0000   1.0000   1.0000   0.0000   0.0000
     0.0000   0.0000

          k = 0.0000 0.0000 0.1768 (  1062 PWs)   bands (ev):

   -16.5987 -16.5970 -16.5969 -16.5485 -16.5337 -16.3838 -16.3458 -16.3425
   -16.3424 -16.3229  -4.2517   5.8011   7.3560   7.3566  10.0794  10.3943
    11.9373  11.9383

     occupation numbers 
     1.0000   1.0000   1.0000   1.0000   1.0000   1.0000   1.0000   1.0000
     1.0000   1.0000   1.0000   1.0000   1.0000   1.0000   0.0000   0.0000
     0.0000   0.0000

          k = 0.1768 0.1768 0.0000 (  1055 PWs)   bands (ev):

   -16.6100 -16.6036 -16.5860 -16.5389 -16.5272 -16.3818 -16.3729 -16.3420
   -16.3337 -16.3138  -4.0046   4.5754   6.4859   7.8480   9.8784  11.3177
    11.4396  12.9491

     occupation numbers 
     1.0000   1.0000   1.0000   1.0000   1.0000   1.0000   1.0000   1.0000
     1.0000   1.0000   1.0000   1.0000   1.0000   0.9938   0.0000   0.0000
     0.0000   0.0000

          k = 0.2652 0.2652-0.0884 (  1076 PWs)   bands (ev):

   -16.6180 -16.6169 -16.5717 -16.5264 -16.5087 -16.3968 -16.3821 -16.3621
   -16.3153 -16.3064  -3.3533   2.7122   5.6737   7.3070   9.7935  11.9620
    12.1243  13.8287

     occupation numbers 
     1.0000   1.0000   1.0000   1.0000   1.0000   1.0000   1.0000   1.0000
     1.0000   1.0000   1.0000   1.0000   1.0000   1.0000   0.0000   0.0000
     0.0000   0.0000

          k =-0.3535-0.3535 0.5303 (  1080 PWs)   bands (ev):

   -16.6259 -16.6207 -16.5602 -16.5147 -16.5021 -16.3999 -16.3864 -16.3835
   -16.3052 -16.3033  -2.5358   1.0957   5.4298   6.7805   9.5693  11.9383
    12.3574  15.4825

     occupation numbers 
     1.0000   1.0000   1.0000   1.0000   1.0000   1.0000   1.0000   1.0000
     1.0000   1.0000   1.0000   1.0000   1.0000   1.0000   0.0000   0.0000
     0.0000   0.0000

          k =-0.2652-0.2652 0.4419 (  1082 PWs)   bands (ev):

   -16.6277 -16.6191 -16.5611 -16.5080 -16.5040 -16.4057 -16.3907 -16.3766
   -16.3092 -16.2994  -2.3314   0.7683   5.5706   6.4819   9.5536  11.7076
    12.6506  15.2994

     occupation numbers 
     1.0000   1.0000   1.0000   1.0000   1.0000   1.0000   1.0000   1.0000
     1.0000   1.0000   1.0000   1.0000   1.0000   1.0000   0.0000   0.0000
     0.0000   0.0000

          k =-0.1768-0.1768 0.3536 (  1076 PWs)   bands (ev):

   -16.6232 -16.6138 -16.5747 -16.5197 -16.5020 -16.4130 -16.3768 -16.3613
   -16.3170 -16.3038  -3.0750   2.0959   6.0266   6.4842   9.7800  11.4823
    12.9269  13.7437

     occupation numbers 
     1.0000   1.0000   1.0000   1.0000   1.0000   1.0000   1.0000   1.0000
     1.0000   1.0000   1.0000   1.0000   1.0000   1.0000   0.0000   0.0000
     0.0000   0.0000

          k =-0.0884-0.0884 0.2652 (  1065 PWs)   bands (ev):

   -16.6119 -16.6055 -16.5890 -16.5349 -16.5140 -16.4041 -16.3619 -16.3456
   -16.3282 -16.3139  -3.8180   4.0327   6.7075   6.7976  10.0744  10.7885
    12.7592  13.0126

     occupation numbers 
     1.0000   1.0000   1.0000   1.0000   1.0000   1.0000   1.0000   1.0000
     1.0000   1.0000   1.0000   1.0000   1.0000   1.0000   0.0000   0.0000
     0.0000   0.0000

          k = 0.0884-0.0884 0.2652 (  1065 PWs)   bands (ev):

   -16.6120 -16.6054 -16.5891 -16.5349 -16.5140 -16.4041 -16.3619 -16.3455
   -16.3283 -16.3139  -3.8180   4.0330   6.7073   6.7969  10.0739  10.7898
    12.7585  13.0128

     occupation numbers 
     1.0000   1.0000   1.0000   1.0000   1.0000   1.0000   1.0000   1.0000
     1.0000   1.0000   1.0000   1.0000   1.0000   1.0000   0.0000   0.0000
     0.0000   0.0000

          k = 0.3535 0.1768 0.0000 (  1075 PWs)   bands (ev):

   -16.6194 -16.6179 -16.5756 -16.5222 -16.4931 -16.4257 -16.3743 -16.3568
   -16.3143 -16.3065  -3.2759   2.8518   5.3755   6.6166  10.5317  10.9604
    12.8011  13.7074

     occupation numbers 
     1.0000   1.0000   1.0000   1.0000   1.0000   1.0000   1.0000   1.0000
     1.0000   1.0000   1.0000   1.0000   1.0000   1.0000   0.0000   0.0000
     0.0000   0.0000

          k =-0.2651-0.4419 0.6187 (  1075 PWs)   bands (ev):

   -16.6317 -16.6240 -16.5542 -16.5070 -16.4809 -16.4347 -16.3909 -16.3800
   -16.3029 -16.2957  -2.4728   1.4099   4.6868   6.1387  10.6149  11.5818
    13.0518  14.3054

     occupation numbers 
     1.0000   1.0000   1.0000   1.0000   1.0000   1.0000   1.0000   1.0000
     1.0000   1.0000   1.0000   1.0000   1.0000   1.0000   0.0000   0.0000
     0.0000   0.0000

          k =-0.1768-0.3535 0.5303 (  1086 PWs)   bands (ev):

   -16.6359 -16.6254 -16.5439 -16.4957 -16.4822 -16.4297 -16.4073 -16.3866
   -16.3004 -16.2898  -1.9177   0.5906   4.5043   5.9247  10.5486  11.5625
    13.9558  15.0782

     occupation numbers 
     1.0000   1.0000   1.0000   1.0000   1.0000   1.0000   1.0000   1.0000
     1.0000   1.0000   1.0000   1.0000   1.0000   1.0000   0.0000   0.0000
     0.0000   0.0000

          k =-0.0884-0.2652 0.4419 (  1075 PWs)   bands (ev):

   -16.6317 -16.6240 -16.5542 -16.5070 -16.4809 -16.4347 -16.3909 -16.3800
   -16.3028 -16.2957  -2.4726   1.4096   4.6870   6.1387  10.6150  11.5812
    13.0508  14.3053

     occupation numbers 
     1.0000   1.0000   1.0000   1.0000   1.0000   1.0000   1.0000   1.0000
     1.0000   1.0000   1.0000   1.0000   1.0000   1.0000   0.0000   0.0000
     0.0000   0.0000

          k = 0.0000-0.1768 0.3536 (  1075 PWs)   bands (ev):

   -16.6194 -16.6180 -16.5756 -16.5221 -16.4931 -16.4257 -16.3744 -16.3568
   -16.3143 -16.3065  -3.2758   2.8517   5.3757   6.6166  10.5314  10.9596
    12.8009  13.7071

     occupation numbers 
     1.0000   1.0000   1.0000   1.0000   1.0000   1.0000   1.0000   1.0000
     1.0000   1.0000   1.0000   1.0000   1.0000   1.0000   0.0000   0.0000
     0.0000   0.0000

          k = 0.1768-0.1768 0.3536 (  1076 PWs)   bands (ev):

   -16.6233 -16.6137 -16.5747 -16.5197 -16.5019 -16.4130 -16.3768 -16.3613
   -16.3171 -16.3037  -3.0748   2.0962   6.0260   6.4835   9.7793  11.4833
    12.9262  13.7447

     occupation numbers 
     1.0000   1.0000   1.0000   1.0000   1.0000   1.0000   1.0000   1.0000
     1.0000   1.0000   1.0000   1.0000   1.0000   1.0000   0.0000   0.0000
     0.0000   0.0000

          k = 0.3536-0.0000 0.1768 (  1075 PWs)   bands (ev):

   -16.6194 -16.6180 -16.5756 -16.5221 -16.4931 -16.4257 -16.3744 -16.3568
   -16.3143 -16.3065  -3.2758   2.8517   5.3757   6.6166  10.5314  10.9596
    12.8009  13.7071

     occupation numbers 
     1.0000   1.0000   1.0000   1.0000   1.0000   1.0000   1.0000   1.0000
     1.0000   1.0000   1.0000   1.0000   1.0000   1.0000   0.0000   0.0000
     0.0000   0.0000

          k =-0.1768-0.5303 0.7071 (  1077 PWs)   bands (ev):

   -16.6293 -16.6286 -16.5566 -16.4889 -16.4767 -16.4486 -16.4051 -16.3716
   -16.2979 -16.2977  -2.1088   1.1113   4.7311   5.3443  10.0455  10.6925
    13.7410  16.0725

     occupation numbers 
     1.0000   1.0000   1.0000   1.0000   1.0000   1.0000   1.0000   1.0000
     1.0000   1.0000   1.0000   1.0000   1.0000   1.0000   0.0000   0.0000
     0.0000   0.0000

          k =-0.0884-0.4419 0.6187 (  1083 PWs)   bands (ev):

   -16.6394 -16.6308 -16.5316 -16.4790 -16.4701 -16.4451 -16.4266 -16.3947
   -16.2942 -16.2858  -1.3370   0.2089   4.0954   5.1513  10.4510  12.3729
    13.2445  15.2219

     occupation numbers 
     1.0000   1.0000   1.0000   1.0000   1.0000   1.0000   1.0000   1.0000
     1.0000   1.0000   1.0000   1.0000   1.0000   1.0000   0.0000   0.0000
     0.0000   0.0000

          k = 0.0000-0.3536 0.5303 (  1088 PWs)   bands (ev):

   -16.6400 -16.6302 -16.5327 -16.4837 -16.4578 -16.4562 -16.4230 -16.3941
   -16.2949 -16.2860  -1.6608   0.5673   3.9443   5.5110  10.8241  12.6785
    13.1188  14.9143

     occupation numbers 
     1.0000   1.0000   1.0000   1.0000   1.0000   1.0000   1.0000   1.0000
     1.0000   1.0000   1.0000   1.0000   1.0000   1.0000   0.0000   0.0000
     0.0000   0.0000

          k = 0.0884-0.2652 0.4419 (  1075 PWs)   bands (ev):

   -16.6317 -16.6240 -16.5542 -16.5070 -16.4808 -16.4347 -16.3909 -16.3800
   -16.3029 -16.2956  -2.4724   1.4097   4.6866   6.1385  10.6138  11.5816
    13.0521  14.3051

     occupation numbers 
     1.0000   1.0000   1.0000   1.0000   1.0000   1.0000   1.0000   1.0000
     1.0000   1.0000   1.0000   1.0000   1.0000   1.0000   0.0000   0.0000
     0.0000   0.0000

          k =-0.4420 0.4420-0.2652 (  1082 PWs)   bands (ev):

   -16.6277 -16.6190 -16.5612 -16.5080 -16.5039 -16.4057 -16.3907 -16.3766
   -16.3093 -16.2994  -2.3308   0.7680   5.5702   6.4814   9.5526  11.7078
    12.6496  15.3010

     occupation numbers 
     1.0000   1.0000   1.0000   1.0000   1.0000   1.0000   1.0000   1.0000
     1.0000   1.0000   1.0000   1.0000   1.0000   1.0000   0.0000   0.0000
     0.0000   0.0000

          k =-0.2652 0.6187-0.4419 (  1075 PWs)   bands (ev):

   -16.6317 -16.6240 -16.5542 -16.5070 -16.4808 -16.4347 -16.3909 -16.3800
   -16.3029 -16.2957  -2.4724   1.4096   4.6868   6.1384  10.6145  11.5812
    13.0511  14.3050

     occupation numbers 
     1.0000   1.0000   1.0000   1.0000   1.0000   1.0000   1.0000   1.0000
     1.0000   1.0000   1.0000   1.0000   1.0000   1.0000   0.0000   0.0000
     0.0000   0.0000

          k =-0.1768 0.7071-0.5303 (  1077 PWs)   bands (ev):

   -16.6293 -16.6286 -16.5567 -16.4889 -16.4767 -16.4486 -16.4051 -16.3716
   -16.2980 -16.2977  -2.1086   1.1110   4.7311   5.3444  10.0454  10.6921
    13.7401  16.0726

     occupation numbers 
     1.0000   1.0000   1.0000   1.0000   1.0000   1.0000   1.0000   1.0000
     1.0000   1.0000   1.0000   1.0000   1.0000   1.0000   0.0000   0.0000
     0.0000   0.0000

          k =-0.7071 0.1768 0.0000 (  1082 PWs)   bands (ev):

   -16.6324 -16.6324 -16.5225 -16.5225 -16.4468 -16.4468 -16.4046 -16.4046
   -16.2919 -16.2919  -0.5952  -0.5946   4.6967   4.6969  10.0934  10.0936
    15.7350  15.7375

     occupation numbers 
     1.0000   1.0000   1.0000   1.0000   1.0000   1.0000   1.0000   1.0000
     1.0000   1.0000   1.0000   1.0000   1.0000   1.0000   0.0000   0.0000
     0.0000   0.0000

          k =-0.6187 0.2652-0.0884 (  1083 PWs)   bands (ev):

   -16.6394 -16.6307 -16.5317 -16.4790 -16.4700 -16.4451 -16.4266 -16.3947
   -16.2942 -16.2858  -1.3363   0.2082   4.0954   5.1514  10.4507  12.3724
    13.2428  15.2243

     occupation numbers 
     1.0000   1.0000   1.0000   1.0000   1.0000   1.0000   1.0000   1.0000
     1.0000   1.0000   1.0000   1.0000   1.0000   1.0000   0.0000   0.0000
     0.0000   0.0000

          k =-0.5303 0.3536-0.1768 (  1086 PWs)   bands (ev):

   -16.6360 -16.6254 -16.5439 -16.4957 -16.4822 -16.4297 -16.4074 -16.3866
   -16.3004 -16.2897  -1.9170   0.5901   4.5040   5.9245  10.5474  11.5620
    13.9556  15.0792

     occupation numbers 
     1.0000   1.0000   1.0000   1.0000   1.0000   1.0000   1.0000   1.0000
     1.0000   1.0000   1.0000   1.0000   1.0000   1.0000   0.0000   0.0000
     0.0000   0.0000

          k =-0.3536 0.3536-0.1768 (  1080 PWs)   bands (ev):

   -16.6259 -16.6207 -16.5603 -16.5146 -16.5021 -16.3999 -16.3864 -16.3835
   -16.3052 -16.3032  -2.5352   1.0953   5.4297   6.7801   9.5682  11.9383
    12.3563  15.4819

     occupation numbers 
     1.0000   1.0000   1.0000   1.0000   1.0000   1.0000   1.0000   1.0000
     1.0000   1.0000   1.0000   1.0000   1.0000   1.0000   0.0000   0.0000
     0.0000   0.0000

          k =-0.1768 0.5303-0.3536 (  1086 PWs)   bands (ev):

   -16.6359 -16.6254 -16.5439 -16.4957 -16.4822 -16.4297 -16.4074 -16.3866
   -16.3004 -16.2898  -1.9171   0.5901   4.5042   5.9243  10.5480  11.5622
    13.9551  15.0786

     occupation numbers 
     1.0000   1.0000   1.0000   1.0000   1.0000   1.0000   1.0000   1.0000
     1.0000   1.0000   1.0000   1.0000   1.0000   1.0000   0.0000   0.0000
     0.0000   0.0000

          k =-0.0884 0.6187-0.4419 (  1083 PWs)   bands (ev):

   -16.6394 -16.6308 -16.5317 -16.4790 -16.4700 -16.4451 -16.4266 -16.3947
   -16.2942 -16.2859  -1.3365   0.2084   4.0955   5.1512  10.4509  12.3725
    13.2437  15.2228

     occupation numbers 
     1.0000   1.0000   1.0000   1.0000   1.0000   1.0000   1.0000   1.0000
     1.0000   1.0000   1.0000   1.0000   1.0000   1.0000   0.0000   0.0000
     0.0000   0.0000

          k =-0.7071 0.0000 0.1768 (  1082 PWs)   bands (ev):

   -16.6324 -16.6324 -16.5225 -16.5225 -16.4468 -16.4468 -16.4046 -16.4046
   -16.2919 -16.2919  -0.5949  -0.5949   4.6968   4.6968  10.0935  10.0935
    15.7362  15.7362

     occupation numbers 
     1.0000   1.0000   1.0000   1.0000   1.0000   1.0000   1.0000   1.0000
     1.0000   1.0000   1.0000   1.0000   1.0000   1.0000   0.0000   0.0000
     0.0000   0.0000

          k =-0.5303 0.1768 0.0000 (  1077 PWs)   bands (ev):

   -16.6293 -16.6286 -16.5567 -16.4889 -16.4767 -16.4486 -16.4051 -16.3716
   -16.2980 -16.2977  -2.1084   1.1107   4.7312   5.3445  10.0452  10.6917
    13.7393  16.0727

     occupation numbers 
     1.0000   1.0000   1.0000   1.0000   1.0000   1.0000   1.0000   1.0000
     1.0000   1.0000   1.0000   1.0000   1.0000   1.0000   0.0000   0.0000
     0.0000   0.0000

          k =-0.4420 0.2652-0.0884 (  1075 PWs)   bands (ev):

   -16.6317 -16.6240 -16.5542 -16.5070 -16.4808 -16.4347 -16.3909 -16.3799
   -16.3029 -16.2957  -2.4722   1.4094   4.6868   6.1386  10.6138  11.5810
    13.0511  14.3050

     occupation numbers 
     1.0000   1.0000   1.0000   1.0000   1.0000   1.0000   1.0000   1.0000
     1.0000   1.0000   1.0000   1.0000   1.0000   1.0000   0.0000   0.0000
     0.0000   0.0000

          k =-0.2652 0.2652-0.0884 (  1076 PWs)   bands (ev):

   -16.6179 -16.6169 -16.5717 -16.5263 -16.5087 -16.3969 -16.3821 -16.3621
   -16.3153 -16.3065  -3.3529   2.7120   5.6739   7.3068   9.7921  11.9608
    12.1242  13.8281

     occupation numbers 
     1.0000   1.0000   1.0000   1.0000   1.0000   1.0000   1.0000   1.0000
     1.0000   1.0000   1.0000   1.0000   1.0000   1.0000   0.0000   0.0000
     0.0000   0.0000

          k =-0.0000 0.5303-0.3536 (  1088 PWs)   bands (ev):

   -16.6400 -16.6302 -16.5327 -16.4837 -16.4578 -16.4562 -16.4230 -16.3941
   -16.2949 -16.2860  -1.6608   0.5673   3.9443   5.5110  10.8241  12.6785
    13.1188  14.9143

     occupation numbers 
     1.0000   1.0000   1.0000   1.0000   1.0000   1.0000   1.0000   1.0000
     1.0000   1.0000   1.0000   1.0000   1.0000   1.0000   0.0000   0.0000
     0.0000   0.0000

          k =-0.6187-0.0884 0.2652 (  1083 PWs)   bands (ev):

   -16.6394 -16.6308 -16.5317 -16.4790 -16.4701 -16.4451 -16.4266 -16.3947
   -16.2942 -16.2858  -1.3368   0.2087   4.0953   5.1515  10.4508  12.3728
    13.2436  15.2234

     occupation numbers 
     1.0000   1.0000   1.0000   1.0000   1.0000   1.0000   1.0000   1.0000
     1.0000   1.0000   1.0000   1.0000   1.0000   1.0000   0.0000   0.0000
     0.0000   0.0000

          k =-0.3536 0.1768-0.0000 (  1075 PWs)   bands (ev):

   -16.6193 -16.6180 -16.5757 -16.5221 -16.4931 -16.4258 -16.3744 -16.3568
   -16.3142 -16.3065  -3.2756   2.8515   5.3758   6.6166  10.5311  10.9588
    12.8008  13.7067

     occupation numbers 
     1.0000   1.0000   1.0000   1.0000   1.0000   1.0000   1.0000   1.0000
     1.0000   1.0000   1.0000   1.0000   1.0000   1.0000   0.0000   0.0000
     0.0000   0.0000

          k =-0.1768 0.1768 0.0000 (  1055 PWs)   bands (ev):

   -16.6099 -16.6036 -16.5861 -16.5388 -16.5272 -16.3819 -16.3728 -16.3419
   -16.3337 -16.3139  -4.0045   4.5754   6.4864   7.8478   9.8768  11.3163
    11.4392  12.9504

     occupation numbers 
     1.0000   1.0000   1.0000   1.0000   1.0000   1.0000   1.0000   1.0000
     1.0000   1.0000   1.0000   1.0000   1.0000   0.9938   0.0000   0.0000
     0.0000   0.0000

          k = 0.0884 0.4419-0.2652 (  1075 PWs)   bands (ev):

   -16.6317 -16.6240 -16.5542 -16.5070 -16.4809 -16.4347 -16.3909 -16.3800
   -16.3029 -16.2957  -2.4726   1.4097   4.6868   6.1388  10.6143  11.5816
    13.0517  14.3054

     occupation numbers 
     1.0000   1.0000   1.0000   1.0000   1.0000   1.0000   1.0000   1.0000
     1.0000   1.0000   1.0000   1.0000   1.0000   1.0000   0.0000   0.0000
     0.0000   0.0000

          k =-0.5303-0.1768 0.3536 (  1086 PWs)   bands (ev):

   -16.6360 -16.6254 -16.5439 -16.4957 -16.4822 -16.4297 -16.4074 -16.3866
   -16.3004 -16.2897  -1.9176   0.5906   4.5041   5.9249  10.5480  11.5624
    13.9563  15.0788

     occupation numbers 
     1.0000   1.0000   1.0000   1.0000   1.0000   1.0000   1.0000   1.0000
     1.0000   1.0000   1.0000   1.0000   1.0000   1.0000   0.0000   0.0000
     0.0000   0.0000

          k = 0.0000 0.0000 0.3536 (  1062 PWs)   bands (ev):

   -16.6104 -16.6103 -16.5979 -16.5246 -16.4893 -16.4360 -16.3687 -16.3260
   -16.3240 -16.3239  -3.5002   3.4962   6.2000   6.2008   9.1749  10.8890
    14.0065  14.0070

     occupation numbers 
     1.0000   1.0000   1.0000   1.0000   1.0000   1.0000   1.0000   1.0000
     1.0000   1.0000   1.0000   1.0000   1.0000   1.0000   0.0000   0.0000
     0.0000   0.0000

          k =-0.3535-0.3535 0.7071 (  1081 PWs)   bands (ev):

   -16.6323 -16.6238 -16.5490 -16.5137 -16.4863 -16.4171 -16.3984 -16.3847
   -16.3004 -16.2967  -2.6306   1.7019   4.3664   6.7316  10.1207  12.9748
    13.2508  13.4342

     occupation numbers 
     1.0000   1.0000   1.0000   1.0000   1.0000   1.0000   1.0000   1.0000
     1.0000   1.0000   1.0000   1.0000   1.0000   1.0000   0.0000   0.0000
     0.0000   0.0000

          k =-0.2652-0.2652 0.6187 (  1081 PWs)   bands (ev):

   -16.6392 -16.6251 -16.5423 -16.4871 -16.4780 -16.4316 -16.4210 -16.3875
   -16.2994 -16.2869  -1.8582   0.6411   4.0832   6.1579   9.7738  13.1719
    13.8402  14.9180

     occupation numbers 
     1.0000   1.0000   1.0000   1.0000   1.0000   1.0000   1.0000   1.0000
     1.0000   1.0000   1.0000   1.0000   1.0000   1.0000   0.0000   0.0000
     0.0000   0.0000

          k =-0.1768-0.1768 0.5303 (  1082 PWs)   bands (ev):

   -16.6361 -16.6226 -16.5545 -16.4898 -16.4706 -16.4521 -16.4050 -16.3751
   -16.3041 -16.2900  -2.0194   0.8509   4.5058   5.8385   9.5675  12.3726
    13.5721  14.3805

     occupation numbers 
     1.0000   1.0000   1.0000   1.0000   1.0000   1.0000   1.0000   1.0000
     1.0000   1.0000   1.0000   1.0000   1.0000   1.0000   0.0000   0.0000
     0.0000   0.0000

          k =-0.0884-0.0884 0.4419 (  1067 PWs)   bands (ev):

   -16.6243 -16.6172 -16.5793 -16.5070 -16.4697 -16.4561 -16.3859 -16.3493
   -16.3131 -16.3039  -2.8450   2.1503   5.3776   5.8526   9.4310  10.8477
    13.9101  14.6252

     occupation numbers 
     1.0000   1.0000   1.0000   1.0000   1.0000   1.0000   1.0000   1.0000
     1.0000   1.0000   1.0000   1.0000   1.0000   1.0000   0.0000   0.0000
     0.0000   0.0000

          k = 0.0884-0.0884 0.4419 (  1067 PWs)   bands (ev):

   -16.6244 -16.6171 -16.5793 -16.5070 -16.4697 -16.4561 -16.3859 -16.3493
   -16.3131 -16.3039  -2.8450   2.1504   5.3779   5.8518   9.4306  10.8486
    13.9101  14.6249

     occupation numbers 
     1.0000   1.0000   1.0000   1.0000   1.0000   1.0000   1.0000   1.0000
     1.0000   1.0000   1.0000   1.0000   1.0000   1.0000   0.0000   0.0000
     0.0000   0.0000

          k =-0.1768-0.3535 0.7071 (  1088 PWs)   bands (ev):

   -16.6399 -16.6303 -16.5327 -16.4837 -16.4578 -16.4562 -16.4229 -16.3941
   -16.2949 -16.2860  -1.6612   0.5676   3.9443   5.5111  10.8248  12.6787
    13.1193  14.9130

     occupation numbers 
     1.0000   1.0000   1.0000   1.0000   1.0000   1.0000   1.0000   1.0000
     1.0000   1.0000   1.0000   1.0000   1.0000   1.0000   0.0000   0.0000
     0.0000   0.0000

          k =-0.0884-0.2652 0.6187 (  1083 PWs)   bands (ev):

   -16.6393 -16.6308 -16.5316 -16.4790 -16.4701 -16.4451 -16.4266 -16.3947
   -16.2942 -16.2859  -1.3369   0.2088   4.0954   5.1516  10.4516  12.3715
    13.2437  15.2233

     occupation numbers 
     1.0000   1.0000   1.0000   1.0000   1.0000   1.0000   1.0000   1.0000
     1.0000   1.0000   1.0000   1.0000   1.0000   1.0000   0.0000   0.0000
     0.0000   0.0000

          k = 0.0000-0.1768 0.5303 (  1077 PWs)   bands (ev):

   -16.6293 -16.6286 -16.5567 -16.4889 -16.4767 -16.4486 -16.4051 -16.3716
   -16.2980 -16.2977  -2.1086   1.1110   4.7311   5.3444  10.0454  10.6921
    13.7401  16.0726

     occupation numbers 
     1.0000   1.0000   1.0000   1.0000   1.0000   1.0000   1.0000   1.0000
     1.0000   1.0000   1.0000   1.0000   1.0000   1.0000   0.0000   0.0000
     0.0000   0.0000

          k =-0.5304 0.5304-0.1768 (  1082 PWs)   bands (ev):

   -16.6362 -16.6225 -16.5545 -16.4898 -16.4706 -16.4521 -16.4050 -16.3751
   -16.3041 -16.2900  -2.0191   0.8508   4.5057   5.8377   9.5666  12.3746
    13.5718  14.3800

     occupation numbers 
     1.0000   1.0000   1.0000   1.0000   1.0000   1.0000   1.0000   1.0000
     1.0000   1.0000   1.0000   1.0000   1.0000   1.0000   0.0000   0.0000
     0.0000   0.0000

          k =-0.7071 0.3536-0.0000 (  1084 PWs)   bands (ev):

   -16.6380 -16.6380 -16.5007 -16.5007 -16.4524 -16.4523 -16.4201 -16.4200
   -16.2866 -16.2865  -0.5454  -0.5445   4.3300   4.3300  12.4760  12.4775
    12.8541  12.8551

     occupation numbers 
     1.0000   1.0000   1.0000   1.0000   1.0000   1.0000   1.0000   1.0000
     1.0000   1.0000   1.0000   1.0000   1.0000   1.0000   0.0000   0.0000
     0.0000   0.0000

          k =-0.6187 0.4420-0.0884 (  1083 PWs)   bands (ev):

   -16.6394 -16.6307 -16.5317 -16.4790 -16.4700 -16.4451 -16.4266 -16.3947
   -16.2942 -16.2858  -1.3364   0.2083   4.0954   5.1512  10.4501  12.3737
    13.2435  15.2229

     occupation numbers 
     1.0000   1.0000   1.0000   1.0000   1.0000   1.0000   1.0000   1.0000
     1.0000   1.0000   1.0000   1.0000   1.0000   1.0000   0.0000   0.0000
     0.0000   0.0000

          k =-0.4420 0.4420-0.0884 (  1081 PWs)   bands (ev):

   -16.6392 -16.6250 -16.5423 -16.4870 -16.4780 -16.4316 -16.4210 -16.3875
   -16.2994 -16.2869  -1.8574   0.6404   4.0831   6.1573   9.7728  13.1714
    13.8394  14.9201

     occupation numbers 
     1.0000   1.0000   1.0000   1.0000   1.0000   1.0000   1.0000   1.0000
     1.0000   1.0000   1.0000   1.0000   1.0000   1.0000   0.0000   0.0000
     0.0000   0.0000

          k =-0.5303 0.3536 0.0000 (  1088 PWs)   bands (ev):

   -16.6400 -16.6302 -16.5327 -16.4837 -16.4578 -16.4562 -16.4230 -16.3941
   -16.2949 -16.2859  -1.6603   0.5669   3.9443   5.5108  10.8234  12.6784
    13.1184  14.9155

     occupation numbers 
     1.0000   1.0000   1.0000   1.0000   1.0000   1.0000   1.0000   1.0000
     1.0000   1.0000   1.0000   1.0000   1.0000   1.0000   0.0000   0.0000
     0.0000   0.0000

          k =-0.3536 0.3536 0.0000 (  1081 PWs)   bands (ev):

   -16.6323 -16.6237 -16.5490 -16.5136 -16.4862 -16.4172 -16.3983 -16.3847
   -16.3005 -16.2967  -2.6300   1.7014   4.3666   6.7312  10.1197  12.9737
    13.2503  13.4332

     occupation numbers 
     1.0000   1.0000   1.0000   1.0000   1.0000   1.0000   1.0000   1.0000
     1.0000   1.0000   1.0000   1.0000   1.0000   1.0000   0.0000   0.0000
     0.0000   0.0000

          k =-0.7071 0.0000 0.3536 (  1084 PWs)   bands (ev):

   -16.6380 -16.6380 -16.5007 -16.5007 -16.4523 -16.4523 -16.4200 -16.4200
   -16.2866 -16.2866  -0.5449  -0.5449   4.3300   4.3300  12.4768  12.4768
    12.8546  12.8546

     occupation numbers 
     1.0000   1.0000   1.0000   1.0000   1.0000   1.0000   1.0000   1.0000
     1.0000   1.0000   1.0000   1.0000   1.0000   1.0000   0.0000   0.0000
     0.0000   0.0000

          k = 0.0000 0.0000 0.5303 (  1074 PWs)   bands (ev):

   -16.6214 -16.6213 -16.5781 -16.4914 -16.4880 -16.4382 -16.4036 -16.3497
   -16.3059 -16.3058  -2.2786   1.3193   5.4327   5.4337   8.7309   9.7166
    16.1954  16.1954

     occupation numbers 
     1.0000   1.0000   1.0000   1.0000   1.0000   1.0000   1.0000   1.0000
     1.0000   1.0000   1.0000   1.0000   1.0000   1.0000   0.0001   0.0000
     0.0000   0.0000

          k =-0.1768-0.1768 0.7071 (  1069 PWs)   bands (ev):

   -16.6411 -16.6259 -16.5386 -16.4821 -16.4558 -16.4428 -16.4387 -16.3898
   -16.2976 -16.2841  -1.1101  -0.0545   3.8995   5.6082   9.3089  12.2317
    15.3346  15.5389

     occupation numbers 
     1.0000   1.0000   1.0000   1.0000   1.0000   1.0000   1.0000   1.0000
     1.0000   1.0000   1.0000   1.0000   1.0000   1.0000   0.0000   0.0000
     0.0000   0.0000

          k =-0.0884-0.0884 0.6187 (  1080 PWs)   bands (ev):

   -16.6317 -16.6245 -16.5523 -16.5066 -16.4676 -16.4242 -16.4216 -16.3761
   -16.3000 -16.2935  -1.4540   0.2803   4.6737   5.3465   9.0504  10.0986
    16.0218  16.4580

     occupation numbers 
     1.0000   1.0000   1.0000   1.0000   1.0000   1.0000   1.0000   1.0000
     1.0000   1.0000   1.0000   1.0000   1.0000   1.0000   0.0000   0.0000
     0.0000   0.0000

          k =-0.6187 0.6187-0.0884 (  1080 PWs)   bands (ev):

   -16.6317 -16.6245 -16.5523 -16.5066 -16.4676 -16.4242 -16.4216 -16.3761
   -16.3001 -16.2934  -1.4539   0.2802   4.6742   5.3455   9.0494  10.1001
    16.0214  16.4579

     occupation numbers 
     1.0000   1.0000   1.0000   1.0000   1.0000   1.0000   1.0000   1.0000
     1.0000   1.0000   1.0000   1.0000   1.0000   1.0000   0.0000   0.0000
     0.0000   0.0000

          k =-0.7071 0.5304-0.0000 (  1082 PWs)   bands (ev):

   -16.6324 -16.6323 -16.5225 -16.5225 -16.4468 -16.4468 -16.4046 -16.4046
   -16.2919 -16.2919  -0.5954  -0.5944   4.6965   4.6970  10.0927  10.0943
    15.7361  15.7364

     occupation numbers 
     1.0000   1.0000   1.0000   1.0000   1.0000   1.0000   1.0000   1.0000
     1.0000   1.0000   1.0000   1.0000   1.0000   1.0000   0.0000   0.0000
     0.0000   0.0000

          k =-0.5304 0.5304 0.0000 (  1069 PWs)   bands (ev):

   -16.6412 -16.6258 -16.5386 -16.4821 -16.4558 -16.4427 -16.4388 -16.3898
   -16.2977 -16.2840  -1.1090  -0.0554   3.8997   5.6073   9.3078  12.2339
    15.3335  15.5385

     occupation numbers 
     1.0000   1.0000   1.0000   1.0000   1.0000   1.0000   1.0000   1.0000
     1.0000   1.0000   1.0000   1.0000   1.0000   1.0000   0.0000   0.0000
     0.0000   0.0000

          k = 0.0000 0.0000-0.7071 (  1090 PWs)   bands (ev):

   -16.6251 -16.6250 -16.5407 -16.5407 -16.4455 -16.4455 -16.3889 -16.3889
   -16.2985 -16.2985  -0.6428  -0.6418   5.1687   5.1697   8.8992   8.9004
    17.6392  17.6395

     occupation numbers 
     1.0000   1.0000   1.0000   1.0000   1.0000   1.0000   1.0000   1.0000
     1.0000   1.0000   1.0000   1.0000   1.0000   1.0000   0.0000   0.0000
     0.0000   0.0000

     the Fermi energy is     8.2085 ev

!    total energy              =    -426.37413489 Ry
     Harris-Foulkes estimate   =    -426.37413485 Ry
     estimated scf accuracy    <          4.0E-10 Ry

     The total energy is the sum of the following terms:

     one-electron contribution =    -279.43106370 Ry
     hartree contribution      =     165.27626889 Ry
     xc contribution           =    -115.25891119 Ry
     ewald contribution        =    -196.96024981 Ry
     smearing contrib. (-TS)   =      -0.00017907 Ry

     convergence has been achieved in   9 iterations

     Forces acting on atoms (Ry/au):

     atom    1 type  1   force =   0.00000000E+00  0.00000000E+00  0.34156522E-04
     atom    2 type  1   force =   0.00000000E+00  0.00000000E+00 -0.34156522E-04
     The non-local contrib.  to forces
     atom    1 type  1   force =  -0.21006417E-18  0.21006417E-18  0.63123913E-04
     atom    2 type  1   force =   0.25072175E-18 -0.25072175E-18 -0.63123913E-04
     The ionic contribution  to forces
     atom    1 type  1   force =  -0.10658141E-13  0.11102230E-13  0.34301019E-02
     atom    2 type  1   force =   0.10658141E-13 -0.11102230E-13 -0.34301019E-02
     The local contribution  to forces
     atom    1 type  1   force =  -0.63948846E-13 -0.62616579E-13 -0.34523605E-02
     atom    2 type  1   force =   0.74606987E-13  0.70166095E-13  0.34523605E-02
     The core correction contribution to forces
     atom    1 type  1   force =  -0.51070259E-14 -0.76605389E-14 -0.74685696E-05
     atom    2 type  1   force =   0.83266727E-14  0.79380946E-14  0.74685696E-05
     The Hubbard contrib.    to forces
     atom    1 type  1   force =   0.00000000E+00  0.00000000E+00  0.00000000E+00
     atom    2 type  1   force =   0.00000000E+00  0.00000000E+00  0.00000000E+00
     The SCF correction term to forces
     atom    1 type  1   force =  -0.12552224E-15  0.44221896E-16  0.75976944E-06
     atom    2 type  1   force =  -0.29033206E-14 -0.47603616E-14 -0.75976947E-06

     Total force =     0.000048     Total SCF correction =     0.000001


     entering subroutine stress ...

          total   stress  (Ry/bohr**3)                   (kbar)     P=    0.43
   0.0000028904  -0.0000005387   0.0000000000          0.43     -0.08      0.00
  -0.0000005387   0.0000028904   0.0000000000         -0.08      0.43      0.00
   0.0000000000   0.0000000000   0.0000028908          0.00      0.00      0.43

     kinetic stress (kbar)   9996.62     -0.03      0.00
                               -0.03   9996.62     -0.00
                                0.00      0.00   9996.62

     local   stress (kbar)   1777.16      5.95     -0.00
                                5.95   1777.16      0.00
                               -0.00      0.00   1777.16

     nonloc. stress (kbar)   2937.57     -0.04      0.00
                               -0.04   2937.57      0.00
                                0.00      0.00   2937.57

     hartree stress (kbar)  26306.45     -2.44     -0.00
                               -2.44  26306.45      0.00
                               -0.00      0.00  26306.45

     exc-cor stress (kbar)  19474.21     -0.00      0.00
                               -0.00  19474.21      0.00
                                0.00      0.00  19474.21

     corecor stress (kbar) -29142.11      0.00      0.00
                                0.00 -29142.11      0.00
                                0.00      0.00 -29142.11

     ewald   stress (kbar) -31349.48     -3.53      0.00
                               -3.53 -31349.48      0.00
                                0.00      0.00 -31349.48

     hubbard stress (kbar)      0.00      0.00      0.00
                                0.00      0.00      0.00
                                0.00      0.00      0.00

     london  stress (kbar)      0.00      0.00      0.00
                                0.00      0.00      0.00
                                0.00      0.00      0.00

     XDM     stress (kbar)      0.00      0.00      0.00
                                0.00      0.00      0.00
                                0.00      0.00      0.00

     dft-nl  stress (kbar)      0.00      0.00      0.00
                                0.00      0.00      0.00
                                0.00      0.00      0.00



     Writing output data file Ge_diamond.scf.in.sxy.save

     init_run     :      2.64s CPU      2.66s WALL (       1 calls)
     electrons    :     77.51s CPU     76.62s WALL (       1 calls)
     forces       :      0.91s CPU      0.82s WALL (       1 calls)
     stress       :      1.37s CPU      1.36s WALL (       1 calls)

     Called by init_run:
     wfcinit      :      2.25s CPU      2.22s WALL (       1 calls)
     potinit      :      0.07s CPU      0.07s WALL (       1 calls)

     Called by electrons:
     c_bands      :     66.43s CPU     65.56s WALL (      10 calls)
     sum_band     :     10.24s CPU     10.17s WALL (      10 calls)
     v_of_rho     :      0.18s CPU      0.20s WALL (      10 calls)
     v_h          :      0.00s CPU      0.01s WALL (      10 calls)
     v_xc         :      0.21s CPU      0.22s WALL (      12 calls)
     newd         :      0.48s CPU      0.48s WALL (      10 calls)
     mix_rho      :      0.22s CPU      0.22s WALL (      10 calls)

     Called by c_bands:
     init_us_2    :      0.77s CPU      0.86s WALL (    2185 calls)
     cegterg      :     64.70s CPU     63.57s WALL (     950 calls)

     Called by sum_band:
     sum_band:bec :      0.04s CPU      0.04s WALL (     950 calls)
     addusdens    :      0.52s CPU      0.51s WALL (      10 calls)

     Called by *egterg:
     h_psi        :     49.07s CPU     49.08s WALL (    2859 calls)
     s_psi        :      2.08s CPU      1.62s WALL (    2859 calls)
     g_psi        :      0.07s CPU      0.10s WALL (    1814 calls)
     cdiaghg      :      4.20s CPU      4.51s WALL (    2669 calls)
     cegterg:over :      4.42s CPU      3.96s WALL (    1814 calls)
     cegterg:upda :      2.06s CPU      1.68s WALL (    1814 calls)
     cegterg:last :      1.32s CPU      1.05s WALL (     950 calls)

     Called by h_psi:
     h_psi:vloc   :     42.69s CPU     43.97s WALL (    2859 calls)
     h_psi:vnl    :      6.30s CPU      5.04s WALL (    2859 calls)
     add_vuspsi   :      2.38s CPU      1.91s WALL (    2859 calls)

     General routines
     calbec       :      5.69s CPU      4.53s WALL (    3999 calls)
     fft          :      0.25s CPU      0.23s WALL (     185 calls)
     ffts         :      0.13s CPU      0.15s WALL (     270 calls)
     fftw         :     47.79s CPU     49.16s WALL (  103014 calls)
     interpolate  :      0.04s CPU      0.03s WALL (      20 calls)

     Parallel routines
     fft_scatter  :     18.45s CPU     19.10s WALL (  103469 calls)

     PWSCF        :  1m23.15s CPU     1m22.55s WALL


   This run was terminated on:  16:28:25   8Mar2018            

=------------------------------------------------------------------------------=
   JOB DONE.
=------------------------------------------------------------------------------=
