
     Program PWSCF v.5.1 starts on 18Jan2017 at  1:52:52 

     This program is part of the open-source Quantum ESPRESSO suite
     for quantum simulation of materials; please cite
         "P. Giannozzi et al., J. Phys.:Condens. Matter 21 395502 (2009);
          URL http://www.quantum-espresso.org", 
     in publications or presentations arising from this work. More details at
     http://www.quantum-espresso.org/quote

     Parallel version (MPI), running on    16 processors
     R & G space division:  proc/nbgrp/npool/nimage =      16
     Reading input from /tmp/Ge_diamond.scf.in.super.444.Si.02.9137/Ge_diamond.scf.in.super.444.Si.02.t
Warning: card &IONS ignored
Warning: card   ION_DYNAMICS='BFGS', ignored
Warning: card / ignored
Warning: card &CELL ignored
Warning: card  CELL_DYNAMICS = 'BFGS' ignored
Warning: card / ignored
     Message from routine read_cards :
     DEPRECATED: no units specified in CELL_PARAMETERS card

     Current dimensions of program PWSCF are:
     Max number of different atomic species (ntypx) = 10
     Max number of k-points (npk) =  40000
     Max angular momentum in pseudopotentials (lmaxx) =  3

     Subspace diagonalization in iterative solution of the eigenvalue problem:
     a serial algorithm will be used


     Parallelization info
     --------------------
     sticks:   dense  smooth     PW     G-vecs:    dense   smooth      PW
     Min         793     553    145                58871    34448    4637
     Max         795     554    146                58873    34482    4641
     Sum       12703    8863   2335               941961   551433   74249



     bravais-lattice index     =            0
     lattice parameter (alat)  =    30.323768153  a.u.
     unit-cell volume          =   19716.7125 (a.u.)^3
     number of atoms/cell      =          128
     number of atomic types    =            2
     number of electrons       =      1782.00
     number of Kohn-Sham states=         1069
     kinetic-energy cutoff     =      35.0000  Ry
     charge density cutoff     =     200.0000  Ry
     convergence threshold     =      1.0E-09
     mixing beta               =       0.3000
     number of iterations used =            8  local-TF  mixing
     Exchange-correlation      = SLA  PW   PSX  PSC ( 1  4 10  8 0)
     A smooth kinetic-energy cutoff is imposed at      34.5000 Ry
     height of the smooth step-function =             800.0000 Ry
     width of the smooth step-function  =               1.0000 Ry


     celldm(1)=  30.323768  celldm(2)=   0.000000  celldm(3)=   0.000000
     celldm(4)=   0.000000  celldm(5)=   0.000000  celldm(6)=   0.000000

     crystal axes: (cart. coord. in units of alat)
               a(1) = (   0.000000000000   0.707106781187   0.707106781187 )  
               a(2) = (   0.707106781187   0.000000000000   0.707106781187 )  
               a(3) = (   0.707106781187   0.707106781187   0.000000000000 )  

     reciprocal axes: (cart. coord. in units 2 pi/alat)
               b(1) = ( -0.707107  0.707107  0.707107 )  
               b(2) = (  0.707107 -0.707107  0.707107 )  
               b(3) = (  0.707107  0.707107 -0.707107 )  


     PseudoPot. # 1 for Ge read from file:
     /users/kfg/psuedo/gbrv_1.5/ge.pbesol.UPF
     MD5 check sum: 7bed0412183f5e553a4d27ec7023354d
     Pseudo is Ultrasoft + core correction, Zval = 14.0
     Generated by new atomic code, or converted to UPF format
     Using radial grid of  873 points,  6 beta functions with: 
                l(1) =   0
                l(2) =   0
                l(3) =   1
                l(4) =   1
                l(5) =   2
                l(6) =   2
     Q(r) pseudized with  8 coefficients,  rinner =    1.400   1.400   1.400
                                                       1.400   1.400

     PseudoPot. # 2 for Si read from file:
     /users/kfg/psuedo/gbrv_1.5/si.pbesol.UPF
     MD5 check sum: ef58ba74faed4df802eb8a9742fc00a8
     Pseudo is Ultrasoft + core correction, Zval =  4.0
     Generated by new atomic code, or converted to UPF format
     Using radial grid of  899 points,  6 beta functions with: 
                l(1) =   0
                l(2) =   0
                l(3) =   1
                l(4) =   1
                l(5) =   2
                l(6) =   2
     Q(r) pseudized with  8 coefficients,  rinner =    0.900   0.900   0.900
                                                       0.900   0.900

     atomic species   valence    mass     pseudopotential
        Ge            14.00    72.64000     Ge( 1.00)
        Si             4.00    28.00000     Si( 1.00)

     No symmetry found


                                    s                        frac. trans.

      isym =  1     identity                                     

 cryst.   s( 1) = (     1          0          0      )
                  (     0          1          0      )
                  (     0          0          1      )

 cart.    s( 1) = (  1.0000000  0.0000000  0.0000000 )
                  (  0.0000000  1.0000000  0.0000000 )
                  (  0.0000000  0.0000000  1.0000000 )


     point group C_1 (1)    
     there are  1 classes
     the character table:

       E    
A      1.00

     the symmetry operations in each class:
     E        1

   Cartesian axes

     site n.     atom                  positions (alat units)
         1           Si  tau(   1) = (    0.00006573553   -0.00015505272   -0.00001609432  )
         2           Ge  tau(   2) = (    0.08823618344    0.08839521074    0.08853941511  )
         3           Ge  tau(   3) = (    0.17680052098    0.17684139589   -0.00013273919  )
         4           Ge  tau(   4) = (    0.26523350217    0.26507267025    0.08839251610  )
         5           Ge  tau(   5) = (    0.35339583186    0.35363518122   -0.00004880106  )
         6           Ge  tau(   6) = (    0.44195595885    0.44202737922    0.08840718786  )
         7           Ge  tau(   7) = (    0.53040259391    0.53039138136    0.00014597297  )
         8           Ge  tau(   8) = (    0.61872838503    0.61868357077    0.08831779061  )
         9           Ge  tau(   9) = (    0.17683797981    0.00016101504    0.17694141796  )
        10           Ge  tau(  10) = (    0.26510691650    0.08828202090    0.26513050104  )
        11           Ge  tau(  11) = (    0.35345841873    0.17679309151    0.17671705169  )
        12           Ge  tau(  12) = (    0.44192505129    0.26522333212    0.26521713187  )
        13           Ge  tau(  13) = (    0.53023553204    0.35370434427    0.17681939830  )
        14           Ge  tau(  14) = (    0.61874231223    0.44180708218    0.26508215866  )
        15           Ge  tau(  15) = (    0.70718846952    0.53023648853    0.17678055703  )
        16           Ge  tau(  16) = (    0.79548119211    0.61871235073    0.26500298904  )
        17           Ge  tau(  17) = (    0.35361448579    0.00008339048    0.35366018924  )
        18           Ge  tau(  18) = (    0.44182406749    0.08834357211    0.44183845228  )
        19           Ge  tau(  19) = (    0.53035612726    0.17667516663    0.35341533685  )
        20           Ge  tau(  20) = (    0.61871816894    0.26506261966    0.44191499565  )
        21           Ge  tau(  21) = (    0.70707361297    0.35348525570    0.35359060148  )
        22           Ge  tau(  22) = (    0.79547176220    0.44193765705    0.44181879310  )
        23           Ge  tau(  23) = (    0.88376034885    0.53029919480    0.35340210127  )
        24           Ge  tau(  24) = (    0.97228080618    0.61881514595    0.44205953839  )
        25           Ge  tau(  25) = (    0.53041309667    0.00002511118    0.53038057457  )
        26           Ge  tau(  26) = (    0.61872648110    0.08843069337    0.61870397042  )
        27           Ge  tau(  27) = (    0.70726356340    0.17672138958    0.53045042745  )
        28           Ge  tau(  28) = (    0.79537870201    0.26518580842    0.61865462260  )
        29           Ge  tau(  29) = (    0.88391993894    0.35370560008    0.53029990100  )
        30           Ge  tau(  30) = (    0.97226218173    0.44206777648    0.61870513812  )
        31           Ge  tau(  31) = (    1.06081287794    0.53033623611    0.53039451703  )
        32           Ge  tau(  32) = (    1.14892546392    0.61859357368    0.61856219813  )
        33           Ge  tau(  33) = (    0.00010963331    0.17681216060    0.17692913861  )
        34           Ge  tau(  34) = (    0.08837221485    0.26517803740    0.26506256074  )
        35           Ge  tau(  35) = (    0.17676938101    0.35364976887    0.17679434026  )
        36           Ge  tau(  36) = (    0.26502128855    0.44178201430    0.26528165005  )
        37           Ge  tau(  37) = (    0.35355198255    0.53023258046    0.17670237392  )
        38           Ge  tau(  38) = (    0.44184762225    0.61861695489    0.26529192041  )
        39           Ge  tau(  39) = (    0.53024952155    0.70705528234    0.17663194962  )
        40           Ge  tau(  40) = (    0.61868827155    0.79537288823    0.26517733721  )
        41           Ge  tau(  41) = (    0.17672721665    0.17691572433    0.35342990009  )
        42           Ge  tau(  42) = (    0.26517009693    0.26512360964    0.44183844144  )
        43           Ge  tau(  43) = (    0.35341033579    0.35356191553    0.35343347273  )
        44           Ge  tau(  44) = (    0.44187691358    0.44191415361    0.44181110774  )
        45           Ge  tau(  45) = (    0.53017329137    0.53037304398    0.35362063951  )
        46           Ge  tau(  46) = (    0.61857234098    0.61882207040    0.44178024650  )
        47           Ge  tau(  47) = (    0.70707345728    0.70709816080    0.35363033900  )
        48           Ge  tau(  48) = (    0.79546178263    0.79564151906    0.44178215227  )
        49           Ge  tau(  49) = (    0.35363824526    0.17661491477    0.53035719145  )
        50           Ge  tau(  50) = (    0.44196680924    0.26509457145    0.61858317817  )
        51           Ge  tau(  51) = (    0.53018646037    0.35371584433    0.53018782470  )
        52           Ge  tau(  52) = (    0.61859642146    0.44180020339    0.61882396361  )
        53           Ge  tau(  53) = (    0.70707427991    0.53039526179    0.53032887691  )
        54           Ge  tau(  54) = (    0.79533581214    0.61879683361    0.61863821162  )
        55           Ge  tau(  55) = (    0.88379164837    0.70709712051    0.53045489575  )
        56           Ge  tau(  56) = (    0.97243640690    0.79547925070    0.61861817846  )
        57           Ge  tau(  57) = (    0.53027477143    0.17673990706    0.70701613446  )
        58           Ge  tau(  58) = (    0.61873562623    0.26505341984    0.79549165026  )
        59           Ge  tau(  59) = (    0.70698613647    0.35350623863    0.70706759791  )
        60           Ge  tau(  60) = (    0.79544960965    0.44189934237    0.79540787347  )
        61           Ge  tau(  61) = (    0.88376230749    0.53027062732    0.70717877090  )
        62           Ge  tau(  62) = (    0.97242658529    0.61860101022    0.79558354457  )
        63           Ge  tau(  63) = (    1.06078436702    0.70720868805    0.70707248949  )
        64           Ge  tau(  64) = (    1.14902803106    0.79544339734    0.79544956046  )
        65           Ge  tau(  65) = (   -0.00010268818    0.35355095635    0.35340547924  )
        66           Ge  tau(  66) = (    0.08848818581    0.44184562858    0.44200215945  )
        67           Ge  tau(  67) = (    0.17673887848    0.53041144685    0.35348325610  )
        68           Ge  tau(  68) = (    0.26500669026    0.61870053876    0.44195297834  )
        69           Ge  tau(  69) = (    0.35357044764    0.70705762713    0.35369795716  )
        70           Ge  tau(  70) = (    0.44203392593    0.79533327330    0.44201197236  )
        71           Ge  tau(  71) = (    0.53025083723    0.88402513404    0.35350418758  )
        72           Ge  tau(  72) = (    0.61863249392    0.97221644211    0.44199142028  )
        73           Ge  tau(  73) = (    0.17690332648    0.35342798752    0.53024290368  )
        74           Ge  tau(  74) = (    0.26523639872    0.44195127361    0.61885631223  )
        75           Ge  tau(  75) = (    0.35371445798    0.53022929784    0.53022861099  )
        76           Ge  tau(  76) = (    0.44188222780    0.61862655960    0.61875555226  )
        77           Ge  tau(  77) = (    0.53029276979    0.70717070590    0.53019172288  )
        78           Ge  tau(  78) = (    0.61869482611    0.79539566374    0.61885175539  )
        79           Ge  tau(  79) = (    0.70723929548    0.88388574124    0.53022734094  )
        80           Ge  tau(  80) = (    0.79547509097    0.97228379295    0.61868728967  )
        81           Ge  tau(  81) = (    0.35361120532    0.35367930084    0.70713284404  )
        82           Ge  tau(  82) = (    0.44190387990    0.44195542860    0.79561130957  )
        83           Ge  tau(  83) = (    0.53045932398    0.53035278690    0.70708401444  )
        84           Ge  tau(  84) = (    0.61875042591    0.61872325903    0.79552557178  )
        85           Ge  tau(  85) = (    0.70704127095    0.70699638955    0.70695014321  )
        86           Ge  tau(  86) = (    0.79548459706    0.79546737647    0.79544894692  )
        87           Ge  tau(  87) = (    0.88400378838    0.88381799938    0.70722633742  )
        88           Ge  tau(  88) = (    0.97230884265    0.97220148552    0.79547248955  )
        89           Ge  tau(  89) = (    0.53027683164    0.35349319862    0.88378293286  )
        90           Ge  tau(  90) = (    0.61887543929    0.44189975321    0.97228496693  )
        91           Ge  tau(  91) = (    0.70711165175    0.53043754109    0.88388313700  )
        92           Ge  tau(  92) = (    0.79565469438    0.61859086839    0.97227508258  )
        93           Ge  tau(  93) = (    0.88395961540    0.70698333846    0.88380526517  )
        94           Ge  tau(  94) = (    0.97217183836    0.79537085289    0.97237412522  )
        95           Ge  tau(  95) = (    1.06054301055    0.88387799381    0.88376208679  )
        96           Ge  tau(  96) = (    1.14915705214    0.97242547912    0.97241051521  )
        97           Ge  tau(  97) = (    0.00000530090    0.53029707245    0.53028051117  )
        98           Ge  tau(  98) = (    0.08834625528    0.61883158715    0.61862842181  )
        99           Ge  tau(  99) = (    0.17682964390    0.70705637020    0.53028326777  )
       100           Ge  tau( 100) = (    0.26500297121    0.79552909785    0.61866254590  )
       101           Ge  tau( 101) = (    0.35368391979    0.88398785361    0.53041295323  )
       102           Ge  tau( 102) = (    0.44205740664    0.97228089925    0.61856990470  )
       103           Ge  tau( 103) = (    0.53028310444    1.06058830988    0.53026459249  )
       104           Ge  tau( 104) = (    0.61856412958    1.14895167775    0.61867796722  )
       105           Ge  tau( 105) = (    0.17664590314    0.53017320562    0.70703425022  )
       106           Ge  tau( 106) = (    0.26501485271    0.61872050336    0.79547179171  )
       107           Ge  tau( 107) = (    0.35343199589    0.70722526684    0.70695602845  )
       108           Ge  tau( 108) = (    0.44196825098    0.79534325521    0.79561615880  )
       109           Ge  tau( 109) = (    0.53017303518    0.88387741314    0.70696083404  )
       110           Ge  tau( 110) = (    0.61869369848    0.97226117666    0.79543350150  )
       111           Ge  tau( 111) = (    0.70724339606    1.06063371291    0.70720321564  )
       112           Ge  tau( 112) = (    0.79562470818    1.14910164410    0.79555700429  )
       113           Ge  tau( 113) = (    0.35356821051    0.53017235188    0.88382105798  )
       114           Ge  tau( 114) = (    0.44180051247    0.61868045034    0.97232594817  )
       115           Ge  tau( 115) = (    0.53040218290    0.70716299591    0.88401234261  )
       116           Ge  tau( 116) = (    0.61883300883    0.79534726888    0.97234152161  )
       117           Ge  tau( 117) = (    0.70703640130    0.88393380658    0.88391649811  )
       118           Ge  tau( 118) = (    0.79544295511    0.97220177374    0.97241744169  )
       119           Ge  tau( 119) = (    0.88378479508    1.06066034995    0.88391555643  )
       120           Ge  tau( 120) = (    0.97236486511    1.14906963479    0.97225953084  )
       121           Ge  tau( 121) = (    0.53034758727    0.53048656290    1.06072237201  )
       122           Ge  tau( 122) = (    0.61861228616    0.61880169767    1.14891135344  )
       123           Ge  tau( 123) = (    0.70705654517    0.70711791641    1.06059213169  )
       124           Ge  tau( 124) = (    0.79548501641    0.79557145568    1.14889522662  )
       125           Ge  tau( 125) = (    0.88393831038    0.88381276299    1.06080758044  )
       126           Ge  tau( 126) = (    0.97225103463    0.97223518758    1.14912226407  )
       127           Ge  tau( 127) = (    1.06060645611    1.06071264836    1.06074292431  )
       128           Ge  tau( 128) = (    1.14901288061    1.14911816645    1.14906000885  )

   Crystallographic axes

     site n.     atom                  positions (cryst. coord.)
         1           Si  tau(   1) = (   -0.00016750127    0.00014474047   -0.00005177639  )
         2           Ge  tau(   2) = (    0.06271927011    0.06249437154    0.06229043577  )
         3           Ge  tau(   3) = (   -0.00006495786   -0.00012276371    0.25015645831  )
         4           Ge  tau(   4) = (    0.06238922221    0.06261667288    0.31248014308  )
         5           Ge  tau(   5) = (    0.00013473800   -0.00020375312    0.49998093142  )
         6           Ge  tau(   6) = (    0.06256382387    0.06246282021    0.56255729077  )
         7           Ge  tau(   7) = (    0.00009529000    0.00011114695    0.74999139489  )
         8           Ge  tau(   8) = (    0.06241842018    0.06248179710    0.81253227643  )
         9           Ge  tau(   9) = (    0.00018699664    0.25004595638    0.00004071301  )
        10           Ge  tau(  10) = (    0.06244149243    0.31250965794    0.06240813885  )
        11           Ge  tau(  11) = (    0.00003657472    0.24987907648    0.24998661302  )
        12           Ge  tau(  12) = (    0.06258984856    0.31248381630    0.31249258479  )
        13           Ge  tau(  13) = (    0.00020379561    0.24985659555    0.50000968512  )
        14           Ge  tau(  14) = (    0.06232929096    0.31255349297    0.56248027661  )
        15           Ge  tau(  15) = (   -0.00012121504    0.25012667636    0.74998884839  )
        16           Ge  tau(  16) = (    0.06239096415    0.31237985703    0.81260043346  )
        17           Ge  tau(  17) = (    0.00009128319    0.50005975290    0.00002664876  )
        18           Ge  tau(  18) = (    0.06247851050    0.56237542110    0.06245816733  )
        19           Ge  tau(  19) = (   -0.00018782438    0.49999258690    0.25004424116  )
        20           Ge  tau(  20) = (    0.06240885303    0.56255332724    0.31244629857  )
        21           Ge  tau(  21) = (    0.00000158690    0.50005103724    0.49990205582  )
        22           Ge  tau(  22) = (    0.06242670152    0.56239942779    0.56256752680  )
        23           Ge  tau(  23) = (   -0.00004175663    0.49982780121    0.74999807002  )
        24           Ge  tau(  24) = (    0.06264533202    0.56252126255    0.81249143999  )
        25           Ge  tau(  25) = (   -0.00000524031    0.75007664209    0.00004075288  )
        26           Ge  tau(  26) = (    0.06251402550    0.81246552057    0.06254586040  )
        27           Ge  tau(  27) = (   -0.00006487448    0.75023506315    0.24998666038  )
        28           Ge  tau(  28) = (    0.06255188846    0.81235786924    0.31247747836  )
        29           Ge  tau(  29) = (    0.00006050157    0.74989681055    0.50015475516  )
        30           Ge  tau(  30) = (    0.06258653941    0.81239465802    0.56259170557  )
        31           Ge  tau(  31) = (   -0.00005807100    0.75014919040    0.75006676873  )
        32           Ge  tau(  32) = (    0.06238824902    0.81239080075    0.81243517248  )
        33           Ge  tau(  33) = (    0.25005534900    0.00016023840   -0.00000519348  )
        34           Ge  tau(  34) = (    0.31244813022    0.06240693806    0.06257024671  )
        35           Ge  tau(  35) = (    0.25008579859   -0.00006084484    0.25005050087  )
        36           Ge  tau(  36) = (    0.31257116150    0.06259374585    0.31220295473  )
        37           Ge  tau(  37) = (    0.24987949573    0.00001539797    0.49998261076  )
        38           Ge  tau(  38) = (    0.31258450974    0.06259492210    0.56227197779  )
        39           Ge  tau(  39) = (    0.24991820175   -0.00012290306    0.75000896787  )
        40           Ge  tau(  40) = (    0.31244358394    0.06257380277    0.81238354173  )
        41           Ge  tau(  41) = (    0.25004597409    0.24977938397    0.00015064266  )
        42           Ge  tau(  42) = (    0.31239408665    0.31245982961    0.06254731781  )
        43           Ge  tau(  43) = (    0.25002238833    0.24980802220    0.24998966776  )
        44           Ge  tau(  44) = (    0.31243396297    0.31238129761    0.31252702647  )
        45           Ge  tau(  45) = (    0.25018879859    0.24990630574    0.49987195332  )
        46           Ge  tau(  46) = (    0.31256239347    0.31220922273    0.56258417119  )
        47           Ge  tau(  47) = (    0.25007187877    0.25003694271    0.74991593016  )
        48           Ge  tau(  48) = (    0.31251424853    0.31226006282    0.81269277852  )
        49           Ge  tau(  49) = (    0.24984476911    0.50019356394   -0.00007356132  )
        50           Ge  tau(  50) = (    0.31233680127    0.56247191876    0.06256353699  )
        51           Ge  tau(  51) = (    0.25011583686    0.49968297543    0.25011390742  )
        52           Ge  tau(  52) = (    0.31256081635    0.56258842572    0.31223902314  )
        53           Ge  tau(  53) = (    0.25006821332    0.49993007693    0.50002395932  )
        54           Ge  tau(  54) = (    0.31261136568    0.56227518340    0.56249950877  )
        55           Ge  tau(  55) = (    0.25014635505    0.50003015275    0.74983998269  )
        56           Ge  tau(  56) = (    0.31230150383    0.56255671409    0.81267604110  )
        57           Ge  tau(  57) = (    0.24994900310    0.74992280306   -0.00000102953  )
        58           Ge  tau(  58) = (    0.31240645375    0.81258862680    0.06243568734  )
        59           Ge  tau(  59) = (    0.25002426046    0.74992032601    0.24990905659  )
        60           Ge  tau(  60) = (    0.31244050966    0.81243609262    0.31249953353  )
        61           Ge  tau(  61) = (    0.25009454028    0.75000726855    0.49982137261  )
        62           Ge  tau(  62) = (    0.31237005588    0.81275498285    0.56246388248  )
        63           Ge  tau(  63) = (    0.24995999185    0.74999151237    0.75018412622  )
        64           Ge  tau(  64) = (    0.31244568607    0.81248987051    0.81248115456  )
        65           Ge  tau(  65) = (    0.49996630112   -0.00017547936    0.00003025634  )
        66           Ge  tau(  66) = (    0.56240416821    0.06268128029    0.06245991220  )
        67           Ge  tau(  67) = (    0.50003467884   -0.00013386399    0.25008038294  )
        68           Ge  tau(  68) = (    0.56260726669    0.06240862921    0.31236742628  )
        69           Ge  tau(  69) = (    0.50005540568    0.00014904232    0.49987507999  )
        70           Ge  tau(  70) = (    0.56237002733    0.06272929871    0.56240107437  )
        71           Ge  tau(  71) = (    0.50012141250   -0.00019099606    0.75007892154  )
        72           Ge  tau(  72) = (    0.56255673799    0.06251352302    0.81236494000  )
        73           Ge  tau(  73) = (    0.49976013774    0.25011656800    0.00006251554  )
        74           Ge  tau(  74) = (    0.56255378133    0.31264120858    0.06245970373  )
        75           Ge  tau(  75) = (    0.49974308666    0.25011340617    0.25011437751  )
        76           Ge  tau(  76) = (    0.56250336245    0.31254913135    0.31236670818  )
        77           Ge  tau(  77) = (    0.49997375064    0.24983057451    0.50011665256  )
        78           Ge  tau(  78) = (    0.56254063332    0.31264791226    0.56231870179  )
        79           Ge  tau(  79) = (    0.49983524801    0.25001944868    0.75016795483  )
        80           Ge  tau(  80) = (    0.56250061010    0.31245534582    0.81251631636  )
        81           Ge  tau(  81) = (    0.50006658002    0.49997027842    0.00011148396  )
        82           Ge  tau(  82) = (    0.56261860263    0.56254570175    0.06240075847  )
        83           Ge  tau(  83) = (    0.49990856839    0.50005923457    0.25012353569  )
        84           Ge  tau(  84) = (    0.56250231653    0.56254073629    0.31250450774  )
        85           Ge  tau(  85) = (    0.49985750429    0.49992097616    0.49998637837  )
        86           Ge  tau(  86) = (    0.56245516766    0.56247952125    0.56250558457  )
        87           Ge  tau(  87) = (    0.49995316637    0.50021591168    0.74995423503  )
        88           Ge  tau(  88) = (    0.56240807865    0.56255990457    0.81249244753  )
        89           Ge  tau(  89) = (    0.49992399922    0.74993381064   -0.00000912352  )
        90           Ge  tau(  90) = (    0.56236858563    0.81265000109    0.06257203857  )
        91           Ge  tau(  91) = (    0.50007229825    0.74992722166    0.25007966636  )
        92           Ge  tau(  92) = (    0.56229927201    0.81270533613    0.31252032363  )
        93           Ge  tau(  93) = (    0.49980357072    0.75008582179    0.50002185491  )
        94           Ge  tau(  94) = (    0.56255516205    0.81258951354    0.56226908522  )
        95           Ge  tau(  95) = (    0.49999313319    0.74983519585    0.74999911314  )
        96           Ge  tau(  96) = (    0.56262997567    0.81256616313    0.81258732530  )
        97           Ge  tau(  97) = (    0.74993785305   -0.00000796230    0.00001545889  )
        98           Ge  tau(  98) = (    0.81254612758    0.06232657662    0.06261389579  )
        99           Ge  tau(  99) = (    0.74989380833    0.00003998085    0.25003489978  )
       100           Ge  tau( 100) = (    0.81259910322    0.06232185973    0.31244893623  )
       101           Ge  tau( 101) = (    0.75004010376    0.00007708836    0.50010750780  )
       102           Ge  tau( 102) = (    0.81231960142    0.06247034709    0.56269323273  )
       103           Ge  tau( 103) = (    0.74993609604   -0.00002871769    0.74996227589  )
       104           Ge  tau( 104) = (    0.81251201796    0.06243075402    0.81235102722  )
       105           Ge  tau( 105) = (    0.74993026578    0.24996715994   -0.00015212798  )
       106           Ge  tau( 106) = (    0.81259116228    0.31237583404    0.06241176489  )
       107           Ge  tau( 107) = (    0.75006302275    0.24972378069    0.25010454128  )
       108           Ge  tau( 108) = (    0.81245944290    0.31271171932    0.31232577536  )
       109           Ge  tau( 109) = (    0.75000356398    0.24979003559    0.49998786116  )
       110           Ge  tau( 110) = (    0.81246638432    0.31244646146    0.56251855789  )
       111           Ge  tau( 111) = (    0.74995287891    0.25018350000    0.75000970260  )
       112           Ge  tau( 112) = (    0.81248969094    0.31259781418    0.81258543869  )
       113           Ge  tau( 113) = (    0.74983384940    0.50007787750   -0.00005691897  )
       114           Ge  tau( 114) = (    0.81261127499    0.56246526796    0.06233500865  )
       115           Ge  tau( 115) = (    0.75007989165    0.50010235258    0.24999960798  )
       116           Ge  tau( 116) = (    0.81236371381    0.56273485330    0.31242718063  )
       117           Ge  tau( 117) = (    0.75010870467    0.49993799497    0.49996247284  )
       118           Ge  tau( 118) = (    0.81259032645    0.56261560788    0.56231060733  )
       119           Ge  tau( 119) = (    0.75009258823    0.49995277967    0.74990766374  )
       120           Ge  tau( 120) = (    0.81244044824    0.56254216642    0.81258941339  )
       121           Ge  tau( 121) = (    0.75014225282    0.74994571160    0.00007903910  )
       122           Ge  tau( 122) = (    0.81253694317    0.81226907483    0.06258081011  )
       123           Ge  tau( 123) = (    0.74999528441    0.74990849237    0.25002046317  )
       124           Ge  tau( 124) = (    0.81245272741    0.81233048382    0.31265521505  )
       125           Ge  tau( 125) = (    0.75001545825    0.75019300908    0.49988453776  )
       126           Ge  tau( 126) = (    0.81254093978    0.81256335089    0.56240724831  )
       127           Ge  tau( 127) = (    0.75013360413    0.74998342562    0.74994060896  )
       128           Ge  tau( 128) = (    0.81258257257    0.81243367592    0.81251592318  )

     number of k points=     8  gaussian smearing, width (Ry)=  0.0150
                       cart. coord. in units 2pi/alat
        k(    1) = (   0.0000000   0.0000000   0.0000000), wk =   0.2500000
        k(    2) = (  -0.3535534  -0.3535534   0.3535534), wk =   0.2500000
        k(    3) = (  -0.7071068   0.0000000   0.0000000), wk =   0.2500000
        k(    4) = (   0.3535534   0.3535534   0.3535534), wk =   0.2500000
        k(    5) = (   0.3535534  -0.3535534  -0.3535534), wk =   0.2500000
        k(    6) = (  -0.3535534   0.3535534  -0.3535534), wk =   0.2500000
        k(    7) = (   0.0000000  -0.7071068   0.0000000), wk =   0.2500000
        k(    8) = (   0.0000000   0.0000000  -0.7071068), wk =   0.2500000

                       cryst. coord.
        k(    1) = (   0.0000000   0.0000000   0.0000000), wk =   0.2500000
        k(    2) = (   0.0000000   0.0000000  -0.5000000), wk =   0.2500000
        k(    3) = (   0.0000000  -0.5000000  -0.5000000), wk =   0.2500000
        k(    4) = (   0.5000000   0.5000000   0.5000000), wk =   0.2500000
        k(    5) = (  -0.5000000   0.0000000   0.0000000), wk =   0.2500000
        k(    6) = (   0.0000000  -0.5000000   0.0000000), wk =   0.2500000
        k(    7) = (  -0.5000000   0.0000000  -0.5000000), wk =   0.2500000
        k(    8) = (  -0.5000000  -0.5000000   0.0000000), wk =   0.2500000

     Dense  grid:   941961 G-vectors     FFT dimensions: ( 144, 144, 144)

     Smooth grid:   551433 G-vectors     FFT dimensions: ( 120, 120, 120)

     Largest allocated arrays     est. size (Mb)     dimensions
        Kohn-Sham Wavefunctions        70.56 Mb     (    4326, 1069)
        NL pseudopotentials           152.09 Mb     (    4326, 2304)
        Each V/rho on FFT grid          2.85 Mb     (  186624)
        Each G-vector array             0.45 Mb     (   58872)
        G-vector shells                 0.02 Mb     (    3076)
     Largest temporary arrays     est. size (Mb)     dimensions
        Auxiliary wavefunctions       282.26 Mb     (    4326, 4276)
        Each subspace H/S matrix      278.99 Mb     (    4276, 4276)
        Each <psi_i|beta_j> matrix     37.58 Mb     (    2304, 1069)
        Arrays for rho mixing          22.78 Mb     (  186624,    8)

     Check: negative/imaginary core charge=   -0.000001    0.000000

     Initial potential from superposition of free atoms

     starting charge 1781.89672, renormalised to 1782.00000
     Starting wfc are 1147 randomized atomic wfcs

     total cpu time spent up to now is     1221.5 secs

     Self-consistent Calculation

     iteration #  1     ecut=    35.00 Ry     beta=0.30
     Davidson diagonalization with overlap
     ethr =  1.00E-02,  avg # of iterations =  4.8

     Threshold (ethr) on eigenvalues was too large:
     Diagonalizing with lowered threshold

     Davidson diagonalization with overlap
     ethr =  1.12E-04,  avg # of iterations =  7.9

     total cpu time spent up to now is    18339.6 secs

     total energy              =  -27084.63659277 Ry
     Harris-Foulkes estimate   =  -27084.85248913 Ry
     estimated scf accuracy    <       2.13230692 Ry

     iteration #  2     ecut=    35.00 Ry     beta=0.30
     Davidson diagonalization with overlap
     ethr =  1.20E-04,  avg # of iterations =  1.0

     total cpu time spent up to now is    21790.1 secs

     total energy              =  -27084.23910325 Ry
     Harris-Foulkes estimate   =  -27084.64386683 Ry
     estimated scf accuracy    <       1.30840196 Ry

     iteration #  3     ecut=    35.00 Ry     beta=0.30
     Davidson diagonalization with overlap
     ethr =  7.34E-05,  avg # of iterations =  2.0

     total cpu time spent up to now is    26118.5 secs

     total energy              =  -27084.30599192 Ry
     Harris-Foulkes estimate   =  -27084.30894949 Ry
     estimated scf accuracy    <       0.02352098 Ry

     iteration #  4     ecut=    35.00 Ry     beta=0.30
     Davidson diagonalization with overlap
     ethr =  1.32E-06,  avg # of iterations =  5.4

     total cpu time spent up to now is    38356.6 secs

     total energy              =  -27084.31048527 Ry
     Harris-Foulkes estimate   =  -27084.31072003 Ry
     estimated scf accuracy    <       0.00259562 Ry

     iteration #  5     ecut=    35.00 Ry     beta=0.30
     Davidson diagonalization with overlap
     ethr =  1.46E-07,  avg # of iterations =  2.0

     total cpu time spent up to now is    42957.1 secs

     total energy              =  -27084.31050394 Ry
     Harris-Foulkes estimate   =  -27084.31070224 Ry
     estimated scf accuracy    <       0.00051559 Ry

     iteration #  6     ecut=    35.00 Ry     beta=0.30
     Davidson diagonalization with overlap
     ethr =  2.89E-08,  avg # of iterations =  1.6

     total cpu time spent up to now is    46808.2 secs

     total energy              =  -27084.31053618 Ry
     Harris-Foulkes estimate   =  -27084.31051774 Ry
     estimated scf accuracy    <       0.00001673 Ry

     iteration #  7     ecut=    35.00 Ry     beta=0.30
     Davidson diagonalization with overlap
     ethr =  9.39E-10,  avg # of iterations =  2.0

     total cpu time spent up to now is    51242.4 secs

     total energy              =  -27084.31054242 Ry
     Harris-Foulkes estimate   =  -27084.31053942 Ry
     estimated scf accuracy    <       0.00001068 Ry

     iteration #  8     ecut=    35.00 Ry     beta=0.30
     Davidson diagonalization with overlap
     ethr =  5.99E-10,  avg # of iterations =  2.0

     total cpu time spent up to now is    55497.2 secs

     total energy              =  -27084.31054584 Ry
     Harris-Foulkes estimate   =  -27084.31054313 Ry
     estimated scf accuracy    <       0.00000051 Ry

     iteration #  9     ecut=    35.00 Ry     beta=0.30
     Davidson diagonalization with overlap
     ethr =  2.87E-11,  avg # of iterations =  2.0

     total cpu time spent up to now is    61586.1 secs

     total energy              =  -27084.31054728 Ry
     Harris-Foulkes estimate   =  -27084.31054599 Ry
     estimated scf accuracy    <       0.00000022 Ry

     iteration # 10     ecut=    35.00 Ry     beta=0.30
     Davidson diagonalization with overlap
     ethr =  1.25E-11,  avg # of iterations =  2.0

     total cpu time spent up to now is    65939.8 secs

     total energy              =  -27084.31054795 Ry
     Harris-Foulkes estimate   =  -27084.31054729 Ry
     estimated scf accuracy    <       0.00000003 Ry

     iteration # 11     ecut=    35.00 Ry     beta=0.30
     Davidson diagonalization with overlap
     ethr =  1.53E-12,  avg # of iterations =  2.0

     total cpu time spent up to now is    71327.6 secs

     total energy              =  -27084.31054830 Ry
     Harris-Foulkes estimate   =  -27084.31054796 Ry
     estimated scf accuracy    <          9.8E-09 Ry

     iteration # 12     ecut=    35.00 Ry     beta=0.30
     Davidson diagonalization with overlap
     ethr =  5.48E-13,  avg # of iterations =  2.5

     total cpu time spent up to now is    76051.1 secs

     End of self-consistent calculation

          k = 0.0000 0.0000 0.0000 ( 69041 PWs)   bands (ev):

   -16.6625 -16.6622 -16.6621 -16.6619 -16.6616 -16.6614 -16.6613 -16.6613
   -16.6612 -16.6611 -16.6609 -16.6607 -16.6600 -16.6600 -16.6598 -16.6597
   -16.6595 -16.6594 -16.6593 -16.6591 -16.6591 -16.6590 -16.6588 -16.6587
   -16.6585 -16.6584 -16.6583 -16.6582 -16.6581 -16.6580 -16.6578 -16.6574
   -16.6571 -16.6567 -16.6565 -16.6561 -16.6554 -16.6552 -16.6550 -16.6549
   -16.6547 -16.6543 -16.6541 -16.6532 -16.6530 -16.6529 -16.6524 -16.6522
   -16.6488 -16.6485 -16.6483 -16.6482 -16.6478 -16.6478 -16.6475 -16.6474
   -16.6472 -16.6471 -16.6469 -16.6469 -16.6468 -16.6467 -16.6466 -16.6465
   -16.6464 -16.6462 -16.6459 -16.6458 -16.6457 -16.6455 -16.6455 -16.6455
   -16.6454 -16.6452 -16.6451 -16.6450 -16.6449 -16.6448 -16.6445 -16.6444
   -16.6442 -16.6439 -16.6434 -16.6430 -16.6429 -16.6424 -16.6421 -16.6407
   -16.6404 -16.6403 -16.6389 -16.6387 -16.6385 -16.6383 -16.6381 -16.6368
   -16.6364 -16.6359 -16.6340 -16.6339 -16.6335 -16.6334 -16.6333 -16.6329
   -16.6328 -16.6326 -16.6324 -16.6322 -16.6320 -16.6320 -16.6319 -16.6318
   -16.6316 -16.6314 -16.6312 -16.6308 -16.6305 -16.6302 -16.6301 -16.6300
   -16.6296 -16.6292 -16.6290 -16.6216 -16.6216 -16.6215 -16.6204 -16.6184
   -16.6183 -16.6147 -16.6144 -16.6143 -16.6092 -16.6090 -16.6089 -16.6063
   -16.6053 -16.6049 -16.6048 -16.6044 -16.5970 -16.5968 -16.5967 -16.5950
   -16.5879 -16.5875 -16.5875 -16.5795 -16.5794 -16.5781 -16.5780 -16.5780
   -16.5780 -16.5779 -16.5777 -16.5776 -16.5775 -16.5773 -16.5771 -16.5770
   -16.5768 -16.5766 -16.5764 -16.5762 -16.5760 -16.5757 -16.5756 -16.5746
   -16.5740 -16.5739 -16.5737 -16.5734 -16.5731 -16.5719 -16.5715 -16.5708
   -16.5707 -16.5705 -16.5704 -16.5702 -16.5701 -16.5679 -16.5641 -16.5641
   -16.5640 -16.5617 -16.5616 -16.5614 -16.5532 -16.5531 -16.5528 -16.5527
   -16.5525 -16.5523 -16.5521 -16.5520 -16.5516 -16.5515 -16.5512 -16.5510
   -16.5508 -16.5507 -16.5494 -16.5491 -16.5476 -16.5471 -16.5469 -16.5467
   -16.5444 -16.5442 -16.5387 -16.5384 -16.5382 -16.5381 -16.5378 -16.5378
   -16.5377 -16.5375 -16.5373 -16.5372 -16.5369 -16.5366 -16.5360 -16.5357
   -16.5356 -16.5352 -16.5351 -16.5349 -16.5306 -16.5305 -16.5303 -16.5292
   -16.5285 -16.5235 -16.5233 -16.5232 -16.5225 -16.5224 -16.5224 -16.5217
   -16.5216 -16.5209 -16.5150 -16.5150 -16.5146 -16.5140 -16.5137 -16.5136
   -16.5134 -16.5133 -16.5133 -16.5131 -16.5131 -16.5128 -16.5128 -16.5127
   -16.5126 -16.5125 -16.5123 -16.5122 -16.5122 -16.5121 -16.5119 -16.5117
   -16.5117 -16.5115 -16.5112 -16.5106 -16.5104 -16.5102 -16.5099 -16.5099
   -16.5093 -16.5089 -16.5088 -16.5086 -16.5083 -16.5082 -16.5079 -16.5062
   -16.5058 -16.5055 -16.5015 -16.5014 -16.5011 -16.4983 -16.4980 -16.4939
   -16.4938 -16.4936 -16.4936 -16.4934 -16.4933 -16.4932 -16.4931 -16.4930
   -16.4928 -16.4925 -16.4924 -16.4923 -16.4920 -16.4919 -16.4911 -16.4909
   -16.4907 -16.4906 -16.4833 -16.4832 -16.4829 -16.4821 -16.4819 -16.4759
   -16.4758 -16.4757 -16.4757 -16.4756 -16.4755 -16.4755 -16.4754 -16.4753
   -16.4752 -16.4752 -16.4750 -16.4749 -16.4748 -16.4748 -16.4746 -16.4746
   -16.4744 -16.4743 -16.4740 -16.4739 -16.4738 -16.4733 -16.4732 -16.4726
   -16.4724 -16.4721 -16.4709 -16.4702 -16.4701 -16.4697 -16.4694 -16.4694
   -16.4685 -16.4662 -16.4660 -16.4659 -16.4604 -16.4603 -16.4602 -16.4583
   -16.4582 -16.4581 -16.4490 -16.4489 -16.4484 -16.4483 -16.4483 -16.4427
   -16.4426 -16.4425 -16.4423 -16.4422 -16.4420 -16.4417 -16.4405 -16.4403
   -16.4403 -16.4400 -16.4400 -16.4395 -16.4394 -16.4393 -16.4392 -16.4386
   -16.4385 -16.4384 -16.4326 -16.4325 -16.4320 -16.4320 -16.4320 -16.4289
   -16.4287 -16.4285 -16.4283 -16.4282 -16.4282 -16.4281 -16.4281 -16.4279
   -16.4278 -16.4276 -16.4274 -16.4273 -16.4272 -16.4272 -16.4271 -16.4267
   -16.4263 -16.4262 -16.4220 -16.4219 -16.4215 -16.4214 -16.4211 -16.4205
   -16.4203 -16.4202 -16.4196 -16.4194 -16.4193 -16.4185 -16.4146 -16.4143
   -16.4130 -16.4130 -16.4129 -16.4107 -16.4097 -16.4093 -16.4092 -16.4090
   -16.4087 -16.4085 -16.4082 -16.4081 -16.4080 -16.4078 -16.4078 -16.4077
   -16.4076 -16.4075 -16.4074 -16.4071 -16.4069 -16.4051 -16.4049 -16.4049
   -16.4047 -16.4045 -16.4043 -16.4011 -16.4008 -16.3992 -16.3991 -16.3990
   -16.3988 -16.3988 -16.3987 -16.3986 -16.3986 -16.3985 -16.3984 -16.3983
   -16.3983 -16.3981 -16.3981 -16.3979 -16.3978 -16.3977 -16.3976 -16.3974
   -16.3973 -16.3973 -16.3971 -16.3970 -16.3969 -16.3968 -16.3966 -16.3964
   -16.3962 -16.3958 -16.3956 -16.3956 -16.3953 -16.3944 -16.3942 -16.3941
   -16.3923 -16.3922 -16.3920 -16.3919 -16.3918 -16.3914 -16.3902 -16.3894
   -16.3892 -16.3891 -16.3865 -16.3864 -16.3863 -16.3836 -16.3818 -16.3817
   -16.3816 -16.3803 -16.3741 -16.3738 -16.3737 -16.3638 -16.3636 -16.3634
   -16.3605 -16.3605 -16.3496 -16.3495 -16.3483 -16.3482 -16.3481 -16.3480
   -16.3472 -16.3471 -16.3469 -16.3464 -16.3464 -16.3463 -16.3459 -16.3456
   -16.3456 -16.3443 -16.3442 -16.3440 -16.3413 -16.3411 -16.3411 -16.3409
   -16.3408 -16.3407 -16.3407 -16.3405 -16.3404 -16.3403 -16.3402 -16.3401
   -16.3400 -16.3370 -16.3369 -16.3367 -16.3343 -16.3342 -16.3339 -16.3338
   -16.3338 -16.3324 -16.3323 -16.3320 -16.3280 -16.3278 -16.3277 -16.3276
   -16.3274 -16.3273 -16.3272 -16.3271 -16.3270 -16.3269 -16.3267 -16.3266
   -16.3265 -16.3265 -16.3264 -16.3263 -16.3262 -16.3258 -16.3253 -16.3250
   -16.3249 -16.3249 -16.3247 -16.3243 -16.3234 -16.3233 -16.3232 -16.3231
   -16.3230 -16.3228 -16.3225 -16.3223 -16.3223 -16.3217 -16.3214 -16.3211
   -16.3209 -16.3207 -16.3206 -16.3200 -16.3198 -16.3198 -16.3195 -16.3192
   -16.3189 -16.3188 -16.3187 -16.3185 -16.3184 -16.3182 -16.3180 -16.3158
   -16.3156 -16.3154 -16.3137 -16.3135 -16.3134 -16.3133 -16.3133 -16.3131
   -16.3130 -16.3129 -16.3128 -16.3125 -16.3124 -16.3124 -16.3121 -16.3121
   -16.3119 -16.3117 -16.3116 -16.3112 -16.3112 -16.3108 -16.3107 -16.3097
   -16.3094 -16.3093 -16.3092 -16.3089 -16.3087 -16.3087 -16.3079 -16.3078
   -16.3077 -16.3075 -16.3074  -4.5212  -3.7922  -3.7915  -3.7905  -3.7900
    -3.7887  -3.7869  -3.7863  -3.7445  -3.5247  -3.5244  -3.5223  -3.5214
    -3.5196  -3.4807  -2.6575  -2.6553  -2.6547  -2.6544  -2.6540  -2.6524
    -2.6515  -2.6508  -2.6502  -2.6489  -2.6475  -2.5963  -2.4500  -2.4493
    -2.4489  -2.4216  -2.0484  -2.0480  -2.0472  -2.0463  -2.0452  -2.0451
    -2.0447  -2.0437  -2.0434  -2.0424  -2.0422  -2.0415  -2.0414  -2.0408
    -2.0403  -2.0394  -2.0390  -2.0385  -2.0379  -2.0375  -2.0354  -2.0348
    -2.0333  -1.8466  -0.6671  -0.6659  -0.6647  -0.6630  -0.6624  -0.6457
    -0.5729  -0.5709  -0.5701  -0.5693  -0.5673  -0.5664  -0.5655  -0.5654
    -0.5651  -0.5632  -0.5625  -0.4537   0.6160   0.6172   0.6185   0.6280
     0.8202   0.8223   0.8228   0.8233   0.8248   0.8250   0.8255   0.8261
     0.8266   0.8271   0.8282   0.8286   0.8290   0.8299   0.8303   0.8312
     0.8318   0.8322   0.8325   0.8331   0.8342   0.8351   0.8355   0.9941
     1.6741   1.6753   1.6763   1.6772   1.6777   1.6788   1.6806   1.6814
     1.6817   1.6830   1.6836   1.7787   3.4697   3.4706   3.4711   3.4727
     3.4736   3.4747   3.4754   3.4765   3.4773   3.4788   3.4792   3.4797
     3.4799   3.5661   4.3043   4.3051   4.3061   4.3063   4.3064   4.3073
     4.3076   4.3088   4.3091   4.3092   4.3093   4.3100   4.3413   4.3417
     4.3424   4.3427   4.3432   4.3443   4.3449   4.3452   4.3454   4.3460
     4.3465   4.3494   4.4782   4.4790   4.4795   4.4800   4.4803   4.4810
     4.4810   4.4814   4.4816   4.4824   4.4828   4.4830   4.4837   4.4839
     4.4842   4.4844   4.4848   4.4851   4.4855   4.4862   4.4874   4.4884
     4.4885   4.5013   5.1455   5.1463   5.1466   5.1467   5.1475   5.1486
     5.8075   5.8087   5.8105   5.8113   5.8117   5.8123   5.8129   5.8134
     5.8139   5.8144   5.8149   5.8151   5.8154   5.8158   5.8161   5.8165
     5.8169   5.8174   5.8181   5.8184   5.8194   5.8196   5.8202   5.8203
     6.1702   6.1727   6.1734   6.1753   6.1765   6.1769   6.1772   6.1780
     6.1789   6.1797   6.1803   6.1814   6.7006   6.7017   6.7033   6.7046
     6.7064   6.7076   6.7084   6.7098   6.7101   6.7106   6.7113   6.7124
     6.8023   6.8043   6.8065   6.8081   6.8094   6.8095   6.8103   6.8127
     7.3129   7.3141   7.3157   7.3228   7.3230   7.3250   7.3251   7.3263
     7.3275   7.3278   7.3286   7.3290   7.3301   7.3311   7.3317   7.3323
     8.1229   8.1976   8.1997   8.2027   8.2930   8.2942   8.2950   8.3180
     8.7844   8.7846   8.7861   8.7895   8.7898   8.7920   8.7942   8.8258
     8.8698   8.8706   8.8711   8.8725   8.8736   8.8935   9.1431   9.1447
     9.1467   9.1487   9.1504   9.1637   9.5207   9.5212   9.5226   9.5233
     9.5246   9.5390   9.5400   9.5411   9.5420   9.5428   9.5430   9.5433
     9.5435   9.5437   9.5446   9.5455   9.5460   9.5469   9.5474   9.5478
     9.5487   9.5496   9.5501   9.5908  10.0834  10.0855  10.0880  10.0905
    10.0912  10.0957  10.0969  10.0986  10.0989  10.1001  10.1015  10.1369
    10.7214  10.7239  10.7255  10.8565  10.8575  10.8641  10.8645  10.8652
    10.8853  11.7627  11.7655  11.7682  11.7838  11.7844  11.7936  11.7941
    11.7963  11.7969  11.7975  11.7980  11.7986  11.7997  11.8002  11.8019
    11.8033  11.8871  11.8880  11.8911  11.8936  11.8964  11.9020  11.9045
    11.9070  12.3204  12.3212  12.3216  12.3308  12.3322  12.3461  12.3471
    12.3476  12.3483  12.3486  12.3495  12.3500  12.3504  12.3507  12.3516
    12.3517  12.3521  12.3523  12.3532  12.3536  12.3543  12.3549  12.3560
    12.3849  12.4419  12.4427  12.4443  12.4453  12.4471  12.4522  12.4547
    12.4550  12.4557  12.4561  12.4576  12.4926  12.8069  12.8078  12.8087
    12.8167  12.8172  12.8263  12.8273  12.8283  12.8312  12.8328  12.8332
    12.8351  12.9283  12.9295  12.9311  12.9438  12.9456  12.9481  12.9512
    12.9516  12.9528  12.9538  12.9541  12.9550  13.1992  13.2004  13.2036
    13.2208  13.2214  13.2231  13.2262  13.2288  13.2292  13.2306  13.2310
    13.2416  13.3931  13.3947  13.4029  13.4039  13.4049  13.4085  13.4095
    13.4100  13.4109  13.4120  13.4126  13.4286

     occupation numbers 
     1.0000   1.0000   1.0000   1.0000   1.0000   1.0000   1.0000   1.0000
     1.0000   1.0000   1.0000   1.0000   1.0000   1.0000   1.0000   1.0000
     1.0000   1.0000   1.0000   1.0000   1.0000   1.0000   1.0000   1.0000
     1.0000   1.0000   1.0000   1.0000   1.0000   1.0000   1.0000   1.0000
     1.0000   1.0000   1.0000   1.0000   1.0000   1.0000   1.0000   1.0000
     1.0000   1.0000   1.0000   1.0000   1.0000   1.0000   1.0000   1.0000
     1.0000   1.0000   1.0000   1.0000   1.0000   1.0000   1.0000   1.0000
     1.0000   1.0000   1.0000   1.0000   1.0000   1.0000   1.0000   1.0000
     1.0000   1.0000   1.0000   1.0000   1.0000   1.0000   1.0000   1.0000
     1.0000   1.0000   1.0000   1.0000   1.0000   1.0000   1.0000   1.0000
     1.0000   1.0000   1.0000   1.0000   1.0000   1.0000   1.0000   1.0000
     1.0000   1.0000   1.0000   1.0000   1.0000   1.0000   1.0000   1.0000
     1.0000   1.0000   1.0000   1.0000   1.0000   1.0000   1.0000   1.0000
     1.0000   1.0000   1.0000   1.0000   1.0000   1.0000   1.0000   1.0000
     1.0000   1.0000   1.0000   1.0000   1.0000   1.0000   1.0000   1.0000
     1.0000   1.0000   1.0000   1.0000   1.0000   1.0000   1.0000   1.0000
     1.0000   1.0000   1.0000   1.0000   1.0000   1.0000   1.0000   1.0000
     1.0000   1.0000   1.0000   1.0000   1.0000   1.0000   1.0000   1.0000
     1.0000   1.0000   1.0000   1.0000   1.0000   1.0000   1.0000   1.0000
     1.0000   1.0000   1.0000   1.0000   1.0000   1.0000   1.0000   1.0000
     1.0000   1.0000   1.0000   1.0000   1.0000   1.0000   1.0000   1.0000
     1.0000   1.0000   1.0000   1.0000   1.0000   1.0000   1.0000   1.0000
     1.0000   1.0000   1.0000   1.0000   1.0000   1.0000   1.0000   1.0000
     1.0000   1.0000   1.0000   1.0000   1.0000   1.0000   1.0000   1.0000
     1.0000   1.0000   1.0000   1.0000   1.0000   1.0000   1.0000   1.0000
     1.0000   1.0000   1.0000   1.0000   1.0000   1.0000   1.0000   1.0000
     1.0000   1.0000   1.0000   1.0000   1.0000   1.0000   1.0000   1.0000
     1.0000   1.0000   1.0000   1.0000   1.0000   1.0000   1.0000   1.0000
     1.0000   1.0000   1.0000   1.0000   1.0000   1.0000   1.0000   1.0000
     1.0000   1.0000   1.0000   1.0000   1.0000   1.0000   1.0000   1.0000
     1.0000   1.0000   1.0000   1.0000   1.0000   1.0000   1.0000   1.0000
     1.0000   1.0000   1.0000   1.0000   1.0000   1.0000   1.0000   1.0000
     1.0000   1.0000   1.0000   1.0000   1.0000   1.0000   1.0000   1.0000
     1.0000   1.0000   1.0000   1.0000   1.0000   1.0000   1.0000   1.0000
     1.0000   1.0000   1.0000   1.0000   1.0000   1.0000   1.0000   1.0000
     1.0000   1.0000   1.0000   1.0000   1.0000   1.0000   1.0000   1.0000
     1.0000   1.0000   1.0000   1.0000   1.0000   1.0000   1.0000   1.0000
     1.0000   1.0000   1.0000   1.0000   1.0000   1.0000   1.0000   1.0000
     1.0000   1.0000   1.0000   1.0000   1.0000   1.0000   1.0000   1.0000
     1.0000   1.0000   1.0000   1.0000   1.0000   1.0000   1.0000   1.0000
     1.0000   1.0000   1.0000   1.0000   1.0000   1.0000   1.0000   1.0000
     1.0000   1.0000   1.0000   1.0000   1.0000   1.0000   1.0000   1.0000
     1.0000   1.0000   1.0000   1.0000   1.0000   1.0000   1.0000   1.0000
     1.0000   1.0000   1.0000   1.0000   1.0000   1.0000   1.0000   1.0000
     1.0000   1.0000   1.0000   1.0000   1.0000   1.0000   1.0000   1.0000
     1.0000   1.0000   1.0000   1.0000   1.0000   1.0000   1.0000   1.0000
     1.0000   1.0000   1.0000   1.0000   1.0000   1.0000   1.0000   1.0000
     1.0000   1.0000   1.0000   1.0000   1.0000   1.0000   1.0000   1.0000
     1.0000   1.0000   1.0000   1.0000   1.0000   1.0000   1.0000   1.0000
     1.0000   1.0000   1.0000   1.0000   1.0000   1.0000   1.0000   1.0000
     1.0000   1.0000   1.0000   1.0000   1.0000   1.0000   1.0000   1.0000
     1.0000   1.0000   1.0000   1.0000   1.0000   1.0000   1.0000   1.0000
     1.0000   1.0000   1.0000   1.0000   1.0000   1.0000   1.0000   1.0000
     1.0000   1.0000   1.0000   1.0000   1.0000   1.0000   1.0000   1.0000
     1.0000   1.0000   1.0000   1.0000   1.0000   1.0000   1.0000   1.0000
     1.0000   1.0000   1.0000   1.0000   1.0000   1.0000   1.0000   1.0000
     1.0000   1.0000   1.0000   1.0000   1.0000   1.0000   1.0000   1.0000
     1.0000   1.0000   1.0000   1.0000   1.0000   1.0000   1.0000   1.0000
     1.0000   1.0000   1.0000   1.0000   1.0000   1.0000   1.0000   1.0000
     1.0000   1.0000   1.0000   1.0000   1.0000   1.0000   1.0000   1.0000
     1.0000   1.0000   1.0000   1.0000   1.0000   1.0000   1.0000   1.0000
     1.0000   1.0000   1.0000   1.0000   1.0000   1.0000   1.0000   1.0000
     1.0000   1.0000   1.0000   1.0000   1.0000   1.0000   1.0000   1.0000
     1.0000   1.0000   1.0000   1.0000   1.0000   1.0000   1.0000   1.0000
     1.0000   1.0000   1.0000   1.0000   1.0000   1.0000   1.0000   1.0000
     1.0000   1.0000   1.0000   1.0000   1.0000   1.0000   1.0000   1.0000
     1.0000   1.0000   1.0000   1.0000   1.0000   1.0000   1.0000   1.0000
     1.0000   1.0000   1.0000   1.0000   1.0000   1.0000   1.0000   1.0000
     1.0000   1.0000   1.0000   1.0000   1.0000   1.0000   1.0000   1.0000
     1.0000   1.0000   1.0000   1.0000   1.0000   1.0000   1.0000   1.0000
     1.0000   1.0000   1.0000   1.0000   1.0000   1.0000   1.0000   1.0000
     1.0000   1.0000   1.0000   1.0000   1.0000   1.0000   1.0000   1.0000
     1.0000   1.0000   1.0000   1.0000   1.0000   1.0000   1.0000   1.0000
     1.0000   1.0000   1.0000   1.0000   1.0000   1.0000   1.0000   1.0000
     1.0000   1.0000   1.0000   1.0000   1.0000   1.0000   1.0000   1.0000
     1.0000   1.0000   1.0000   1.0000   1.0000   1.0000   1.0000   1.0000
     1.0000   1.0000   1.0000   1.0000   1.0000   1.0000   1.0000   1.0000
     1.0000   1.0000   1.0000   1.0000   1.0000   1.0000   1.0000   1.0000
     1.0000   1.0000   1.0000   1.0000   1.0000   1.0000   1.0000   1.0000
     1.0000   1.0000   1.0000   1.0000   1.0000   1.0000   1.0000   1.0000
     1.0000   1.0000   1.0000   1.0000   1.0000   1.0000   1.0000   1.0000
     1.0000   1.0000   1.0000   1.0000   1.0000   1.0000   1.0000   1.0000
     1.0000   1.0000   1.0000   1.0000   1.0000   1.0000   1.0000   1.0000
     1.0000   1.0000   1.0000   1.0000   1.0000   1.0000   1.0000   1.0000
     1.0000   1.0000   1.0000   1.0000   1.0000   1.0000   1.0000   1.0000
     1.0000   1.0000   1.0000   1.0000   1.0000   1.0000   1.0000   1.0000
     1.0000   1.0000   1.0000   1.0000   1.0000   1.0000   1.0000   1.0000
     1.0000   1.0000   1.0000   1.0000   1.0000   1.0000   1.0000   1.0000
     1.0000   1.0000   1.0000   1.0000   1.0000   1.0000   1.0000   1.0000
     1.0000   1.0000   1.0000   1.0000   1.0000   1.0000   1.0000   1.0000
     1.0000   1.0000   1.0000   1.0000   1.0000   1.0000   1.0000   1.0000
     1.0000   1.0000   1.0000   1.0000   1.0000   1.0000   1.0000   1.0000
     1.0000   1.0000   1.0000   1.0000   1.0000   1.0000   1.0000   1.0000
     1.0000   1.0000   1.0000   1.0000   1.0000   1.0000   1.0000   1.0000
     1.0000   1.0000   1.0000   1.0000   1.0000   1.0000   1.0000   1.0000
     1.0000   1.0000   1.0000   1.0000   1.0000   1.0000   1.0000   1.0000
     1.0000   1.0000   1.0000   1.0000   1.0000   1.0000   1.0000   1.0000
     1.0000   1.0000   1.0000   1.0000   1.0000   1.0000   1.0000   1.0000
     1.0000   1.0000   1.0000   1.0000   1.0000   1.0000   1.0000   1.0000
     1.0000   1.0000   1.0000   1.0000   1.0000   1.0000   1.0000   1.0000
     1.0000   1.0000   1.0000   1.0000   1.0000   1.0000   1.0000   1.0000
     1.0000   1.0000   1.0000   1.0000   1.0000   1.0000   1.0000   1.0000
     1.0000   1.0000   1.0000   1.0000   1.0000   1.0000   1.0000   1.0000
     1.0000   1.0000   1.0000   1.0000   1.0000   1.0000   1.0000   1.0000
     1.0000   1.0000   1.0000   1.0000   1.0000   1.0000   1.0000   1.0000
     1.0000   1.0000   1.0000   1.0000   1.0000   1.0000   1.0000   1.0000
     1.0000   1.0000   1.0000   1.0000   1.0000   1.0000   1.0000   1.0000
     1.0000   1.0000   1.0000   1.0000   1.0000   1.0000   1.0000   1.0000
     1.0000   1.0000   1.0000   1.0000   1.0000   1.0000   1.0000   1.0000
     1.0000   1.0000   1.0000   1.0000   1.0000   1.0000   1.0000   1.0000
     1.0000   1.0000   1.0000   1.0000   1.0000   1.0000   1.0000   1.0000
     0.6699   0.4690   0.4633   0.4548   0.2299   0.2273   0.2258   0.1808
     0.0000   0.0000   0.0000   0.0000   0.0000   0.0000   0.0000   0.0000
     0.0000   0.0000   0.0000   0.0000   0.0000   0.0000   0.0000   0.0000
     0.0000   0.0000   0.0000   0.0000   0.0000   0.0000   0.0000   0.0000
     0.0000   0.0000   0.0000   0.0000   0.0000   0.0000   0.0000   0.0000
     0.0000   0.0000   0.0000   0.0000   0.0000   0.0000   0.0000   0.0000
     0.0000   0.0000   0.0000   0.0000   0.0000   0.0000   0.0000   0.0000
     0.0000   0.0000   0.0000   0.0000   0.0000   0.0000   0.0000   0.0000
     0.0000   0.0000   0.0000   0.0000   0.0000   0.0000   0.0000   0.0000
     0.0000   0.0000   0.0000   0.0000   0.0000   0.0000   0.0000   0.0000
     0.0000   0.0000   0.0000   0.0000   0.0000   0.0000   0.0000   0.0000
     0.0000   0.0000   0.0000   0.0000   0.0000   0.0000   0.0000   0.0000
     0.0000   0.0000   0.0000   0.0000   0.0000   0.0000   0.0000   0.0000
     0.0000   0.0000   0.0000   0.0000   0.0000   0.0000   0.0000   0.0000
     0.0000   0.0000   0.0000   0.0000   0.0000   0.0000   0.0000   0.0000
     0.0000   0.0000   0.0000   0.0000   0.0000   0.0000   0.0000   0.0000
     0.0000   0.0000   0.0000   0.0000   0.0000   0.0000   0.0000   0.0000
     0.0000   0.0000   0.0000   0.0000   0.0000   0.0000   0.0000   0.0000
     0.0000   0.0000   0.0000   0.0000   0.0000   0.0000   0.0000   0.0000
     0.0000   0.0000   0.0000   0.0000   0.0000   0.0000   0.0000   0.0000
     0.0000   0.0000   0.0000   0.0000   0.0000   0.0000   0.0000   0.0000
     0.0000   0.0000   0.0000   0.0000   0.0000   0.0000   0.0000   0.0000
     0.0000   0.0000   0.0000   0.0000   0.0000

          k =-0.3536-0.3536 0.3536 ( 68884 PWs)   bands (ev):

   -16.6641 -16.6637 -16.6634 -16.6631 -16.6629 -16.6627 -16.6625 -16.6624
   -16.6622 -16.6619 -16.6618 -16.6615 -16.6613 -16.6610 -16.6610 -16.6608
   -16.6603 -16.6600 -16.6563 -16.6561 -16.6560 -16.6557 -16.6555 -16.6553
   -16.6551 -16.6551 -16.6548 -16.6548 -16.6546 -16.6545 -16.6544 -16.6541
   -16.6540 -16.6540 -16.6538 -16.6537 -16.6535 -16.6534 -16.6532 -16.6531
   -16.6531 -16.6529 -16.6526 -16.6522 -16.6520 -16.6514 -16.6510 -16.6507
   -16.6504 -16.6502 -16.6501 -16.6499 -16.6494 -16.6494 -16.6488 -16.6487
   -16.6485 -16.6484 -16.6481 -16.6480 -16.6480 -16.6478 -16.6476 -16.6475
   -16.6474 -16.6474 -16.6473 -16.6470 -16.6468 -16.6467 -16.6465 -16.6465
   -16.6461 -16.6460 -16.6459 -16.6457 -16.6455 -16.6453 -16.6451 -16.6448
   -16.6441 -16.6432 -16.6429 -16.6426 -16.6421 -16.6418 -16.6414 -16.6412
   -16.6411 -16.6408 -16.6407 -16.6405 -16.6404 -16.6402 -16.6399 -16.6398
   -16.6395 -16.6394 -16.6392 -16.6391 -16.6389 -16.6388 -16.6385 -16.6383
   -16.6380 -16.6377 -16.6370 -16.6359 -16.6355 -16.6352 -16.6346 -16.6342
   -16.6335 -16.6330 -16.6327 -16.6295 -16.6292 -16.6282 -16.6274 -16.6273
   -16.6270 -16.6227 -16.6226 -16.6207 -16.6206 -16.6163 -16.6148 -16.6143
   -16.6121 -16.6117 -16.6111 -16.6108 -16.6106 -16.6076 -16.6028 -16.6027
   -16.6017 -16.6007 -16.6006 -16.6001 -16.5992 -16.5976 -16.5974 -16.5957
   -16.5934 -16.5933 -16.5932 -16.5893 -16.5889 -16.5854 -16.5841 -16.5835
   -16.5834 -16.5811 -16.5809 -16.5782 -16.5778 -16.5776 -16.5772 -16.5771
   -16.5767 -16.5765 -16.5758 -16.5755 -16.5754 -16.5751 -16.5747 -16.5743
   -16.5740 -16.5738 -16.5732 -16.5691 -16.5690 -16.5677 -16.5674 -16.5672
   -16.5660 -16.5656 -16.5645 -16.5642 -16.5637 -16.5583 -16.5581 -16.5579
   -16.5576 -16.5575 -16.5571 -16.5571 -16.5564 -16.5561 -16.5546 -16.5543
   -16.5542 -16.5535 -16.5533 -16.5532 -16.5526 -16.5524 -16.5513 -16.5495
   -16.5490 -16.5489 -16.5485 -16.5471 -16.5469 -16.5419 -16.5419 -16.5396
   -16.5393 -16.5392 -16.5378 -16.5375 -16.5365 -16.5360 -16.5358 -16.5338
   -16.5337 -16.5323 -16.5322 -16.5320 -16.5318 -16.5316 -16.5314 -16.5312
   -16.5311 -16.5307 -16.5306 -16.5305 -16.5303 -16.5303 -16.5302 -16.5301
   -16.5301 -16.5300 -16.5299 -16.5297 -16.5296 -16.5294 -16.5293 -16.5292
   -16.5291 -16.5290 -16.5288 -16.5287 -16.5286 -16.5284 -16.5282 -16.5279
   -16.5264 -16.5262 -16.5259 -16.5258 -16.5253 -16.5253 -16.5250 -16.5167
   -16.5163 -16.5130 -16.5129 -16.5124 -16.5092 -16.5084 -16.5081 -16.5075
   -16.5074 -16.5068 -16.5041 -16.5040 -16.5037 -16.5036 -16.5035 -16.5033
   -16.5031 -16.5029 -16.5028 -16.5025 -16.5024 -16.5019 -16.5014 -16.5012
   -16.5012 -16.5011 -16.5008 -16.5005 -16.5003 -16.5002 -16.5000 -16.4999
   -16.4997 -16.4997 -16.4989 -16.4964 -16.4962 -16.4954 -16.4951 -16.4944
   -16.4931 -16.4930 -16.4929 -16.4928 -16.4927 -16.4927 -16.4921 -16.4920
   -16.4918 -16.4917 -16.4916 -16.4914 -16.4907 -16.4902 -16.4899 -16.4899
   -16.4877 -16.4876 -16.4875 -16.4812 -16.4808 -16.4805 -16.4783 -16.4782
   -16.4781 -16.4721 -16.4718 -16.4717 -16.4708 -16.4706 -16.4678 -16.4678
   -16.4676 -16.4675 -16.4674 -16.4671 -16.4668 -16.4635 -16.4623 -16.4622
   -16.4596 -16.4593 -16.4575 -16.4574 -16.4572 -16.4568 -16.4566 -16.4565
   -16.4563 -16.4557 -16.4556 -16.4543 -16.4540 -16.4538 -16.4537 -16.4530
   -16.4530 -16.4501 -16.4500 -16.4499 -16.4496 -16.4495 -16.4492 -16.4490
   -16.4489 -16.4487 -16.4483 -16.4480 -16.4475 -16.4474 -16.4460 -16.4459
   -16.4455 -16.4454 -16.4453 -16.4452 -16.4439 -16.4437 -16.4434 -16.4426
   -16.4425 -16.4423 -16.4413 -16.4411 -16.4410 -16.4349 -16.4348 -16.4342
   -16.4289 -16.4288 -16.4285 -16.4276 -16.4275 -16.4270 -16.4267 -16.4265
   -16.4252 -16.4243 -16.4240 -16.4218 -16.4214 -16.4209 -16.4197 -16.4195
   -16.4190 -16.4186 -16.4177 -16.4177 -16.4174 -16.4171 -16.4170 -16.4168
   -16.4167 -16.4166 -16.4162 -16.4160 -16.4155 -16.4147 -16.4145 -16.4144
   -16.4141 -16.4138 -16.4138 -16.4135 -16.4135 -16.4132 -16.4131 -16.4129
   -16.4129 -16.4127 -16.4126 -16.4125 -16.4122 -16.4118 -16.4118 -16.4105
   -16.4103 -16.4102 -16.4101 -16.4094 -16.4094 -16.4089 -16.4081 -16.4079
   -16.4078 -16.4072 -16.4069 -16.4059 -16.4057 -16.4049 -16.4049 -16.4048
   -16.4044 -16.4043 -16.4042 -16.4032 -16.4031 -16.4028 -16.4027 -16.4026
   -16.4022 -16.4019 -16.4018 -16.4010 -16.4008 -16.4007 -16.4002 -16.4001
   -16.4000 -16.3995 -16.3992 -16.3991 -16.3989 -16.3987 -16.3986 -16.3984
   -16.3962 -16.3961 -16.3946 -16.3914 -16.3903 -16.3873 -16.3870 -16.3857
   -16.3854 -16.3853 -16.3850 -16.3849 -16.3848 -16.3845 -16.3844 -16.3840
   -16.3839 -16.3838 -16.3836 -16.3834 -16.3831 -16.3804 -16.3765 -16.3745
   -16.3742 -16.3741 -16.3725 -16.3723 -16.3709 -16.3707 -16.3703 -16.3679
   -16.3676 -16.3675 -16.3673 -16.3616 -16.3613 -16.3551 -16.3513 -16.3511
   -16.3508 -16.3507 -16.3507 -16.3505 -16.3503 -16.3501 -16.3462 -16.3460
   -16.3384 -16.3384 -16.3381 -16.3377 -16.3374 -16.3372 -16.3370 -16.3367
   -16.3367 -16.3365 -16.3363 -16.3362 -16.3362 -16.3360 -16.3357 -16.3356
   -16.3354 -16.3351 -16.3349 -16.3333 -16.3330 -16.3325 -16.3323 -16.3320
   -16.3316 -16.3309 -16.3306 -16.3303 -16.3296 -16.3295 -16.3291 -16.3287
   -16.3278 -16.3276 -16.3271 -16.3270 -16.3266 -16.3265 -16.3263 -16.3262
   -16.3260 -16.3258 -16.3257 -16.3256 -16.3253 -16.3251 -16.3250 -16.3247
   -16.3246 -16.3245 -16.3242 -16.3236 -16.3232 -16.3230 -16.3228 -16.3227
   -16.3224 -16.3223 -16.3221 -16.3220 -16.3219 -16.3216 -16.3215 -16.3212
   -16.3211 -16.3208 -16.3206 -16.3203 -16.3196 -16.3194 -16.3190 -16.3189
   -16.3187 -16.3185 -16.3183 -16.3181 -16.3178 -16.3177 -16.3175 -16.3175
   -16.3173 -16.3171 -16.3170 -16.3168 -16.3167 -16.3167 -16.3163 -16.3163
   -16.3161 -16.3159 -16.3157 -16.3156 -16.3153 -16.3152 -16.3151 -16.3137
   -16.3135 -16.3109 -16.3106 -16.3103 -16.3101 -16.3097 -16.3094 -16.3091
   -16.3087 -16.3085 -16.3084 -16.3081 -16.3079 -16.3076 -16.3075 -16.3073
   -16.3070 -16.3067 -16.3066  -4.3385  -4.3260  -3.8422  -3.8414  -3.8408
    -3.8390  -3.8383  -3.8058  -3.3780  -3.3765  -3.3758  -3.3743  -3.3732
    -3.3396  -2.9850  -2.9766  -2.8698  -2.8687  -2.8675  -2.8667  -2.8647
    -2.8330  -2.4994  -2.4980  -2.4978  -2.4966  -2.4956  -2.4944  -2.4938
    -2.4933  -2.4927  -2.4909  -2.4886  -2.4383  -2.3546  -2.3539  -2.3536
    -2.3533  -2.3518  -2.2857  -1.8843  -1.8817  -1.8803  -1.8802  -1.8790
    -1.8376  -1.4793  -1.4783  -1.4747  -1.4745  -1.4734  -1.4524  -1.3631
    -1.3627  -1.3614  -1.3605  -1.3599  -1.3588  -1.3581  -1.3572  -1.3561
    -1.3547  -1.3535  -1.2315   0.1812   0.1825   0.1836   0.1842   0.1843
     0.1861   0.1865   0.1885   0.1887   0.1893   0.1909   0.2203   0.2540
     0.2565   0.2574   0.2590   0.2618   0.3320   0.6158   0.6184   0.6203
     0.6211   0.6243   0.6578   0.7418   0.7434   0.7456   0.7476   0.7490
     0.7919   1.3813   1.3829   1.3835   1.3844   1.3865   1.3868   1.3874
     1.3875   1.3885   1.3908   1.3916   1.4649   1.5395   1.5625   2.1251
     2.1275   2.1290   2.1299   2.1310   2.1773   2.6874   2.6884   2.6891
     2.6900   2.6921   2.7315   4.0053   4.0064   4.0087   4.0100   4.0108
     4.0407   4.0584   4.0590   4.0604   4.0610   4.0613   4.0673   4.0702
     4.0712   4.0717   4.0722   4.0723   4.0730   4.0738   4.0739   4.0744
     4.0756   4.0771   4.0806   4.6506   4.6508   4.6516   4.6525   4.6531
     4.6533   4.6592   4.6610   4.6615   4.6623   4.6628   4.6635   4.6651
     4.6652   4.6661   4.6670   4.6674   4.6732   5.1248   5.1262   5.1274
     5.1277   5.1282   5.1286   5.1293   5.1295   5.1298   5.1304   5.1306
     5.1314   5.3203   5.3213   5.3217   5.3245   5.3248   5.3252   5.3527
     5.3531   5.3537   5.3546   5.3555   5.3577   5.5456   5.5473   5.5485
     5.5494   5.5500   5.5570   5.6484   5.6504   5.6520   5.6524   5.6529
     5.6546   5.8173   5.8257   5.8264   5.8282   5.8291   5.8306   5.8315
     5.8330   6.1081   6.1130   6.1138   6.1147   6.1157   6.1160   6.1166
     6.1178   6.1185   6.1189   6.1196   6.1202   6.1318   6.1322   6.1335
     6.1341   6.1360   6.1368   6.4537   6.4545   6.4559   6.4577   6.4588
     6.4608   6.6783   6.6844   6.6857   6.6866   6.6876   6.6921   6.7667
     6.7680   6.7718   6.7741   6.7750   6.7766   6.9378   6.9390   6.9427
     6.9448   7.2748   7.2760   7.2813   7.2825   7.2854   7.2860   7.8627
     7.8643   7.8685   7.8716   8.4248   8.4325   9.0149   9.0157   9.0225
     9.0262   9.0271   9.0325   9.1636   9.1708   9.3965   9.3971   9.4031
     9.4056   9.4075   9.4138   9.5229   9.5240   9.5270   9.5306   9.5317
     9.5487   9.7366   9.7378   9.7482   9.7492   9.7506   9.7532   9.7640
     9.7661   9.7699   9.7702   9.7717   9.7981  10.0424  10.0433  10.0480
    10.0508  10.0516  10.0539  10.0659  10.0671  10.0754  10.0756  10.0785
    10.0888  10.4022  10.4030  10.4244  10.4262  10.4269  10.4279  10.4295
    10.4299  10.4313  10.4317  10.4326  10.4407  10.5799  10.5812  10.5865
    10.5886  10.5901  10.5908  10.5914  10.5918  10.5930  10.5933  10.5943
    10.6088  10.7627  10.7627  10.7645  10.7651  10.7665  10.7680  10.8148
    10.8183  10.8229  10.8251  10.8265  10.8455  11.1624  11.1649  11.1718
    11.1752  11.5275  11.5299  11.5518  11.5570  11.5584  11.5594  11.5601
    11.5606  11.5622  11.5630  11.5633  11.5705  11.6142  11.6247  11.6655
    11.6749  11.6756  11.6815  11.6848  11.6864  11.9130  11.9155  11.9296
    11.9312  11.9366  11.9377  11.9402  11.9407  11.9422  11.9435  12.0750
    12.0943  12.0958  12.0988  12.1002  12.1018  12.3256  12.3276  12.3444
    12.3450  12.3470  12.3479  12.3496  12.3499  12.3509  12.3517  12.3545
    12.3580  12.6007  12.6018  12.6267  12.6286  12.6300  12.6318  12.7204
    12.7232  12.7313  12.7332  12.7372  12.7386  12.9674  12.9787  12.9804
    12.9864  12.9867  12.9902  13.0061  13.0068  13.0192  13.0218  13.0237
    13.0249  13.0255  13.0267  13.0284  13.0291  13.0300  13.0308  13.1382
    13.1392  13.1440  13.1455  13.1498  13.1513  13.1932  13.1958  13.2109
    13.2125  13.2159  13.2187  13.2208  13.2220

     occupation numbers 
     1.0000   1.0000   1.0000   1.0000   1.0000   1.0000   1.0000   1.0000
     1.0000   1.0000   1.0000   1.0000   1.0000   1.0000   1.0000   1.0000
     1.0000   1.0000   1.0000   1.0000   1.0000   1.0000   1.0000   1.0000
     1.0000   1.0000   1.0000   1.0000   1.0000   1.0000   1.0000   1.0000
     1.0000   1.0000   1.0000   1.0000   1.0000   1.0000   1.0000   1.0000
     1.0000   1.0000   1.0000   1.0000   1.0000   1.0000   1.0000   1.0000
     1.0000   1.0000   1.0000   1.0000   1.0000   1.0000   1.0000   1.0000
     1.0000   1.0000   1.0000   1.0000   1.0000   1.0000   1.0000   1.0000
     1.0000   1.0000   1.0000   1.0000   1.0000   1.0000   1.0000   1.0000
     1.0000   1.0000   1.0000   1.0000   1.0000   1.0000   1.0000   1.0000
     1.0000   1.0000   1.0000   1.0000   1.0000   1.0000   1.0000   1.0000
     1.0000   1.0000   1.0000   1.0000   1.0000   1.0000   1.0000   1.0000
     1.0000   1.0000   1.0000   1.0000   1.0000   1.0000   1.0000   1.0000
     1.0000   1.0000   1.0000   1.0000   1.0000   1.0000   1.0000   1.0000
     1.0000   1.0000   1.0000   1.0000   1.0000   1.0000   1.0000   1.0000
     1.0000   1.0000   1.0000   1.0000   1.0000   1.0000   1.0000   1.0000
     1.0000   1.0000   1.0000   1.0000   1.0000   1.0000   1.0000   1.0000
     1.0000   1.0000   1.0000   1.0000   1.0000   1.0000   1.0000   1.0000
     1.0000   1.0000   1.0000   1.0000   1.0000   1.0000   1.0000   1.0000
     1.0000   1.0000   1.0000   1.0000   1.0000   1.0000   1.0000   1.0000
     1.0000   1.0000   1.0000   1.0000   1.0000   1.0000   1.0000   1.0000
     1.0000   1.0000   1.0000   1.0000   1.0000   1.0000   1.0000   1.0000
     1.0000   1.0000   1.0000   1.0000   1.0000   1.0000   1.0000   1.0000
     1.0000   1.0000   1.0000   1.0000   1.0000   1.0000   1.0000   1.0000
     1.0000   1.0000   1.0000   1.0000   1.0000   1.0000   1.0000   1.0000
     1.0000   1.0000   1.0000   1.0000   1.0000   1.0000   1.0000   1.0000
     1.0000   1.0000   1.0000   1.0000   1.0000   1.0000   1.0000   1.0000
     1.0000   1.0000   1.0000   1.0000   1.0000   1.0000   1.0000   1.0000
     1.0000   1.0000   1.0000   1.0000   1.0000   1.0000   1.0000   1.0000
     1.0000   1.0000   1.0000   1.0000   1.0000   1.0000   1.0000   1.0000
     1.0000   1.0000   1.0000   1.0000   1.0000   1.0000   1.0000   1.0000
     1.0000   1.0000   1.0000   1.0000   1.0000   1.0000   1.0000   1.0000
     1.0000   1.0000   1.0000   1.0000   1.0000   1.0000   1.0000   1.0000
     1.0000   1.0000   1.0000   1.0000   1.0000   1.0000   1.0000   1.0000
     1.0000   1.0000   1.0000   1.0000   1.0000   1.0000   1.0000   1.0000
     1.0000   1.0000   1.0000   1.0000   1.0000   1.0000   1.0000   1.0000
     1.0000   1.0000   1.0000   1.0000   1.0000   1.0000   1.0000   1.0000
     1.0000   1.0000   1.0000   1.0000   1.0000   1.0000   1.0000   1.0000
     1.0000   1.0000   1.0000   1.0000   1.0000   1.0000   1.0000   1.0000
     1.0000   1.0000   1.0000   1.0000   1.0000   1.0000   1.0000   1.0000
     1.0000   1.0000   1.0000   1.0000   1.0000   1.0000   1.0000   1.0000
     1.0000   1.0000   1.0000   1.0000   1.0000   1.0000   1.0000   1.0000
     1.0000   1.0000   1.0000   1.0000   1.0000   1.0000   1.0000   1.0000
     1.0000   1.0000   1.0000   1.0000   1.0000   1.0000   1.0000   1.0000
     1.0000   1.0000   1.0000   1.0000   1.0000   1.0000   1.0000   1.0000
     1.0000   1.0000   1.0000   1.0000   1.0000   1.0000   1.0000   1.0000
     1.0000   1.0000   1.0000   1.0000   1.0000   1.0000   1.0000   1.0000
     1.0000   1.0000   1.0000   1.0000   1.0000   1.0000   1.0000   1.0000
     1.0000   1.0000   1.0000   1.0000   1.0000   1.0000   1.0000   1.0000
     1.0000   1.0000   1.0000   1.0000   1.0000   1.0000   1.0000   1.0000
     1.0000   1.0000   1.0000   1.0000   1.0000   1.0000   1.0000   1.0000
     1.0000   1.0000   1.0000   1.0000   1.0000   1.0000   1.0000   1.0000
     1.0000   1.0000   1.0000   1.0000   1.0000   1.0000   1.0000   1.0000
     1.0000   1.0000   1.0000   1.0000   1.0000   1.0000   1.0000   1.0000
     1.0000   1.0000   1.0000   1.0000   1.0000   1.0000   1.0000   1.0000
     1.0000   1.0000   1.0000   1.0000   1.0000   1.0000   1.0000   1.0000
     1.0000   1.0000   1.0000   1.0000   1.0000   1.0000   1.0000   1.0000
     1.0000   1.0000   1.0000   1.0000   1.0000   1.0000   1.0000   1.0000
     1.0000   1.0000   1.0000   1.0000   1.0000   1.0000   1.0000   1.0000
     1.0000   1.0000   1.0000   1.0000   1.0000   1.0000   1.0000   1.0000
     1.0000   1.0000   1.0000   1.0000   1.0000   1.0000   1.0000   1.0000
     1.0000   1.0000   1.0000   1.0000   1.0000   1.0000   1.0000   1.0000
     1.0000   1.0000   1.0000   1.0000   1.0000   1.0000   1.0000   1.0000
     1.0000   1.0000   1.0000   1.0000   1.0000   1.0000   1.0000   1.0000
     1.0000   1.0000   1.0000   1.0000   1.0000   1.0000   1.0000   1.0000
     1.0000   1.0000   1.0000   1.0000   1.0000   1.0000   1.0000   1.0000
     1.0000   1.0000   1.0000   1.0000   1.0000   1.0000   1.0000   1.0000
     1.0000   1.0000   1.0000   1.0000   1.0000   1.0000   1.0000   1.0000
     1.0000   1.0000   1.0000   1.0000   1.0000   1.0000   1.0000   1.0000
     1.0000   1.0000   1.0000   1.0000   1.0000   1.0000   1.0000   1.0000
     1.0000   1.0000   1.0000   1.0000   1.0000   1.0000   1.0000   1.0000
     1.0000   1.0000   1.0000   1.0000   1.0000   1.0000   1.0000   1.0000
     1.0000   1.0000   1.0000   1.0000   1.0000   1.0000   1.0000   1.0000
     1.0000   1.0000   1.0000   1.0000   1.0000   1.0000   1.0000   1.0000
     1.0000   1.0000   1.0000   1.0000   1.0000   1.0000   1.0000   1.0000
     1.0000   1.0000   1.0000   1.0000   1.0000   1.0000   1.0000   1.0000
     1.0000   1.0000   1.0000   1.0000   1.0000   1.0000   1.0000   1.0000
     1.0000   1.0000   1.0000   1.0000   1.0000   1.0000   1.0000   1.0000
     1.0000   1.0000   1.0000   1.0000   1.0000   1.0000   1.0000   1.0000
     1.0000   1.0000   1.0000   1.0000   1.0000   1.0000   1.0000   1.0000
     1.0000   1.0000   1.0000   1.0000   1.0000   1.0000   1.0000   1.0000
     1.0000   1.0000   1.0000   1.0000   1.0000   1.0000   1.0000   1.0000
     1.0000   1.0000   1.0000   1.0000   1.0000   1.0000   1.0000   1.0000
     1.0000   1.0000   1.0000   1.0000   1.0000   1.0000   1.0000   1.0000
     1.0000   1.0000   1.0000   1.0000   1.0000   1.0000   1.0000   1.0000
     1.0000   1.0000   1.0000   1.0000   1.0000   1.0000   1.0000   1.0000
     1.0000   1.0000   1.0000   1.0000   1.0000   1.0000   1.0000   1.0000
     1.0000   1.0000   1.0000   1.0000   1.0000   1.0000   1.0000   1.0000
     1.0000   1.0000   1.0000   1.0000   1.0000   1.0000   1.0000   1.0000
     1.0000   1.0000   1.0000   1.0000   1.0000   1.0000   1.0000   1.0000
     1.0000   1.0000   1.0000   1.0000   1.0000   1.0000   1.0000   1.0000
     1.0000   1.0000   1.0000   1.0000   1.0000   1.0000   1.0000   1.0000
     1.0000   1.0000   1.0000   1.0000   1.0000   1.0000   1.0000   1.0000
     1.0000   1.0000   1.0000   1.0000   1.0000   1.0000   1.0000   1.0000
     1.0000   1.0000   1.0000   1.0000   1.0000   1.0000   1.0000   1.0000
     1.0000   1.0000   1.0000   1.0000   1.0000   1.0000   1.0000   1.0000
     1.0000   1.0000   1.0000   1.0000   1.0000   1.0000   1.0000   1.0000
     1.0000   1.0000   1.0000   1.0000   1.0000   1.0000   1.0000   1.0000
     1.0000   1.0000   1.0000   1.0000   1.0000   1.0000   1.0000   1.0000
     1.0000   1.0000   1.0000   1.0000   1.0000   1.0000   1.0000   1.0000
     1.0000   1.0000   1.0000   1.0000   1.0000   1.0000   1.0000   1.0000
     1.0000   1.0000   1.0000   1.0000   1.0000   1.0000   1.0000   1.0000
     1.0000   1.0000   1.0000   1.0000   1.0000   1.0000   1.0000   1.0000
     1.0000   1.0000   1.0000   1.0000   1.0000   1.0000   1.0000   1.0000
     1.0000   1.0000   1.0000   1.0000   1.0000   1.0000   1.0000   1.0000
     1.0000   1.0000   1.0000   1.0000   1.0000   1.0000   1.0000   1.0000
     1.0000   1.0000   1.0000   1.0000   1.0000   1.0000   1.0000   1.0000
     1.0000   1.0000   1.0000   1.0000   1.0000   1.0000   1.0000   1.0000
     1.0000   1.0000   1.0000   1.0000   1.0000   1.0000   1.0000   1.0000
     1.0000   1.0000   1.0000   1.0000   1.0000   1.0000   1.0000   1.0000
     1.0000   1.0000   1.0000   1.0000   1.0000   1.0000   1.0000   0.9875
     0.9872   0.9862   0.9854   0.0492   0.0440   0.0000   0.0000   0.0000
     0.0000   0.0000   0.0000   0.0000   0.0000   0.0000   0.0000   0.0000
     0.0000   0.0000   0.0000   0.0000   0.0000   0.0000   0.0000   0.0000
     0.0000   0.0000   0.0000   0.0000   0.0000   0.0000   0.0000   0.0000
     0.0000   0.0000   0.0000   0.0000   0.0000   0.0000   0.0000   0.0000
     0.0000   0.0000   0.0000   0.0000   0.0000   0.0000   0.0000   0.0000
     0.0000   0.0000   0.0000   0.0000   0.0000   0.0000   0.0000   0.0000
     0.0000   0.0000   0.0000   0.0000   0.0000   0.0000   0.0000   0.0000
     0.0000   0.0000   0.0000   0.0000   0.0000   0.0000   0.0000   0.0000
     0.0000   0.0000   0.0000   0.0000   0.0000   0.0000   0.0000   0.0000
     0.0000   0.0000   0.0000   0.0000   0.0000   0.0000   0.0000   0.0000
     0.0000   0.0000   0.0000   0.0000   0.0000   0.0000   0.0000   0.0000
     0.0000   0.0000   0.0000   0.0000   0.0000   0.0000   0.0000   0.0000
     0.0000   0.0000   0.0000   0.0000   0.0000   0.0000   0.0000   0.0000
     0.0000   0.0000   0.0000   0.0000   0.0000   0.0000   0.0000   0.0000
     0.0000   0.0000   0.0000   0.0000   0.0000   0.0000   0.0000   0.0000
     0.0000   0.0000   0.0000   0.0000   0.0000   0.0000   0.0000   0.0000
     0.0000   0.0000   0.0000   0.0000   0.0000   0.0000   0.0000   0.0000
     0.0000   0.0000   0.0000   0.0000   0.0000   0.0000   0.0000   0.0000
     0.0000   0.0000   0.0000   0.0000   0.0000   0.0000   0.0000   0.0000
     0.0000   0.0000   0.0000   0.0000   0.0000   0.0000   0.0000   0.0000
     0.0000   0.0000   0.0000   0.0000   0.0000   0.0000   0.0000   0.0000
     0.0000   0.0000   0.0000   0.0000   0.0000

          k =-0.7071 0.0000 0.0000 ( 68952 PWs)   bands (ev):

   -16.6650 -16.6647 -16.6643 -16.6641 -16.6635 -16.6631 -16.6626 -16.6625
   -16.6624 -16.6618 -16.6617 -16.6616 -16.6594 -16.6593 -16.6588 -16.6587
   -16.6584 -16.6583 -16.6580 -16.6578 -16.6563 -16.6561 -16.6556 -16.6555
   -16.6550 -16.6549 -16.6546 -16.6544 -16.6540 -16.6539 -16.6537 -16.6534
   -16.6532 -16.6531 -16.6529 -16.6528 -16.6525 -16.6523 -16.6523 -16.6522
   -16.6519 -16.6518 -16.6516 -16.6515 -16.6514 -16.6512 -16.6511 -16.6507
   -16.6503 -16.6501 -16.6500 -16.6497 -16.6496 -16.6494 -16.6492 -16.6490
   -16.6488 -16.6487 -16.6485 -16.6483 -16.6482 -16.6480 -16.6480 -16.6478
   -16.6477 -16.6474 -16.6474 -16.6473 -16.6469 -16.6467 -16.6466 -16.6461
   -16.6460 -16.6457 -16.6454 -16.6453 -16.6449 -16.6449 -16.6445 -16.6445
   -16.6439 -16.6437 -16.6437 -16.6436 -16.6435 -16.6434 -16.6432 -16.6428
   -16.6425 -16.6425 -16.6419 -16.6416 -16.6415 -16.6414 -16.6411 -16.6409
   -16.6408 -16.6404 -16.6403 -16.6401 -16.6398 -16.6391 -16.6389 -16.6387
   -16.6382 -16.6371 -16.6369 -16.6368 -16.6362 -16.6357 -16.6355 -16.6352
   -16.6346 -16.6326 -16.6325 -16.6320 -16.6297 -16.6277 -16.6265 -16.6265
   -16.6260 -16.6219 -16.6210 -16.6209 -16.6206 -16.6192 -16.6190 -16.6114
   -16.6114 -16.6100 -16.6083 -16.6074 -16.6029 -16.6026 -16.6005 -16.6002
   -16.5987 -16.5985 -16.5981 -16.5980 -16.5978 -16.5975 -16.5974 -16.5971
   -16.5967 -16.5964 -16.5957 -16.5956 -16.5942 -16.5884 -16.5880 -16.5850
   -16.5836 -16.5829 -16.5825 -16.5823 -16.5816 -16.5802 -16.5801 -16.5800
   -16.5795 -16.5791 -16.5789 -16.5777 -16.5772 -16.5716 -16.5705 -16.5704
   -16.5693 -16.5693 -16.5672 -16.5666 -16.5665 -16.5650 -16.5642 -16.5639
   -16.5622 -16.5621 -16.5617 -16.5616 -16.5614 -16.5606 -16.5587 -16.5577
   -16.5576 -16.5570 -16.5563 -16.5552 -16.5549 -16.5546 -16.5544 -16.5543
   -16.5526 -16.5507 -16.5505 -16.5504 -16.5484 -16.5475 -16.5475 -16.5461
   -16.5456 -16.5454 -16.5453 -16.5452 -16.5451 -16.5450 -16.5446 -16.5443
   -16.5441 -16.5440 -16.5439 -16.5435 -16.5432 -16.5430 -16.5426 -16.5424
   -16.5419 -16.5417 -16.5412 -16.5405 -16.5384 -16.5380 -16.5376 -16.5373
   -16.5367 -16.5365 -16.5361 -16.5343 -16.5320 -16.5287 -16.5271 -16.5267
   -16.5256 -16.5253 -16.5250 -16.5249 -16.5247 -16.5246 -16.5244 -16.5242
   -16.5240 -16.5237 -16.5234 -16.5223 -16.5204 -16.5203 -16.5200 -16.5199
   -16.5184 -16.5181 -16.5178 -16.5175 -16.5167 -16.5166 -16.5163 -16.5160
   -16.5157 -16.5149 -16.5146 -16.5144 -16.5142 -16.5132 -16.5127 -16.5125
   -16.5121 -16.5117 -16.5117 -16.5115 -16.5109 -16.5106 -16.5098 -16.5089
   -16.5084 -16.5084 -16.5081 -16.5080 -16.5063 -16.5062 -16.5061 -16.5060
   -16.5059 -16.5057 -16.5052 -16.5051 -16.5047 -16.5045 -16.5043 -16.5042
   -16.5039 -16.5037 -16.5034 -16.4998 -16.4995 -16.4994 -16.4993 -16.4990
   -16.4987 -16.4987 -16.4976 -16.4887 -16.4883 -16.4855 -16.4837 -16.4836
   -16.4807 -16.4806 -16.4805 -16.4802 -16.4795 -16.4793 -16.4792 -16.4786
   -16.4784 -16.4783 -16.4781 -16.4779 -16.4776 -16.4773 -16.4760 -16.4745
   -16.4740 -16.4737 -16.4736 -16.4726 -16.4718 -16.4715 -16.4708 -16.4706
   -16.4702 -16.4700 -16.4700 -16.4690 -16.4689 -16.4665 -16.4663 -16.4658
   -16.4654 -16.4652 -16.4651 -16.4629 -16.4620 -16.4614 -16.4613 -16.4610
   -16.4591 -16.4589 -16.4582 -16.4550 -16.4533 -16.4527 -16.4525 -16.4523
[...]
     atom   77 type  1   force =   0.00000000E+00  0.00000000E+00  0.00000000E+00
     atom   78 type  1   force =   0.00000000E+00  0.00000000E+00  0.00000000E+00
     atom   79 type  1   force =   0.00000000E+00  0.00000000E+00  0.00000000E+00
     atom   80 type  1   force =   0.00000000E+00  0.00000000E+00  0.00000000E+00
     atom   81 type  1   force =   0.00000000E+00  0.00000000E+00  0.00000000E+00
     atom   82 type  1   force =   0.00000000E+00  0.00000000E+00  0.00000000E+00
     atom   83 type  1   force =   0.00000000E+00  0.00000000E+00  0.00000000E+00
     atom   84 type  1   force =   0.00000000E+00  0.00000000E+00  0.00000000E+00
     atom   85 type  1   force =   0.00000000E+00  0.00000000E+00  0.00000000E+00
     atom   86 type  1   force =   0.00000000E+00  0.00000000E+00  0.00000000E+00
     atom   87 type  1   force =   0.00000000E+00  0.00000000E+00  0.00000000E+00
     atom   88 type  1   force =   0.00000000E+00  0.00000000E+00  0.00000000E+00
     atom   89 type  1   force =   0.00000000E+00  0.00000000E+00  0.00000000E+00
     atom   90 type  1   force =   0.00000000E+00  0.00000000E+00  0.00000000E+00
     atom   91 type  1   force =   0.00000000E+00  0.00000000E+00  0.00000000E+00
     atom   92 type  1   force =   0.00000000E+00  0.00000000E+00  0.00000000E+00
     atom   93 type  1   force =   0.00000000E+00  0.00000000E+00  0.00000000E+00
     atom   94 type  1   force =   0.00000000E+00  0.00000000E+00  0.00000000E+00
     atom   95 type  1   force =   0.00000000E+00  0.00000000E+00  0.00000000E+00
     atom   96 type  1   force =   0.00000000E+00  0.00000000E+00  0.00000000E+00
     atom   97 type  1   force =   0.00000000E+00  0.00000000E+00  0.00000000E+00
     atom   98 type  1   force =   0.00000000E+00  0.00000000E+00  0.00000000E+00
     atom   99 type  1   force =   0.00000000E+00  0.00000000E+00  0.00000000E+00
     atom  100 type  1   force =   0.00000000E+00  0.00000000E+00  0.00000000E+00
     atom  101 type  1   force =   0.00000000E+00  0.00000000E+00  0.00000000E+00
     atom  102 type  1   force =   0.00000000E+00  0.00000000E+00  0.00000000E+00
     atom  103 type  1   force =   0.00000000E+00  0.00000000E+00  0.00000000E+00
     atom  104 type  1   force =   0.00000000E+00  0.00000000E+00  0.00000000E+00
     atom  105 type  1   force =   0.00000000E+00  0.00000000E+00  0.00000000E+00
     atom  106 type  1   force =   0.00000000E+00  0.00000000E+00  0.00000000E+00
     atom  107 type  1   force =   0.00000000E+00  0.00000000E+00  0.00000000E+00
     atom  108 type  1   force =   0.00000000E+00  0.00000000E+00  0.00000000E+00
     atom  109 type  1   force =   0.00000000E+00  0.00000000E+00  0.00000000E+00
     atom  110 type  1   force =   0.00000000E+00  0.00000000E+00  0.00000000E+00
     atom  111 type  1   force =   0.00000000E+00  0.00000000E+00  0.00000000E+00
     atom  112 type  1   force =   0.00000000E+00  0.00000000E+00  0.00000000E+00
     atom  113 type  1   force =   0.00000000E+00  0.00000000E+00  0.00000000E+00
     atom  114 type  1   force =   0.00000000E+00  0.00000000E+00  0.00000000E+00
     atom  115 type  1   force =   0.00000000E+00  0.00000000E+00  0.00000000E+00
     atom  116 type  1   force =   0.00000000E+00  0.00000000E+00  0.00000000E+00
     atom  117 type  1   force =   0.00000000E+00  0.00000000E+00  0.00000000E+00
     atom  118 type  1   force =   0.00000000E+00  0.00000000E+00  0.00000000E+00
     atom  119 type  1   force =   0.00000000E+00  0.00000000E+00  0.00000000E+00
     atom  120 type  1   force =   0.00000000E+00  0.00000000E+00  0.00000000E+00
     atom  121 type  1   force =   0.00000000E+00  0.00000000E+00  0.00000000E+00
     atom  122 type  1   force =   0.00000000E+00  0.00000000E+00  0.00000000E+00
     atom  123 type  1   force =   0.00000000E+00  0.00000000E+00  0.00000000E+00
     atom  124 type  1   force =   0.00000000E+00  0.00000000E+00  0.00000000E+00
     atom  125 type  1   force =   0.00000000E+00  0.00000000E+00  0.00000000E+00
     atom  126 type  1   force =   0.00000000E+00  0.00000000E+00  0.00000000E+00
     atom  127 type  1   force =   0.00000000E+00  0.00000000E+00  0.00000000E+00
     atom  128 type  1   force =   0.00000000E+00  0.00000000E+00  0.00000000E+00
     The SCF correction term to forces
     atom    1 type  2   force =  -0.82477182E-07  0.74524964E-07  0.16038154E-06
     atom    2 type  1   force =   0.23118479E-05  0.20000873E-05  0.25305327E-05
     atom    3 type  1   force =   0.25213269E-05  0.18625146E-05 -0.10516071E-04
     atom    4 type  1   force =  -0.37466872E-05 -0.28425658E-05 -0.59114162E-05
     atom    5 type  1   force =   0.14138086E-06  0.21387086E-06  0.66380927E-06
     atom    6 type  1   force =   0.37348259E-05  0.39438004E-05 -0.48083742E-05
     atom    7 type  1   force =  -0.34093571E-05 -0.22589399E-05 -0.10713543E-04
     atom    8 type  1   force =  -0.18545679E-05 -0.32468271E-05  0.13846829E-05
     atom    9 type  1   force =   0.12081214E-05 -0.11088950E-04  0.20972921E-05
     atom   10 type  1   force =  -0.43717425E-05 -0.59924181E-05 -0.34338485E-05
     atom   11 type  1   force =  -0.32775953E-05 -0.18833423E-05 -0.28938966E-05
     atom   12 type  1   force =   0.41044070E-05 -0.27031072E-05 -0.34044313E-05
     atom   13 type  1   force =   0.33397859E-05  0.37340313E-05 -0.31664886E-05
     atom   14 type  1   force =   0.48870884E-05  0.32221443E-05 -0.46486459E-05
     atom   15 type  1   force =   0.11494627E-04 -0.29659607E-05  0.21784988E-05
     atom   16 type  1   force =  -0.81680994E-06  0.10949180E-05 -0.47355838E-05
     atom   17 type  1   force =   0.69677047E-06  0.99909305E-06  0.16928027E-05
     atom   18 type  1   force =   0.35329702E-05 -0.59546061E-05  0.47584373E-05
     atom   19 type  1   force =   0.17934629E-05 -0.35720600E-05  0.33681320E-05
     atom   20 type  1   force =   0.52910731E-05 -0.37448785E-05  0.23379444E-05
     atom   21 type  1   force =   0.38842528E-06  0.77356204E-07 -0.12890799E-05
     atom   22 type  1   force =   0.11824138E-06  0.60860318E-06 -0.68121012E-07
     atom   23 type  1   force =  -0.70833110E-05  0.65300346E-05 -0.42709091E-05
     atom   24 type  1   force =  -0.12369527E-07  0.45778522E-06  0.59016404E-06
     atom   25 type  1   force =  -0.35724576E-05 -0.10752399E-04 -0.23811976E-05
     atom   26 type  1   force =  -0.31759046E-05  0.53886493E-06 -0.25624771E-05
     atom   27 type  1   force =   0.10453602E-04  0.22770180E-05 -0.14336340E-05
     atom   28 type  1   force =  -0.44872464E-06 -0.47846752E-05  0.16324120E-05
     atom   29 type  1   force =  -0.66045594E-05 -0.31307842E-05  0.65311761E-05
     atom   30 type  1   force =   0.55140060E-06  0.31230849E-07  0.43448653E-06
     atom   31 type  1   force =   0.44840283E-05  0.77616874E-05  0.75933604E-05
     atom   32 type  1   force =   0.43428690E-05  0.21027838E-05  0.92960919E-06
     atom   33 type  1   force =  -0.98169093E-05  0.17667398E-05  0.22695965E-05
     atom   34 type  1   force =  -0.55338985E-05 -0.27226749E-05 -0.33459808E-05
     atom   35 type  1   force =  -0.21229030E-05 -0.25139648E-05 -0.14004191E-05
     atom   36 type  1   force =  -0.43713997E-05  0.38078294E-05 -0.37677264E-05
     atom   37 type  1   force =   0.26828520E-05  0.23525240E-05 -0.32343036E-05
     atom   38 type  1   force =   0.26494850E-05  0.42615977E-05 -0.29196861E-05
     atom   39 type  1   force =  -0.21976047E-05  0.10597233E-04  0.21734857E-05
     atom   40 type  1   force =   0.18701693E-05 -0.42372587E-06 -0.31230400E-05
     atom   41 type  1   force =  -0.29359073E-05 -0.20238210E-05 -0.25339942E-05
     atom   42 type  1   force =  -0.38832042E-05 -0.33358304E-05  0.45336258E-05
     atom   43 type  1   force =  -0.98952652E-06  0.18250719E-06 -0.47347657E-06
     atom   44 type  1   force =   0.28446668E-05  0.45958578E-05  0.35446670E-05
     atom   45 type  1   force =   0.30542116E-05  0.34000672E-05 -0.28536317E-05
     atom   46 type  1   force =   0.23365606E-05  0.54291421E-05 -0.13945560E-05
     atom   47 type  1   force =  -0.70659274E-06 -0.40318848E-06 -0.80083114E-05
     atom   48 type  1   force =  -0.50119225E-05 -0.27908861E-05 -0.16845009E-05
     atom   49 type  1   force =   0.25710411E-05 -0.40850971E-05  0.25099251E-05
     atom   50 type  1   force =   0.20399771E-05 -0.38563557E-05  0.51123529E-05
     atom   51 type  1   force =   0.18541902E-05 -0.28828999E-05  0.30923492E-05
     atom   52 type  1   force =   0.31571310E-05 -0.10388102E-05  0.48355040E-05
     atom   53 type  1   force =   0.44615637E-06  0.22762350E-05  0.75274273E-06
     atom   54 type  1   force =  -0.37688298E-05  0.34292167E-05  0.29982032E-05
     atom   55 type  1   force =  -0.19566749E-06 -0.11349503E-06  0.17470163E-05
     atom   56 type  1   force =   0.24209105E-05 -0.24210061E-05  0.47572888E-05
     atom   57 type  1   force =  -0.19422416E-05  0.18834961E-05  0.10248960E-04
     atom   58 type  1   force =   0.99196691E-06 -0.39043797E-05 -0.56539999E-06
     atom   59 type  1   force =  -0.32868939E-06 -0.83434640E-05  0.34652906E-07
     atom   60 type  1   force =  -0.30337615E-05 -0.21881270E-05 -0.26384037E-05
     atom   61 type  1   force =  -0.72965567E-06  0.14377310E-05 -0.20178640E-06
     atom   62 type  1   force =   0.26933745E-05  0.43295336E-05 -0.24229380E-05
     atom   63 type  1   force =   0.83393361E-05 -0.28720106E-06 -0.12928391E-05
     atom   64 type  1   force =   0.31001576E-05 -0.21195069E-05 -0.23284454E-05
     atom   65 type  1   force =   0.68261582E-06 -0.10273549E-06  0.34324663E-06
     atom   66 type  1   force =  -0.46399283E-05  0.29004241E-05  0.27582334E-05
     atom   67 type  1   force =  -0.28347707E-05  0.20187018E-05  0.23815908E-05
     atom   68 type  1   force =  -0.29463139E-05  0.45599754E-05  0.22077750E-05
     atom   69 type  1   force =   0.63911695E-06  0.82894194E-08  0.10482462E-05
     atom   70 type  1   force =   0.19923114E-05 -0.11652206E-05  0.17283307E-05
     atom   71 type  1   force =   0.65038738E-05 -0.67999228E-05 -0.16670168E-05
     atom   72 type  1   force =   0.48256390E-06 -0.12794843E-05  0.36482019E-06
     atom   73 type  1   force =  -0.36420595E-05  0.20986663E-05  0.29096661E-05
     atom   74 type  1   force =  -0.30534447E-05  0.25174724E-05  0.52056626E-05
     atom   75 type  1   force =  -0.19755828E-05  0.33680721E-05  0.37168161E-05
     atom   76 type  1   force =  -0.12823615E-05  0.45208071E-05  0.29083781E-05
     atom   77 type  1   force =   0.11141151E-05  0.14931999E-05  0.14467639E-05
     atom   78 type  1   force =   0.19437916E-05 -0.32878965E-05  0.12700131E-05
     atom   79 type  1   force =  -0.11864877E-05 -0.10887510E-05  0.22795248E-05
     atom   80 type  1   force =  -0.31134916E-05  0.16434941E-05  0.43312618E-05
     atom   81 type  1   force =  -0.78686135E-06  0.63043227E-06  0.61569649E-06
     atom   82 type  1   force =   0.12280721E-06  0.52562240E-06 -0.82058648E-06
     atom   83 type  1   force =   0.18374079E-06  0.19566991E-05  0.46870107E-06
     atom   84 type  1   force =   0.31607336E-05  0.21645580E-05 -0.40817418E-05
     atom   85 type  1   force =   0.10187052E-06  0.20676841E-05  0.47764134E-06
     atom   86 type  1   force =  -0.19935724E-05 -0.15880966E-05 -0.30238780E-05
     atom   87 type  1   force =  -0.22158678E-05 -0.14207252E-05  0.14026537E-05
     atom   88 type  1   force =  -0.21490879E-05 -0.95918238E-06 -0.15768793E-05
     atom   89 type  1   force =   0.61624230E-05 -0.30842580E-05 -0.69965002E-05
     atom   90 type  1   force =   0.10880237E-05 -0.60553902E-06 -0.22967342E-06
     atom   91 type  1   force =  -0.54718096E-06  0.18414035E-05 -0.98096668E-06
     atom   92 type  1   force =  -0.23380319E-05  0.35568684E-05  0.19076089E-05
     atom   93 type  1   force =  -0.25769550E-05  0.10715051E-05 -0.24285454E-05
     atom   94 type  1   force =  -0.73464018E-06 -0.18437302E-05 -0.11175840E-05
     atom   95 type  1   force =   0.24618342E-05 -0.58178115E-05 -0.76333006E-05
     atom   96 type  1   force =   0.62823127E-05 -0.51813061E-05 -0.46388038E-05
     atom   97 type  1   force =  -0.11012376E-04 -0.35521548E-05 -0.31588687E-05
     atom   98 type  1   force =   0.13459546E-05 -0.24926159E-05 -0.12433450E-05
     atom   99 type  1   force =   0.36671790E-05  0.10871051E-04 -0.24843050E-05
     atom  100 type  1   force =  -0.33059607E-05 -0.32424472E-06  0.20236999E-05
     atom  101 type  1   force =  -0.21728227E-05 -0.74035414E-05  0.63073920E-05
     atom  102 type  1   force =   0.50374771E-06 -0.77102050E-06 -0.21890908E-06
     atom  103 type  1   force =   0.70187223E-05  0.24662733E-05  0.66715041E-05
     atom  104 type  1   force =   0.14823494E-05  0.36403747E-05  0.21796105E-05
     atom  105 type  1   force =   0.29419054E-05 -0.33924010E-05  0.12380411E-04
     atom  106 type  1   force =  -0.40854004E-05  0.12441926E-05 -0.11798259E-05
     atom  107 type  1   force =  -0.78609791E-05 -0.13536408E-05 -0.11294142E-05
     atom  108 type  1   force =  -0.24390515E-05 -0.36175972E-05 -0.52457522E-05
     atom  109 type  1   force =   0.32781463E-05 -0.13650501E-05 -0.18709431E-05
     atom  110 type  1   force =   0.49811378E-05  0.22197283E-05 -0.35141326E-05
     atom  111 type  1   force =   0.58621801E-06  0.73609499E-05  0.23896947E-06
     atom  112 type  1   force =  -0.16185219E-05  0.32281650E-05 -0.82468727E-06
     atom  113 type  1   force =  -0.40173925E-05  0.53503297E-05 -0.75993329E-05
     atom  114 type  1   force =   0.26432254E-06 -0.43153389E-07  0.17685738E-06
     atom  115 type  1   force =   0.23319468E-05 -0.90226014E-06 -0.13946216E-05
     atom  116 type  1   force =   0.47655363E-05 -0.28352616E-05  0.19917918E-05
     atom  117 type  1   force =   0.16530701E-05 -0.16814658E-05 -0.31434220E-05
     atom  118 type  1   force =  -0.12734101E-05  0.18438847E-06 -0.20922699E-05
     atom  119 type  1   force =  -0.65996922E-05  0.37583145E-05 -0.74289910E-05
     atom  120 type  1   force =  -0.60848433E-05  0.52807432E-05 -0.63555149E-05
     atom  121 type  1   force =   0.72815909E-05  0.74235463E-05  0.39932593E-05
     atom  122 type  1   force =  -0.10681953E-06  0.21194377E-05  0.46919092E-05
     atom  123 type  1   force =  -0.76700081E-06 -0.75489284E-06  0.73340109E-05
     atom  124 type  1   force =  -0.13229518E-05 -0.10871572E-05  0.36129272E-05
     atom  125 type  1   force =  -0.70887402E-05 -0.64510277E-05  0.27811529E-05
     atom  126 type  1   force =  -0.42444913E-05 -0.51588430E-05  0.62500826E-05
     atom  127 type  1   force =   0.31437603E-06  0.24558573E-06 -0.28061925E-06
     atom  128 type  1   force =   0.48630689E-05  0.49884114E-05  0.59726051E-05

     Total force =     0.034399     Total SCF correction =     0.000075


     entering subroutine stress ...

          total   stress  (Ry/bohr**3)                   (kbar)     P=   -0.59
  -0.0000040170  -0.0000002072   0.0000010802         -0.59     -0.03      0.16
  -0.0000002072  -0.0000040192   0.0000004282         -0.03     -0.59      0.06
   0.0000010802   0.0000004282  -0.0000040268          0.16      0.06     -0.59

     kinetic stress (kbar)   9932.77      0.03     -0.15
                                0.03   9932.77     -0.06
                               -0.15     -0.06   9932.77

     local   stress (kbar)   1567.97      5.51    -27.40
                                5.51   1567.96    -10.38
                              -27.40    -10.38   1570.20

     nonloc. stress (kbar)   2927.31     -0.02      0.12
                               -0.02   2927.31      0.05
                                0.12      0.05   2927.31

     hartree stress (kbar)  26196.05     -2.20     10.75
                               -2.20  26196.08      4.06
                               10.75      4.06  26195.01

     exc-cor stress (kbar)  19329.03     -0.00      0.01
                               -0.00  19329.03      0.00
                                0.01      0.00  19329.03

     corecor stress (kbar) -28928.01      0.00     -0.01
                                0.00 -28928.01     -0.00
                               -0.01     -0.00 -28928.01

     ewald   stress (kbar) -31025.72     -3.34     16.84
                               -3.34 -31025.74      6.40
                               16.84      6.40 -31026.92

     hubbard stress (kbar)      0.00      0.00      0.00
                                0.00      0.00      0.00
                                0.00      0.00      0.00

     london  stress (kbar)      0.00      0.00      0.00
                                0.00      0.00      0.00
                                0.00      0.00      0.00

     XDM     stress (kbar)      0.00      0.00      0.00
                                0.00      0.00      0.00
                                0.00      0.00      0.00

     dft-nl  stress (kbar)      0.00      0.00      0.00
                                0.00      0.00      0.00
                                0.00      0.00      0.00



     Writing output data file Ge_diamond.scf.in.super.444.Si.022.save

     init_run     :   1449.95s CPU   1220.29s WALL (       1 calls)
     electrons    :  86727.24s CPU  74829.94s WALL (       1 calls)
     forces       :    914.42s CPU    688.97s WALL (       1 calls)
     stress       :   4593.93s CPU   4563.88s WALL (       1 calls)

     Called by init_run:
     wfcinit      :   1399.77s CPU   1169.45s WALL (       1 calls)
     potinit      :      1.05s CPU      1.15s WALL (       1 calls)

     Called by electrons:
     c_bands      :  80779.63s CPU  69248.17s WALL (      13 calls)
     sum_band     :   5404.17s CPU   5028.14s WALL (      13 calls)
     v_of_rho     :      7.90s CPU      8.99s WALL (      13 calls)
     v_h          :      0.52s CPU      0.69s WALL (      13 calls)
     v_xc         :      8.76s CPU      9.94s WALL (      15 calls)
     newd         :    567.04s CPU    573.54s WALL (      13 calls)
     mix_rho      :     14.00s CPU     15.56s WALL (      13 calls)

     Called by c_bands:
     init_us_2    :     52.56s CPU     53.45s WALL (     232 calls)
     cegterg      :  80427.72s CPU  68882.42s WALL (     104 calls)

     Called by sum_band:
     sum_band:bec :     21.07s CPU     21.21s WALL (     104 calls)
     addusdens    :    409.64s CPU    412.05s WALL (      13 calls)

     Called by *egterg:
     h_psi        :  20890.83s CPU  18726.60s WALL (     409 calls)
     s_psi        :   5551.46s CPU   3704.39s WALL (     409 calls)
     g_psi        :     10.48s CPU     12.56s WALL (     297 calls)
     cdiaghg      :  38090.14s CPU  35283.96s WALL (     393 calls)
     cegterg:over :   7698.49s CPU   5428.15s WALL (     297 calls)
     cegterg:upda :   3513.87s CPU   2385.85s WALL (     297 calls)
     cegterg:last :   2486.58s CPU   1626.02s WALL (     104 calls)

     Called by h_psi:
     h_psi:vloc   :   9430.63s CPU  10931.56s WALL (     409 calls)
     h_psi:vnl    :  11432.38s CPU   7766.59s WALL (     409 calls)
     add_vuspsi   :   5516.48s CPU   3687.72s WALL (     409 calls)

     General routines
     calbec       :   9829.77s CPU   7096.61s WALL (     529 calls)
     fft          :    184.91s CPU    187.12s WALL (     233 calls)
     ffts         :      9.06s CPU     10.12s WALL (     381 calls)
     fftw         :  10256.24s CPU  12083.89s WALL (  643766 calls)
     interpolate  :      2.32s CPU      2.73s WALL (      26 calls)

     Parallel routines
     fft_scatter  :   6283.08s CPU   7399.51s WALL (  644380 calls)

     PWSCF        :     1d    2h 2m CPU        0d   22h36m WALL


   This run was terminated on:   0:29:20  19Jan2017            

=------------------------------------------------------------------------------=
   JOB DONE.
=------------------------------------------------------------------------------=
