
     Program PWSCF v.5.1 starts on 13Feb2017 at 21:46: 9 

     This program is part of the open-source Quantum ESPRESSO suite
     for quantum simulation of materials; please cite
         "P. Giannozzi et al., J. Phys.:Condens. Matter 21 395502 (2009);
          URL http://www.quantum-espresso.org", 
     in publications or presentations arising from this work. More details at
     http://www.quantum-espresso.org/quote

     Parallel version (MPI), running on    16 processors
     R & G space division:  proc/nbgrp/npool/nimage =      16
     Reading input from /tmp/Ge_diamond.scf.in.super.444.a.03.15376/Ge_diamond.scf.in.super.444.a.03.t
Warning: card &IONS ignored
Warning: card   ION_DYNAMICS='BFGS', ignored
Warning: card / ignored
Warning: card &CELL ignored
Warning: card  CELL_DYNAMICS = 'BFGS' ignored
Warning: card / ignored
     Message from routine read_cards :
     DEPRECATED: no units specified in CELL_PARAMETERS card

     Current dimensions of program PWSCF are:
     Max number of different atomic species (ntypx) = 10
     Max number of k-points (npk) =  40000
     Max angular momentum in pseudopotentials (lmaxx) =  3

     Subspace diagonalization in iterative solution of the eigenvalue problem:
     a serial algorithm will be used


     Parallelization info
     --------------------
     sticks:   dense  smooth     PW     G-vecs:    dense   smooth      PW
     Min         793     553    145                58871    34448    4637
     Max         795     554    146                58873    34482    4641
     Sum       12703    8863   2335               941961   551433   74249



     bravais-lattice index     =            0
     lattice parameter (alat)  =    30.323768153  a.u.
     unit-cell volume          =   19716.7125 (a.u.)^3
     number of atoms/cell      =          128
     number of atomic types    =            1
     number of electrons       =      1792.00
     number of Kohn-Sham states=         1075
     kinetic-energy cutoff     =      35.0000  Ry
     charge density cutoff     =     200.0000  Ry
     convergence threshold     =      1.0E-09
     mixing beta               =       0.3000
     number of iterations used =            8  local-TF  mixing
     Exchange-correlation      = SLA  PW   PSX  PSC ( 1  4 10  8 0)
     A smooth kinetic-energy cutoff is imposed at      34.5000 Ry
     height of the smooth step-function =             800.0000 Ry
     width of the smooth step-function  =               1.0000 Ry


     celldm(1)=  30.323768  celldm(2)=   0.000000  celldm(3)=   0.000000
     celldm(4)=   0.000000  celldm(5)=   0.000000  celldm(6)=   0.000000

     crystal axes: (cart. coord. in units of alat)
               a(1) = (   0.000000000000   0.707106781187   0.707106781187 )  
               a(2) = (   0.707106781187   0.000000000000   0.707106781187 )  
               a(3) = (   0.707106781187   0.707106781187  -0.000000000000 )  

     reciprocal axes: (cart. coord. in units 2 pi/alat)
               b(1) = ( -0.707107  0.707107  0.707107 )  
               b(2) = (  0.707107 -0.707107  0.707107 )  
               b(3) = (  0.707107  0.707107 -0.707107 )  


     PseudoPot. # 1 for Ge read from file:
     /users/kfg/psuedo/gbrv_1.5/ge.pbesol.UPF
     MD5 check sum: 7bed0412183f5e553a4d27ec7023354d
     Pseudo is Ultrasoft + core correction, Zval = 14.0
     Generated by new atomic code, or converted to UPF format
     Using radial grid of  873 points,  6 beta functions with: 
                l(1) =   0
                l(2) =   0
                l(3) =   1
                l(4) =   1
                l(5) =   2
                l(6) =   2
     Q(r) pseudized with  8 coefficients,  rinner =    1.400   1.400   1.400
                                                       1.400   1.400

     atomic species   valence    mass     pseudopotential
        Ge            14.00    72.64000     Ge( 1.00)

     No symmetry found


                                    s                        frac. trans.

      isym =  1     identity                                     

 cryst.   s( 1) = (     1          0          0      )
                  (     0          1          0      )
                  (     0          0          1      )

 cart.    s( 1) = (  1.0000000  0.0000000  0.0000000 )
                  (  0.0000000  1.0000000  0.0000000 )
                  (  0.0000000  0.0000000  1.0000000 )


     point group C_1 (1)    
     there are  1 classes
     the character table:

       E    
A      1.00

     the symmetry operations in each class:
     E        1

   Cartesian axes

     site n.     atom                  positions (alat units)
         1           Ge  tau(   1) = (    0.00051581434    0.00224075651    0.00102017205  )
         2           Ge  tau(   2) = (    0.09095157690    0.09085126042    0.08659634390  )
         3           Ge  tau(   3) = (    0.17627811283    0.17409164525    0.00142981955  )
         4           Ge  tau(   4) = (    0.26396456630    0.26474094959    0.08977824664  )
         5           Ge  tau(   5) = (    0.35606240498    0.35521606351   -0.00020560111  )
         6           Ge  tau(   6) = (    0.44424832719    0.44502624177    0.09164867897  )
         7           Ge  tau(   7) = (    0.53257542641    0.52814283638    0.00025737843  )
         8           Ge  tau(   8) = (    0.62055582046    0.62050797378    0.08585550442  )
         9           Ge  tau(   9) = (    0.17491385094   -0.00245113179    0.17544249251  )
        10           Ge  tau(  10) = (    0.26231402367    0.08810168922    0.26784138398  )
        11           Ge  tau(  11) = (    0.35031509788    0.17839907588    0.17953789254  )
        12           Ge  tau(  12) = (    0.44367944814    0.26755252192    0.26255102915  )
        13           Ge  tau(  13) = (    0.52931283409    0.35377028145    0.17799466385  )
        14           Ge  tau(  14) = (    0.61912993467    0.43866468295    0.26395071905  )
        15           Ge  tau(  15) = (    0.70951436215    0.52719953440    0.17536963859  )
        16           Ge  tau(  16) = (    0.79368726366    0.61886792996    0.26810448066  )
        17           Ge  tau(  17) = (    0.35566755596   -0.00117235709    0.35274935905  )
        18           Ge  tau(  18) = (    0.44089704536    0.09049022412    0.44119612101  )
        19           Ge  tau(  19) = (    0.52886765633    0.17592547853    0.35415384389  )
        20           Ge  tau(  20) = (    0.62144028502    0.26766837903    0.44122930765  )
        21           Ge  tau(  21) = (    0.70544132759    0.35679710379    0.35129989141  )
        22           Ge  tau(  22) = (    0.79515300219    0.44322629157    0.44408002601  )
        23           Ge  tau(  23) = (    0.88302724501    0.53187958569    0.35521621014  )
        24           Ge  tau(  24) = (    0.97349633453    0.61810637445    0.44034537893  )
        25           Ge  tau(  25) = (    0.52847274630    0.00040358293    0.52853919358  )
        26           Ge  tau(  26) = (    0.62050893994    0.09041144281    0.61843715073  )
        27           Ge  tau(  27) = (    0.71008295086    0.17899255483    0.52774558187  )
        28           Ge  tau(  28) = (    0.79465117958    0.26250997634    0.62027824123  )
        29           Ge  tau(  29) = (    0.88706844651    0.35618240981    0.53236179256  )
        30           Ge  tau(  30) = (    0.97158888152    0.44132238614    0.61656256859  )
        31           Ge  tau(  31) = (    1.05950698518    0.52991338107    0.52916479058  )
        32           Ge  tau(  32) = (    1.15052117761    0.61802179473    0.61570329374  )
        33           Ge  tau(  33) = (   -0.00074774457    0.17610375052    0.17745808648  )
        34           Ge  tau(  34) = (    0.08750480363    0.26243986017    0.26287804067  )
        35           Ge  tau(  35) = (    0.17974624510    0.35529645095    0.17639907675  )
        36           Ge  tau(  36) = (    0.26499015025    0.44081014173    0.26398126397  )
        37           Ge  tau(  37) = (    0.35429456698    0.53360044978    0.17371240524  )
        38           Ge  tau(  38) = (    0.44444482834    0.61899159472    0.26672848315  )
        39           Ge  tau(  39) = (    0.53078608677    0.70983748180    0.17624181737  )
        40           Ge  tau(  40) = (    0.61914865007    0.79382670051    0.26668992896  )
        41           Ge  tau(  41) = (    0.17353623559    0.17438503221    0.35504176920  )
        42           Ge  tau(  42) = (    0.26567197745    0.26645304335    0.44449083486  )
        43           Ge  tau(  43) = (    0.35342763494    0.35088490686    0.35653437509  )
        44           Ge  tau(  44) = (    0.44121423603    0.44344363206    0.44509670082  )
        45           Ge  tau(  45) = (    0.53302564752    0.53192123973    0.35073421647  )
        46           Ge  tau(  46) = (    0.62117937162    0.62031617110    0.44375379247  )
        47           Ge  tau(  47) = (    0.70746343694    0.70537407298    0.35252259506  )
        48           Ge  tau(  48) = (    0.79629344291    0.79389533813    0.44181766183  )
        49           Ge  tau(  49) = (    0.35068991759    0.17883896573    0.52838679088  )
        50           Ge  tau(  50) = (    0.44403238053    0.26314780801    0.62023515579  )
        51           Ge  tau(  51) = (    0.52744677399    0.35114213836    0.52773107398  )
        52           Ge  tau(  52) = (    0.61973888730    0.44052658811    0.61847089472  )
        53           Ge  tau(  53) = (    0.70734579401    0.52769380540    0.52754308429  )
        54           Ge  tau(  54) = (    0.79418149163    0.61698783881    0.62181087638  )
        55           Ge  tau(  55) = (    0.88507562626    0.70547584119    0.53020179659  )
        56           Ge  tau(  56) = (    0.96995858325    0.79765585734    0.61862051028  )
        57           Ge  tau(  57) = (    0.53149863760    0.17767536176    0.70470632675  )
        58           Ge  tau(  58) = (    0.61933256076    0.26742540289    0.79646629092  )
        59           Ge  tau(  59) = (    0.71010236937    0.35338546944    0.70779476151  )
        60           Ge  tau(  60) = (    0.79744662413    0.44056673892    0.79362040507  )
        61           Ge  tau(  61) = (    0.88388121323    0.53108887919    0.70385005229  )
        62           Ge  tau(  62) = (    0.97064625034    0.61972316660    0.79291680816  )
        63           Ge  tau(  63) = (    1.05763895070    0.70724515774    0.70723536682  )
        64           Ge  tau(  64) = (    1.14689583836    0.79267242862    0.79476233996  )
        65           Ge  tau(  65) = (    0.00062048884    0.35065098264    0.35213469293  )
        66           Ge  tau(  66) = (    0.08838908586    0.44431893375    0.43966876506  )
        67           Ge  tau(  67) = (    0.17833288830    0.52872358953    0.35683942822  )
        68           Ge  tau(  68) = (    0.26395849945    0.61897531879    0.44345751321  )
        69           Ge  tau(  69) = (    0.35123278396    0.70736135439    0.35046900056  )
        70           Ge  tau(  70) = (    0.44067842020    0.79579117379    0.43981693844  )
        71           Ge  tau(  71) = (    0.53309361719    0.88667112555    0.35054282930  )
        72           Ge  tau(  72) = (    0.61820181228    0.97148613662    0.43944796024  )
        73           Ge  tau(  73) = (    0.17956148866    0.35387017550    0.53291125599  )
        74           Ge  tau(  74) = (    0.26594022942    0.44468609977    0.61940434837  )
        75           Ge  tau(  75) = (    0.35520049811    0.53256923625    0.53145083281  )
        76           Ge  tau(  76) = (    0.44448525749    0.61734225426    0.62039694319  )
        77           Ge  tau(  77) = (    0.53227970756    0.70488858240    0.53189755437  )
        78           Ge  tau(  78) = (    0.61546531117    0.79563091023    0.62096384057  )
        79           Ge  tau(  79) = (    0.70463830609    0.88350716612    0.53305489770  )
        80           Ge  tau(  80) = (    0.79850770524    0.97400768372    0.61936876109  )
        81           Ge  tau(  81) = (    0.35106617891    0.35075012842    0.70864704777  )
        82           Ge  tau(  82) = (    0.43869452239    0.44283243345    0.79584711661  )
        83           Ge  tau(  83) = (    0.53047022605    0.53292183191    0.71037876741  )
        84           Ge  tau(  84) = (    0.62041871360    0.61794966385    0.79691387405  )
        85           Ge  tau(  85) = (    0.70822301219    0.70398153082    0.70874498483  )
        86           Ge  tau(  86) = (    0.79756004032    0.79830956273    0.79641026616  )
        87           Ge  tau(  87) = (    0.88618324520    0.88543714086    0.70423151012  )
        88           Ge  tau(  88) = (    0.97325492053    0.97363155124    0.79483881816  )
        89           Ge  tau(  89) = (    0.53349817421    0.35400443072    0.88239341609  )
        90           Ge  tau(  90) = (    0.62140839131    0.44410528209    0.97417332638  )
        91           Ge  tau(  91) = (    0.71034854866    0.52894539842    0.88327258485  )
        92           Ge  tau(  92) = (    0.79615792611    0.61874976518    0.97005667757  )
        93           Ge  tau(  93) = (    0.88234560939    0.70403099999    0.88189715308  )
        94           Ge  tau(  94) = (    0.96903993493    0.79622218313    0.97496503074  )
        95           Ge  tau(  95) = (    1.06314033973    0.88087992549    0.88277233081  )
        96           Ge  tau(  96) = (    1.15195230718    0.97300745045    0.97465511489  )
        97           Ge  tau(  97) = (   -0.00085319603    0.52880527980    0.53264036550  )
        98           Ge  tau(  98) = (    0.08648819522    0.61761572927    0.62135417235  )
        99           Ge  tau(  99) = (    0.17930018560    0.70604742017    0.52918750724  )
       100           Ge  tau( 100) = (    0.26399943737    0.79770143282    0.61968272065  )
       101           Ge  tau( 101) = (    0.35335469739    0.88654608297    0.53356883465  )
       102           Ge  tau( 102) = (    0.43916243856    0.96988468509    0.61617436362  )
       103           Ge  tau( 103) = (    0.53008599997    1.06315241150    0.53149740356  )
       104           Ge  tau( 104) = (    0.61862285252    1.14828307890    0.62120801713  )
       105           Ge  tau( 105) = (    0.17577313361    0.53031941537    0.70421758344  )
       106           Ge  tau( 106) = (    0.26731869053    0.61907519324    0.79608655641  )
       107           Ge  tau( 107) = (    0.35249695972    0.70520777640    0.70862296392  )
       108           Ge  tau( 108) = (    0.43866639580    0.79559639037    0.79838690222  )
       109           Ge  tau( 109) = (    0.52866012973    0.88158556729    0.70795183568  )
       110           Ge  tau( 110) = (    0.62036367953    0.97242016135    0.79276591412  )
       111           Ge  tau( 111) = (    0.70997029989    1.05954463105    0.70403759148  )
       112           Ge  tau( 112) = (    0.79361356262    1.14967259526    0.79680889244  )
       113           Ge  tau( 113) = (    0.35216782701    0.53079013898    0.88708165004  )
       114           Ge  tau( 114) = (    0.44109853704    0.61895182320    0.97120445809  )
       115           Ge  tau( 115) = (    0.52905701214    0.70726985231    0.88115156474  )
       116           Ge  tau( 116) = (    0.61593789549    0.79700485285    0.97240206688  )
       117           Ge  tau( 117) = (    0.70647362086    0.88667172912    0.88604993717  )
       118           Ge  tau( 118) = (    0.79372503742    0.97050798761    0.97144627102  )
       119           Ge  tau( 119) = (    0.88080042140    1.06279083300    0.88494674279  )
       120           Ge  tau( 120) = (    0.97496744193    1.14728137128    0.96989488580  )
       121           Ge  tau( 121) = (    0.52728711248    0.53362084767    1.06270878432  )
       122           Ge  tau( 122) = (    0.61691862973    0.62004515635    1.14937948978  )
       123           Ge  tau( 123) = (    0.70910169236    0.70556189967    1.06207711424  )
       124           Ge  tau( 124) = (    0.79710723037    0.79850605144    1.15024485730  )
       125           Ge  tau( 125) = (    0.88175784446    0.88268755112    1.06221461623  )
       126           Ge  tau( 126) = (    0.97332160056    0.96915762712    1.14690977569  )
       127           Ge  tau( 127) = (    1.06202670741    1.06043670941    1.05984702185  )
       128           Ge  tau( 128) = (    1.15081596859    1.14826212100    1.15155935857  )

   Crystallographic axes

     site n.     atom                  positions (cryst. coord.)
         1           Ge  tau(   1) = (    0.00194108888   -0.00049834774    0.00122781937  )
         2           Ge  tau(   2) = (    0.06116192753    0.06130379646    0.06732115711  )
         3           Ge  tau(   3) = (   -0.00053503095    0.00255710115    0.24673779676  )
         4           Ge  tau(   4) = (    0.06403179289    0.06293382111    0.31036844854  )
         5           Ge  tau(   5) = (   -0.00074383573    0.00045307185    0.50309521032  )
         6           Ge  tau(   6) = (    0.06535547106    0.06425533371    0.56400667567  )
         7           Ge  tau(   7) = (   -0.00295232043    0.00331630850    0.74985908251  )
         8           Ge  tau(   8) = (    0.06067517667    0.06074284209    0.81685561541  )
         9           Ge  tau(   9) = (   -0.00135940587    0.24947255819   -0.00210701795  )
        10           Ge  tau(  10) = (    0.06620573584    0.31257918194    0.05838886793  )
        11           Ge  tau(  11) = (    0.00538947634    0.24851544625    0.24690491628  )
        12           Ge  tau(  12) = (    0.06111106924    0.31019215699    0.31726533591  )
        13           Ge  tau(  13) = (    0.00173390446    0.24998856318    0.49857282553  )
        14           Ge  tau(  14) = (    0.05903314009    0.31424954660    0.56133240388  )
        15           Ge  tau(  15) = (   -0.00491099035    0.25292111168    0.75048372198  )
        16           Ge  tau(  16) = (    0.06596256000    0.31319443268    0.80924885987  )
        17           Ge  tau(  17) = (   -0.00289245848    0.50175538616    0.00123449518  )
        18           Ge  tau(  18) = (    0.06419772952    0.55974780847    0.06377477269  )
        19           Ge  tau(  19) = (    0.00085677731    0.49999239189    0.24793942039  )
        20           Ge  tau(  20) = (    0.06184172178    0.56215074921    0.31669853007  )
        21           Ge  tau(  21) = (    0.00187784058    0.49493523032    0.50270946261  )
        22           Ge  tau(  22) = (    0.06516223422    0.56286176134    0.56165439851  )
        23           Ge  tau(  23) = (    0.00287689988    0.49947468207    0.74931442376  )
        24           Ge  tau(  24) = (    0.06007255277    0.56266985424    0.81406186497  )
        25           Ge  tau(  25) = (    0.00033236155    0.74713493425    0.00023839091  )
        26           Ge  tau(  26) = (    0.06246556811    0.81213663792    0.06539552051  )
        27           Ge  tau(  27) = (   -0.00236514078    0.74871010014    0.25549883938  )
        28           Ge  tau(  28) = (    0.06232229723    0.81488360396    0.30892287156  )
        29           Ge  tau(  29) = (    0.00104351698    0.75182975014    0.50267447766  )
        30           Ge  tau(  30) = (    0.06102053856    0.81093060800    0.56310356531  )
        31           Ge  tau(  31) = (   -0.00030321695    0.74865524052    0.74971390735  )
        32           Ge  tau(  32) = (    0.05883404959    0.81190189882    0.81518075436  )
        33           Ge  tau(  33) = (    0.25053470776    0.00042892489   -0.00148639540  )
        34           Ge  tau(  34) = (    0.30958060993    0.06218508043    0.06156539963  )
        35           Ge  tau(  35) = (    0.24886572436    0.00060024237    0.25359933523  )
        36           Ge  tau(  36) = (    0.31098645011    0.06233943361    0.31241323076  )
        37           Ge  tau(  37) = (    0.24962162536   -0.00395518592    0.50500336761  )
        38           Ge  tau(  38) = (    0.31202872131    0.06518231704    0.56335758693  )
        39           Ge  tau(  39) = (    0.25123023979   -0.00198667142    0.75263155405  )
        40           Ge  tau(  40) = (    0.31209429124    0.06506222325    0.81054619480  )
        41           Ge  tau(  41) = (    0.25165263245    0.25045225276   -0.00503495482  )
        42           Ge  tau(  42) = (    0.31485478050    0.31375018651    0.06196672714  )
        43           Ge  tau(  43) = (    0.25030989408    0.25390585462    0.24591630003  )
        44           Ge  tau(  44) = (    0.31630731649    0.31315447438    0.31081668213  )
        45           Ge  tau(  45) = (    0.24722560862    0.24878747710    0.50502462272  )
        46           Ge  tau(  46) = (    0.31317094090    0.31439169078    0.56408860124  )
        47           Ge  tau(  47) = (    0.24779371406    0.25074852092    0.74975586649  )
        48           Ge  tau(  48) = (    0.31071654858    0.31410798088    0.81202100572  )
        49           Ge  tau(  49) = (    0.25210890951    0.49514285633    0.00080758131  )
        50           Ge  tau(  50) = (    0.31066777674    0.56647719243    0.06147942225  )
        51           Ge  tau(  51) = (    0.24849601765    0.49782842445    0.24809395675  )
        52           Ge  tau(  52) = (    0.31060273160    0.56404719565    0.31239594390  )
        53           Ge  tau(  53) = (    0.24599615287    0.50006243167    0.50027558351  )
        54           Ge  tau(  54) = (    0.31439185381    0.56498152079    0.55816071565  )
        55           Ge  tau(  55) = (    0.24791305984    0.50190551169    0.74978044270  )
        56           Ge  tau(  56) = (    0.31559433189    0.55926718371    0.81246139967  )
        57           Ge  tau(  57) = (    0.24811178471    0.74849346007    0.00315912160  )
        58           Ge  tau(  58) = (    0.31435077762    0.81202265297    0.06384585408  )
        59           Ge  tau(  59) = (    0.24824953665    0.75272341445    0.25151298698  )
        60           Ge  tau(  60) = (    0.30882218322    0.81352655702    0.31423327410  )
        61           Ge  tau(  61) = (    0.24823529316    0.74715899667    0.50283780261  )
        62           Ge  tau(  62) = (    0.31253675978    0.80881694416    0.56388414734  )
        63           Ge  tau(  63) = (    0.25232509668    0.74785675086    0.74787059731  )
        64           Ge  tau(  64) = (    0.31150806494    0.81245561510    0.80950003414  )
        65           Ge  tau(  65) = (    0.49650576505    0.00148789347   -0.00061038973  )
        66           Ge  tau(  66) = (    0.56257317432    0.05921235618    0.06578868780  )
        67           Ge  tau(  67) = (    0.50008722040    0.00455993858    0.24764085067  )
        68           Ge  tau(  68) = (    0.56460661515    0.06253701437    0.31075667546  )
        69           Ge  tau(  69) = (    0.49963993401   -0.00400192024    0.50072008687  )
        70           Ge  tau(  70) = (    0.56210017580    0.05989490351    0.56331849499  )
        71           Ge  tau(  71) = (    0.49788826553   -0.00214584213    0.75605406559  )
        72           Ge  tau(  72) = (    0.56054637409    0.06092689124    0.81334249597  )
        73           Ge  tau(  73) = (    0.50008001737    0.25357030839    0.00036798415  )
        74           Ge  tau(  74) = (    0.56437743206    0.31159259800    0.06450368124  )
        75           Ge  tau(  75) = (    0.50121112525    0.25037385024    0.25195551155  )
        76           Ge  tau(  76) = (    0.56091524015    0.31645853096    0.31213854845  )
        77           Ge  tau(  77) = (    0.49816127348    0.25405546170    0.49870171971  )
        78           Ge  tau(  78) = (    0.56648405937    0.31169142571    0.55870796452  )
        79           Ge  tau(  79) = (    0.50340611677    0.25044734905    0.74606170000  )
        80           Ge  tau(  80) = (    0.56205707591    0.31386262613    0.81539780027  )
        81           Ge  tau(  81) = (    0.50086565151    0.50131261439   -0.00483006288  )
        82           Ge  tau(  82) = (    0.56567483791    0.55982294798    0.06058479533  )
        83           Ge  tau(  83) = (    0.50404719077    0.50058009652    0.24961809160  )
        84           Ge  tau(  84) = (    0.56175732253    0.56524908618    0.31215547295  )
        85           Ge  tau(  85) = (    0.49815920467    0.50415756514    0.49742102388  )
        86           Ge  tau(  86) = (    0.56367709218    0.56261710743    0.56530311840  )
        87           Ge  tau(  87) = (    0.49743930090    0.49849445177    0.75475791234  )
        88           Ge  tau(  88) = (    0.56230223640    0.56176960014    0.81462070812  )
        89           Ge  tau(  89) = (    0.49702512498    0.75086761140    0.00361274208  )
        90           Ge  tau(  90) = (    0.56347233428    0.81421679599    0.06458737877  )
        91           Ge  tau(  91) = (    0.49629663672    0.75283943205    0.25174511948  )
        92           Ge  tau(  92) = (    0.56048714121    0.81138016848    0.31455716842  )
        93           Ge  tau(  93) = (    0.49750798776    0.74968292674    0.49814220076  )
        94           Ge  tau(  94) = (    0.56720378045    0.81160498886    0.55882442960  )
        95           Ge  tau(  95) = (    0.49533672652    0.75309187621    0.75041561094  )
        96           Ge  tau(  96) = (    0.56265211940    0.81571836271    0.81338821332  )
        97           Ge  tau(  97) = (    0.75115871435    0.00210851441   -0.00331511580  )
        98           Ge  tau(  98) = (    0.81492762979    0.06379986779    0.05851291088  )
        99           Ge  tau(  99) = (    0.74665861643    0.00172553335    0.25184322086  )
       100           Ge  tau( 100) = (    0.81556615408    0.06079755384    0.31255403095  )
       101           Ge  tau( 101) = (    0.75431338562    0.00026689680    0.49945210858  )
       102           Ge  tau( 102) = (    0.81097837035    0.06042377146    0.56064570524  )
       103           Ge  tau( 103) = (    0.75276029266   -0.00110945617    0.75076426656  )
       104           Ge  tau( 104) = (    0.81378673924    0.06473406364    0.81013076439  )
       105           Ge  tau( 105) = (    0.74865910876    0.24725494861    0.00132580084  )
       106           Ge  tau( 106) = (    0.81164761084    0.31418879406    0.06385692357  )
       107           Ge  tau( 107) = (    0.75047631336    0.25166789282    0.24683808831  )
       108           Ge  tau( 108) = (    0.81693241213    0.31215717300    0.30821079330  )
       109           Ge  tau( 109) = (    0.75015351392    0.25104157361    0.49659675174  )
       110           Ge  tau( 110) = (    0.80951167942    0.31162862811    0.56569810109  )
       111           Ge  tau( 111) = (    0.74501613523    0.25064337505    0.75340625193  )
       112           Ge  tau( 112) = (    0.81520072764    0.31165721468    0.81068184886  )
       113           Ge  tau( 113) = (    0.75356649827    0.50095640214   -0.00291588495  )
       114           Ge  tau( 114) = (    0.81250652294    0.56098399353    0.06282353989  )
       115           Ge  tau( 115) = (    0.74908375446    0.49705273890    0.25114686294  )
       116           Ge  tau( 116) = (    0.81562576893    0.55955842213    0.31150930324  )
       117           Ge  tau( 117) = (    0.75395122336    0.49911261474    0.49999196135  )
       118           Ge  tau( 118) = (    0.81192066868    0.56191182292    0.56058488980  )
       119           Ge  tau( 119) = (    0.75443849697    0.49706518866    0.74857471303  )
       120           Ge  tau( 120) = (    0.80766359872    0.56397490285    0.81483727640  )
       121           Ge  tau( 121) = (    0.75592721492    0.74696996072   -0.00127337498  )
       122           Ge  tau( 122) = (    0.81494481955    0.81052324321    0.06193144984  )
       123           Ge  tau( 123) = (    0.74849891821    0.75350494104    0.24931628940  )
       124           Ge  tau( 124) = (    0.81433505449    0.81235682276    0.31492303309  )
       125           Ge  tau( 125) = (    0.75175656010    0.75044175633    0.49655214604  )
       126           Ge  tau( 126) = (    0.80804330594    0.81393205365    0.56255255441  )
       127           Ge  tau( 127) = (    0.74830071780    0.75054931454    0.75138325868  )
       128           Ge  tau( 128) = (    0.81246958843    0.81608127433    0.81141827625  )

     number of k points=     8  gaussian smearing, width (Ry)=  0.0150
                       cart. coord. in units 2pi/alat
        k(    1) = (   0.0000000   0.0000000   0.0000000), wk =   0.2500000
        k(    2) = (  -0.3535534  -0.3535534   0.3535534), wk =   0.2500000
        k(    3) = (  -0.7071068   0.0000000   0.0000000), wk =   0.2500000
        k(    4) = (   0.3535534   0.3535534   0.3535534), wk =   0.2500000
        k(    5) = (   0.3535534  -0.3535534  -0.3535534), wk =   0.2500000
        k(    6) = (  -0.3535534   0.3535534  -0.3535534), wk =   0.2500000
        k(    7) = (   0.0000000  -0.7071068   0.0000000), wk =   0.2500000
        k(    8) = (   0.0000000   0.0000000  -0.7071068), wk =   0.2500000

                       cryst. coord.
        k(    1) = (   0.0000000   0.0000000   0.0000000), wk =   0.2500000
        k(    2) = (   0.0000000   0.0000000  -0.5000000), wk =   0.2500000
        k(    3) = (   0.0000000  -0.5000000  -0.5000000), wk =   0.2500000
        k(    4) = (   0.5000000   0.5000000   0.5000000), wk =   0.2500000
        k(    5) = (  -0.5000000   0.0000000   0.0000000), wk =   0.2500000
        k(    6) = (   0.0000000  -0.5000000   0.0000000), wk =   0.2500000
        k(    7) = (  -0.5000000   0.0000000  -0.5000000), wk =   0.2500000
        k(    8) = (  -0.5000000  -0.5000000   0.0000000), wk =   0.2500000

     Dense  grid:   941961 G-vectors     FFT dimensions: ( 144, 144, 144)

     Smooth grid:   551433 G-vectors     FFT dimensions: ( 120, 120, 120)

     Largest allocated arrays     est. size (Mb)     dimensions
        Kohn-Sham Wavefunctions        70.96 Mb     (    4326, 1075)
        NL pseudopotentials           152.09 Mb     (    4326, 2304)
        Each V/rho on FFT grid          2.85 Mb     (  186624)
        Each G-vector array             0.45 Mb     (   58872)
        G-vector shells                 0.02 Mb     (    3076)
     Largest temporary arrays     est. size (Mb)     dimensions
        Auxiliary wavefunctions       283.84 Mb     (    4326, 4300)
        Each subspace H/S matrix      282.14 Mb     (    4300, 4300)
        Each <psi_i|beta_j> matrix     37.79 Mb     (    2304, 1075)
        Arrays for rho mixing          22.78 Mb     (  186624,    8)

     Check: negative/imaginary core charge=   -0.000002    0.000000

     Initial potential from superposition of free atoms

     starting charge 1791.89656, renormalised to 1792.00000
     Starting wfc are 1152 randomized atomic wfcs

     total cpu time spent up to now is     1508.7 secs

     per-process dynamical memory:   847.1 Mb

     Self-consistent Calculation

     iteration #  1     ecut=    35.00 Ry     beta=0.30
     Davidson diagonalization with overlap
     ethr =  1.00E-02,  avg # of iterations =  4.4

     Threshold (ethr) on eigenvalues was too large:
     Diagonalizing with lowered threshold

     Davidson diagonalization with overlap
     ethr =  1.11E-04,  avg # of iterations =  6.8

     total cpu time spent up to now is    21084.1 secs

     total energy              =  -27288.12445982 Ry
     Harris-Foulkes estimate   =  -27288.34119159 Ry
     estimated scf accuracy    <       2.13161658 Ry

     iteration #  2     ecut=    35.00 Ry     beta=0.30
     Davidson diagonalization with overlap
     ethr =  1.19E-04,  avg # of iterations =  1.0

     total cpu time spent up to now is    25520.6 secs

     total energy              =  -27287.72538217 Ry
     Harris-Foulkes estimate   =  -27288.13171973 Ry
     estimated scf accuracy    <       1.30798665 Ry

     iteration #  3     ecut=    35.00 Ry     beta=0.30
     Davidson diagonalization with overlap
     ethr =  7.30E-05,  avg # of iterations =  2.0

     total cpu time spent up to now is    30762.6 secs

     total energy              =  -27287.79270609 Ry
     Harris-Foulkes estimate   =  -27287.79592517 Ry
     estimated scf accuracy    <       0.02417320 Ry

     iteration #  4     ecut=    35.00 Ry     beta=0.30
     Davidson diagonalization with overlap
     ethr =  1.35E-06,  avg # of iterations =  8.9

     total cpu time spent up to now is    54626.8 secs

     total energy              =  -27287.79739398 Ry
     Harris-Foulkes estimate   =  -27287.79763059 Ry
     estimated scf accuracy    <       0.00261718 Ry

     iteration #  5     ecut=    35.00 Ry     beta=0.30
     Davidson diagonalization with overlap
     ethr =  1.46E-07,  avg # of iterations =  2.0

     total cpu time spent up to now is    60522.8 secs

     total energy              =  -27287.79738433 Ry
     Harris-Foulkes estimate   =  -27287.79759819 Ry
     estimated scf accuracy    <       0.00058604 Ry

     iteration #  6     ecut=    35.00 Ry     beta=0.30
     Davidson diagonalization with overlap
     ethr =  3.27E-08,  avg # of iterations =  1.6

     total cpu time spent up to now is    65431.0 secs

     total energy              =  -27287.79742494 Ry
     Harris-Foulkes estimate   =  -27287.79740188 Ry
     estimated scf accuracy    <       0.00004381 Ry

     iteration #  7     ecut=    35.00 Ry     beta=0.30
     Davidson diagonalization with overlap
     ethr =  2.44E-09,  avg # of iterations =  2.1

     total cpu time spent up to now is    71419.1 secs

     total energy              =  -27287.79742607 Ry
     Harris-Foulkes estimate   =  -27287.79743034 Ry
     estimated scf accuracy    <       0.00004091 Ry

     iteration #  8     ecut=    35.00 Ry     beta=0.30
     Davidson diagonalization with overlap
     ethr =  2.28E-09,  avg # of iterations =  2.0

     total cpu time spent up to now is    76464.1 secs

     total energy              =  -27287.79743314 Ry
     Harris-Foulkes estimate   =  -27287.79742895 Ry
     estimated scf accuracy    <       0.00000339 Ry

     iteration #  9     ecut=    35.00 Ry     beta=0.30
     Davidson diagonalization with overlap
     ethr =  1.89E-10,  avg # of iterations =  3.0

     total cpu time spent up to now is    83388.4 secs

     total energy              =  -27287.79743202 Ry
     Harris-Foulkes estimate   =  -27287.79743440 Ry
     estimated scf accuracy    <       0.00000859 Ry

     iteration # 10     ecut=    35.00 Ry     beta=0.30
     Davidson diagonalization with overlap
     ethr =  1.89E-10,  avg # of iterations =  2.0

     total cpu time spent up to now is    90279.5 secs

     total energy              =  -27287.79743366 Ry
     Harris-Foulkes estimate   =  -27287.79743293 Ry
     estimated scf accuracy    <       0.00000003 Ry

     iteration # 11     ecut=    35.00 Ry     beta=0.30
     Davidson diagonalization with overlap
     ethr =  1.45E-12,  avg # of iterations =  2.6

     total cpu time spent up to now is    97827.9 secs

     total energy              =  -27287.79743402 Ry
     Harris-Foulkes estimate   =  -27287.79743367 Ry
     estimated scf accuracy    <          8.7E-09 Ry

     iteration # 12     ecut=    35.00 Ry     beta=0.30
     Davidson diagonalization with overlap
     ethr =  4.88E-13,  avg # of iterations =  2.6

     total cpu time spent up to now is   104246.8 secs

     End of self-consistent calculation

          k = 0.0000 0.0000 0.0000 ( 69041 PWs)   bands (ev):

   -16.7333 -16.7276 -16.7147 -16.7140 -16.7106 -16.7088 -16.7070 -16.7043
   -16.7025 -16.6997 -16.6994 -16.6986 -16.6943 -16.6930 -16.6887 -16.6869
   -16.6859 -16.6851 -16.6840 -16.6819 -16.6809 -16.6792 -16.6776 -16.6766
   -16.6747 -16.6733 -16.6705 -16.6688 -16.6679 -16.6673 -16.6663 -16.6652
   -16.6628 -16.6625 -16.6612 -16.6604 -16.6596 -16.6596 -16.6590 -16.6574
   -16.6572 -16.6565 -16.6555 -16.6554 -16.6548 -16.6534 -16.6530 -16.6515
   -16.6506 -16.6503 -16.6496 -16.6480 -16.6475 -16.6468 -16.6466 -16.6458
   -16.6450 -16.6443 -16.6437 -16.6434 -16.6421 -16.6417 -16.6410 -16.6405
   -16.6398 -16.6387 -16.6380 -16.6379 -16.6374 -16.6367 -16.6359 -16.6355
   -16.6345 -16.6332 -16.6329 -16.6321 -16.6318 -16.6310 -16.6304 -16.6294
   -16.6286 -16.6284 -16.6277 -16.6269 -16.6260 -16.6256 -16.6242 -16.6242
   -16.6238 -16.6233 -16.6228 -16.6216 -16.6209 -16.6201 -16.6199 -16.6191
   -16.6184 -16.6177 -16.6172 -16.6167 -16.6154 -16.6152 -16.6144 -16.6135
   -16.6133 -16.6129 -16.6120 -16.6118 -16.6106 -16.6096 -16.6093 -16.6086
   -16.6078 -16.6070 -16.6061 -16.6053 -16.6042 -16.6028 -16.6025 -16.6023
   -16.6009 -16.5998 -16.5989 -16.5981 -16.5973 -16.5966 -16.5961 -16.5953
   -16.5944 -16.5941 -16.5936 -16.5925 -16.5911 -16.5908 -16.5899 -16.5888
   -16.5880 -16.5870 -16.5861 -16.5851 -16.5840 -16.5834 -16.5829 -16.5824
   -16.5820 -16.5811 -16.5789 -16.5786 -16.5776 -16.5771 -16.5763 -16.5745
   -16.5737 -16.5734 -16.5727 -16.5717 -16.5704 -16.5693 -16.5684 -16.5678
   -16.5675 -16.5669 -16.5657 -16.5648 -16.5646 -16.5642 -16.5628 -16.5624
   -16.5622 -16.5611 -16.5608 -16.5600 -16.5588 -16.5583 -16.5577 -16.5570
   -16.5556 -16.5552 -16.5537 -16.5532 -16.5529 -16.5522 -16.5515 -16.5504
   -16.5491 -16.5484 -16.5475 -16.5473 -16.5465 -16.5459 -16.5457 -16.5452
   -16.5445 -16.5439 -16.5430 -16.5417 -16.5414 -16.5405 -16.5400 -16.5394
   -16.5388 -16.5379 -16.5372 -16.5365 -16.5358 -16.5351 -16.5348 -16.5343
   -16.5332 -16.5320 -16.5317 -16.5314 -16.5304 -16.5298 -16.5285 -16.5280
   -16.5279 -16.5274 -16.5266 -16.5249 -16.5246 -16.5241 -16.5237 -16.5229
   -16.5217 -16.5211 -16.5208 -16.5199 -16.5191 -16.5179 -16.5168 -16.5166
   -16.5160 -16.5154 -16.5146 -16.5142 -16.5127 -16.5123 -16.5113 -16.5112
   -16.5106 -16.5100 -16.5096 -16.5083 -16.5078 -16.5073 -16.5062 -16.5056
   -16.5050 -16.5044 -16.5039 -16.5035 -16.5031 -16.5023 -16.5017 -16.5015
   -16.5006 -16.4996 -16.4990 -16.4982 -16.4980 -16.4971 -16.4967 -16.4964
   -16.4953 -16.4942 -16.4933 -16.4931 -16.4927 -16.4919 -16.4906 -16.4902
   -16.4901 -16.4895 -16.4890 -16.4884 -16.4875 -16.4869 -16.4863 -16.4850
   -16.4848 -16.4847 -16.4840 -16.4833 -16.4831 -16.4818 -16.4814 -16.4810
   -16.4803 -16.4796 -16.4791 -16.4785 -16.4782 -16.4775 -16.4769 -16.4760
   -16.4753 -16.4749 -16.4741 -16.4736 -16.4730 -16.4724 -16.4712 -16.4709
   -16.4705 -16.4700 -16.4699 -16.4687 -16.4680 -16.4679 -16.4670 -16.4664
   -16.4658 -16.4654 -16.4650 -16.4645 -16.4639 -16.4631 -16.4625 -16.4617
   -16.4612 -16.4601 -16.4592 -16.4586 -16.4581 -16.4579 -16.4572 -16.4566
   -16.4557 -16.4546 -16.4539 -16.4535 -16.4530 -16.4520 -16.4519 -16.4507
   -16.4496 -16.4494 -16.4488 -16.4479 -16.4476 -16.4471 -16.4461 -16.4455
   -16.4453 -16.4442 -16.4431 -16.4423 -16.4416 -16.4409 -16.4407 -16.4398
   -16.4393 -16.4390 -16.4382 -16.4372 -16.4362 -16.4358 -16.4348 -16.4343
   -16.4338 -16.4327 -16.4319 -16.4316 -16.4307 -16.4301 -16.4290 -16.4289
   -16.4283 -16.4273 -16.4267 -16.4260 -16.4254 -16.4246 -16.4238 -16.4229
   -16.4221 -16.4216 -16.4214 -16.4203 -16.4203 -16.4192 -16.4184 -16.4175
   -16.4167 -16.4155 -16.4151 -16.4149 -16.4142 -16.4136 -16.4134 -16.4123
   -16.4120 -16.4116 -16.4107 -16.4102 -16.4096 -16.4090 -16.4083 -16.4079
   -16.4074 -16.4067 -16.4057 -16.4048 -16.4044 -16.4040 -16.4037 -16.4032
   -16.4025 -16.4023 -16.4019 -16.4015 -16.4012 -16.4011 -16.4006 -16.3997
   -16.3995 -16.3990 -16.3982 -16.3977 -16.3969 -16.3963 -16.3959 -16.3949
   -16.3947 -16.3945 -16.3940 -16.3935 -16.3929 -16.3925 -16.3919 -16.3907
   -16.3904 -16.3898 -16.3895 -16.3893 -16.3888 -16.3879 -16.3875 -16.3865
   -16.3863 -16.3858 -16.3852 -16.3844 -16.3842 -16.3839 -16.3832 -16.3829
   -16.3816 -16.3812 -16.3806 -16.3802 -16.3800 -16.3790 -16.3788 -16.3784
   -16.3782 -16.3776 -16.3774 -16.3765 -16.3761 -16.3757 -16.3756 -16.3747
   -16.3746 -16.3742 -16.3736 -16.3734 -16.3729 -16.3722 -16.3722 -16.3711
   -16.3700 -16.3700 -16.3698 -16.3687 -16.3679 -16.3664 -16.3657 -16.3654
   -16.3653 -16.3640 -16.3637 -16.3634 -16.3625 -16.3618 -16.3606 -16.3604
   -16.3601 -16.3594 -16.3589 -16.3574 -16.3569 -16.3560 -16.3549 -16.3548
   -16.3532 -16.3530 -16.3525 -16.3515 -16.3503 -16.3502 -16.3498 -16.3480
   -16.3475 -16.3465 -16.3454 -16.3440 -16.3439 -16.3429 -16.3419 -16.3412
   -16.3411 -16.3400 -16.3398 -16.3386 -16.3380 -16.3374 -16.3365 -16.3356
   -16.3349 -16.3339 -16.3332 -16.3329 -16.3324 -16.3309 -16.3304 -16.3298
   -16.3296 -16.3291 -16.3284 -16.3271 -16.3265 -16.3259 -16.3257 -16.3251
   -16.3245 -16.3244 -16.3235 -16.3230 -16.3225 -16.3220 -16.3215 -16.3199
   -16.3196 -16.3190 -16.3187 -16.3182 -16.3177 -16.3170 -16.3165 -16.3163
   -16.3160 -16.3155 -16.3148 -16.3146 -16.3139 -16.3129 -16.3126 -16.3122
   -16.3114 -16.3110 -16.3101 -16.3096 -16.3093 -16.3084 -16.3076 -16.3073
   -16.3067 -16.3060 -16.3055 -16.3051 -16.3046 -16.3040 -16.3037 -16.3024
   -16.3020 -16.3014 -16.3006 -16.3002 -16.3001 -16.2993 -16.2987 -16.2979
   -16.2972 -16.2969 -16.2956 -16.2954 -16.2950 -16.2943 -16.2936 -16.2926
   -16.2923 -16.2921 -16.2918 -16.2910 -16.2907 -16.2904 -16.2895 -16.2891
   -16.2882 -16.2874 -16.2871 -16.2867 -16.2860 -16.2858 -16.2854 -16.2849
   -16.2839 -16.2831 -16.2822 -16.2822 -16.2817 -16.2812 -16.2807 -16.2798
   -16.2797 -16.2795 -16.2778 -16.2766 -16.2758 -16.2751 -16.2739 -16.2734
   -16.2722 -16.2708 -16.2689 -16.2686 -16.2674 -16.2673 -16.2653 -16.2650
   -16.2633 -16.2606 -16.2583 -16.2548 -16.2462 -16.2368 -16.2315 -16.2248
    -4.5216  -3.8424  -3.8151  -3.8052  -3.7920  -3.7830  -3.7793  -3.7532
    -3.7443  -3.5467  -3.5394  -3.5278  -3.5005  -3.4951  -3.4738  -2.7164
    -2.7091  -2.7080  -2.6825  -2.6730  -2.6562  -2.6479  -2.6303  -2.6268
    -2.6173  -2.6094  -2.5955  -2.4666  -2.4546  -2.4402  -2.4157  -2.1513
    -2.1387  -2.1225  -2.1123  -2.0885  -2.0791  -2.0708  -2.0682  -2.0584
    -2.0483  -2.0353  -2.0237  -2.0154  -2.0050  -1.9991  -1.9861  -1.9828
    -1.9721  -1.9659  -1.9542  -1.9421  -1.9261  -1.9037  -1.8832  -0.7442
    -0.6925  -0.6856  -0.6592  -0.6393  -0.6275  -0.6082  -0.5973  -0.5797
    -0.5773  -0.5594  -0.5388  -0.5332  -0.5157  -0.5019  -0.4961  -0.4711
    -0.4636   0.5738   0.5941   0.6152   0.6290   0.6912   0.7353   0.7569
     0.7639   0.7711   0.7942   0.8069   0.8203   0.8270   0.8367   0.8436
     0.8525   0.8647   0.8718   0.8816   0.8859   0.8947   0.9060   0.9225
     0.9305   0.9369   0.9575   0.9668   0.9724   1.6415   1.6463   1.6541
     1.6749   1.6986   1.7063   1.7108   1.7204   1.7366   1.7506   1.7567
     1.7850   3.3993   3.4263   3.4353   3.4474   3.4581   3.4774   3.4858
     3.4894   3.5083   3.5120   3.5273   3.5574   3.5621   3.5723   4.2572
     4.2670   4.2711   4.2769   4.2855   4.2936   4.2985   4.3034   4.3049
     4.3150   4.3226   4.3305   4.3336   4.3452   4.3469   4.3480   4.3519
     4.3563   4.3661   4.3771   4.3795   4.3838   4.3953   4.4030   4.4411
     4.4515   4.4642   4.4660   4.4749   4.4820   4.4893   4.4959   4.5033
     4.5066   4.5116   4.5162   4.5206   4.5304   4.5400   4.5409   4.5456
     4.5563   4.5603   4.5647   4.5769   4.5786   4.5880   4.6048   5.1498
     5.1522   5.1697   5.1732   5.1792   5.1805   5.7424   5.7645   5.7654
     5.7759   5.7857   5.7911   5.8085   5.8124   5.8167   5.8197   5.8246
     5.8284   5.8404   5.8450   5.8506   5.8526   5.8644   5.8692   5.8740
     5.8771   5.8831   5.8841   5.8954   5.9012   6.1564   6.1606   6.1711
     6.1845   6.1942   6.2028   6.2066   6.2143   6.2218   6.2347   6.2499
     6.2654   6.6532   6.6745   6.6925   6.6994   6.7104   6.7277   6.7315
     6.7404   6.7460   6.7544   6.7714   6.7902   6.8057   6.8233   6.8292
     6.8442   6.8500   6.8581   6.8678   6.9023   7.2777   7.2846   7.3000
     7.3186   7.3341   7.3442   7.3521   7.3593   7.3730   7.3787   7.3973
     7.3999   7.4127   7.4260   7.4369   7.4588   8.1328   8.2079   8.2403
     8.2703   8.3000   8.3064   8.3129   8.3272   8.7546   8.7818   8.7835
     8.7889   8.7961   8.7990   8.8034   8.8312   8.8521   8.8702   8.8836
     8.8997   8.9106   8.9253   9.1218   9.1289   9.1411   9.1744   9.1903
     9.2007   9.4610   9.4637   9.4728   9.4939   9.4994   9.5129   9.5159
     9.5196   9.5328   9.5426   9.5495   9.5518   9.5572   9.5731   9.5769
     9.5940   9.5965   9.6027   9.6098   9.6161   9.6292   9.6384   9.6496
     9.6693  10.0591  10.0710  10.0818  10.0940  10.1010  10.1071  10.1226
    10.1295  10.1485  10.1527  10.1598  10.1934  10.7152  10.7364  10.7714
    10.8592  10.8721  10.8810  10.8891  10.8923  10.9028  11.6975  11.7115
    11.7284  11.7324  11.7537  11.7653  11.7699  11.7714  11.7879  11.7941
    11.8052  11.8213  11.8294  11.8397  11.8603  11.8670  11.8835  11.9001
    11.9266  11.9270  11.9554  11.9561  11.9761  11.9923  12.2520  12.2742
    12.2829  12.2901  12.2944  12.3023  12.3129  12.3164  12.3187  12.3317
    12.3384  12.3432  12.3521  12.3550  12.3684  12.3754  12.3832  12.3947
    12.3970  12.4047  12.4142  12.4232  12.4317  12.4429  12.4548  12.4632
    12.4686  12.4776  12.4854  12.4895  12.4977  12.5153  12.5159  12.5283
    12.5456  12.5482  12.7834  12.7939  12.7996  12.8151  12.8204  12.8240
    12.8439  12.8459  12.8607  12.8664  12.8709  12.8910  12.9073  12.9278
    12.9462  12.9506  12.9692  12.9795  12.9876  13.0066  13.0335  13.0453
    13.0513  13.0603  13.1692  13.1972  13.2098  13.2205  13.2295  13.2320
    13.2361  13.2429  13.2509  13.2673  13.2861  13.2920  13.3528  13.3745
    13.3904  13.3989  13.4027  13.4143  13.4240  13.4306  13.4444  13.4465
    13.4555  13.4598  13.4918

     occupation numbers 
     1.0000   1.0000   1.0000   1.0000   1.0000   1.0000   1.0000   1.0000
     1.0000   1.0000   1.0000   1.0000   1.0000   1.0000   1.0000   1.0000
     1.0000   1.0000   1.0000   1.0000   1.0000   1.0000   1.0000   1.0000
     1.0000   1.0000   1.0000   1.0000   1.0000   1.0000   1.0000   1.0000
     1.0000   1.0000   1.0000   1.0000   1.0000   1.0000   1.0000   1.0000
     1.0000   1.0000   1.0000   1.0000   1.0000   1.0000   1.0000   1.0000
     1.0000   1.0000   1.0000   1.0000   1.0000   1.0000   1.0000   1.0000
     1.0000   1.0000   1.0000   1.0000   1.0000   1.0000   1.0000   1.0000
     1.0000   1.0000   1.0000   1.0000   1.0000   1.0000   1.0000   1.0000
     1.0000   1.0000   1.0000   1.0000   1.0000   1.0000   1.0000   1.0000
     1.0000   1.0000   1.0000   1.0000   1.0000   1.0000   1.0000   1.0000
     1.0000   1.0000   1.0000   1.0000   1.0000   1.0000   1.0000   1.0000
     1.0000   1.0000   1.0000   1.0000   1.0000   1.0000   1.0000   1.0000
     1.0000   1.0000   1.0000   1.0000   1.0000   1.0000   1.0000   1.0000
     1.0000   1.0000   1.0000   1.0000   1.0000   1.0000   1.0000   1.0000
     1.0000   1.0000   1.0000   1.0000   1.0000   1.0000   1.0000   1.0000
     1.0000   1.0000   1.0000   1.0000   1.0000   1.0000   1.0000   1.0000
     1.0000   1.0000   1.0000   1.0000   1.0000   1.0000   1.0000   1.0000
     1.0000   1.0000   1.0000   1.0000   1.0000   1.0000   1.0000   1.0000
     1.0000   1.0000   1.0000   1.0000   1.0000   1.0000   1.0000   1.0000
     1.0000   1.0000   1.0000   1.0000   1.0000   1.0000   1.0000   1.0000
     1.0000   1.0000   1.0000   1.0000   1.0000   1.0000   1.0000   1.0000
     1.0000   1.0000   1.0000   1.0000   1.0000   1.0000   1.0000   1.0000
     1.0000   1.0000   1.0000   1.0000   1.0000   1.0000   1.0000   1.0000
     1.0000   1.0000   1.0000   1.0000   1.0000   1.0000   1.0000   1.0000
     1.0000   1.0000   1.0000   1.0000   1.0000   1.0000   1.0000   1.0000
     1.0000   1.0000   1.0000   1.0000   1.0000   1.0000   1.0000   1.0000
     1.0000   1.0000   1.0000   1.0000   1.0000   1.0000   1.0000   1.0000
     1.0000   1.0000   1.0000   1.0000   1.0000   1.0000   1.0000   1.0000
     1.0000   1.0000   1.0000   1.0000   1.0000   1.0000   1.0000   1.0000
     1.0000   1.0000   1.0000   1.0000   1.0000   1.0000   1.0000   1.0000
     1.0000   1.0000   1.0000   1.0000   1.0000   1.0000   1.0000   1.0000
     1.0000   1.0000   1.0000   1.0000   1.0000   1.0000   1.0000   1.0000
     1.0000   1.0000   1.0000   1.0000   1.0000   1.0000   1.0000   1.0000
     1.0000   1.0000   1.0000   1.0000   1.0000   1.0000   1.0000   1.0000
     1.0000   1.0000   1.0000   1.0000   1.0000   1.0000   1.0000   1.0000
     1.0000   1.0000   1.0000   1.0000   1.0000   1.0000   1.0000   1.0000
     1.0000   1.0000   1.0000   1.0000   1.0000   1.0000   1.0000   1.0000
     1.0000   1.0000   1.0000   1.0000   1.0000   1.0000   1.0000   1.0000
     1.0000   1.0000   1.0000   1.0000   1.0000   1.0000   1.0000   1.0000
     1.0000   1.0000   1.0000   1.0000   1.0000   1.0000   1.0000   1.0000
     1.0000   1.0000   1.0000   1.0000   1.0000   1.0000   1.0000   1.0000
     1.0000   1.0000   1.0000   1.0000   1.0000   1.0000   1.0000   1.0000
     1.0000   1.0000   1.0000   1.0000   1.0000   1.0000   1.0000   1.0000
     1.0000   1.0000   1.0000   1.0000   1.0000   1.0000   1.0000   1.0000
     1.0000   1.0000   1.0000   1.0000   1.0000   1.0000   1.0000   1.0000
     1.0000   1.0000   1.0000   1.0000   1.0000   1.0000   1.0000   1.0000
     1.0000   1.0000   1.0000   1.0000   1.0000   1.0000   1.0000   1.0000
     1.0000   1.0000   1.0000   1.0000   1.0000   1.0000   1.0000   1.0000
     1.0000   1.0000   1.0000   1.0000   1.0000   1.0000   1.0000   1.0000
     1.0000   1.0000   1.0000   1.0000   1.0000   1.0000   1.0000   1.0000
     1.0000   1.0000   1.0000   1.0000   1.0000   1.0000   1.0000   1.0000
     1.0000   1.0000   1.0000   1.0000   1.0000   1.0000   1.0000   1.0000
     1.0000   1.0000   1.0000   1.0000   1.0000   1.0000   1.0000   1.0000
     1.0000   1.0000   1.0000   1.0000   1.0000   1.0000   1.0000   1.0000
     1.0000   1.0000   1.0000   1.0000   1.0000   1.0000   1.0000   1.0000
     1.0000   1.0000   1.0000   1.0000   1.0000   1.0000   1.0000   1.0000
     1.0000   1.0000   1.0000   1.0000   1.0000   1.0000   1.0000   1.0000
     1.0000   1.0000   1.0000   1.0000   1.0000   1.0000   1.0000   1.0000
     1.0000   1.0000   1.0000   1.0000   1.0000   1.0000   1.0000   1.0000
     1.0000   1.0000   1.0000   1.0000   1.0000   1.0000   1.0000   1.0000
     1.0000   1.0000   1.0000   1.0000   1.0000   1.0000   1.0000   1.0000
     1.0000   1.0000   1.0000   1.0000   1.0000   1.0000   1.0000   1.0000
     1.0000   1.0000   1.0000   1.0000   1.0000   1.0000   1.0000   1.0000
     1.0000   1.0000   1.0000   1.0000   1.0000   1.0000   1.0000   1.0000
     1.0000   1.0000   1.0000   1.0000   1.0000   1.0000   1.0000   1.0000
     1.0000   1.0000   1.0000   1.0000   1.0000   1.0000   1.0000   1.0000
     1.0000   1.0000   1.0000   1.0000   1.0000   1.0000   1.0000   1.0000
     1.0000   1.0000   1.0000   1.0000   1.0000   1.0000   1.0000   1.0000
     1.0000   1.0000   1.0000   1.0000   1.0000   1.0000   1.0000   1.0000
     1.0000   1.0000   1.0000   1.0000   1.0000   1.0000   1.0000   1.0000
     1.0000   1.0000   1.0000   1.0000   1.0000   1.0000   1.0000   1.0000
     1.0000   1.0000   1.0000   1.0000   1.0000   1.0000   1.0000   1.0000
     1.0000   1.0000   1.0000   1.0000   1.0000   1.0000   1.0000   1.0000
     1.0000   1.0000   1.0000   1.0000   1.0000   1.0000   1.0000   1.0000
     1.0000   1.0000   1.0000   1.0000   1.0000   1.0000   1.0000   1.0000
     1.0000   1.0000   1.0000   1.0000   1.0000   1.0000   1.0000   1.0000
     1.0000   1.0000   1.0000   1.0000   1.0000   1.0000   1.0000   1.0000
     1.0000   1.0000   1.0000   1.0000   1.0000   1.0000   1.0000   1.0000
     1.0000   1.0000   1.0000   1.0000   1.0000   1.0000   1.0000   1.0000
     1.0000   1.0000   1.0000   1.0000   1.0000   1.0000   1.0000   1.0000
     1.0000   1.0000   1.0000   1.0000   1.0000   1.0000   1.0000   1.0000
     1.0000   1.0000   1.0000   1.0000   1.0000   1.0000   1.0000   1.0000
     1.0000   1.0000   1.0000   1.0000   1.0000   1.0000   1.0000   1.0000
     1.0000   1.0000   1.0000   1.0000   1.0000   1.0000   1.0000   1.0000
     1.0000   1.0000   1.0000   1.0000   1.0000   1.0000   1.0000   1.0000
     1.0000   1.0000   1.0000   1.0000   1.0000   1.0000   1.0000   1.0000
     1.0000   1.0000   1.0000   1.0000   1.0000   1.0000   1.0000   1.0000
     1.0000   1.0000   1.0000   1.0000   1.0000   1.0000   1.0000   1.0000
     1.0000   1.0000   1.0000   1.0000   1.0000   1.0000   1.0000   1.0000
     1.0000   1.0000   1.0000   1.0000   1.0000   1.0000   1.0000   1.0000
     1.0000   1.0000   1.0000   1.0000   1.0000   1.0000   1.0000   1.0000
     1.0000   1.0000   1.0000   1.0000   1.0000   1.0000   1.0000   1.0000
     1.0000   1.0000   1.0000   1.0000   1.0000   1.0000   1.0000   1.0000
     1.0000   1.0000   1.0000   1.0000   1.0000   1.0000   1.0000   1.0000
     1.0000   1.0000   1.0000   1.0000   1.0000   1.0000   1.0000   1.0000
     1.0000   1.0000   1.0000   1.0000   1.0000   1.0000   1.0000   1.0000
     1.0000   1.0000   1.0000   1.0000   1.0000   1.0000   1.0000   1.0000
     1.0000   1.0000   1.0000   1.0000   1.0000   1.0000   1.0000   1.0000
     1.0000   1.0000   1.0000   1.0000   1.0000   1.0000   1.0000   1.0000
     1.0000   1.0000   1.0000   1.0000   1.0000   1.0000   1.0000   1.0000
     1.0000   1.0000   1.0000   1.0000   1.0000   1.0000   1.0000   1.0000
     1.0000   1.0000   1.0000   1.0000   1.0000   1.0000   1.0000   1.0000
     1.0000   1.0000   1.0000   1.0000   1.0000   1.0000   1.0000   1.0000
     1.0000   1.0000   1.0000   1.0000   1.0000   1.0000   1.0000   1.0000
     1.0000   1.0000   1.0000   1.0000   1.0000   1.0000   1.0000   1.0000
     1.0000   1.0000   1.0000   1.0000   1.0000   1.0000   1.0000   1.0000
     1.0000   1.0000   1.0000   1.0000   1.0000   1.0000   1.0000   1.0000
     1.0000   1.0000   1.0000   1.0000   1.0000   1.0000   1.0000   1.0000
     1.0000   1.0000   1.0000   1.0000   1.0000   1.0000   1.0000   1.0000
     1.0000   1.0000   1.0000   1.0000   1.0000   1.0000   1.0000   1.0000
     1.0000   1.0000   1.0000   1.0000   1.0000   0.7077   0.5106   0.4217
     0.3425   0.2705   0.2559   0.2417   0.2119   0.0001   0.0000   0.0000
     0.0000   0.0000   0.0000   0.0000   0.0000   0.0000   0.0000   0.0000
     0.0000   0.0000   0.0000   0.0000   0.0000   0.0000   0.0000   0.0000
     0.0000   0.0000   0.0000   0.0000   0.0000   0.0000   0.0000   0.0000
     0.0000   0.0000   0.0000   0.0000   0.0000   0.0000   0.0000   0.0000
     0.0000   0.0000   0.0000   0.0000   0.0000   0.0000   0.0000   0.0000
     0.0000   0.0000   0.0000   0.0000   0.0000   0.0000   0.0000   0.0000
     0.0000   0.0000   0.0000   0.0000   0.0000   0.0000   0.0000   0.0000
     0.0000   0.0000   0.0000   0.0000   0.0000   0.0000   0.0000   0.0000
     0.0000   0.0000   0.0000   0.0000   0.0000   0.0000   0.0000   0.0000
     0.0000   0.0000   0.0000   0.0000   0.0000   0.0000   0.0000   0.0000
     0.0000   0.0000   0.0000   0.0000   0.0000   0.0000   0.0000   0.0000
     0.0000   0.0000   0.0000   0.0000   0.0000   0.0000   0.0000   0.0000
     0.0000   0.0000   0.0000   0.0000   0.0000   0.0000   0.0000   0.0000
     0.0000   0.0000   0.0000   0.0000   0.0000   0.0000   0.0000   0.0000
     0.0000   0.0000   0.0000   0.0000   0.0000   0.0000   0.0000   0.0000
     0.0000   0.0000   0.0000   0.0000   0.0000   0.0000   0.0000   0.0000
     0.0000   0.0000   0.0000   0.0000   0.0000   0.0000   0.0000   0.0000
     0.0000   0.0000   0.0000   0.0000   0.0000   0.0000   0.0000   0.0000
     0.0000   0.0000   0.0000   0.0000   0.0000   0.0000   0.0000   0.0000
     0.0000   0.0000   0.0000   0.0000   0.0000   0.0000   0.0000   0.0000
     0.0000   0.0000   0.0000   0.0000   0.0000   0.0000   0.0000   0.0000
     0.0000   0.0000   0.0000

          k =-0.3536-0.3536 0.3536 ( 68884 PWs)   bands (ev):

   -16.7333 -16.7276 -16.7147 -16.7140 -16.7105 -16.7088 -16.7070 -16.7042
   -16.7024 -16.6998 -16.6993 -16.6985 -16.6943 -16.6931 -16.6886 -16.6870
   -16.6857 -16.6850 -16.6839 -16.6810 -16.6808 -16.6792 -16.6785 -16.6764
   -16.6745 -16.6728 -16.6705 -16.6684 -16.6679 -16.6675 -16.6662 -16.6651
   -16.6628 -16.6621 -16.6611 -16.6606 -16.6601 -16.6594 -16.6582 -16.6575
   -16.6572 -16.6566 -16.6563 -16.6552 -16.6540 -16.6532 -16.6530 -16.6523
   -16.6517 -16.6506 -16.6493 -16.6484 -16.6479 -16.6465 -16.6462 -16.6457
   -16.6449 -16.6441 -16.6435 -16.6426 -16.6420 -16.6419 -16.6414 -16.6405
   -16.6400 -16.6392 -16.6384 -16.6382 -16.6375 -16.6373 -16.6364 -16.6354
   -16.6349 -16.6338 -16.6337 -16.6328 -16.6323 -16.6311 -16.6304 -16.6295
   -16.6295 -16.6287 -16.6284 -16.6275 -16.6267 -16.6262 -16.6252 -16.6247
   -16.6244 -16.6231 -16.6227 -16.6219 -16.6210 -16.6205 -16.6196 -16.6191
   -16.6183 -16.6178 -16.6169 -16.6166 -16.6163 -16.6154 -16.6147 -16.6144
   -16.6135 -16.6126 -16.6112 -16.6112 -16.6108 -16.6097 -16.6084 -16.6084
   -16.6069 -16.6065 -16.6060 -16.6044 -16.6041 -16.6031 -16.6025 -16.6016
   -16.6009 -16.6003 -16.5987 -16.5983 -16.5973 -16.5970 -16.5968 -16.5956
   -16.5953 -16.5944 -16.5936 -16.5921 -16.5919 -16.5914 -16.5908 -16.5896
   -16.5888 -16.5867 -16.5855 -16.5854 -16.5846 -16.5834 -16.5822 -16.5817
   -16.5812 -16.5804 -16.5792 -16.5777 -16.5765 -16.5760 -16.5752 -16.5743
   -16.5726 -16.5723 -16.5715 -16.5714 -16.5709 -16.5691 -16.5685 -16.5677
   -16.5669 -16.5668 -16.5660 -16.5652 -16.5640 -16.5636 -16.5631 -16.5622
   -16.5615 -16.5609 -16.5596 -16.5587 -16.5581 -16.5566 -16.5563 -16.5556
   -16.5544 -16.5537 -16.5534 -16.5526 -16.5519 -16.5519 -16.5511 -16.5500
   -16.5492 -16.5489 -16.5477 -16.5473 -16.5470 -16.5456 -16.5448 -16.5435
   -16.5429 -16.5424 -16.5423 -16.5416 -16.5408 -16.5402 -16.5395 -16.5390
   -16.5385 -16.5379 -16.5368 -16.5366 -16.5357 -16.5353 -16.5341 -16.5334
   -16.5330 -16.5319 -16.5313 -16.5301 -16.5299 -16.5289 -16.5286 -16.5279
   -16.5269 -16.5263 -16.5255 -16.5249 -16.5245 -16.5239 -16.5235 -16.5234
   -16.5225 -16.5221 -16.5213 -16.5211 -16.5206 -16.5193 -16.5190 -16.5188
   -16.5185 -16.5171 -16.5160 -16.5146 -16.5145 -16.5139 -16.5134 -16.5130
   -16.5119 -16.5116 -16.5111 -16.5107 -16.5092 -16.5086 -16.5073 -16.5069
   -16.5067 -16.5062 -16.5057 -16.5044 -16.5040 -16.5029 -16.5023 -16.5012
   -16.5009 -16.5004 -16.4998 -16.4985 -16.4979 -16.4970 -16.4968 -16.4966
   -16.4957 -16.4950 -16.4945 -16.4943 -16.4934 -16.4931 -16.4920 -16.4915
   -16.4915 -16.4908 -16.4892 -16.4890 -16.4886 -16.4879 -16.4875 -16.4869
   -16.4869 -16.4865 -16.4846 -16.4841 -16.4835 -16.4825 -16.4822 -16.4815
   -16.4812 -16.4797 -16.4795 -16.4793 -16.4787 -16.4782 -16.4779 -16.4765
   -16.4763 -16.4755 -16.4750 -16.4743 -16.4741 -16.4730 -16.4717 -16.4714
   -16.4705 -16.4694 -16.4693 -16.4686 -16.4677 -16.4672 -16.4665 -16.4660
   -16.4653 -16.4649 -16.4646 -16.4638 -16.4622 -16.4611 -16.4610 -16.4597
   -16.4595 -16.4588 -16.4587 -16.4577 -16.4571 -16.4566 -16.4549 -16.4543
   -16.4531 -16.4517 -16.4512 -16.4504 -16.4502 -16.4495 -16.4487 -16.4476
   -16.4471 -16.4463 -16.4460 -16.4457 -16.4450 -16.4446 -16.4442 -16.4437
   -16.4424 -16.4416 -16.4414 -16.4407 -16.4405 -16.4399 -16.4396 -16.4384
   -16.4379 -16.4374 -16.4365 -16.4359 -16.4354 -16.4349 -16.4343 -16.4338
   -16.4332 -16.4327 -16.4320 -16.4315 -16.4309 -16.4306 -16.4299 -16.4284
   -16.4279 -16.4278 -16.4269 -16.4259 -16.4250 -16.4249 -16.4241 -16.4235
   -16.4231 -16.4222 -16.4215 -16.4207 -16.4204 -16.4197 -16.4189 -16.4185
   -16.4175 -16.4165 -16.4162 -16.4156 -16.4151 -16.4147 -16.4135 -16.4128
   -16.4121 -16.4120 -16.4113 -16.4111 -16.4107 -16.4094 -16.4091 -16.4086
   -16.4079 -16.4072 -16.4069 -16.4065 -16.4062 -16.4053 -16.4050 -16.4042
   -16.4033 -16.4029 -16.4025 -16.4016 -16.4007 -16.4005 -16.4000 -16.3994
   -16.3987 -16.3982 -16.3977 -16.3970 -16.3965 -16.3962 -16.3959 -16.3954
   -16.3946 -16.3944 -16.3936 -16.3933 -16.3931 -16.3926 -16.3919 -16.3912
   -16.3906 -16.3904 -16.3902 -16.3893 -16.3889 -16.3884 -16.3876 -16.3872
   -16.3869 -16.3868 -16.3864 -16.3862 -16.3853 -16.3847 -16.3844 -16.3842
   -16.3831 -16.3831 -16.3828 -16.3826 -16.3822 -16.3808 -16.3805 -16.3796
   -16.3795 -16.3787 -16.3773 -16.3772 -16.3767 -16.3764 -16.3760 -16.3754
   -16.3752 -16.3746 -16.3732 -16.3731 -16.3722 -16.3718 -16.3716 -16.3706
   -16.3704 -16.3698 -16.3690 -16.3682 -16.3673 -16.3661 -16.3653 -16.3648
   -16.3646 -16.3640 -16.3638 -16.3635 -16.3619 -16.3615 -16.3598 -16.3596
   -16.3589 -16.3583 -16.3574 -16.3565 -16.3562 -16.3553 -16.3547 -16.3537
   -16.3533 -16.3529 -16.3524 -16.3519 -16.3505 -16.3501 -16.3493 -16.3484
   -16.3469 -16.3466 -16.3453 -16.3451 -16.3443 -16.3436 -16.3428 -16.3416
   -16.3408 -16.3399 -16.3390 -16.3381 -16.3378 -16.3367 -16.3356 -16.3355
   -16.3347 -16.3342 -16.3336 -16.3331 -16.3320 -16.3315 -16.3312 -16.3308
   -16.3295 -16.3290 -16.3281 -16.3271 -16.3268 -16.3266 -16.3257 -16.3250
   -16.3246 -16.3242 -16.3233 -16.3224 -16.3222 -16.3212 -16.3205 -16.3202
   -16.3198 -16.3196 -16.3187 -16.3183 -16.3177 -16.3171 -16.3166 -16.3154
   -16.3148 -16.3141 -16.3138 -16.3134 -16.3132 -16.3130 -16.3123 -16.3117
   -16.3113 -16.3110 -16.3101 -16.3097 -16.3089 -16.3088 -16.3085 -16.3071
   -16.3065 -16.3059 -16.3053 -16.3049 -16.3043 -16.3036 -16.3029 -16.3027
   -16.3017 -16.3011 -16.3008 -16.3004 -16.2999 -16.2993 -16.2989 -16.2980
   -16.2966 -16.2962 -16.2958 -16.2956 -16.2950 -16.2942 -16.2934 -16.2930
   -16.2927 -16.2919 -16.2918 -16.2909 -16.2905 -16.2900 -16.2892 -16.2886
   -16.2883 -16.2874 -16.2872 -16.2867 -16.2865 -16.2859 -16.2853 -16.2849
   -16.2842 -16.2833 -16.2829 -16.2820 -16.2816 -16.2811 -16.2804 -16.2800
   -16.2792 -16.2789 -16.2781 -16.2780 -16.2750 -16.2747 -16.2739 -16.2734
   -16.2720 -16.2708 -16.2692 -16.2679 -16.2677 -16.2670 -16.2654 -16.2650
   -16.2638 -16.2609 -16.2582 -16.2551 -16.2462 -16.2368 -16.2315 -16.2248
    -4.3418  -4.3256  -3.8818  -3.8577  -3.8478  -3.8273  -3.8228  -3.7893
    -3.4281  -3.4101  -3.3791  -3.3620  -3.3415  -3.3122  -3.0083  -2.9724
    -2.9389  -2.8905  -2.8714  -2.8595  -2.8343  -2.8244  -2.5871  -2.5495
    -2.5337  -2.5198  -2.5142  -2.5051  -2.5004  -2.4712  -2.4626  -2.4349
    -2.4232  -2.3932  -2.3599  -2.3434  -2.3319  -2.3195  -2.3011  -2.2915
    -1.9218  -1.8991  -1.8863  -1.8506  -1.8358  -1.8173  -1.5335  -1.5205
    -1.4960  -1.4824  -1.4617  -1.4275  -1.4072  -1.4010  -1.3799  -1.3601
    -1.3456  -1.3347  -1.3265  -1.3031  -1.2804  -1.2710  -1.2488  -1.2198
     0.0844   0.1124   0.1305   0.1407   0.1525   0.1800   0.1943   0.1997
     0.2092   0.2214   0.2460   0.2641   0.2774   0.2811   0.3042   0.3079
     0.3379   0.3380   0.5828   0.5959   0.6170   0.6440   0.6711   0.7145
     0.7333   0.7457   0.7717   0.7759   0.8196   0.8366   1.3236   1.3390
     1.3525   1.3812   1.3866   1.4083   1.4248   1.4309   1.4372   1.4605
     1.4738   1.5086   1.5633   1.5938   2.1010   2.1153   2.1307   2.1662
     2.1848   2.2113   2.6617   2.6645   2.7139   2.7205   2.7434   2.7672
     3.9272   3.9710   3.9745   3.9811   4.0131   4.0208   4.0344   4.0395
     4.0488   4.0551   4.0686   4.0720   4.0789   4.0891   4.0942   4.1060
     4.1076   4.1137   4.1193   4.1291   4.1301   4.1404   4.1794   4.1819
     4.6198   4.6251   4.6300   4.6414   4.6465   4.6572   4.6595   4.6663
     4.6723   4.6796   4.6834   4.6867   4.6935   4.7104   4.7273   4.7310
     4.7379   4.7505   5.0930   5.1110   5.1157   5.1206   5.1286   5.1359
     5.1421   5.1588   5.1694   5.1768   5.1786   5.1963   5.2957   5.3122
     5.3224   5.3339   5.3474   5.3562   5.3651   5.3721   5.3928   5.3967
     5.4027   5.4169   5.5148   5.5414   5.5556   5.5771   5.5840   5.6032
     5.6262   5.6688   5.6718   5.6881   5.7093   5.7216   5.8050   5.8143
     5.8255   5.8391   5.8566   5.8732   5.8866   5.8989   6.0750   6.0794
     6.0852   6.0948   6.0989   6.1158   6.1209   6.1333   6.1471   6.1537
     6.1612   6.1702   6.1820   6.1850   6.2019   6.2101   6.2281   6.2379
     6.4337   6.4623   6.4830   6.4939   6.5028   6.5296   6.6662   6.6864
     6.7032   6.7143   6.7193   6.7318   6.7579   6.7703   6.8007   6.8290
     6.8446   6.8623   6.9493   6.9731   7.0045   7.0259   7.2544   7.2930
     7.3222   7.3364   7.3691   7.3759   7.8704   7.8863   7.9095   7.9703
     8.4135   8.4627   8.9973   9.0033   9.0108   9.0311   9.0438   9.0662
     9.1623   9.2025   9.3506   9.3808   9.3956   9.4216   9.4296   9.4506
     9.5078   9.5276   9.5375   9.5424   9.5620   9.5767   9.6945   9.7020
     9.7289   9.7339   9.7527   9.7757   9.7819   9.7979   9.8062   9.8179
     9.8225   9.8530   9.9959  10.0217  10.0377  10.0461  10.0663  10.0762
    10.0863  10.0981  10.1029  10.1139  10.1214  10.1463  10.3848  10.3857
    10.4003  10.4101  10.4153  10.4259  10.4375  10.4384  10.4469  10.4650
    10.4825  10.4911  10.5307  10.5586  10.5755  10.5836  10.5986  10.6020
    10.6105  10.6248  10.6300  10.6466  10.6643  10.6805  10.7467  10.7677
    10.7882  10.7931  10.8057  10.8214  10.8322  10.8553  10.8667  10.8722
    10.8840  10.9002  11.1521  11.1825  11.2016  11.2197  11.4831  11.5030
    11.5210  11.5269  11.5417  11.5529  11.5684  11.5704  11.5834  11.5961
    11.5997  11.6300  11.6442  11.6495  11.6685  11.6988  11.7069  11.7142
    11.7514  11.8003  11.8723  11.8871  11.9138  11.9367  11.9462  11.9571
    11.9803  11.9958  12.0007  12.0369  12.0723  12.1058  12.1333  12.1419
    12.1565  12.1832  12.3139  12.3170  12.3384  12.3443  12.3509  12.3718
    12.3761  12.3884  12.3930  12.4042  12.4221  12.4242  12.5903  12.6178
    12.6252  12.6344  12.6571  12.6788  12.7077  12.7172  12.7531  12.7594
    12.7862  12.7992  12.9498  12.9652  12.9731  12.9858  12.9916  13.0049
    13.0125  13.0190  13.0238  13.0280  13.0390  13.0499  13.0591  13.0650
    13.0708  13.0855  13.1053  13.1225  13.1433  13.1616  13.1638  13.1789
    13.1925  13.2036  13.2101  13.2285  13.2380  13.2420  13.2462  13.2584
    13.2683  13.2902  13.2999

     occupation numbers 
     1.0000   1.0000   1.0000   1.0000   1.0000   1.0000   1.0000   1.0000
     1.0000   1.0000   1.0000   1.0000   1.0000   1.0000   1.0000   1.0000
     1.0000   1.0000   1.0000   1.0000   1.0000   1.0000   1.0000   1.0000
     1.0000   1.0000   1.0000   1.0000   1.0000   1.0000   1.0000   1.0000
     1.0000   1.0000   1.0000   1.0000   1.0000   1.0000   1.0000   1.0000
     1.0000   1.0000   1.0000   1.0000   1.0000   1.0000   1.0000   1.0000
     1.0000   1.0000   1.0000   1.0000   1.0000   1.0000   1.0000   1.0000
     1.0000   1.0000   1.0000   1.0000   1.0000   1.0000   1.0000   1.0000
     1.0000   1.0000   1.0000   1.0000   1.0000   1.0000   1.0000   1.0000
     1.0000   1.0000   1.0000   1.0000   1.0000   1.0000   1.0000   1.0000
     1.0000   1.0000   1.0000   1.0000   1.0000   1.0000   1.0000   1.0000
     1.0000   1.0000   1.0000   1.0000   1.0000   1.0000   1.0000   1.0000
     1.0000   1.0000   1.0000   1.0000   1.0000   1.0000   1.0000   1.0000
     1.0000   1.0000   1.0000   1.0000   1.0000   1.0000   1.0000   1.0000
     1.0000   1.0000   1.0000   1.0000   1.0000   1.0000   1.0000   1.0000
     1.0000   1.0000   1.0000   1.0000   1.0000   1.0000   1.0000   1.0000
     1.0000   1.0000   1.0000   1.0000   1.0000   1.0000   1.0000   1.0000
     1.0000   1.0000   1.0000   1.0000   1.0000   1.0000   1.0000   1.0000
     1.0000   1.0000   1.0000   1.0000   1.0000   1.0000   1.0000   1.0000
     1.0000   1.0000   1.0000   1.0000   1.0000   1.0000   1.0000   1.0000
     1.0000   1.0000   1.0000   1.0000   1.0000   1.0000   1.0000   1.0000
     1.0000   1.0000   1.0000   1.0000   1.0000   1.0000   1.0000   1.0000
     1.0000   1.0000   1.0000   1.0000   1.0000   1.0000   1.0000   1.0000
     1.0000   1.0000   1.0000   1.0000   1.0000   1.0000   1.0000   1.0000
     1.0000   1.0000   1.0000   1.0000   1.0000   1.0000   1.0000   1.0000
     1.0000   1.0000   1.0000   1.0000   1.0000   1.0000   1.0000   1.0000
     1.0000   1.0000   1.0000   1.0000   1.0000   1.0000   1.0000   1.0000
     1.0000   1.0000   1.0000   1.0000   1.0000   1.0000   1.0000   1.0000
     1.0000   1.0000   1.0000   1.0000   1.0000   1.0000   1.0000   1.0000
     1.0000   1.0000   1.0000   1.0000   1.0000   1.0000   1.0000   1.0000
     1.0000   1.0000   1.0000   1.0000   1.0000   1.0000   1.0000   1.0000
     1.0000   1.0000   1.0000   1.0000   1.0000   1.0000   1.0000   1.0000
     1.0000   1.0000   1.0000   1.0000   1.0000   1.0000   1.0000   1.0000
     1.0000   1.0000   1.0000   1.0000   1.0000   1.0000   1.0000   1.0000
     1.0000   1.0000   1.0000   1.0000   1.0000   1.0000   1.0000   1.0000
     1.0000   1.0000   1.0000   1.0000   1.0000   1.0000   1.0000   1.0000
     1.0000   1.0000   1.0000   1.0000   1.0000   1.0000   1.0000   1.0000
     1.0000   1.0000   1.0000   1.0000   1.0000   1.0000   1.0000   1.0000
     1.0000   1.0000   1.0000   1.0000   1.0000   1.0000   1.0000   1.0000
     1.0000   1.0000   1.0000   1.0000   1.0000   1.0000   1.0000   1.0000
     1.0000   1.0000   1.0000   1.0000   1.0000   1.0000   1.0000   1.0000
     1.0000   1.0000   1.0000   1.0000   1.0000   1.0000   1.0000   1.0000
     1.0000   1.0000   1.0000   1.0000   1.0000   1.0000   1.0000   1.0000
     1.0000   1.0000   1.0000   1.0000   1.0000   1.0000   1.0000   1.0000
     1.0000   1.0000   1.0000   1.0000   1.0000   1.0000   1.0000   1.0000
     1.0000   1.0000   1.0000   1.0000   1.0000   1.0000   1.0000   1.0000
     1.0000   1.0000   1.0000   1.0000   1.0000   1.0000   1.0000   1.0000
     1.0000   1.0000   1.0000   1.0000   1.0000   1.0000   1.0000   1.0000
     1.0000   1.0000   1.0000   1.0000   1.0000   1.0000   1.0000   1.0000
     1.0000   1.0000   1.0000   1.0000   1.0000   1.0000   1.0000   1.0000
     1.0000   1.0000   1.0000   1.0000   1.0000   1.0000   1.0000   1.0000
     1.0000   1.0000   1.0000   1.0000   1.0000   1.0000   1.0000   1.0000
     1.0000   1.0000   1.0000   1.0000   1.0000   1.0000   1.0000   1.0000
     1.0000   1.0000   1.0000   1.0000   1.0000   1.0000   1.0000   1.0000
     1.0000   1.0000   1.0000   1.0000   1.0000   1.0000   1.0000   1.0000
     1.0000   1.0000   1.0000   1.0000   1.0000   1.0000   1.0000   1.0000
     1.0000   1.0000   1.0000   1.0000   1.0000   1.0000   1.0000   1.0000
     1.0000   1.0000   1.0000   1.0000   1.0000   1.0000   1.0000   1.0000
     1.0000   1.0000   1.0000   1.0000   1.0000   1.0000   1.0000   1.0000
     1.0000   1.0000   1.0000   1.0000   1.0000   1.0000   1.0000   1.0000
     1.0000   1.0000   1.0000   1.0000   1.0000   1.0000   1.0000   1.0000
     1.0000   1.0000   1.0000   1.0000   1.0000   1.0000   1.0000   1.0000
     1.0000   1.0000   1.0000   1.0000   1.0000   1.0000   1.0000   1.0000
     1.0000   1.0000   1.0000   1.0000   1.0000   1.0000   1.0000   1.0000
     1.0000   1.0000   1.0000   1.0000   1.0000   1.0000   1.0000   1.0000
     1.0000   1.0000   1.0000   1.0000   1.0000   1.0000   1.0000   1.0000
     1.0000   1.0000   1.0000   1.0000   1.0000   1.0000   1.0000   1.0000
     1.0000   1.0000   1.0000   1.0000   1.0000   1.0000   1.0000   1.0000
     1.0000   1.0000   1.0000   1.0000   1.0000   1.0000   1.0000   1.0000
     1.0000   1.0000   1.0000   1.0000   1.0000   1.0000   1.0000   1.0000
     1.0000   1.0000   1.0000   1.0000   1.0000   1.0000   1.0000   1.0000
     1.0000   1.0000   1.0000   1.0000   1.0000   1.0000   1.0000   1.0000
     1.0000   1.0000   1.0000   1.0000   1.0000   1.0000   1.0000   1.0000
     1.0000   1.0000   1.0000   1.0000   1.0000   1.0000   1.0000   1.0000
     1.0000   1.0000   1.0000   1.0000   1.0000   1.0000   1.0000   1.0000
     1.0000   1.0000   1.0000   1.0000   1.0000   1.0000   1.0000   1.0000
     1.0000   1.0000   1.0000   1.0000   1.0000   1.0000   1.0000   1.0000
     1.0000   1.0000   1.0000   1.0000   1.0000   1.0000   1.0000   1.0000
     1.0000   1.0000   1.0000   1.0000   1.0000   1.0000   1.0000   1.0000
     1.0000   1.0000   1.0000   1.0000   1.0000   1.0000   1.0000   1.0000
     1.0000   1.0000   1.0000   1.0000   1.0000   1.0000   1.0000   1.0000
     1.0000   1.0000   1.0000   1.0000   1.0000   1.0000   1.0000   1.0000
     1.0000   1.0000   1.0000   1.0000   1.0000   1.0000   1.0000   1.0000
     1.0000   1.0000   1.0000   1.0000   1.0000   1.0000   1.0000   1.0000
     1.0000   1.0000   1.0000   1.0000   1.0000   1.0000   1.0000   1.0000
     1.0000   1.0000   1.0000   1.0000   1.0000   1.0000   1.0000   1.0000
     1.0000   1.0000   1.0000   1.0000   1.0000   1.0000   1.0000   1.0000
     1.0000   1.0000   1.0000   1.0000   1.0000   1.0000   1.0000   1.0000
     1.0000   1.0000   1.0000   1.0000   1.0000   1.0000   1.0000   1.0000
     1.0000   1.0000   1.0000   1.0000   1.0000   1.0000   1.0000   1.0000
     1.0000   1.0000   1.0000   1.0000   1.0000   1.0000   1.0000   1.0000
     1.0000   1.0000   1.0000   1.0000   1.0000   1.0000   1.0000   1.0000
     1.0000   1.0000   1.0000   1.0000   1.0000   1.0000   1.0000   1.0000
     1.0000   1.0000   1.0000   1.0000   1.0000   1.0000   1.0000   1.0000
     1.0000   1.0000   1.0000   1.0000   1.0000   1.0000   1.0000   1.0000
     1.0000   1.0000   1.0000   1.0000   1.0000   1.0000   1.0000   1.0000
     1.0000   1.0000   1.0000   1.0000   1.0000   1.0000   1.0000   1.0000
     1.0000   1.0000   1.0000   1.0000   1.0000   1.0000   1.0000   1.0000
     1.0000   1.0000   1.0000   1.0000   1.0000   1.0000   1.0000   1.0000
     1.0000   1.0000   1.0000   1.0000   1.0000   1.0000   1.0000   1.0000
     1.0000   1.0000   1.0000   1.0000   1.0000   1.0000   1.0000   1.0000
     1.0000   1.0000   1.0000   1.0000   1.0000   1.0000   1.0000   1.0000
     1.0000   1.0000   1.0000   1.0000   1.0000   1.0000   1.0000   1.0000
     1.0000   1.0000   1.0000   1.0000   1.0000   1.0000   1.0000   1.0000
     1.0000   1.0000   1.0000   1.0000   1.0000   1.0000   1.0000   1.0000
     1.0000   1.0000   1.0000   1.0000   1.0000   1.0000   1.0000   1.0000
     1.0000   1.0000   1.0000   1.0000   1.0000   1.0000   1.0000   1.0000
     1.0000   1.0000   1.0000   1.0000   1.0000   1.0000   1.0000   1.0000
     1.0000   1.0000   1.0000   1.0000   1.0000   1.0000   1.0000   1.0000
     1.0000   1.0000   1.0000   1.0000   1.0000   1.0000   1.0000   1.0000
     1.0000   1.0000   1.0000   1.0000   1.0000   1.0000   1.0000   1.0000
     1.0000   1.0000   1.0000   1.0000   0.9910   0.9879   0.9819   0.9528
     0.0810   0.0410   0.0000   0.0000   0.0000   0.0000   0.0000   0.0000
     0.0000   0.0000   0.0000   0.0000   0.0000   0.0000   0.0000   0.0000
     0.0000   0.0000   0.0000   0.0000   0.0000   0.0000   0.0000   0.0000
     0.0000   0.0000   0.0000   0.0000   0.0000   0.0000   0.0000   0.0000
     0.0000   0.0000   0.0000   0.0000   0.0000   0.0000   0.0000   0.0000
     0.0000   0.0000   0.0000   0.0000   0.0000   0.0000   0.0000   0.0000
     0.0000   0.0000   0.0000   0.0000   0.0000   0.0000   0.0000   0.0000
     0.0000   0.0000   0.0000   0.0000   0.0000   0.0000   0.0000   0.0000
     0.0000   0.0000   0.0000   0.0000   0.0000   0.0000   0.0000   0.0000
     0.0000   0.0000   0.0000   0.0000   0.0000   0.0000   0.0000   0.0000
     0.0000   0.0000   0.0000   0.0000   0.0000   0.0000   0.0000   0.0000
     0.0000   0.0000   0.0000   0.0000   0.0000   0.0000   0.0000   0.0000
     0.0000   0.0000   0.0000   0.0000   0.0000   0.0000   0.0000   0.0000
     0.0000   0.0000   0.0000   0.0000   0.0000   0.0000   0.0000   0.0000
     0.0000   0.0000   0.0000   0.0000   0.0000   0.0000   0.0000   0.0000
     0.0000   0.0000   0.0000   0.0000   0.0000   0.0000   0.0000   0.0000
     0.0000   0.0000   0.0000   0.0000   0.0000   0.0000   0.0000   0.0000
     0.0000   0.0000   0.0000   0.0000   0.0000   0.0000   0.0000   0.0000
     0.0000   0.0000   0.0000   0.0000   0.0000   0.0000   0.0000   0.0000
     0.0000   0.0000   0.0000   0.0000   0.0000   0.0000   0.0000   0.0000
     0.0000   0.0000   0.0000   0.0000   0.0000   0.0000   0.0000   0.0000
     0.0000   0.0000   0.0000   0.0000   0.0000   0.0000   0.0000   0.0000
     0.0000   0.0000   0.0000

          k =-0.7071 0.0000 0.0000 ( 68952 PWs)   bands (ev):

   -16.7333 -16.7275 -16.7147 -16.7137 -16.7105 -16.7088 -16.7069 -16.7044
   -16.7023 -16.6999 -16.6991 -16.6986 -16.6942 -16.6931 -16.6885 -16.6869
   -16.6854 -16.6848 -16.6843 -16.6816 -16.6804 -16.6797 -16.6779 -16.6761
   -16.6744 -16.6734 -16.6707 -16.6685 -16.6682 -16.6672 -16.6660 -16.6644
   -16.6633 -16.6621 -16.6611 -16.6604 -16.6602 -16.6593 -16.6588 -16.6579
   -16.6570 -16.6561 -16.6557 -16.6551 -16.6550 -16.6533 -16.6529 -16.6522
   -16.6521 -16.6502 -16.6496 -16.6479 -16.6476 -16.6471 -16.6465 -16.6455
   -16.6453 -16.6444 -16.6435 -16.6430 -16.6429 -16.6417 -16.6414 -16.6400
   -16.6396 -16.6394 -16.6393 -16.6378 -16.6374 -16.6364 -16.6358 -16.6354
   -16.6347 -16.6342 -16.6336 -16.6333 -16.6321 -16.6320 -16.6303 -16.6300
   -16.6300 -16.6296 -16.6287 -16.6271 -16.6268 -16.6263 -16.6257 -16.6242
   -16.6237 -16.6233 -16.6228 -16.6222 -16.6210 -16.6207 -16.6202 -16.6200
   -16.6188 -16.6182 -16.6178 -16.6167 -16.6164 -16.6163 -16.6150 -16.6138
   -16.6126 -16.6122 -16.6116 -16.6114 -16.6098 -16.6092 -16.6080 -16.6078
   -16.6067 -16.6063 -16.6054 -16.6049 -16.6040 -16.6021 -16.6017 -16.6009
   -16.6004 -16.5996 -16.5992 -16.5984 -16.5979 -16.5974 -16.5962 -16.5955
   -16.5950 -16.5932 -16.5927 -16.5919 -16.5910 -16.5907 -16.5899 -16.5895
   -16.5884 -16.5876 -16.5868 -16.5851 -16.5846 -16.5839 -16.5825 -16.5818
   -16.5806 -16.5798 -16.5790 -16.5778 -16.5770 -16.5758 -16.5746 -16.5740
   -16.5738 -16.5726 -16.5718 -16.5717 -16.5705 -16.5698 -16.5690 -16.5681
   -16.5667 -16.5665 -16.5646 -16.5643 -16.5639 -16.5628 -16.5621 -16.5610
   -16.5608 -16.5603 -16.5599 -16.5589 -16.5583 -16.5572 -16.5571 -16.5561
   -16.5554 -16.5551 -16.5541 -16.5533 -16.5527 -16.5518 -16.5516 -16.5501
   -16.5496 -16.5492 -16.5486 -16.5476 -16.5467 -16.5458 -16.5451 -16.5440
   -16.5433 -16.5428 -16.5419 -16.5412 -16.5398 -16.5396 -16.5390 -16.5381
   -16.5375 -16.5370 -16.5361 -16.5356 -16.5350 -16.5345 -16.5342 -16.5337
   -16.5329 -16.5322 -16.5315 -16.5310 -16.5301 -16.5293 -16.5290 -16.5283
   -16.5274 -16.5268 -16.5263 -16.5260 -16.5251 -16.5247 -16.5238 -16.5231
   -16.5228 -16.5213 -16.5209 -16.5203 -16.5196 -16.5190 -16.5185 -16.5170
   -16.5165 -16.5157 -16.5153 -16.5151 -16.5147 -16.5141 -16.5132 -16.5129
   -16.5123 -16.5114 -16.5112 -16.5102 -16.5093 -16.5091 -16.5080 -16.5069
   -16.5065 -16.5061 -16.5055 -16.5047 -16.5044 -16.5038 -16.5033 -16.5029
   -16.5026 -16.5015 -16.5010 -16.5002 -16.4993 -16.4991 -16.4986 -16.4980
   -16.4969 -16.4961 -16.4958 -16.4951 -16.4944 -16.4936 -16.4931 -16.4922
   -16.4919 -16.4915 -16.4899 -16.4897 -16.4891 -16.4885 -16.4879 -16.4874
   -16.4865 -16.4858 -16.4850 -16.4848 -16.4842 -16.4841 -16.4829 -16.4817
   -16.4814 -16.4806 -16.4798 -16.4793 -16.4788 -16.4782 -16.4773 -16.4757
   -16.4752 -16.4749 -16.4742 -16.4732 -16.4729 -16.4716 -16.4705 -16.4701
   -16.4693 -16.4685 -16.4679 -16.4672 -16.4665 -16.4653 -16.4644 -16.4640
   -16.4635 -16.4630 -16.4629 -16.4619 -16.4606 -16.4603 -16.4598 -16.4594
   -16.4589 -16.4587 -16.4574 -16.4568 -16.4563 -16.4557 -16.4555 -16.4540
   -16.4535 -16.4528 -16.4519 -16.4516 -16.4507 -16.4502 -16.4497 -16.4495
   -16.4492 -16.4484 -16.4467 -16.4457 -16.4455 -16.4450 -16.4444 -16.4440
   -16.4432 -16.4423 -16.4415 -16.4403 -16.4401 -16.4392 -16.4386 -16.4386
   -16.4376 -16.4371 -16.4360 -16.4357 -16.4346 -16.4338 -16.4329 -16.4321
   -16.4320 -16.4311 -16.4304 -16.4301 -16.4295 -16.4288 -16.4281 -16.4278
   -16.4274 -16.4269 -16.4263 -16.4258 -16.4253 -16.4251 -16.4236 -16.4231
   -16.4227 -16.4222 -16.4213 -16.4210 -16.4203 -16.4199 -16.4184 -16.4179
   -16.4175 -16.4174 -16.4165 -16.4158 -16.4150 -16.4143 -16.4138 -16.4132
   -16.4130 -16.4122 -16.4115 -16.4110 -16.4109 -16.4102 -16.4095 -16.4092
[...]
     atom   77 type  1   force =   0.00000000E+00  0.00000000E+00  0.00000000E+00
     atom   78 type  1   force =   0.00000000E+00  0.00000000E+00  0.00000000E+00
     atom   79 type  1   force =   0.00000000E+00  0.00000000E+00  0.00000000E+00
     atom   80 type  1   force =   0.00000000E+00  0.00000000E+00  0.00000000E+00
     atom   81 type  1   force =   0.00000000E+00  0.00000000E+00  0.00000000E+00
     atom   82 type  1   force =   0.00000000E+00  0.00000000E+00  0.00000000E+00
     atom   83 type  1   force =   0.00000000E+00  0.00000000E+00  0.00000000E+00
     atom   84 type  1   force =   0.00000000E+00  0.00000000E+00  0.00000000E+00
     atom   85 type  1   force =   0.00000000E+00  0.00000000E+00  0.00000000E+00
     atom   86 type  1   force =   0.00000000E+00  0.00000000E+00  0.00000000E+00
     atom   87 type  1   force =   0.00000000E+00  0.00000000E+00  0.00000000E+00
     atom   88 type  1   force =   0.00000000E+00  0.00000000E+00  0.00000000E+00
     atom   89 type  1   force =   0.00000000E+00  0.00000000E+00  0.00000000E+00
     atom   90 type  1   force =   0.00000000E+00  0.00000000E+00  0.00000000E+00
     atom   91 type  1   force =   0.00000000E+00  0.00000000E+00  0.00000000E+00
     atom   92 type  1   force =   0.00000000E+00  0.00000000E+00  0.00000000E+00
     atom   93 type  1   force =   0.00000000E+00  0.00000000E+00  0.00000000E+00
     atom   94 type  1   force =   0.00000000E+00  0.00000000E+00  0.00000000E+00
     atom   95 type  1   force =   0.00000000E+00  0.00000000E+00  0.00000000E+00
     atom   96 type  1   force =   0.00000000E+00  0.00000000E+00  0.00000000E+00
     atom   97 type  1   force =   0.00000000E+00  0.00000000E+00  0.00000000E+00
     atom   98 type  1   force =   0.00000000E+00  0.00000000E+00  0.00000000E+00
     atom   99 type  1   force =   0.00000000E+00  0.00000000E+00  0.00000000E+00
     atom  100 type  1   force =   0.00000000E+00  0.00000000E+00  0.00000000E+00
     atom  101 type  1   force =   0.00000000E+00  0.00000000E+00  0.00000000E+00
     atom  102 type  1   force =   0.00000000E+00  0.00000000E+00  0.00000000E+00
     atom  103 type  1   force =   0.00000000E+00  0.00000000E+00  0.00000000E+00
     atom  104 type  1   force =   0.00000000E+00  0.00000000E+00  0.00000000E+00
     atom  105 type  1   force =   0.00000000E+00  0.00000000E+00  0.00000000E+00
     atom  106 type  1   force =   0.00000000E+00  0.00000000E+00  0.00000000E+00
     atom  107 type  1   force =   0.00000000E+00  0.00000000E+00  0.00000000E+00
     atom  108 type  1   force =   0.00000000E+00  0.00000000E+00  0.00000000E+00
     atom  109 type  1   force =   0.00000000E+00  0.00000000E+00  0.00000000E+00
     atom  110 type  1   force =   0.00000000E+00  0.00000000E+00  0.00000000E+00
     atom  111 type  1   force =   0.00000000E+00  0.00000000E+00  0.00000000E+00
     atom  112 type  1   force =   0.00000000E+00  0.00000000E+00  0.00000000E+00
     atom  113 type  1   force =   0.00000000E+00  0.00000000E+00  0.00000000E+00
     atom  114 type  1   force =   0.00000000E+00  0.00000000E+00  0.00000000E+00
     atom  115 type  1   force =   0.00000000E+00  0.00000000E+00  0.00000000E+00
     atom  116 type  1   force =   0.00000000E+00  0.00000000E+00  0.00000000E+00
     atom  117 type  1   force =   0.00000000E+00  0.00000000E+00  0.00000000E+00
     atom  118 type  1   force =   0.00000000E+00  0.00000000E+00  0.00000000E+00
     atom  119 type  1   force =   0.00000000E+00  0.00000000E+00  0.00000000E+00
     atom  120 type  1   force =   0.00000000E+00  0.00000000E+00  0.00000000E+00
     atom  121 type  1   force =   0.00000000E+00  0.00000000E+00  0.00000000E+00
     atom  122 type  1   force =   0.00000000E+00  0.00000000E+00  0.00000000E+00
     atom  123 type  1   force =   0.00000000E+00  0.00000000E+00  0.00000000E+00
     atom  124 type  1   force =   0.00000000E+00  0.00000000E+00  0.00000000E+00
     atom  125 type  1   force =   0.00000000E+00  0.00000000E+00  0.00000000E+00
     atom  126 type  1   force =   0.00000000E+00  0.00000000E+00  0.00000000E+00
     atom  127 type  1   force =   0.00000000E+00  0.00000000E+00  0.00000000E+00
     atom  128 type  1   force =   0.00000000E+00  0.00000000E+00  0.00000000E+00
     The SCF correction term to forces
     atom    1 type  1   force =   0.42782484E-05  0.17956032E-05  0.29926416E-05
     atom    2 type  1   force =   0.34112985E-05 -0.18690420E-05 -0.49574808E-05
     atom    3 type  1   force =  -0.78833124E-05 -0.22995063E-05  0.42281367E-05
     atom    4 type  1   force =   0.56718952E-05 -0.42419225E-05 -0.40819805E-05
     atom    5 type  1   force =  -0.33944565E-05  0.22291502E-05  0.67644269E-07
     atom    6 type  1   force =   0.93121727E-05 -0.76798708E-05 -0.31560628E-05
     atom    7 type  1   force =  -0.84090004E-07 -0.44140613E-05  0.66877054E-05
     atom    8 type  1   force =   0.62165640E-05 -0.67493136E-05 -0.84565765E-05
     atom    9 type  1   force =  -0.48865990E-05  0.95451627E-05  0.94305719E-08
     atom   10 type  1   force =   0.53978222E-05 -0.67255192E-05 -0.17331429E-05
     atom   11 type  1   force =  -0.66204462E-05  0.74099444E-05  0.43670775E-05
     atom   12 type  1   force =   0.11658786E-04 -0.24715228E-05 -0.41565033E-05
     atom   13 type  1   force =   0.84188702E-06  0.69709091E-05  0.68398851E-05
     atom   14 type  1   force =   0.34067161E-05 -0.12254521E-04 -0.31924463E-05
     atom   15 type  1   force =  -0.68928681E-05 -0.42499306E-05  0.44948820E-05
     atom   16 type  1   force =   0.30813616E-05 -0.15898316E-05 -0.48246993E-05
     atom   17 type  1   force =   0.99842927E-06  0.86300582E-05  0.30526157E-05
     atom   18 type  1   force =   0.50306492E-06 -0.19912491E-06 -0.59571317E-05
     atom   19 type  1   force =  -0.57400811E-05  0.43096216E-05  0.55896409E-05
     atom   20 type  1   force =   0.26296104E-05 -0.69443679E-08 -0.12434313E-04
     atom   21 type  1   force =  -0.10809586E-04  0.19293723E-05 -0.91626233E-06
     atom   22 type  1   force =  -0.31499317E-05 -0.17832831E-05 -0.30399365E-06
     atom   23 type  1   force =  -0.10488965E-04  0.42509967E-05  0.93365084E-05
     atom   24 type  1   force =   0.46859654E-05 -0.28975614E-07 -0.51516539E-05
     atom   25 type  1   force =  -0.52547344E-05  0.48190547E-05 -0.27409056E-05
     atom   26 type  1   force =   0.35392034E-05 -0.44037533E-05  0.67135580E-06
     atom   27 type  1   force =  -0.14035183E-05  0.70058186E-05  0.42307187E-05
     atom   28 type  1   force =   0.68605134E-05 -0.42576351E-05 -0.28892671E-05
     atom   29 type  1   force =   0.11929306E-06  0.63041765E-05  0.64044807E-05
     atom   30 type  1   force =  -0.21278541E-05 -0.70598788E-05 -0.30858225E-05
     atom   31 type  1   force =  -0.47077002E-05 -0.17414734E-05  0.53406263E-05
     atom   32 type  1   force =   0.54088823E-05 -0.33875635E-05 -0.45718415E-05
     atom   33 type  1   force =   0.63594940E-05 -0.45420252E-05 -0.40415510E-05
     atom   34 type  1   force =  -0.13097525E-04 -0.35450581E-05  0.22658611E-05
     atom   35 type  1   force =   0.44303910E-05 -0.88454717E-05 -0.11556977E-04
     atom   36 type  1   force =  -0.37358335E-05  0.29478691E-05  0.38845646E-05
     atom   37 type  1   force =   0.10959820E-04 -0.29640178E-05 -0.10666609E-04
     atom   38 type  1   force =  -0.29829642E-05  0.33950820E-05  0.45664634E-05
     atom   39 type  1   force =   0.48250738E-05 -0.28703271E-05  0.11664067E-05
     atom   40 type  1   force =  -0.23735224E-05  0.10531062E-04  0.16050048E-05
     atom   41 type  1   force =   0.71467402E-05 -0.67645095E-05 -0.82004314E-05
     atom   42 type  1   force =   0.23600069E-05  0.26266043E-05  0.18111348E-04
     atom   43 type  1   force =   0.78152031E-05 -0.90553080E-05  0.39202281E-06
     atom   44 type  1   force =  -0.33805277E-05  0.15464391E-05  0.59537348E-05
     atom   45 type  1   force =   0.94186475E-05 -0.54785287E-05 -0.75234015E-05
     atom   46 type  1   force =  -0.79480604E-06 -0.12759506E-05  0.16123935E-05
     atom   47 type  1   force =  -0.64893335E-06 -0.78255141E-05 -0.62286817E-05
     atom   48 type  1   force =   0.18635618E-05  0.13786821E-05 -0.23839464E-06
     atom   49 type  1   force =   0.59023379E-05  0.67912018E-07 -0.51291646E-05
     atom   50 type  1   force =  -0.10205450E-04 -0.56101355E-06 -0.18777711E-06
     atom   51 type  1   force =   0.30567799E-05 -0.88925248E-05 -0.52781907E-05
     atom   52 type  1   force =   0.19280335E-05  0.50208403E-05 -0.26383549E-05
     atom   53 type  1   force =   0.95427535E-05 -0.48376122E-05 -0.70187801E-05
     atom   54 type  1   force =   0.10838714E-07 -0.99711239E-06  0.85957654E-05
     atom   55 type  1   force =   0.29906813E-05 -0.56761489E-05  0.20397644E-05
     atom   56 type  1   force =  -0.23754056E-05  0.11455398E-04  0.30094625E-05
     atom   57 type  1   force =   0.29873349E-05  0.11259684E-05 -0.10959433E-04
     atom   58 type  1   force =   0.67832844E-06 -0.76879343E-06  0.78387687E-05
     atom   59 type  1   force =   0.67846076E-05 -0.73768022E-05 -0.35911221E-05
     atom   60 type  1   force =  -0.56264823E-06  0.73599240E-05 -0.25770720E-05
     atom   61 type  1   force =   0.85167772E-06 -0.50862870E-06 -0.82991642E-05
     atom   62 type  1   force =  -0.71845444E-05  0.62166441E-05  0.77674603E-06
     atom   63 type  1   force =  -0.29034788E-05 -0.31749648E-05  0.11947630E-05
     atom   64 type  1   force =  -0.86870469E-05  0.48124285E-05  0.60442073E-05
     atom   65 type  1   force =  -0.53691990E-05  0.45016204E-05  0.37065348E-05
     atom   66 type  1   force =   0.70708071E-05 -0.40240529E-05  0.31022028E-05
     atom   67 type  1   force =  -0.72973828E-05  0.50661774E-05  0.13606072E-04
     atom   68 type  1   force =   0.30715794E-05 -0.17350715E-06 -0.17978279E-05
     atom   69 type  1   force =  -0.76369851E-05  0.11549951E-04  0.60195462E-05
     atom   70 type  1   force =  -0.81460239E-07 -0.45174453E-06 -0.70391480E-05
     atom   71 type  1   force =  -0.54086622E-05  0.43489230E-05  0.37959840E-05
     atom   72 type  1   force =  -0.30910801E-06 -0.35500513E-05 -0.10547125E-04
     atom   73 type  1   force =   0.98261003E-06  0.74365177E-05  0.96896927E-05
     atom   74 type  1   force =  -0.20200440E-05 -0.10168713E-04 -0.49523714E-05
     atom   75 type  1   force =  -0.10499118E-04  0.44098047E-07  0.56400185E-05
     atom   76 type  1   force =   0.42305196E-05 -0.75659594E-05 -0.73128674E-05
     atom   77 type  1   force =  -0.52191842E-05  0.40819961E-05  0.10428788E-05
     atom   78 type  1   force =   0.28894796E-05 -0.75211670E-05 -0.31637101E-05
     atom   79 type  1   force =  -0.56918740E-05  0.88477680E-05  0.32948164E-05
     atom   80 type  1   force =   0.12488016E-04  0.49277400E-05  0.17184532E-05
     atom   81 type  1   force =  -0.11195563E-04  0.10646228E-05  0.73366290E-06
     atom   82 type  1   force =  -0.11832165E-05 -0.81808593E-05 -0.85470392E-05
     atom   83 type  1   force =  -0.43726158E-05  0.70871919E-05  0.30660725E-05
     atom   84 type  1   force =   0.89810408E-05 -0.11793442E-05 -0.10145707E-04
     atom   85 type  1   force =   0.18220257E-05 -0.22700625E-05  0.72048741E-05
     atom   86 type  1   force =   0.65502454E-05 -0.59279057E-05 -0.20817701E-05
     atom   87 type  1   force =  -0.19745688E-05  0.58026883E-05  0.44443555E-05
     atom   88 type  1   force =   0.65204717E-05 -0.28631287E-05 -0.17687235E-04
     atom   89 type  1   force =  -0.78336056E-06 -0.61885997E-06  0.35783402E-05
     atom   90 type  1   force =   0.84951025E-05 -0.83617410E-05 -0.25701330E-05
     atom   91 type  1   force =  -0.29530827E-05  0.49723038E-05  0.35623965E-05
     atom   92 type  1   force =   0.97816299E-05 -0.29146697E-05 -0.11939017E-04
     atom   93 type  1   force =  -0.35541924E-05  0.86056322E-05  0.23197019E-05
     atom   94 type  1   force =   0.55426717E-05 -0.10249352E-04 -0.18161801E-05
     atom   95 type  1   force =  -0.77318365E-05  0.12912284E-06  0.40901811E-05
     atom   96 type  1   force =   0.92548583E-05 -0.10028799E-04  0.16061899E-05
     atom   97 type  1   force =   0.83055096E-05 -0.41976974E-05  0.39672457E-05
     atom   98 type  1   force =  -0.48530664E-05 -0.14065506E-05  0.65094072E-05
     atom   99 type  1   force =   0.67776931E-05 -0.52878174E-05 -0.14966009E-05
     atom  100 type  1   force =  -0.89011752E-05  0.93004413E-05  0.88810075E-06
     atom  101 type  1   force =   0.32926520E-05 -0.55074634E-06 -0.42699005E-05
     atom  102 type  1   force =  -0.12087496E-04  0.66806193E-05  0.62649722E-06
     atom  103 type  1   force =   0.61656296E-06 -0.25534805E-05 -0.11231236E-05
     atom  104 type  1   force =  -0.80687619E-06  0.76520810E-05  0.49038228E-05
     atom  105 type  1   force =   0.20721328E-05 -0.40428373E-05 -0.13907885E-04
     atom  106 type  1   force =  -0.10947094E-04  0.56681086E-05  0.30665607E-05
     atom  107 type  1   force =  -0.26580612E-05 -0.22647228E-05 -0.39582626E-05
     atom  108 type  1   force =  -0.37399680E-05  0.46697919E-05  0.55388406E-05
     atom  109 type  1   force =   0.53906306E-05  0.26982487E-05 -0.53403205E-05
     atom  110 type  1   force =  -0.51590477E-06  0.10049167E-04  0.12432259E-04
     atom  111 type  1   force =   0.17753392E-05 -0.30764527E-05 -0.33005479E-05
     atom  112 type  1   force =  -0.87094459E-05  0.52256131E-05  0.18781693E-05
     atom  113 type  1   force =   0.49583735E-05 -0.12614189E-05 -0.53987206E-05
     atom  114 type  1   force =  -0.92802873E-05  0.92199642E-05  0.12671864E-04
     atom  115 type  1   force =   0.21313063E-05 -0.40378008E-05 -0.11420035E-05
     atom  116 type  1   force =  -0.79313539E-05  0.16855839E-04  0.54398152E-05
     atom  117 type  1   force =   0.72507746E-05  0.46817966E-05 -0.37867019E-05
     atom  118 type  1   force =  -0.15862242E-04  0.36111146E-05  0.23541013E-05
     atom  119 type  1   force =  -0.22172978E-05 -0.77546633E-05 -0.68978667E-05
     atom  120 type  1   force =  -0.31459401E-05  0.50877373E-05  0.17998925E-05
     atom  121 type  1   force =   0.22690277E-05 -0.34359083E-06 -0.44545389E-06
     atom  122 type  1   force =  -0.91395749E-05  0.42640638E-06  0.11089152E-04
     atom  123 type  1   force =   0.38378722E-05 -0.12913290E-05 -0.19042929E-05
     atom  124 type  1   force =   0.34334931E-05  0.91581469E-05  0.47489850E-05
     atom  125 type  1   force =   0.62308157E-05 -0.67776421E-05 -0.20230347E-05
     atom  126 type  1   force =  -0.27114298E-05  0.45438842E-06  0.11493300E-04
     atom  127 type  1   force =   0.49688478E-05 -0.11077149E-04  0.16684473E-05
     atom  128 type  1   force =  -0.10417829E-05  0.36027900E-05  0.89658112E-05

     Total force =     0.318542     Total SCF correction =     0.000117


     entering subroutine stress ...

          total   stress  (Ry/bohr**3)                   (kbar)     P=    2.29
   0.0000167094  -0.0000093630  -0.0000109610          2.46     -1.38     -1.61
  -0.0000093630   0.0000155336   0.0000009914         -1.38      2.29      0.15
  -0.0000109610   0.0000009914   0.0000144761         -1.61      0.15      2.13

     kinetic stress (kbar)   9997.35      1.31      1.39
                                1.31   9997.45     -0.18
                                1.39     -0.18   9997.49

     local   stress (kbar)   1729.06    222.96    253.81
                              222.96   1743.89    -15.36
                              253.81    -15.36   1762.57

     nonloc. stress (kbar)   2938.82     -1.09     -1.26
                               -1.09   2938.71      0.05
                               -1.26      0.05   2938.62

     hartree stress (kbar)  26327.32    -86.81    -99.30
                              -86.81  26322.19      5.45
                              -99.30      5.45  26314.70

     exc-cor stress (kbar)  19474.16     -0.06     -0.07
                               -0.06  19474.15      0.01
                               -0.07      0.01  19474.14

     corecor stress (kbar) -29142.22      0.07      0.08
                                0.07 -29142.21     -0.00
                                0.08     -0.00 -29142.20

     ewald   stress (kbar) -31322.04   -137.75   -156.26
                             -137.75 -31331.89     10.18
                             -156.26     10.18 -31343.20

     hubbard stress (kbar)      0.00      0.00      0.00
                                0.00      0.00      0.00
                                0.00      0.00      0.00

     london  stress (kbar)      0.00      0.00      0.00
                                0.00      0.00      0.00
                                0.00      0.00      0.00

     XDM     stress (kbar)      0.00      0.00      0.00
                                0.00      0.00      0.00
                                0.00      0.00      0.00

     dft-nl  stress (kbar)      0.00      0.00      0.00
                                0.00      0.00      0.00
                                0.00      0.00      0.00



     Writing output data file Ge_diamond.scf.in.super.444.a.033.save

     init_run     :   1885.64s CPU   1506.78s WALL (       1 calls)
     electrons    : 122654.93s CPU 102738.73s WALL (       1 calls)
     forces       :   1220.64s CPU    913.18s WALL (       1 calls)
     stress       :   6848.98s CPU   6802.35s WALL (       1 calls)

     Called by init_run:
     wfcinit      :   1827.59s CPU   1448.20s WALL (       1 calls)
     potinit      :      1.07s CPU      1.10s WALL (       1 calls)

     Called by electrons:
     c_bands      : 114447.53s CPU  95528.41s WALL (      13 calls)
     sum_band     :   7378.69s CPU   6373.77s WALL (      13 calls)
     v_of_rho     :     13.51s CPU     13.55s WALL (      13 calls)
     v_h          :      1.02s CPU      1.01s WALL (      13 calls)
     v_xc         :     14.24s CPU     14.30s WALL (      15 calls)
     newd         :    844.94s CPU    851.40s WALL (      13 calls)
     mix_rho      :     22.59s CPU     22.75s WALL (      13 calls)

     Called by c_bands:
     init_us_2    :     54.69s CPU     55.87s WALL (     232 calls)
     cegterg      : 113981.56s CPU  95045.40s WALL (     104 calls)

     Called by sum_band:
     sum_band:bec :     26.14s CPU     26.24s WALL (     104 calls)
     addusdens    :    583.76s CPU    587.53s WALL (      13 calls)

     Called by *egterg:
     h_psi        :  28976.21s CPU  24163.83s WALL (     440 calls)
     s_psi        :   7242.68s CPU   4753.35s WALL (     440 calls)
     g_psi        :     13.82s CPU     17.62s WALL (     328 calls)
     cdiaghg      :  57513.57s CPU  52079.20s WALL (     424 calls)
     cegterg:over :   9459.64s CPU   6564.66s WALL (     328 calls)
     cegterg:upda :   4643.51s CPU   3051.54s WALL (     328 calls)
     cegterg:last :   3289.44s CPU   2108.27s WALL (     104 calls)

     Called by h_psi:
     h_psi:vloc   :  13846.44s CPU  14049.69s WALL (     440 calls)
     h_psi:vnl    :  15099.51s CPU  10083.24s WALL (     440 calls)
     add_vuspsi   :   7248.06s CPU   4748.14s WALL (     440 calls)

     General routines
     calbec       :  12523.23s CPU   8798.48s WALL (     560 calls)
     fft          :    224.30s CPU    225.58s WALL (     233 calls)
     ffts         :     13.73s CPU     13.84s WALL (     393 calls)
     fftw         :  15394.06s CPU  15611.63s WALL (  643874 calls)
     interpolate  :      4.34s CPU      4.38s WALL (      26 calls)

     Parallel routines
     fft_scatter  :  10826.26s CPU  11021.97s WALL (  644500 calls)

     PWSCF        :     1d   12h51m CPU        1d    7h 7m WALL


   This run was terminated on:   4:53:46  15Feb2017            

=------------------------------------------------------------------------------=
   JOB DONE.
=------------------------------------------------------------------------------=
