
     Program PWSCF v.5.1 starts on 17Jan2017 at 21:54:40 

     This program is part of the open-source Quantum ESPRESSO suite
     for quantum simulation of materials; please cite
         "P. Giannozzi et al., J. Phys.:Condens. Matter 21 395502 (2009);
          URL http://www.quantum-espresso.org", 
     in publications or presentations arising from this work. More details at
     http://www.quantum-espresso.org/quote

     Parallel version (MPI), running on    16 processors
     R & G space division:  proc/nbgrp/npool/nimage =      16
     Reading input from /tmp/Ge_diamond.scf.in.super.444.01.16077/Ge_diamond.scf.in.super.444.01.t
Warning: card &IONS ignored
Warning: card   ION_DYNAMICS='BFGS', ignored
Warning: card / ignored
Warning: card &CELL ignored
Warning: card  CELL_DYNAMICS = 'BFGS' ignored
Warning: card / ignored
     Message from routine read_cards :
     DEPRECATED: no units specified in CELL_PARAMETERS card

     Current dimensions of program PWSCF are:
     Max number of different atomic species (ntypx) = 10
     Max number of k-points (npk) =  40000
     Max angular momentum in pseudopotentials (lmaxx) =  3

     Subspace diagonalization in iterative solution of the eigenvalue problem:
     a serial algorithm will be used


     Parallelization info
     --------------------
     sticks:   dense  smooth     PW     G-vecs:    dense   smooth      PW
     Min         793     553    145                58871    34448    4637
     Max         795     554    146                58873    34482    4641
     Sum       12703    8863   2335               941961   551433   74249



     bravais-lattice index     =            0
     lattice parameter (alat)  =    30.323768153  a.u.
     unit-cell volume          =   19716.7125 (a.u.)^3
     number of atoms/cell      =          128
     number of atomic types    =            1
     number of electrons       =      1792.00
     number of Kohn-Sham states=         1075
     kinetic-energy cutoff     =      35.0000  Ry
     charge density cutoff     =     200.0000  Ry
     convergence threshold     =      1.0E-09
     mixing beta               =       0.3000
     number of iterations used =            8  local-TF  mixing
     Exchange-correlation      = SLA  PW   PSX  PSC ( 1  4 10  8 0)
     A smooth kinetic-energy cutoff is imposed at      34.5000 Ry
     height of the smooth step-function =             800.0000 Ry
     width of the smooth step-function  =               1.0000 Ry


     celldm(1)=  30.323768  celldm(2)=   0.000000  celldm(3)=   0.000000
     celldm(4)=   0.000000  celldm(5)=   0.000000  celldm(6)=   0.000000

     crystal axes: (cart. coord. in units of alat)
               a(1) = (   0.000000000000   0.707106781187   0.707106781187 )  
               a(2) = (   0.707106781187   0.000000000000   0.707106781187 )  
               a(3) = (   0.707106781187   0.707106781187  -0.000000000000 )  

     reciprocal axes: (cart. coord. in units 2 pi/alat)
               b(1) = ( -0.707107  0.707107  0.707107 )  
               b(2) = (  0.707107 -0.707107  0.707107 )  
               b(3) = (  0.707107  0.707107 -0.707107 )  


     PseudoPot. # 1 for Ge read from file:
     /users/kfg/psuedo/gbrv_1.5/ge.pbesol.UPF
     MD5 check sum: 7bed0412183f5e553a4d27ec7023354d
     Pseudo is Ultrasoft + core correction, Zval = 14.0
     Generated by new atomic code, or converted to UPF format
     Using radial grid of  873 points,  6 beta functions with: 
                l(1) =   0
                l(2) =   0
                l(3) =   1
                l(4) =   1
                l(5) =   2
                l(6) =   2
     Q(r) pseudized with  8 coefficients,  rinner =    1.400   1.400   1.400
                                                       1.400   1.400

     atomic species   valence    mass     pseudopotential
        Ge            14.00    72.64000     Ge( 1.00)

     No symmetry found


                                    s                        frac. trans.

      isym =  1     identity                                     

 cryst.   s( 1) = (     1          0          0      )
                  (     0          1          0      )
                  (     0          0          1      )

 cart.    s( 1) = (  1.0000000  0.0000000  0.0000000 )
                  (  0.0000000  1.0000000  0.0000000 )
                  (  0.0000000  0.0000000  1.0000000 )


     point group C_1 (1)    
     there are  1 classes
     the character table:

       E    
A      1.00

     the symmetry operations in each class:
     E        1

   Cartesian axes

     site n.     atom                  positions (alat units)
         1           Ge  tau(   1) = (   -0.00004739063   -0.00011126284    0.00014662827  )
         2           Ge  tau(   2) = (    0.08825584981    0.08831487569    0.08846457313  )
         3           Ge  tau(   3) = (    0.17693214261    0.17675593416    0.00015707895  )
         4           Ge  tau(   4) = (    0.26514456166    0.26516213640    0.08840370821  )
         5           Ge  tau(   5) = (    0.35347988288    0.35352468086    0.00007482486  )
         6           Ge  tau(   6) = (    0.44199843486    0.44188751936    0.08848579870  )
         7           Ge  tau(   7) = (    0.53020686461    0.53048730390   -0.00008106333  )
         8           Ge  tau(   8) = (    0.61863375593    0.61864356379    0.08850384855  )
         9           Ge  tau(   9) = (    0.17676303283    0.00003051395    0.17677650079  )
        10           Ge  tau(  10) = (    0.26528855622    0.08828251713    0.26506890318  )
        11           Ge  tau(  11) = (    0.35369508384    0.17686776648    0.17684237138  )
        12           Ge  tau(  12) = (    0.44202387458    0.26518917551    0.26515454917  )
        13           Ge  tau(  13) = (    0.53017806629    0.35359677696    0.17693769523  )
        14           Ge  tau(  14) = (    0.61876924427    0.44205413386    0.26532217325  )
        15           Ge  tau(  15) = (    0.70715795317    0.53030177621    0.17673023631  )
        16           Ge  tau(  16) = (    0.79564656735    0.61872744899    0.26529875857  )
        17           Ge  tau(  17) = (    0.35347219014    0.00012483611    0.35369872869  )
        18           Ge  tau(  18) = (    0.44204189387    0.08838255038    0.44208150302  )
        19           Ge  tau(  19) = (    0.53049179205    0.17669167476    0.35364912099  )
        20           Ge  tau(  20) = (    0.61870585973    0.26501645585    0.44187113028  )
        21           Ge  tau(  21) = (    0.70704481211    0.35348063125    0.35356402128  )
        22           Ge  tau(  22) = (    0.79547775546    0.44201932910    0.44208555390  )
        23           Ge  tau(  23) = (    0.88397244663    0.53017883404    0.35357137331  )
        24           Ge  tau(  24) = (    0.97243320926    0.61871407082    0.44198837494  )
        25           Ge  tau(  25) = (    0.53036767288    0.00010636806    0.53021129538  )
        26           Ge  tau(  26) = (    0.61870543994    0.08852201773    0.61884454170  )
        27           Ge  tau(  27) = (    0.70708328803    0.17682743174    0.53016646755  )
        28           Ge  tau(  28) = (    0.79552490758    0.26511762809    0.61868068366  )
        29           Ge  tau(  29) = (    0.88392496976    0.35357383664    0.53024531866  )
        30           Ge  tau(  30) = (    0.97211327843    0.44182312131    0.61861814302  )
        31           Ge  tau(  31) = (    1.06075084127    0.53033178352    0.53032377540  )
        32           Ge  tau(  32) = (    1.14896560004    0.61886165194    0.61869911021  )
        33           Ge  tau(  33) = (    0.00004052130    0.17682706297    0.17692536641  )
        34           Ge  tau(  34) = (    0.08849496186    0.26502842576    0.26517800984  )
        35           Ge  tau(  35) = (    0.17664728575    0.35361959283    0.17666175992  )
        36           Ge  tau(  36) = (    0.26510538428    0.44194325629    0.26515060819  )
        37           Ge  tau(  37) = (    0.35366523385    0.53031283890    0.17670101050  )
        38           Ge  tau(  38) = (    0.44197004367    0.61875082430    0.26524731904  )
        39           Ge  tau(  39) = (    0.53040370852    0.70719502824    0.17665935631  )
        40           Ge  tau(  40) = (    0.61864530752    0.79547819130    0.26530388999  )
        41           Ge  tau(  41) = (    0.17670206171    0.17687089263    0.35362284976  )
        42           Ge  tau(  42) = (    0.26525885438    0.26532074766    0.44194593781  )
        43           Ge  tau(  43) = (    0.35346704750    0.35360069620    0.35344843124  )
        44           Ge  tau(  44) = (    0.44207744936    0.44197828190    0.44208745339  )
        45           Ge  tau(  45) = (    0.53019790409    0.53038035702    0.35339381859  )
        46           Ge  tau(  46) = (    0.61864864337    0.61887263990    0.44182293727  )
        47           Ge  tau(  47) = (    0.70723845656    0.70698544400    0.35353427011  )
        48           Ge  tau(  48) = (    0.79551745036    0.79556604667    0.44198974895  )
        49           Ge  tau(  49) = (    0.35339089691    0.17688376781    0.53043096480  )
        50           Ge  tau(  50) = (    0.44199240170    0.26500094487    0.61877043885  )
        51           Ge  tau(  51) = (    0.53033278382    0.35353524130    0.53043163661  )
        52           Ge  tau(  52) = (    0.61864438272    0.44193693565    0.61869456955  )
        53           Ge  tau(  53) = (    0.70697498227    0.53043591052    0.53019807798  )
        54           Ge  tau(  54) = (    0.79537632474    0.61875972993    0.61877641205  )
        55           Ge  tau(  55) = (    0.88375007542    0.70699350824    0.53016828697  )
        56           Ge  tau(  56) = (    0.97216851860    0.79560871929    0.61859146142  )
        57           Ge  tau(  57) = (    0.53020092096    0.17690248372    0.70717656486  )
        58           Ge  tau(  58) = (    0.61871508986    0.26511291799    0.79550149724  )
        59           Ge  tau(  59) = (    0.70694880535    0.35342120991    0.70709899090  )
        60           Ge  tau(  60) = (    0.79559238269    0.44201483840    0.79556183052  )
        61           Ge  tau(  61) = (    0.88380042920    0.53044872553    0.70715628001  )
        62           Ge  tau(  62) = (    0.97228562833    0.61886791076    0.79547178169  )
        63           Ge  tau(  63) = (    1.06079105586    0.70713271943    0.70710515865  )
        64           Ge  tau(  64) = (    1.14917745208    0.79553799544    0.79556436615  )
        65           Ge  tau(  65) = (    0.00006592859    0.35346334588    0.35343667028  )
        66           Ge  tau(  66) = (    0.08845406741    0.44179939549    0.44192225408  )
        67           Ge  tau(  67) = (    0.17691711038    0.53043862068    0.35371201787  )
        68           Ge  tau(  68) = (    0.26508722733    0.61859434767    0.44181653798  )
        69           Ge  tau(  69) = (    0.35350287127    0.70711365447    0.35362980900  )
        70           Ge  tau(  70) = (    0.44189200064    0.79534355515    0.44198827679  )
        71           Ge  tau(  71) = (    0.53040474749    0.88391456507    0.35363399514  )
        72           Ge  tau(  72) = (    0.61884282836    0.97230141374    0.44198839845  )
        73           Ge  tau(  73) = (    0.17680676476    0.35357309938    0.53019550890  )
        74           Ge  tau(  74) = (    0.26500015783    0.44185255558    0.61879336918  )
        75           Ge  tau(  75) = (    0.35370745098    0.53016978898    0.53016981715  )
        76           Ge  tau(  76) = (    0.44204374928    0.61878116852    0.61878445569  )
        77           Ge  tau(  77) = (    0.53019421994    0.70701624717    0.53022203712  )
        78           Ge  tau(  78) = (    0.61859537994    0.79539659663    0.61873044760  )
        79           Ge  tau(  79) = (    0.70694787099    0.88379720623    0.53039441000  )
        80           Ge  tau(  80) = (    0.79543782656    0.97239958412    0.61856776224  )
        81           Ge  tau(  81) = (    0.35352744701    0.35344119196    0.70717965091  )
        82           Ge  tau(  82) = (    0.44208815082    0.44191566076    0.79550722997  )
        83           Ge  tau(  83) = (    0.53049293516    0.53049440025    0.70715446379  )
        84           Ge  tau(  84) = (    0.61863849032    0.61879807269    0.79557734153  )
        85           Ge  tau(  85) = (    0.70703377858    0.70715524865    0.70704738105  )
        86           Ge  tau(  86) = (    0.79554351996    0.79536788746    0.79558617878  )
        87           Ge  tau(  87) = (    0.88372151300    0.88391776881    0.70713250080  )
        88           Ge  tau(  88) = (    0.97235144924    0.97241766356    0.79545256741  )
        89           Ge  tau(  89) = (    0.53042298041    0.35350363536    0.88384883100  )
        90           Ge  tau(  90) = (    0.61874726218    0.44208204784    0.97212657527  )
        91           Ge  tau(  91) = (    0.70702216221    0.53043964799    0.88375530915  )
        92           Ge  tau(  92) = (    0.79561269548    0.61866276989    0.97215058338  )
        93           Ge  tau(  93) = (    0.88377891448    0.70723864330    0.88372772506  )
        94           Ge  tau(  94) = (    0.97213168620    0.79540167035    0.97223102683  )
        95           Ge  tau(  95) = (    1.06053808128    0.88380454401    0.88382359887  )
        96           Ge  tau(  96) = (    1.14897668381    0.97234288973    0.97241865316  )
        97           Ge  tau(  97) = (   -0.00015082951    0.53019279516    0.53042223872  )
        98           Ge  tau(  98) = (    0.08834946178    0.61876568244    0.61869941476  )
        99           Ge  tau(  99) = (    0.17672871727    0.70726235004    0.53018562783  )
       100           Ge  tau( 100) = (    0.26505115098    0.79559464244    0.61876613428  )
       101           Ge  tau( 101) = (    0.35359357401    0.88399011031    0.53040648188  )
       102           Ge  tau( 102) = (    0.44199636563    0.97230271078    0.61871075407  )
       103           Ge  tau( 103) = (    0.53017917429    1.06052145493    0.53027910951  )
       104           Ge  tau( 104) = (    0.61879039752    1.14896529072    0.61857332141  )
       105           Ge  tau( 105) = (    0.17664632168    0.53048597794    0.70702884461  )
       106           Ge  tau( 106) = (    0.26501751837    0.61864865304    0.79560608900  )
       107           Ge  tau( 107) = (    0.35349410296    0.70704926072    0.70721767827  )
       108           Ge  tau( 108) = (    0.44202349915    0.79561589486    0.79539105006  )
       109           Ge  tau( 109) = (    0.53041449226    0.88372485697    0.70717319602  )
       110           Ge  tau( 110) = (    0.61863142310    0.97235341679    0.79555523816  )
       111           Ge  tau( 111) = (    0.70722418435    1.06080440002    0.70715407135  )
       112           Ge  tau( 112) = (    0.79562479989    1.14915896197    0.79565122498  )
       113           Ge  tau( 113) = (    0.35342050596    0.53046065245    0.88386496819  )
       114           Ge  tau( 114) = (    0.44178307740    0.61857082183    0.97222322683  )
       115           Ge  tau( 115) = (    0.53035165895    0.70698168928    0.88397625641  )
       116           Ge  tau( 116) = (    0.61867212667    0.79549291330    0.97237024310  )
       117           Ge  tau( 117) = (    0.70716303808    0.88380744787    0.88392498142  )
       118           Ge  tau( 118) = (    0.79550757790    0.97230491805    0.97218719766  )
       119           Ge  tau( 119) = (    0.88375529966    1.06079478688    0.88396347168  )
       120           Ge  tau( 120) = (    0.97242312608    1.14889863025    0.97214180655  )
       121           Ge  tau( 121) = (    0.53040420809    0.53027832328    1.06060099905  )
       122           Ge  tau( 122) = (    0.61864111541    0.61871969128    1.14901743043  )
       123           Ge  tau( 123) = (    0.70714430615    0.70711458272    1.06079385896  )
       124           Ge  tau( 124) = (    0.79564710379    0.79553843276    1.14915626048  )
       125           Ge  tau( 125) = (    0.88402186540    0.88385580923    1.06069262300  )
       126           Ge  tau( 126) = (    0.97228756285    0.97229777054    1.14894230775  )
       127           Ge  tau( 127) = (    1.06058828211    1.06066460047    1.06052351971  )
       128           Ge  tau( 128) = (    1.14914033679    1.14913883831    1.14896320582  )

   Crystallographic axes

     site n.     atom                  positions (cryst. coord.)
         1           Ge  tau(   1) = (    0.00005851737    0.00014884632   -0.00021586680  )
         2           Ge  tau(   2) = (    0.06259563716    0.06251216195    0.06230045780  )
         3           Ge  tau(   3) = (   -0.00001352660    0.00023566978    0.24998416592  )
         4           Ge  tau(   4) = (    0.06252328877    0.06249843434    0.31247260075  )
         5           Ge  tau(   5) = (    0.00008458612    0.00002123221    0.49987481218  )
         6           Ge  tau(   6) = (    0.06249047920    0.06264733740    0.56243284372  )
         7           Ge  tau(   7) = (    0.00014098009   -0.00025562095    0.75008135975  )
         8           Ge  tau(   8) = (    0.06258860667    0.06257473627    0.81230551151  )
         9           Ge  tau(   9) = (    0.00003109990    0.24996862502    0.00001205333  )
        10           Ge  tau(  10) = (    0.06226984837    0.31259418948    0.06258048467  )
        11           Ge  tau(  11) = (    0.00001064480    0.25008223521    0.25011814930  )
        12           Ge  tau(  12) = (    0.06245156492    0.31253359464    0.31258256368  )
        13           Ge  tau(  13) = (    0.00025201703    0.24997567126    0.49980934056  )
        14           Ge  tau(  14) = (    0.06265465499    0.31256756082    0.56250429642  )
        15           Ge  tau(  15) = (   -0.00008905349    0.25002335056    0.75004901756  )
        16           Ge  tau(  16) = (    0.06249384291    0.31269525954    0.81251890687  )
        17           Ge  tau(  17) = (    0.00024845940    0.49995707971   -0.00007191448  )
        18           Ge  tau(  18) = (    0.06252390862    0.56267374864    0.06246789281  )
        19           Ge  tau(  19) = (   -0.00010677050    0.50024215373    0.24998653331  )
        20           Ge  tau(  20) = (    0.06235389671    0.56254624855    0.31243596940  )
        21           Ge  tau(  21) = (   -0.00000011284    0.50001514691    0.49989721559  )
        22           Ge  tau(  22) = (    0.06266884288    0.56253454318    0.56244088716  )
        23           Ge  tau(  23) = (   -0.00015714690    0.50018257830    0.74994324448  )
        24           Ge  tau(  24) = (    0.06241577570    0.56265017855    0.81257805449  )
        25           Ge  tau(  25) = (   -0.00003536201    0.74986736687    0.00018578916  )
        26           Ge  tau(  26) = (    0.06269287882    0.81248546505    0.06249615923  )
        27           Ge  tau(  27) = (   -0.00006320738    0.74983181611    0.25013495955  )
        28           Ge  tau(  28) = (    0.06241872269    0.81252789092    0.31251422259  )
        29           Ge  tau(  29) = (   -0.00007482213    0.74995494317    0.50010373720  )
        30           Ge  tau(  30) = (    0.06245731779    0.81240084999    0.56237493253  )
        31           Ge  tau(  31) = (   -0.00006737479    0.75005845041    0.75006977560  )
        32           Ge  tau(  32) = (    0.06264623991    0.81232643277    0.81255630150  )
        33           Ge  tau(  33) = (    0.25011208879    0.00009816392   -0.00004085814  )
        34           Ge  tau(  34) = (    0.31233717841    0.06268115956    0.06246961571  )
        35           Ge  tau(  35) = (    0.25005704683   -0.00021959000    0.25003657727  )
        36           Ge  tau(  36) = (    0.31253305155    0.06244653462    0.31246909529  )
        37           Ge  tau(  37) = (    0.24985520218    0.00003776336    0.50012040689  )
        38           Ge  tau(  38) = (    0.31256106674    0.06255528922    0.56248474070  )
        39           Ge  tau(  39) = (    0.24992736984   -0.00009331222    0.75019743035  )
        40           Ge  tau(  40) = (    0.31263791094    0.06255844843    0.81233813576  )
        41           Ge  tau(  41) = (    0.25016849654    0.24992973355   -0.00003528139  )
        42           Ge  tau(  42) = (    0.31254673470    0.31245920438    0.06267346502  )
        43           Ge  tau(  43) = (    0.25002028643    0.24983127863    0.25004661380  )
        44           Ge  tau(  44) = (    0.31253291419    0.31267315815    0.31251876634  )
        45           Ge  tau(  45) = (    0.25001617925    0.24975815185    0.50005491486  )
        46           Ge  tau(  46) = (    0.31257438449    0.31225760556    0.56264369623  )
        47           Ge  tau(  47) = (    0.24980757288    0.25016538667    0.75002083043  )
        48           Ge  tau(  48) = (    0.31256831148    0.31249958592    0.81253198149  )
        49           Ge  tau(  49) = (    0.25026194425    0.49988072007   -0.00011052084  )
        50           Ge  tau(  50) = (    0.31238491397    0.56268863265    0.06238301630  )
        51           Ge  tau(  51) = (    0.25005706599    0.50008654842    0.24991726703  )
        52           Ge  tau(  52) = (    0.31253209150    0.56243415973    0.31246111660  )
        53           Ge  tau(  53) = (    0.25007468154    0.49973863109    0.50007497709  )
        54           Ge  tau(  54) = (    0.31265420514    0.56242778885    0.56240419678  )
        55           Ge  tau(  55) = (    0.24989982361    0.49987135816    0.74993998425  )
        56           Ge  tau(  56) = (    0.31256358578    0.56225684853    0.81259705539  )
        57           Ge  tau(  57) = (    0.25022962375    0.74986906527   -0.00005173206  )
        58           Ge  tau(  58) = (    0.31247000957    0.81253899671    0.06245627462  )
        59           Ge  tau(  59) = (    0.25001273137    0.74997625151    0.24980033692  )
        60           Ge  tau(  60) = (    0.31253008597    0.81256424446    0.31257329326  )
        61           Ge  tau(  61) = (    0.25017761514    0.74989238676    0.49999016665  )
        62           Ge  tau(  62) = (    0.31257942639    0.81238755577    0.56263196632  )
        63           Ge  tau(  63) = (    0.24992464478    0.75007306060    0.75011203744  )
        64           Ge  tau(  64) = (    0.31248810029    0.81260981606    0.81257252224  )
        65           Ge  tau(  65) = (    0.49980717650    0.00002775605    0.00006548106  )
        66           Ge  tau(  66) = (    0.56233910021    0.06263334503    0.06245959675  )
        67           Ge  tau(  67) = (    0.50008962364    0.00013470920    0.25006386772  )
        68           Ge  tau(  68) = (    0.56237875203    0.06244418806    0.31244576405  )
        69           Ge  tau(  69) = (    0.50009461868    0.00001345327    0.49991510161  )
        70           Ge  tau(  70) = (    0.56246089874    0.06260491671    0.56232474369  )
        71           Ge  tau(  71) = (    0.50002618525    0.00008780679    0.75001778065  )
        72           Ge  tau(  72) = (    0.56246595634    0.06260003116    0.81257588968  )
        73           Ge  tau(  73) = (    0.49989751359    0.24991216580    0.00013035884  )
        74           Ge  tau(  74) = (    0.56260651722    0.31249945778    0.06226735945  )
        75           Ge  tau(  75) = (    0.49966438871    0.25010895706    0.25010891723  )
        76           Ge  tau(  76) = (    0.56251891235    0.31257445708    0.31256980832  )
        77           Ge  tau(  77) = (    0.49995565250    0.24989154346    0.49991631307  )
        78           Ge  tau(  78) = (    0.56252583446    0.31249115598    0.56233481995  )
        79           Ge  tau(  79) = (    0.50009684821    0.24999411982    0.74978114723  )
        80           Ge  tau(  80) = (    0.56252431808    0.31226260052    0.81265636183  )
        81           Ge  tau(  81) = (    0.49999053514    0.50011251821   -0.00014920798  )
        82           Ge  tau(  82) = (    0.56238658791    0.56263052568    0.06257653297  )
        83           Ge  tau(  83) = (    0.50003475267    0.50003268072    0.25019762292  )
        84           Ge  tau(  84) = (    0.56267097493    0.56244529138    0.31244165184  )
        85           Ge  tau(  85) = (    0.50004389007    0.49987210545    0.50002465327  )
        86           Ge  tau(  86) = (    0.56244019110    0.56268857297    0.56237986242  )
        87           Ge  tau(  87) = (    0.50015696033    0.49987941270    0.74989153635  )
        88           Ge  tau(  88) = (    0.56251672512    0.56242308394    0.81268952298  )
        89           Ge  tau(  89) = (    0.49987463334    0.75007637055    0.00005500214  )
        90           Ge  tau(  90) = (    0.56247612249    0.81231846461    0.06272230525  )
        91           Ge  tau(  91) = (    0.50004667877    0.74977206525    0.25010826544  )
        92           Ge  tau(  92) = (    0.56229177752    0.81253676216    0.31262950219  )
        93           Ge  tau(  93) = (    0.50005704421    0.74972269001    0.50012943698  )
        94           Ge  tau(  94) = (    0.56250415930    0.81243814460    0.56236367045  )
        95           Ge  tau(  95) = (    0.49998817746    0.74992714280    0.74990019516  )
        96           Ge  tau(  96) = (    0.56270487023    0.81250277738    0.81239563171  )
        97           Ge  tau(  97) = (    0.75007473526    0.00005558853   -0.00026889367  )
        98           Ge  tau(  98) = (    0.81254745817    0.06242564522    0.06251936186  )
        99           Ge  tau(  99) = (    0.75004178210   -0.00024607665    0.25017822548  )
       100           Ge  tau( 100) = (    0.81268463004    0.06238282900    0.31245610345  )
       101           Ge  tau( 101) = (    0.75010100766    0.00000703259    0.50004979534  )
       102           Ge  tau( 102) = (    0.81247778255    0.06251135703    0.56256589776  )
       103           Ge  tau( 103) = (    0.74997257725   -0.00004466874    0.74983124750  )
       104           Ge  tau( 104) = (    0.81228765243    0.06250712803    0.81259464441  )
       105           Ge  tau( 105) = (    0.75014731091    0.24974247012    0.00007315375  )
       106           Ge  tau( 106) = (    0.81263343405    0.31252348733    0.06226788142  )
       107           Ge  tau( 107) = (    0.75007966566    0.25007716651    0.24983898813  )
       108           Ge  tau( 108) = (    0.81245398598    0.31239882441    0.31271680297  )
       109           Ge  tau( 109) = (    0.74987511713    0.25021880763    0.49990056101  )
       110           Ge  tau( 110) = (    0.81266172410    0.31242328332    0.56245366534  )
       111           Ge  tau( 111) = (    0.75005240739    0.25001447100    0.75015156215  )
       112           Ge  tau( 112) = (    0.81259678003    0.31262397325    0.81255940931  )
       113           Ge  tau( 113) = (    0.75017320079    0.49980062454    0.00001144821  )
       114           Ge  tau( 114) = (    0.81247344944    0.56245782360    0.06231779608  )
       115           Ge  tau( 115) = (    0.74996189752    0.50016931311    0.24986119581  )
       116           Ge  tau( 116) = (    0.81260077000    0.56253841543    0.31239609676  )
       117           Ge  tau( 117) = (    0.74993580844    0.50012288840    0.49995667086  )
       118           Ge  tau( 118) = (    0.81245475817    0.56242556194    0.56259204371  )
       119           Ge  tau( 119) = (    0.75024238710    0.49987074320    0.74994798740  )
       120           Ge  tau( 120) = (    0.81219508940    0.56262103797    0.81259293529  )
       121           Ge  tau( 121) = (    0.74986914456    0.75004717256    0.00005765206  )
       122           Ge  tau( 122) = (    0.81253357829    0.81242245522    0.06246820042  )
       123           Ge  tau( 123) = (    0.75007351347    0.75011554876    0.24993751956  )
       124           Ge  tau( 124) = (    0.81249934241    0.81265302645    0.31256189859  )
       125           Ge  tau( 125) = (    0.74990552704    0.75014036593    0.50005534556  )
       126           Ge  tau( 126) = (    0.81243211493    0.81241767908    0.56260457883  )
       127           Ge  tau( 127) = (    0.74995733762    0.74984940717    0.75004892549  )
       128           Ge  tau( 128) = (    0.81243861459    0.81244073376    0.81268911560  )

     number of k points=     8  gaussian smearing, width (Ry)=  0.0150
                       cart. coord. in units 2pi/alat
        k(    1) = (   0.0000000   0.0000000   0.0000000), wk =   0.2500000
        k(    2) = (  -0.3535534  -0.3535534   0.3535534), wk =   0.2500000
        k(    3) = (  -0.7071068   0.0000000   0.0000000), wk =   0.2500000
        k(    4) = (   0.3535534   0.3535534   0.3535534), wk =   0.2500000
        k(    5) = (   0.3535534  -0.3535534  -0.3535534), wk =   0.2500000
        k(    6) = (  -0.3535534   0.3535534  -0.3535534), wk =   0.2500000
        k(    7) = (   0.0000000  -0.7071068   0.0000000), wk =   0.2500000
        k(    8) = (   0.0000000   0.0000000  -0.7071068), wk =   0.2500000

                       cryst. coord.
        k(    1) = (   0.0000000   0.0000000   0.0000000), wk =   0.2500000
        k(    2) = (   0.0000000   0.0000000  -0.5000000), wk =   0.2500000
        k(    3) = (   0.0000000  -0.5000000  -0.5000000), wk =   0.2500000
        k(    4) = (   0.5000000   0.5000000   0.5000000), wk =   0.2500000
        k(    5) = (  -0.5000000   0.0000000   0.0000000), wk =   0.2500000
        k(    6) = (   0.0000000  -0.5000000   0.0000000), wk =   0.2500000
        k(    7) = (  -0.5000000   0.0000000  -0.5000000), wk =   0.2500000
        k(    8) = (  -0.5000000  -0.5000000   0.0000000), wk =   0.2500000

     Dense  grid:   941961 G-vectors     FFT dimensions: ( 144, 144, 144)

     Smooth grid:   551433 G-vectors     FFT dimensions: ( 120, 120, 120)

     Largest allocated arrays     est. size (Mb)     dimensions
        Kohn-Sham Wavefunctions        70.96 Mb     (    4326, 1075)
        NL pseudopotentials           152.09 Mb     (    4326, 2304)
        Each V/rho on FFT grid          2.85 Mb     (  186624)
        Each G-vector array             0.45 Mb     (   58872)
        G-vector shells                 0.02 Mb     (    3076)
     Largest temporary arrays     est. size (Mb)     dimensions
        Auxiliary wavefunctions       283.84 Mb     (    4326, 4300)
        Each subspace H/S matrix      282.14 Mb     (    4300, 4300)
        Each <psi_i|beta_j> matrix     37.79 Mb     (    2304, 1075)
        Arrays for rho mixing          22.78 Mb     (  186624,    8)

     Check: negative/imaginary core charge=   -0.000001    0.000000

     Initial potential from superposition of free atoms

     starting charge 1791.89656, renormalised to 1792.00000
     Starting wfc are 1152 randomized atomic wfcs

     total cpu time spent up to now is     1193.7 secs

     per-process dynamical memory:   847.4 Mb

     Self-consistent Calculation

     iteration #  1     ecut=    35.00 Ry     beta=0.30
     Davidson diagonalization with overlap
     ethr =  1.00E-02,  avg # of iterations =  4.9

     Threshold (ethr) on eigenvalues was too large:
     Diagonalizing with lowered threshold

     Davidson diagonalization with overlap
     ethr =  1.11E-04,  avg # of iterations =  7.1

     total cpu time spent up to now is    17804.1 secs

     total energy              =  -27288.26948664 Ry
     Harris-Foulkes estimate   =  -27288.48488613 Ry
     estimated scf accuracy    <       2.12566206 Ry

     iteration #  2     ecut=    35.00 Ry     beta=0.30
     Davidson diagonalization with overlap
     ethr =  1.19E-04,  avg # of iterations =  1.0

     total cpu time spent up to now is    21446.5 secs

     total energy              =  -27287.87315783 Ry
     Harris-Foulkes estimate   =  -27288.27673438 Ry
     estimated scf accuracy    <       1.30442507 Ry

     iteration #  3     ecut=    35.00 Ry     beta=0.30
     Davidson diagonalization with overlap
     ethr =  7.28E-05,  avg # of iterations =  2.0

     total cpu time spent up to now is    25713.5 secs

     total energy              =  -27287.93967897 Ry
     Harris-Foulkes estimate   =  -27287.94275576 Ry
     estimated scf accuracy    <       0.02357031 Ry

     iteration #  4     ecut=    35.00 Ry     beta=0.30
     Davidson diagonalization with overlap
     ethr =  1.32E-06,  avg # of iterations =  4.9

     total cpu time spent up to now is    37821.3 secs

     total energy              =  -27287.94421958 Ry
     Harris-Foulkes estimate   =  -27287.94446537 Ry
     estimated scf accuracy    <       0.00253299 Ry

     iteration #  5     ecut=    35.00 Ry     beta=0.30
     Davidson diagonalization with overlap
     ethr =  1.41E-07,  avg # of iterations =  2.0

     total cpu time spent up to now is    42792.0 secs

     total energy              =  -27287.94423669 Ry
     Harris-Foulkes estimate   =  -27287.94443705 Ry
     estimated scf accuracy    <       0.00053186 Ry

     iteration #  6     ecut=    35.00 Ry     beta=0.30
     Davidson diagonalization with overlap
     ethr =  2.97E-08,  avg # of iterations =  1.0

     total cpu time spent up to now is    46443.5 secs

     total energy              =  -27287.94426704 Ry
     Harris-Foulkes estimate   =  -27287.94424850 Ry
     estimated scf accuracy    <       0.00001777 Ry

     iteration #  7     ecut=    35.00 Ry     beta=0.30
     Davidson diagonalization with overlap
     ethr =  9.92E-10,  avg # of iterations =  2.5

     total cpu time spent up to now is    53654.4 secs

     total energy              =  -27287.94427302 Ry
     Harris-Foulkes estimate   =  -27287.94427191 Ry
     estimated scf accuracy    <       0.00001613 Ry

     iteration #  8     ecut=    35.00 Ry     beta=0.30
     Davidson diagonalization with overlap
     ethr =  9.00E-10,  avg # of iterations =  2.0

     total cpu time spent up to now is    58643.3 secs

     total energy              =  -27287.94427707 Ry
     Harris-Foulkes estimate   =  -27287.94427426 Ry
     estimated scf accuracy    <       0.00000008 Ry

     iteration #  9     ecut=    35.00 Ry     beta=0.30
     Davidson diagonalization with overlap
     ethr =  4.24E-12,  avg # of iterations =  3.0

     total cpu time spent up to now is    66981.8 secs

     total energy              =  -27287.94427848 Ry
     Harris-Foulkes estimate   =  -27287.94427711 Ry
     estimated scf accuracy    <       0.00000001 Ry

     iteration # 10     ecut=    35.00 Ry     beta=0.30
     Davidson diagonalization with overlap
     ethr =  6.50E-13,  avg # of iterations =  2.0

     total cpu time spent up to now is    71488.2 secs

     total energy              =  -27287.94427915 Ry
     Harris-Foulkes estimate   =  -27287.94427848 Ry
     estimated scf accuracy    <          6.3E-09 Ry

     iteration # 11     ecut=    35.00 Ry     beta=0.30
     Davidson diagonalization with overlap
     ethr =  3.53E-13,  avg # of iterations =  2.0

     total cpu time spent up to now is    77905.1 secs

     total energy              =  -27287.94427950 Ry
     Harris-Foulkes estimate   =  -27287.94427915 Ry
     estimated scf accuracy    <          5.0E-09 Ry

     iteration # 12     ecut=    35.00 Ry     beta=0.30
     Davidson diagonalization with overlap
     ethr =  2.77E-13,  avg # of iterations =  2.0

     total cpu time spent up to now is    82507.5 secs

     End of self-consistent calculation

          k = 0.0000 0.0000 0.0000 ( 69041 PWs)   bands (ev):

   -16.6391 -16.6390 -16.6388 -16.6387 -16.6385 -16.6385 -16.6383 -16.6381
   -16.6380 -16.6378 -16.6378 -16.6377 -16.6375 -16.6373 -16.6372 -16.6370
   -16.6369 -16.6369 -16.6366 -16.6366 -16.6365 -16.6364 -16.6363 -16.6362
   -16.6361 -16.6361 -16.6360 -16.6358 -16.6357 -16.6356 -16.6356 -16.6354
   -16.6352 -16.6350 -16.6349 -16.6347 -16.6332 -16.6328 -16.6327 -16.6325
   -16.6324 -16.6324 -16.6321 -16.6320 -16.6319 -16.6318 -16.6315 -16.6313
   -16.6262 -16.6256 -16.6254 -16.6253 -16.6249 -16.6247 -16.6246 -16.6245
   -16.6244 -16.6242 -16.6241 -16.6240 -16.6239 -16.6238 -16.6237 -16.6236
   -16.6236 -16.6234 -16.6234 -16.6233 -16.6232 -16.6231 -16.6230 -16.6229
   -16.6227 -16.6227 -16.6226 -16.6225 -16.6224 -16.6224 -16.6223 -16.6223
   -16.6221 -16.6221 -16.6220 -16.6220 -16.6218 -16.6216 -16.6215 -16.6213
   -16.6212 -16.6210 -16.6178 -16.6174 -16.6171 -16.6168 -16.6167 -16.6165
   -16.6162 -16.6161 -16.6114 -16.6110 -16.6109 -16.6106 -16.6106 -16.6104
   -16.6103 -16.6101 -16.6100 -16.6099 -16.6098 -16.6097 -16.6097 -16.6095
   -16.6095 -16.6094 -16.6092 -16.6091 -16.6090 -16.6089 -16.6089 -16.6087
   -16.6086 -16.6086 -16.6084 -16.6083 -16.6081 -16.6079 -16.5981 -16.5980
   -16.5979 -16.5978 -16.5976 -16.5976 -16.5904 -16.5903 -16.5902 -16.5836
   -16.5835 -16.5833 -16.5833 -16.5831 -16.5830 -16.5828 -16.5827 -16.5730
   -16.5729 -16.5726 -16.5723 -16.5571 -16.5570 -16.5553 -16.5552 -16.5551
   -16.5550 -16.5550 -16.5548 -16.5547 -16.5547 -16.5547 -16.5546 -16.5545
   -16.5544 -16.5543 -16.5543 -16.5542 -16.5542 -16.5541 -16.5541 -16.5540
   -16.5538 -16.5537 -16.5537 -16.5537 -16.5534 -16.5496 -16.5493 -16.5492
   -16.5491 -16.5491 -16.5490 -16.5487 -16.5487 -16.5486 -16.5484 -16.5483
   -16.5482 -16.5409 -16.5407 -16.5407 -16.5406 -16.5406 -16.5403 -16.5297
   -16.5297 -16.5295 -16.5295 -16.5294 -16.5293 -16.5291 -16.5290 -16.5290
   -16.5290 -16.5286 -16.5286 -16.5285 -16.5284 -16.5281 -16.5281 -16.5252
   -16.5249 -16.5247 -16.5244 -16.5241 -16.5240 -16.5160 -16.5160 -16.5154
   -16.5153 -16.5148 -16.5148 -16.5147 -16.5145 -16.5145 -16.5145 -16.5142
   -16.5139 -16.5138 -16.5135 -16.5135 -16.5132 -16.5131 -16.5130 -16.5129
   -16.5125 -16.5012 -16.5010 -16.5009 -16.5009 -16.5008 -16.5007 -16.5006
   -16.5005 -16.5004 -16.5003 -16.5002 -16.5001 -16.4909 -16.4907 -16.4906
   -16.4906 -16.4905 -16.4903 -16.4903 -16.4902 -16.4901 -16.4900 -16.4900
   -16.4899 -16.4899 -16.4898 -16.4898 -16.4897 -16.4896 -16.4895 -16.4894
   -16.4894 -16.4892 -16.4891 -16.4890 -16.4889 -16.4889 -16.4888 -16.4887
   -16.4886 -16.4885 -16.4885 -16.4871 -16.4868 -16.4866 -16.4863 -16.4862
   -16.4860 -16.4860 -16.4857 -16.4856 -16.4856 -16.4854 -16.4852 -16.4711
   -16.4711 -16.4710 -16.4710 -16.4709 -16.4709 -16.4708 -16.4708 -16.4708
   -16.4707 -16.4707 -16.4706 -16.4705 -16.4704 -16.4704 -16.4703 -16.4702
   -16.4702 -16.4701 -16.4701 -16.4700 -16.4700 -16.4699 -16.4699 -16.4531
   -16.4530 -16.4528 -16.4528 -16.4527 -16.4526 -16.4526 -16.4525 -16.4525
   -16.4524 -16.4524 -16.4524 -16.4524 -16.4523 -16.4522 -16.4522 -16.4522
   -16.4521 -16.4521 -16.4520 -16.4520 -16.4520 -16.4519 -16.4519 -16.4518
   -16.4518 -16.4517 -16.4516 -16.4516 -16.4515 -16.4515 -16.4514 -16.4514
   -16.4514 -16.4513 -16.4513 -16.4458 -16.4457 -16.4455 -16.4454 -16.4450
   -16.4449 -16.4360 -16.4360 -16.4359 -16.4359 -16.4359 -16.4358 -16.4204
   -16.4204 -16.4202 -16.4201 -16.4201 -16.4200 -16.4199 -16.4199 -16.4198
   -16.4197 -16.4196 -16.4195 -16.4178 -16.4177 -16.4175 -16.4173 -16.4172
   -16.4171 -16.4170 -16.4168 -16.4168 -16.4167 -16.4165 -16.4163 -16.4057
   -16.4056 -16.4055 -16.4055 -16.4054 -16.4054 -16.4054 -16.4053 -16.4052
   -16.4051 -16.4050 -16.4050 -16.4049 -16.4048 -16.4048 -16.4047 -16.4047
   -16.4046 -16.4045 -16.4044 -16.4043 -16.4042 -16.4041 -16.4040 -16.3987
   -16.3986 -16.3985 -16.3984 -16.3983 -16.3983 -16.3982 -16.3981 -16.3981
   -16.3980 -16.3979 -16.3979 -16.3892 -16.3891 -16.3890 -16.3889 -16.3887
   -16.3885 -16.3855 -16.3853 -16.3852 -16.3852 -16.3850 -16.3850 -16.3849
   -16.3847 -16.3847 -16.3846 -16.3845 -16.3844 -16.3843 -16.3842 -16.3842
   -16.3841 -16.3840 -16.3840 -16.3839 -16.3835 -16.3762 -16.3760 -16.3760
   -16.3759 -16.3758 -16.3758 -16.3758 -16.3757 -16.3757 -16.3757 -16.3756
   -16.3756 -16.3755 -16.3755 -16.3754 -16.3754 -16.3754 -16.3753 -16.3753
   -16.3752 -16.3752 -16.3751 -16.3750 -16.3750 -16.3749 -16.3749 -16.3748
   -16.3748 -16.3747 -16.3747 -16.3746 -16.3746 -16.3745 -16.3745 -16.3744
   -16.3743 -16.3743 -16.3742 -16.3742 -16.3737 -16.3714 -16.3712 -16.3712
   -16.3710 -16.3690 -16.3688 -16.3685 -16.3684 -16.3683 -16.3681 -16.3606
   -16.3606 -16.3606 -16.3605 -16.3604 -16.3603 -16.3603 -16.3602 -16.3501
   -16.3500 -16.3500 -16.3375 -16.3375 -16.3262 -16.3261 -16.3260 -16.3259
   -16.3259 -16.3258 -16.3245 -16.3244 -16.3243 -16.3242 -16.3240 -16.3239
   -16.3239 -16.3238 -16.3237 -16.3236 -16.3235 -16.3234 -16.3183 -16.3182
   -16.3181 -16.3181 -16.3180 -16.3179 -16.3179 -16.3178 -16.3178 -16.3177
   -16.3177 -16.3176 -16.3176 -16.3175 -16.3174 -16.3174 -16.3122 -16.3120
   -16.3118 -16.3117 -16.3116 -16.3115 -16.3113 -16.3112 -16.3049 -16.3047
   -16.3046 -16.3046 -16.3045 -16.3045 -16.3044 -16.3044 -16.3044 -16.3043
   -16.3042 -16.3041 -16.3041 -16.3040 -16.3039 -16.3038 -16.3038 -16.3037
   -16.3036 -16.3035 -16.3035 -16.3034 -16.3032 -16.3031 -16.3008 -16.3007
   -16.3006 -16.3006 -16.3005 -16.3004 -16.3004 -16.3003 -16.3002 -16.3001
   -16.3001 -16.2999 -16.2987 -16.2985 -16.2984 -16.2983 -16.2983 -16.2981
   -16.2970 -16.2969 -16.2969 -16.2968 -16.2967 -16.2966 -16.2965 -16.2965
   -16.2964 -16.2963 -16.2962 -16.2961 -16.2907 -16.2906 -16.2906 -16.2905
   -16.2905 -16.2904 -16.2903 -16.2902 -16.2902 -16.2901 -16.2901 -16.2901
   -16.2899 -16.2899 -16.2898 -16.2897 -16.2896 -16.2895 -16.2895 -16.2893
   -16.2893 -16.2892 -16.2889 -16.2889 -16.2868 -16.2866 -16.2866 -16.2866
   -16.2865 -16.2865 -16.2863 -16.2863 -16.2862 -16.2861 -16.2860 -16.2859
    -4.5049  -3.7693  -3.7686  -3.7684  -3.7676  -3.7663  -3.7656  -3.7648
    -3.7639  -3.5031  -3.5027  -3.5004  -3.4997  -3.4981  -3.4975  -2.6356
    -2.6350  -2.6330  -2.6322  -2.6319  -2.6304  -2.6301  -2.6292  -2.6283
    -2.6275  -2.6260  -2.6250  -2.4304  -2.4281  -2.4252  -2.4248  -2.0257
    -2.0255  -2.0250  -2.0237  -2.0233  -2.0230  -2.0225  -2.0216  -2.0212
    -2.0202  -2.0197  -2.0195  -2.0190  -2.0188  -2.0178  -2.0175  -2.0170
    -2.0165  -2.0160  -2.0159  -2.0147  -2.0137  -2.0131  -2.0115  -0.6477
    -0.6434  -0.6423  -0.6415  -0.6407  -0.6389  -0.5500  -0.5489  -0.5476
    -0.5464  -0.5461  -0.5454  -0.5451  -0.5434  -0.5427  -0.5420  -0.5415
    -0.5399   0.6364   0.6380   0.6396   0.6415   0.8436   0.8445   0.8455
     0.8466   0.8470   0.8476   0.8480   0.8487   0.8495   0.8499   0.8500
     0.8504   0.8506   0.8514   0.8516   0.8524   0.8533   0.8534   0.8542
     0.8548   0.8557   0.8562   0.8572   0.8578   1.6971   1.6977   1.6993
     1.6995   1.7008   1.7015   1.7024   1.7029   1.7038   1.7043   1.7051
     1.7056   3.4937   3.4941   3.4947   3.4963   3.4970   3.4975   3.4982
     3.4990   3.4999   3.5003   3.5007   3.5017   3.5025   3.5028   4.3276
     4.3278   4.3285   4.3290   4.3293   4.3299   4.3301   4.3307   4.3308
     4.3311   4.3316   4.3323   4.3638   4.3643   4.3646   4.3649   4.3654
     4.3663   4.3669   4.3676   4.3680   4.3684   4.3689   4.3695   4.5013
     4.5017   4.5023   4.5031   4.5036   4.5038   4.5042   4.5047   4.5048
     4.5050   4.5052   4.5054   4.5059   4.5060   4.5065   4.5070   4.5074
     4.5076   4.5078   4.5080   4.5083   4.5087   4.5097   4.5106   5.1674
     5.1687   5.1691   5.1693   5.1700   5.1707   5.8337   5.8341   5.8346
     5.8353   5.8357   5.8359   5.8363   5.8368   5.8368   5.8374   5.8375
     5.8377   5.8384   5.8386   5.8391   5.8396   5.8397   5.8402   5.8404
     5.8406   5.8409   5.8411   5.8418   5.8426   6.1961   6.1975   6.1984
     6.1987   6.1994   6.2001   6.2003   6.2014   6.2021   6.2033   6.2036
     6.2040   6.7266   6.7278   6.7294   6.7295   6.7305   6.7307   6.7316
     6.7318   6.7335   6.7345   6.7348   6.7358   6.8266   6.8300   6.8307
     6.8309   6.8334   6.8335   6.8343   6.8356   7.3448   7.3459   7.3464
     7.3468   7.3485   7.3487   7.3492   7.3502   7.3510   7.3516   7.3520
     7.3522   7.3527   7.3533   7.3542   7.3548   8.1357   8.2244   8.2269
     8.2285   8.3185   8.3194   8.3197   8.3208   8.8110   8.8125   8.8127
     8.8135   8.8143   8.8143   8.8147   8.8153   8.8965   8.8974   8.8991
     8.9000   8.9026   8.9032   9.1727   9.1733   9.1746   9.1752   9.1759
     9.1774   9.5611   9.5620   9.5628   9.5635   9.5639   9.5646   9.5648
     9.5654   9.5655   9.5661   9.5666   9.5668   9.5671   9.5674   9.5674
     9.5682   9.5688   9.5691   9.5696   9.5706   9.5712   9.5718   9.5721
     9.5734  10.1164  10.1177  10.1184  10.1190  10.1192  10.1201  10.1203
    10.1206  10.1216  10.1225  10.1231  10.1241  10.7500  10.7513  10.7532
    10.8870  10.8877  10.8885  10.8896  10.8903  10.8908  11.8164  11.8167
    11.8179  11.8183  11.8187  11.8195  11.8203  11.8213  11.8218  11.8221
    11.8228  11.8231  11.8236  11.8242  11.8250  11.8259  11.9220  11.9225
    11.9244  11.9257  11.9265  11.9280  11.9284  11.9310  12.3688  12.3690
    12.3693  12.3699  12.3703  12.3706  12.3708  12.3716  12.3719  12.3726
    12.3727  12.3731  12.3732  12.3739  12.3744  12.3746  12.3755  12.3759
    12.3766  12.3770  12.3771  12.3783  12.3787  12.3793  12.4731  12.4739
    12.4748  12.4757  12.4764  12.4766  12.4768  12.4777  12.4782  12.4790
    12.4794  12.4804  12.8512  12.8517  12.8527  12.8531  12.8538  12.8544
    12.8550  12.8551  12.8554  12.8569  12.8571  12.8581  12.9693  12.9707
    12.9716  12.9720  12.9733  12.9738  12.9749  12.9751  12.9768  12.9772
    12.9781  12.9786  13.2467  13.2478  13.2488  13.2489  13.2495  13.2499
    13.2506  13.2510  13.2518  13.2529  13.2539  13.2546  13.4306  13.4309
    13.4317  13.4321  13.4325  13.4329  13.4335  13.4348  13.4351  13.4363
    13.4366  13.4369  13.5665

     occupation numbers 
     1.0000   1.0000   1.0000   1.0000   1.0000   1.0000   1.0000   1.0000
     1.0000   1.0000   1.0000   1.0000   1.0000   1.0000   1.0000   1.0000
     1.0000   1.0000   1.0000   1.0000   1.0000   1.0000   1.0000   1.0000
     1.0000   1.0000   1.0000   1.0000   1.0000   1.0000   1.0000   1.0000
     1.0000   1.0000   1.0000   1.0000   1.0000   1.0000   1.0000   1.0000
     1.0000   1.0000   1.0000   1.0000   1.0000   1.0000   1.0000   1.0000
     1.0000   1.0000   1.0000   1.0000   1.0000   1.0000   1.0000   1.0000
     1.0000   1.0000   1.0000   1.0000   1.0000   1.0000   1.0000   1.0000
     1.0000   1.0000   1.0000   1.0000   1.0000   1.0000   1.0000   1.0000
     1.0000   1.0000   1.0000   1.0000   1.0000   1.0000   1.0000   1.0000
     1.0000   1.0000   1.0000   1.0000   1.0000   1.0000   1.0000   1.0000
     1.0000   1.0000   1.0000   1.0000   1.0000   1.0000   1.0000   1.0000
     1.0000   1.0000   1.0000   1.0000   1.0000   1.0000   1.0000   1.0000
     1.0000   1.0000   1.0000   1.0000   1.0000   1.0000   1.0000   1.0000
     1.0000   1.0000   1.0000   1.0000   1.0000   1.0000   1.0000   1.0000
     1.0000   1.0000   1.0000   1.0000   1.0000   1.0000   1.0000   1.0000
     1.0000   1.0000   1.0000   1.0000   1.0000   1.0000   1.0000   1.0000
     1.0000   1.0000   1.0000   1.0000   1.0000   1.0000   1.0000   1.0000
     1.0000   1.0000   1.0000   1.0000   1.0000   1.0000   1.0000   1.0000
     1.0000   1.0000   1.0000   1.0000   1.0000   1.0000   1.0000   1.0000
     1.0000   1.0000   1.0000   1.0000   1.0000   1.0000   1.0000   1.0000
     1.0000   1.0000   1.0000   1.0000   1.0000   1.0000   1.0000   1.0000
     1.0000   1.0000   1.0000   1.0000   1.0000   1.0000   1.0000   1.0000
     1.0000   1.0000   1.0000   1.0000   1.0000   1.0000   1.0000   1.0000
     1.0000   1.0000   1.0000   1.0000   1.0000   1.0000   1.0000   1.0000
     1.0000   1.0000   1.0000   1.0000   1.0000   1.0000   1.0000   1.0000
     1.0000   1.0000   1.0000   1.0000   1.0000   1.0000   1.0000   1.0000
     1.0000   1.0000   1.0000   1.0000   1.0000   1.0000   1.0000   1.0000
     1.0000   1.0000   1.0000   1.0000   1.0000   1.0000   1.0000   1.0000
     1.0000   1.0000   1.0000   1.0000   1.0000   1.0000   1.0000   1.0000
     1.0000   1.0000   1.0000   1.0000   1.0000   1.0000   1.0000   1.0000
     1.0000   1.0000   1.0000   1.0000   1.0000   1.0000   1.0000   1.0000
     1.0000   1.0000   1.0000   1.0000   1.0000   1.0000   1.0000   1.0000
     1.0000   1.0000   1.0000   1.0000   1.0000   1.0000   1.0000   1.0000
     1.0000   1.0000   1.0000   1.0000   1.0000   1.0000   1.0000   1.0000
     1.0000   1.0000   1.0000   1.0000   1.0000   1.0000   1.0000   1.0000
     1.0000   1.0000   1.0000   1.0000   1.0000   1.0000   1.0000   1.0000
     1.0000   1.0000   1.0000   1.0000   1.0000   1.0000   1.0000   1.0000
     1.0000   1.0000   1.0000   1.0000   1.0000   1.0000   1.0000   1.0000
     1.0000   1.0000   1.0000   1.0000   1.0000   1.0000   1.0000   1.0000
     1.0000   1.0000   1.0000   1.0000   1.0000   1.0000   1.0000   1.0000
     1.0000   1.0000   1.0000   1.0000   1.0000   1.0000   1.0000   1.0000
     1.0000   1.0000   1.0000   1.0000   1.0000   1.0000   1.0000   1.0000
     1.0000   1.0000   1.0000   1.0000   1.0000   1.0000   1.0000   1.0000
     1.0000   1.0000   1.0000   1.0000   1.0000   1.0000   1.0000   1.0000
     1.0000   1.0000   1.0000   1.0000   1.0000   1.0000   1.0000   1.0000
     1.0000   1.0000   1.0000   1.0000   1.0000   1.0000   1.0000   1.0000
     1.0000   1.0000   1.0000   1.0000   1.0000   1.0000   1.0000   1.0000
     1.0000   1.0000   1.0000   1.0000   1.0000   1.0000   1.0000   1.0000
     1.0000   1.0000   1.0000   1.0000   1.0000   1.0000   1.0000   1.0000
     1.0000   1.0000   1.0000   1.0000   1.0000   1.0000   1.0000   1.0000
     1.0000   1.0000   1.0000   1.0000   1.0000   1.0000   1.0000   1.0000
     1.0000   1.0000   1.0000   1.0000   1.0000   1.0000   1.0000   1.0000
     1.0000   1.0000   1.0000   1.0000   1.0000   1.0000   1.0000   1.0000
     1.0000   1.0000   1.0000   1.0000   1.0000   1.0000   1.0000   1.0000
     1.0000   1.0000   1.0000   1.0000   1.0000   1.0000   1.0000   1.0000
     1.0000   1.0000   1.0000   1.0000   1.0000   1.0000   1.0000   1.0000
     1.0000   1.0000   1.0000   1.0000   1.0000   1.0000   1.0000   1.0000
     1.0000   1.0000   1.0000   1.0000   1.0000   1.0000   1.0000   1.0000
     1.0000   1.0000   1.0000   1.0000   1.0000   1.0000   1.0000   1.0000
     1.0000   1.0000   1.0000   1.0000   1.0000   1.0000   1.0000   1.0000
     1.0000   1.0000   1.0000   1.0000   1.0000   1.0000   1.0000   1.0000
     1.0000   1.0000   1.0000   1.0000   1.0000   1.0000   1.0000   1.0000
     1.0000   1.0000   1.0000   1.0000   1.0000   1.0000   1.0000   1.0000
     1.0000   1.0000   1.0000   1.0000   1.0000   1.0000   1.0000   1.0000
     1.0000   1.0000   1.0000   1.0000   1.0000   1.0000   1.0000   1.0000
     1.0000   1.0000   1.0000   1.0000   1.0000   1.0000   1.0000   1.0000
     1.0000   1.0000   1.0000   1.0000   1.0000   1.0000   1.0000   1.0000
     1.0000   1.0000   1.0000   1.0000   1.0000   1.0000   1.0000   1.0000
     1.0000   1.0000   1.0000   1.0000   1.0000   1.0000   1.0000   1.0000
     1.0000   1.0000   1.0000   1.0000   1.0000   1.0000   1.0000   1.0000
     1.0000   1.0000   1.0000   1.0000   1.0000   1.0000   1.0000   1.0000
     1.0000   1.0000   1.0000   1.0000   1.0000   1.0000   1.0000   1.0000
     1.0000   1.0000   1.0000   1.0000   1.0000   1.0000   1.0000   1.0000
     1.0000   1.0000   1.0000   1.0000   1.0000   1.0000   1.0000   1.0000
     1.0000   1.0000   1.0000   1.0000   1.0000   1.0000   1.0000   1.0000
     1.0000   1.0000   1.0000   1.0000   1.0000   1.0000   1.0000   1.0000
     1.0000   1.0000   1.0000   1.0000   1.0000   1.0000   1.0000   1.0000
     1.0000   1.0000   1.0000   1.0000   1.0000   1.0000   1.0000   1.0000
     1.0000   1.0000   1.0000   1.0000   1.0000   1.0000   1.0000   1.0000
     1.0000   1.0000   1.0000   1.0000   1.0000   1.0000   1.0000   1.0000
     1.0000   1.0000   1.0000   1.0000   1.0000   1.0000   1.0000   1.0000
     1.0000   1.0000   1.0000   1.0000   1.0000   1.0000   1.0000   1.0000
     1.0000   1.0000   1.0000   1.0000   1.0000   1.0000   1.0000   1.0000
     1.0000   1.0000   1.0000   1.0000   1.0000   1.0000   1.0000   1.0000
     1.0000   1.0000   1.0000   1.0000   1.0000   1.0000   1.0000   1.0000
     1.0000   1.0000   1.0000   1.0000   1.0000   1.0000   1.0000   1.0000
     1.0000   1.0000   1.0000   1.0000   1.0000   1.0000   1.0000   1.0000
     1.0000   1.0000   1.0000   1.0000   1.0000   1.0000   1.0000   1.0000
     1.0000   1.0000   1.0000   1.0000   1.0000   1.0000   1.0000   1.0000
     1.0000   1.0000   1.0000   1.0000   1.0000   1.0000   1.0000   1.0000
     1.0000   1.0000   1.0000   1.0000   1.0000   1.0000   1.0000   1.0000
     1.0000   1.0000   1.0000   1.0000   1.0000   1.0000   1.0000   1.0000
     1.0000   1.0000   1.0000   1.0000   1.0000   1.0000   1.0000   1.0000
     1.0000   1.0000   1.0000   1.0000   1.0000   1.0000   1.0000   1.0000
     1.0000   1.0000   1.0000   1.0000   1.0000   1.0000   1.0000   1.0000
     1.0000   1.0000   1.0000   1.0000   1.0000   1.0000   1.0000   1.0000
     1.0000   1.0000   1.0000   1.0000   1.0000   1.0000   1.0000   1.0000
     1.0000   1.0000   1.0000   1.0000   1.0000   1.0000   1.0000   1.0000
     1.0000   1.0000   1.0000   1.0000   1.0000   1.0000   1.0000   1.0000
     1.0000   1.0000   1.0000   1.0000   1.0000   1.0000   1.0000   1.0000
     1.0000   1.0000   1.0000   1.0000   1.0000   1.0000   1.0000   1.0000
     1.0000   1.0000   1.0000   1.0000   1.0000   1.0000   1.0000   1.0000
     1.0000   1.0000   1.0000   1.0000   1.0000   1.0000   1.0000   1.0000
     1.0000   1.0000   1.0000   1.0000   1.0000   1.0000   1.0000   1.0000
     1.0000   1.0000   1.0000   1.0000   1.0000   1.0000   1.0000   1.0000
     1.0000   1.0000   1.0000   1.0000   1.0000   1.0000   1.0000   1.0000
     1.0000   1.0000   1.0000   1.0000   1.0000   1.0000   1.0000   1.0000
     1.0000   1.0000   1.0000   1.0000   1.0000   1.0000   1.0000   1.0000
     1.0000   1.0000   1.0000   1.0000   1.0000   1.0000   1.0000   1.0000
     1.0000   1.0000   1.0000   1.0000   1.0000   1.0000   1.0000   1.0000
     1.0000   1.0000   1.0000   1.0000   1.0000   0.6930   0.4562   0.4492
     0.4448   0.2230   0.2212   0.2204   0.2183   0.0000   0.0000   0.0000
     0.0000   0.0000   0.0000   0.0000   0.0000   0.0000   0.0000   0.0000
     0.0000   0.0000   0.0000   0.0000   0.0000   0.0000   0.0000   0.0000
     0.0000   0.0000   0.0000   0.0000   0.0000   0.0000   0.0000   0.0000
     0.0000   0.0000   0.0000   0.0000   0.0000   0.0000   0.0000   0.0000
     0.0000   0.0000   0.0000   0.0000   0.0000   0.0000   0.0000   0.0000
     0.0000   0.0000   0.0000   0.0000   0.0000   0.0000   0.0000   0.0000
     0.0000   0.0000   0.0000   0.0000   0.0000   0.0000   0.0000   0.0000
     0.0000   0.0000   0.0000   0.0000   0.0000   0.0000   0.0000   0.0000
     0.0000   0.0000   0.0000   0.0000   0.0000   0.0000   0.0000   0.0000
     0.0000   0.0000   0.0000   0.0000   0.0000   0.0000   0.0000   0.0000
     0.0000   0.0000   0.0000   0.0000   0.0000   0.0000   0.0000   0.0000
     0.0000   0.0000   0.0000   0.0000   0.0000   0.0000   0.0000   0.0000
     0.0000   0.0000   0.0000   0.0000   0.0000   0.0000   0.0000   0.0000
     0.0000   0.0000   0.0000   0.0000   0.0000   0.0000   0.0000   0.0000
     0.0000   0.0000   0.0000   0.0000   0.0000   0.0000   0.0000   0.0000
     0.0000   0.0000   0.0000   0.0000   0.0000   0.0000   0.0000   0.0000
     0.0000   0.0000   0.0000   0.0000   0.0000   0.0000   0.0000   0.0000
     0.0000   0.0000   0.0000   0.0000   0.0000   0.0000   0.0000   0.0000
     0.0000   0.0000   0.0000   0.0000   0.0000   0.0000   0.0000   0.0000
     0.0000   0.0000   0.0000   0.0000   0.0000   0.0000   0.0000   0.0000
     0.0000   0.0000   0.0000   0.0000   0.0000   0.0000   0.0000   0.0000
     0.0000   0.0000   0.0000

          k =-0.3536-0.3536 0.3536 ( 68884 PWs)   bands (ev):

   -16.6408 -16.6404 -16.6403 -16.6399 -16.6398 -16.6397 -16.6397 -16.6396
   -16.6394 -16.6394 -16.6393 -16.6391 -16.6390 -16.6390 -16.6389 -16.6387
   -16.6385 -16.6382 -16.6328 -16.6327 -16.6326 -16.6325 -16.6325 -16.6323
   -16.6322 -16.6321 -16.6321 -16.6320 -16.6320 -16.6317 -16.6317 -16.6315
   -16.6315 -16.6314 -16.6313 -16.6311 -16.6311 -16.6309 -16.6309 -16.6308
   -16.6307 -16.6306 -16.6305 -16.6305 -16.6302 -16.6301 -16.6299 -16.6298
   -16.6282 -16.6281 -16.6276 -16.6275 -16.6273 -16.6271 -16.6260 -16.6256
   -16.6255 -16.6253 -16.6252 -16.6252 -16.6251 -16.6249 -16.6248 -16.6247
   -16.6246 -16.6246 -16.6245 -16.6244 -16.6244 -16.6243 -16.6243 -16.6242
   -16.6241 -16.6240 -16.6239 -16.6237 -16.6236 -16.6236 -16.6234 -16.6233
   -16.6233 -16.6231 -16.6230 -16.6229 -16.6198 -16.6195 -16.6193 -16.6190
   -16.6189 -16.6186 -16.6184 -16.6182 -16.6180 -16.6179 -16.6177 -16.6176
   -16.6175 -16.6173 -16.6171 -16.6169 -16.6168 -16.6168 -16.6167 -16.6166
   -16.6165 -16.6162 -16.6161 -16.6158 -16.6150 -16.6148 -16.6147 -16.6146
   -16.6123 -16.6119 -16.6118 -16.6116 -16.6115 -16.6114 -16.6059 -16.6058
   -16.6053 -16.6052 -16.6048 -16.6046 -16.5990 -16.5990 -16.5986 -16.5985
   -16.5893 -16.5893 -16.5891 -16.5891 -16.5890 -16.5889 -16.5887 -16.5886
   -16.5797 -16.5794 -16.5794 -16.5792 -16.5791 -16.5790 -16.5776 -16.5774
   -16.5720 -16.5719 -16.5717 -16.5715 -16.5714 -16.5711 -16.5616 -16.5614
   -16.5613 -16.5609 -16.5608 -16.5605 -16.5547 -16.5547 -16.5546 -16.5545
   -16.5543 -16.5541 -16.5541 -16.5540 -16.5539 -16.5537 -16.5536 -16.5535
   -16.5525 -16.5524 -16.5523 -16.5522 -16.5521 -16.5518 -16.5459 -16.5459
   -16.5456 -16.5456 -16.5427 -16.5424 -16.5424 -16.5422 -16.5420 -16.5418
   -16.5354 -16.5352 -16.5349 -16.5349 -16.5345 -16.5344 -16.5321 -16.5320
   -16.5318 -16.5318 -16.5317 -16.5316 -16.5315 -16.5315 -16.5313 -16.5312
   -16.5311 -16.5310 -16.5268 -16.5268 -16.5264 -16.5263 -16.5258 -16.5257
   -16.5185 -16.5185 -16.5180 -16.5180 -16.5142 -16.5141 -16.5140 -16.5139
   -16.5138 -16.5137 -16.5094 -16.5091 -16.5090 -16.5089 -16.5087 -16.5086
   -16.5083 -16.5083 -16.5082 -16.5080 -16.5079 -16.5079 -16.5076 -16.5076
   -16.5074 -16.5073 -16.5072 -16.5071 -16.5070 -16.5070 -16.5069 -16.5069
   -16.5068 -16.5067 -16.5067 -16.5066 -16.5066 -16.5065 -16.5065 -16.5063
   -16.5062 -16.5062 -16.5061 -16.5060 -16.5059 -16.5058 -16.5041 -16.5039
   -16.5038 -16.5037 -16.5035 -16.5034 -16.4873 -16.4872 -16.4870 -16.4869
   -16.4868 -16.4867 -16.4815 -16.4813 -16.4812 -16.4811 -16.4809 -16.4808
   -16.4808 -16.4807 -16.4807 -16.4805 -16.4805 -16.4804 -16.4793 -16.4792
   -16.4791 -16.4790 -16.4790 -16.4790 -16.4789 -16.4788 -16.4788 -16.4787
   -16.4786 -16.4786 -16.4782 -16.4780 -16.4779 -16.4777 -16.4774 -16.4772
   -16.4706 -16.4704 -16.4703 -16.4703 -16.4702 -16.4701 -16.4701 -16.4700
   -16.4699 -16.4698 -16.4697 -16.4696 -16.4696 -16.4695 -16.4694 -16.4692
   -16.4692 -16.4690 -16.4679 -16.4677 -16.4676 -16.4674 -16.4670 -16.4669
   -16.4562 -16.4561 -16.4561 -16.4560 -16.4559 -16.4559 -16.4456 -16.4453
   -16.4452 -16.4452 -16.4451 -16.4451 -16.4450 -16.4449 -16.4449 -16.4448
   -16.4445 -16.4445 -16.4350 -16.4349 -16.4348 -16.4348 -16.4347 -16.4346
   -16.4346 -16.4345 -16.4345 -16.4344 -16.4344 -16.4343 -16.4318 -16.4317
   -16.4315 -16.4315 -16.4314 -16.4312 -16.4270 -16.4269 -16.4268 -16.4268
   -16.4266 -16.4266 -16.4265 -16.4264 -16.4263 -16.4262 -16.4262 -16.4261
   -16.4246 -16.4245 -16.4243 -16.4241 -16.4239 -16.4238 -16.4218 -16.4217
   -16.4216 -16.4215 -16.4214 -16.4212 -16.4211 -16.4210 -16.4208 -16.4208
   -16.4207 -16.4205 -16.4059 -16.4058 -16.4057 -16.4056 -16.4055 -16.4054
   -16.4041 -16.4041 -16.4040 -16.4040 -16.4040 -16.4039 -16.3970 -16.3970
   -16.3969 -16.3968 -16.3967 -16.3966 -16.3951 -16.3950 -16.3949 -16.3949
   -16.3947 -16.3947 -16.3946 -16.3945 -16.3945 -16.3944 -16.3943 -16.3942
   -16.3915 -16.3914 -16.3912 -16.3911 -16.3910 -16.3909 -16.3908 -16.3908
   -16.3908 -16.3907 -16.3906 -16.3905 -16.3905 -16.3905 -16.3904 -16.3903
   -16.3901 -16.3900 -16.3878 -16.3878 -16.3875 -16.3874 -16.3871 -16.3869
   -16.3861 -16.3860 -16.3859 -16.3858 -16.3857 -16.3855 -16.3828 -16.3828
   -16.3825 -16.3824 -16.3822 -16.3821 -16.3821 -16.3820 -16.3819 -16.3818
   -16.3803 -16.3801 -16.3800 -16.3800 -16.3800 -16.3799 -16.3799 -16.3798
   -16.3797 -16.3796 -16.3795 -16.3795 -16.3769 -16.3767 -16.3766 -16.3766
   -16.3765 -16.3764 -16.3762 -16.3761 -16.3759 -16.3757 -16.3754 -16.3754
   -16.3681 -16.3677 -16.3625 -16.3624 -16.3623 -16.3623 -16.3622 -16.3622
   -16.3620 -16.3620 -16.3620 -16.3619 -16.3619 -16.3617 -16.3617 -16.3616
   -16.3614 -16.3614 -16.3538 -16.3534 -16.3495 -16.3494 -16.3492 -16.3491
   -16.3490 -16.3490 -16.3456 -16.3455 -16.3455 -16.3454 -16.3454 -16.3453
   -16.3286 -16.3285 -16.3283 -16.3282 -16.3279 -16.3279 -16.3276 -16.3275
   -16.3275 -16.3275 -16.3156 -16.3155 -16.3154 -16.3153 -16.3151 -16.3150
   -16.3141 -16.3139 -16.3138 -16.3137 -16.3137 -16.3136 -16.3135 -16.3134
   -16.3133 -16.3132 -16.3131 -16.3130 -16.3128 -16.3127 -16.3125 -16.3124
   -16.3095 -16.3092 -16.3092 -16.3090 -16.3090 -16.3089 -16.3067 -16.3065
   -16.3064 -16.3064 -16.3062 -16.3061 -16.3043 -16.3041 -16.3040 -16.3039
   -16.3038 -16.3038 -16.3033 -16.3033 -16.3030 -16.3030 -16.3029 -16.3028
   -16.3027 -16.3027 -16.3024 -16.3023 -16.3022 -16.3021 -16.3005 -16.3003
   -16.3001 -16.3001 -16.2999 -16.2998 -16.2998 -16.2996 -16.2995 -16.2994
   -16.2994 -16.2993 -16.2991 -16.2991 -16.2991 -16.2990 -16.2989 -16.2988
   -16.2962 -16.2960 -16.2958 -16.2958 -16.2957 -16.2957 -16.2956 -16.2955
   -16.2955 -16.2954 -16.2952 -16.2950 -16.2945 -16.2943 -16.2943 -16.2942
   -16.2941 -16.2941 -16.2940 -16.2940 -16.2940 -16.2938 -16.2937 -16.2936
   -16.2936 -16.2935 -16.2933 -16.2931 -16.2929 -16.2928 -16.2873 -16.2871
   -16.2869 -16.2868 -16.2868 -16.2867 -16.2860 -16.2859 -16.2858 -16.2858
   -16.2857 -16.2857 -16.2856 -16.2856 -16.2855 -16.2854 -16.2852 -16.2850
    -4.3159  -4.3156  -3.8203  -3.8191  -3.8184  -3.8174  -3.8171  -3.8163
    -3.3564  -3.3546  -3.3536  -3.3529  -3.3515  -3.3498  -2.9632  -2.9618
    -2.8482  -2.8472  -2.8458  -2.8438  -2.8430  -2.8424  -2.4768  -2.4756
    -2.4752  -2.4749  -2.4743  -2.4728  -2.4718  -2.4709  -2.4706  -2.4699
    -2.4696  -2.4685  -2.3339  -2.3329  -2.3315  -2.3304  -2.3294  -2.3287
    -1.8597  -1.8595  -1.8589  -1.8582  -1.8563  -1.8540  -1.4589  -1.4556
    -1.4548  -1.4532  -1.4519  -1.4497  -1.3418  -1.3398  -1.3387  -1.3385
    -1.3379  -1.3374  -1.3365  -1.3359  -1.3356  -1.3340  -1.3327  -1.3307
     0.2024   0.2048   0.2057   0.2063   0.2072   0.2081   0.2094   0.2101
     0.2107   0.2117   0.2124   0.2130   0.2756   0.2791   0.2797   0.2810
     0.2830   0.2836   0.6359   0.6391   0.6402   0.6418   0.6431   0.6437
     0.7650   0.7659   0.7664   0.7696   0.7704   0.7720   1.4047   1.4059
     1.4066   1.4073   1.4080   1.4095   1.4102   1.4112   1.4114   1.4132
     1.4137   1.4147   1.5599   1.5611   2.1478   2.1483   2.1494   2.1511
     2.1523   2.1527   2.7092   2.7102   2.7115   2.7127   2.7135   2.7153
     4.0301   4.0312   4.0329   4.0329   4.0338   4.0350   4.0808   4.0820
     4.0826   4.0835   4.0843   4.0850   4.0934   4.0938   4.0940   4.0946
     4.0949   4.0953   4.0960   4.0961   4.0964   4.0971   4.0975   4.0976
     4.6720   4.6731   4.6733   4.6740   4.6747   4.6751   4.6836   4.6843
     4.6852   4.6853   4.6859   4.6867   4.6872   4.6878   4.6883   4.6889
     4.6890   4.6904   5.1485   5.1492   5.1505   5.1508   5.1510   5.1511
     5.1516   5.1520   5.1523   5.1528   5.1530   5.1535   5.3444   5.3447
     5.3458   5.3464   5.3468   5.3477   5.3757   5.3767   5.3776   5.3782
     5.3783   5.3801   5.5681   5.5691   5.5697   5.5708   5.5716   5.5727
     5.6720   5.6729   5.6732   5.6734   5.6753   5.6757   5.8410   5.8419
     5.8492   5.8504   5.8519   5.8528   5.8539   5.8553   6.1352   6.1357
     6.1370   6.1372   6.1375   6.1378   6.1383   6.1388   6.1402   6.1406
     6.1411   6.1423   6.1540   6.1568   6.1572   6.1578   6.1601   6.1608
     6.4797   6.4802   6.4813   6.4821   6.4827   6.4843   6.7041   6.7062
     6.7065   6.7084   6.7090   6.7097   6.7944   6.7952   6.7962   6.7975
     6.7996   6.8010   6.9633   6.9646   6.9663   6.9684   7.3030   7.3046
     7.3067   7.3074   7.3089   7.3113   7.8913   7.8920   7.8942   7.8970
     8.4488   8.4501   9.0474   9.0480   9.0500   9.0506   9.0510   9.0522
     9.1869   9.1880   9.4270   9.4289   9.4310   9.4314   9.4325   9.4334
     9.5513   9.5517   9.5530   9.5534   9.5540   9.5550   9.7702   9.7717
     9.7722   9.7730   9.7746   9.7768   9.7908   9.7919   9.7928   9.7933
     9.7942   9.7950  10.0721  10.0727  10.0735  10.0742  10.0751  10.0767
    10.0967  10.0981  10.0985  10.0997  10.1011  10.1020  10.4477  10.4480
    10.4482  10.4493  10.4500  10.4503  10.4512  10.4514  10.4517  10.4528
    10.4535  10.4546  10.6108  10.6113  10.6121  10.6133  10.6136  10.6144
    10.6150  10.6158  10.6162  10.6166  10.6168  10.6172  10.7870  10.7872
    10.7887  10.7895  10.7905  10.7921  10.8454  10.8470  10.8482  10.8488
    10.8492  10.8503  11.1939  11.1960  11.1975  11.1992  11.5779  11.5780
    11.5786  11.5797  11.5805  11.5808  11.5815  11.5824  11.5830  11.5834
    11.5845  11.5850  11.6462  11.6475  11.7047  11.7059  11.7075  11.7082
    11.7097  11.7107  11.9571  11.9587  11.9597  11.9609  11.9610  11.9619
    11.9635  11.9642  11.9645  11.9672  12.1216  12.1228  12.1232  12.1246
    12.1252  12.1281  12.3688  12.3695  12.3706  12.3709  12.3722  12.3724
    12.3729  12.3739  12.3745  12.3748  12.3756  12.3757  12.6481  12.6484
    12.6496  12.6505  12.6510  12.6523  12.7563  12.7571  12.7584  12.7597
    12.7604  12.7608  13.0096  13.0116  13.0124  13.0129  13.0135  13.0154
    13.0483  13.0488  13.0496  13.0504  13.0508  13.0512  13.0516  13.0520
    13.0527  13.0536  13.0538  13.0550  13.1702  13.1707  13.1717  13.1723
    13.1725  13.1726  13.2399  13.2412  13.2417  13.2421  13.2432  13.2440
    13.2446  13.2451  13.2458

     occupation numbers 
     1.0000   1.0000   1.0000   1.0000   1.0000   1.0000   1.0000   1.0000
     1.0000   1.0000   1.0000   1.0000   1.0000   1.0000   1.0000   1.0000
     1.0000   1.0000   1.0000   1.0000   1.0000   1.0000   1.0000   1.0000
     1.0000   1.0000   1.0000   1.0000   1.0000   1.0000   1.0000   1.0000
     1.0000   1.0000   1.0000   1.0000   1.0000   1.0000   1.0000   1.0000
     1.0000   1.0000   1.0000   1.0000   1.0000   1.0000   1.0000   1.0000
     1.0000   1.0000   1.0000   1.0000   1.0000   1.0000   1.0000   1.0000
     1.0000   1.0000   1.0000   1.0000   1.0000   1.0000   1.0000   1.0000
     1.0000   1.0000   1.0000   1.0000   1.0000   1.0000   1.0000   1.0000
     1.0000   1.0000   1.0000   1.0000   1.0000   1.0000   1.0000   1.0000
     1.0000   1.0000   1.0000   1.0000   1.0000   1.0000   1.0000   1.0000
     1.0000   1.0000   1.0000   1.0000   1.0000   1.0000   1.0000   1.0000
     1.0000   1.0000   1.0000   1.0000   1.0000   1.0000   1.0000   1.0000
     1.0000   1.0000   1.0000   1.0000   1.0000   1.0000   1.0000   1.0000
     1.0000   1.0000   1.0000   1.0000   1.0000   1.0000   1.0000   1.0000
     1.0000   1.0000   1.0000   1.0000   1.0000   1.0000   1.0000   1.0000
     1.0000   1.0000   1.0000   1.0000   1.0000   1.0000   1.0000   1.0000
     1.0000   1.0000   1.0000   1.0000   1.0000   1.0000   1.0000   1.0000
     1.0000   1.0000   1.0000   1.0000   1.0000   1.0000   1.0000   1.0000
     1.0000   1.0000   1.0000   1.0000   1.0000   1.0000   1.0000   1.0000
     1.0000   1.0000   1.0000   1.0000   1.0000   1.0000   1.0000   1.0000
     1.0000   1.0000   1.0000   1.0000   1.0000   1.0000   1.0000   1.0000
     1.0000   1.0000   1.0000   1.0000   1.0000   1.0000   1.0000   1.0000
     1.0000   1.0000   1.0000   1.0000   1.0000   1.0000   1.0000   1.0000
     1.0000   1.0000   1.0000   1.0000   1.0000   1.0000   1.0000   1.0000
     1.0000   1.0000   1.0000   1.0000   1.0000   1.0000   1.0000   1.0000
     1.0000   1.0000   1.0000   1.0000   1.0000   1.0000   1.0000   1.0000
     1.0000   1.0000   1.0000   1.0000   1.0000   1.0000   1.0000   1.0000
     1.0000   1.0000   1.0000   1.0000   1.0000   1.0000   1.0000   1.0000
     1.0000   1.0000   1.0000   1.0000   1.0000   1.0000   1.0000   1.0000
     1.0000   1.0000   1.0000   1.0000   1.0000   1.0000   1.0000   1.0000
     1.0000   1.0000   1.0000   1.0000   1.0000   1.0000   1.0000   1.0000
     1.0000   1.0000   1.0000   1.0000   1.0000   1.0000   1.0000   1.0000
     1.0000   1.0000   1.0000   1.0000   1.0000   1.0000   1.0000   1.0000
     1.0000   1.0000   1.0000   1.0000   1.0000   1.0000   1.0000   1.0000
     1.0000   1.0000   1.0000   1.0000   1.0000   1.0000   1.0000   1.0000
     1.0000   1.0000   1.0000   1.0000   1.0000   1.0000   1.0000   1.0000
     1.0000   1.0000   1.0000   1.0000   1.0000   1.0000   1.0000   1.0000
     1.0000   1.0000   1.0000   1.0000   1.0000   1.0000   1.0000   1.0000
     1.0000   1.0000   1.0000   1.0000   1.0000   1.0000   1.0000   1.0000
     1.0000   1.0000   1.0000   1.0000   1.0000   1.0000   1.0000   1.0000
     1.0000   1.0000   1.0000   1.0000   1.0000   1.0000   1.0000   1.0000
     1.0000   1.0000   1.0000   1.0000   1.0000   1.0000   1.0000   1.0000
     1.0000   1.0000   1.0000   1.0000   1.0000   1.0000   1.0000   1.0000
     1.0000   1.0000   1.0000   1.0000   1.0000   1.0000   1.0000   1.0000
     1.0000   1.0000   1.0000   1.0000   1.0000   1.0000   1.0000   1.0000
     1.0000   1.0000   1.0000   1.0000   1.0000   1.0000   1.0000   1.0000
     1.0000   1.0000   1.0000   1.0000   1.0000   1.0000   1.0000   1.0000
     1.0000   1.0000   1.0000   1.0000   1.0000   1.0000   1.0000   1.0000
     1.0000   1.0000   1.0000   1.0000   1.0000   1.0000   1.0000   1.0000
     1.0000   1.0000   1.0000   1.0000   1.0000   1.0000   1.0000   1.0000
     1.0000   1.0000   1.0000   1.0000   1.0000   1.0000   1.0000   1.0000
     1.0000   1.0000   1.0000   1.0000   1.0000   1.0000   1.0000   1.0000
     1.0000   1.0000   1.0000   1.0000   1.0000   1.0000   1.0000   1.0000
     1.0000   1.0000   1.0000   1.0000   1.0000   1.0000   1.0000   1.0000
     1.0000   1.0000   1.0000   1.0000   1.0000   1.0000   1.0000   1.0000
     1.0000   1.0000   1.0000   1.0000   1.0000   1.0000   1.0000   1.0000
     1.0000   1.0000   1.0000   1.0000   1.0000   1.0000   1.0000   1.0000
     1.0000   1.0000   1.0000   1.0000   1.0000   1.0000   1.0000   1.0000
     1.0000   1.0000   1.0000   1.0000   1.0000   1.0000   1.0000   1.0000
     1.0000   1.0000   1.0000   1.0000   1.0000   1.0000   1.0000   1.0000
     1.0000   1.0000   1.0000   1.0000   1.0000   1.0000   1.0000   1.0000
     1.0000   1.0000   1.0000   1.0000   1.0000   1.0000   1.0000   1.0000
     1.0000   1.0000   1.0000   1.0000   1.0000   1.0000   1.0000   1.0000
     1.0000   1.0000   1.0000   1.0000   1.0000   1.0000   1.0000   1.0000
     1.0000   1.0000   1.0000   1.0000   1.0000   1.0000   1.0000   1.0000
     1.0000   1.0000   1.0000   1.0000   1.0000   1.0000   1.0000   1.0000
     1.0000   1.0000   1.0000   1.0000   1.0000   1.0000   1.0000   1.0000
     1.0000   1.0000   1.0000   1.0000   1.0000   1.0000   1.0000   1.0000
     1.0000   1.0000   1.0000   1.0000   1.0000   1.0000   1.0000   1.0000
     1.0000   1.0000   1.0000   1.0000   1.0000   1.0000   1.0000   1.0000
     1.0000   1.0000   1.0000   1.0000   1.0000   1.0000   1.0000   1.0000
     1.0000   1.0000   1.0000   1.0000   1.0000   1.0000   1.0000   1.0000
     1.0000   1.0000   1.0000   1.0000   1.0000   1.0000   1.0000   1.0000
     1.0000   1.0000   1.0000   1.0000   1.0000   1.0000   1.0000   1.0000
     1.0000   1.0000   1.0000   1.0000   1.0000   1.0000   1.0000   1.0000
     1.0000   1.0000   1.0000   1.0000   1.0000   1.0000   1.0000   1.0000
     1.0000   1.0000   1.0000   1.0000   1.0000   1.0000   1.0000   1.0000
     1.0000   1.0000   1.0000   1.0000   1.0000   1.0000   1.0000   1.0000
     1.0000   1.0000   1.0000   1.0000   1.0000   1.0000   1.0000   1.0000
     1.0000   1.0000   1.0000   1.0000   1.0000   1.0000   1.0000   1.0000
     1.0000   1.0000   1.0000   1.0000   1.0000   1.0000   1.0000   1.0000
     1.0000   1.0000   1.0000   1.0000   1.0000   1.0000   1.0000   1.0000
     1.0000   1.0000   1.0000   1.0000   1.0000   1.0000   1.0000   1.0000
     1.0000   1.0000   1.0000   1.0000   1.0000   1.0000   1.0000   1.0000
     1.0000   1.0000   1.0000   1.0000   1.0000   1.0000   1.0000   1.0000
     1.0000   1.0000   1.0000   1.0000   1.0000   1.0000   1.0000   1.0000
     1.0000   1.0000   1.0000   1.0000   1.0000   1.0000   1.0000   1.0000
     1.0000   1.0000   1.0000   1.0000   1.0000   1.0000   1.0000   1.0000
     1.0000   1.0000   1.0000   1.0000   1.0000   1.0000   1.0000   1.0000
     1.0000   1.0000   1.0000   1.0000   1.0000   1.0000   1.0000   1.0000
     1.0000   1.0000   1.0000   1.0000   1.0000   1.0000   1.0000   1.0000
     1.0000   1.0000   1.0000   1.0000   1.0000   1.0000   1.0000   1.0000
     1.0000   1.0000   1.0000   1.0000   1.0000   1.0000   1.0000   1.0000
     1.0000   1.0000   1.0000   1.0000   1.0000   1.0000   1.0000   1.0000
     1.0000   1.0000   1.0000   1.0000   1.0000   1.0000   1.0000   1.0000
     1.0000   1.0000   1.0000   1.0000   1.0000   1.0000   1.0000   1.0000
     1.0000   1.0000   1.0000   1.0000   1.0000   1.0000   1.0000   1.0000
     1.0000   1.0000   1.0000   1.0000   1.0000   1.0000   1.0000   1.0000
     1.0000   1.0000   1.0000   1.0000   1.0000   1.0000   1.0000   1.0000
     1.0000   1.0000   1.0000   1.0000   1.0000   1.0000   1.0000   1.0000
     1.0000   1.0000   1.0000   1.0000   1.0000   1.0000   1.0000   1.0000
     1.0000   1.0000   1.0000   1.0000   1.0000   1.0000   1.0000   1.0000
     1.0000   1.0000   1.0000   1.0000   1.0000   1.0000   1.0000   1.0000
     1.0000   1.0000   1.0000   1.0000   1.0000   1.0000   1.0000   1.0000
     1.0000   1.0000   1.0000   1.0000   1.0000   1.0000   1.0000   1.0000
     1.0000   1.0000   1.0000   1.0000   1.0000   1.0000   1.0000   1.0000
     1.0000   1.0000   1.0000   1.0000   1.0000   1.0000   1.0000   1.0000
     1.0000   1.0000   1.0000   1.0000   1.0000   1.0000   1.0000   1.0000
     1.0000   1.0000   1.0000   1.0000   1.0000   1.0000   1.0000   1.0000
     1.0000   1.0000   1.0000   1.0000   1.0000   1.0000   1.0000   1.0000
     1.0000   1.0000   1.0000   1.0000   0.9860   0.9859   0.9853   0.9846
     0.0479   0.0471   0.0000   0.0000   0.0000   0.0000   0.0000   0.0000
     0.0000   0.0000   0.0000   0.0000   0.0000   0.0000   0.0000   0.0000
     0.0000   0.0000   0.0000   0.0000   0.0000   0.0000   0.0000   0.0000
     0.0000   0.0000   0.0000   0.0000   0.0000   0.0000   0.0000   0.0000
     0.0000   0.0000   0.0000   0.0000   0.0000   0.0000   0.0000   0.0000
     0.0000   0.0000   0.0000   0.0000   0.0000   0.0000   0.0000   0.0000
     0.0000   0.0000   0.0000   0.0000   0.0000   0.0000   0.0000   0.0000
     0.0000   0.0000   0.0000   0.0000   0.0000   0.0000   0.0000   0.0000
     0.0000   0.0000   0.0000   0.0000   0.0000   0.0000   0.0000   0.0000
     0.0000   0.0000   0.0000   0.0000   0.0000   0.0000   0.0000   0.0000
     0.0000   0.0000   0.0000   0.0000   0.0000   0.0000   0.0000   0.0000
     0.0000   0.0000   0.0000   0.0000   0.0000   0.0000   0.0000   0.0000
     0.0000   0.0000   0.0000   0.0000   0.0000   0.0000   0.0000   0.0000
     0.0000   0.0000   0.0000   0.0000   0.0000   0.0000   0.0000   0.0000
     0.0000   0.0000   0.0000   0.0000   0.0000   0.0000   0.0000   0.0000
     0.0000   0.0000   0.0000   0.0000   0.0000   0.0000   0.0000   0.0000
     0.0000   0.0000   0.0000   0.0000   0.0000   0.0000   0.0000   0.0000
     0.0000   0.0000   0.0000   0.0000   0.0000   0.0000   0.0000   0.0000
     0.0000   0.0000   0.0000   0.0000   0.0000   0.0000   0.0000   0.0000
     0.0000   0.0000   0.0000   0.0000   0.0000   0.0000   0.0000   0.0000
     0.0000   0.0000   0.0000   0.0000   0.0000   0.0000   0.0000   0.0000
     0.0000   0.0000   0.0000   0.0000   0.0000   0.0000   0.0000   0.0000
     0.0000   0.0000   0.0000

          k =-0.7071 0.0000 0.0000 ( 68952 PWs)   bands (ev):

   -16.6417 -16.6414 -16.6413 -16.6412 -16.6407 -16.6406 -16.6404 -16.6403
   -16.6401 -16.6398 -16.6394 -16.6392 -16.6365 -16.6365 -16.6364 -16.6362
   -16.6359 -16.6357 -16.6356 -16.6355 -16.6333 -16.6332 -16.6327 -16.6326
   -16.6325 -16.6324 -16.6321 -16.6320 -16.6311 -16.6308 -16.6306 -16.6306
   -16.6304 -16.6301 -16.6301 -16.6300 -16.6298 -16.6297 -16.6296 -16.6296
   -16.6294 -16.6293 -16.6291 -16.6290 -16.6289 -16.6288 -16.6287 -16.6285
   -16.6284 -16.6282 -16.6280 -16.6279 -16.6267 -16.6265 -16.6263 -16.6263
   -16.6262 -16.6261 -16.6260 -16.6259 -16.6257 -16.6257 -16.6255 -16.6254
   -16.6254 -16.6253 -16.6253 -16.6252 -16.6249 -16.6248 -16.6247 -16.6246
   -16.6236 -16.6235 -16.6234 -16.6231 -16.6229 -16.6228 -16.6227 -16.6226
   -16.6221 -16.6218 -16.6215 -16.6214 -16.6211 -16.6207 -16.6205 -16.6205
   -16.6203 -16.6202 -16.6200 -16.6199 -16.6198 -16.6197 -16.6196 -16.6194
   -16.6192 -16.6191 -16.6189 -16.6187 -16.6183 -16.6181 -16.6178 -16.6175
   -16.6173 -16.6172 -16.6171 -16.6169 -16.6142 -16.6141 -16.6139 -16.6136
   -16.6136 -16.6133 -16.6127 -16.6127 -16.6099 -16.6098 -16.6096 -16.6094
   -16.6038 -16.6036 -16.6034 -16.6031 -16.5986 -16.5985 -16.5969 -16.5968
   -16.5968 -16.5966 -16.5861 -16.5861 -16.5860 -16.5856 -16.5781 -16.5781
   -16.5761 -16.5759 -16.5758 -16.5757 -16.5756 -16.5755 -16.5755 -16.5752
   -16.5748 -16.5748 -16.5746 -16.5745 -16.5744 -16.5743 -16.5742 -16.5741
   -16.5607 -16.5605 -16.5604 -16.5603 -16.5601 -16.5600 -16.5599 -16.5596
   -16.5571 -16.5570 -16.5568 -16.5566 -16.5565 -16.5563 -16.5562 -16.5561
   -16.5486 -16.5484 -16.5442 -16.5441 -16.5439 -16.5439 -16.5437 -16.5436
   -16.5436 -16.5434 -16.5393 -16.5391 -16.5389 -16.5388 -16.5387 -16.5385
   -16.5383 -16.5379 -16.5338 -16.5337 -16.5329 -16.5328 -16.5327 -16.5326
   -16.5325 -16.5325 -16.5325 -16.5322 -16.5275 -16.5274 -16.5271 -16.5269
   -16.5229 -16.5227 -16.5226 -16.5226 -16.5226 -16.5225 -16.5224 -16.5224
   -16.5223 -16.5223 -16.5222 -16.5222 -16.5220 -16.5219 -16.5218 -16.5214
   -16.5203 -16.5201 -16.5199 -16.5197 -16.5195 -16.5192 -16.5191 -16.5186
   -16.5155 -16.5154 -16.5149 -16.5147 -16.5143 -16.5141 -16.5139 -16.5137
   -16.5029 -16.5027 -16.5024 -16.5024 -16.5022 -16.5022 -16.5021 -16.5020
   -16.5019 -16.5018 -16.5017 -16.5016 -16.5015 -16.5014 -16.5013 -16.5012
   -16.4962 -16.4961 -16.4959 -16.4958 -16.4955 -16.4954 -16.4953 -16.4950
   -16.4933 -16.4932 -16.4932 -16.4931 -16.4931 -16.4930 -16.4928 -16.4928
   -16.4914 -16.4913 -16.4894 -16.4893 -16.4891 -16.4890 -16.4887 -16.4886
   -16.4884 -16.4882 -16.4878 -16.4877 -16.4841 -16.4839 -16.4839 -16.4838
   -16.4836 -16.4835 -16.4834 -16.4833 -16.4828 -16.4827 -16.4826 -16.4825
   -16.4821 -16.4820 -16.4819 -16.4817 -16.4817 -16.4815 -16.4813 -16.4812
   -16.4769 -16.4768 -16.4767 -16.4766 -16.4765 -16.4764 -16.4764 -16.4763
   -16.4582 -16.4580 -16.4579 -16.4578 -16.4576 -16.4576 -16.4575 -16.4574
   -16.4565 -16.4563 -16.4563 -16.4562 -16.4561 -16.4560 -16.4559 -16.4559
   -16.4557 -16.4556 -16.4555 -16.4553 -16.4489 -16.4488 -16.4487 -16.4486
   -16.4485 -16.4485 -16.4483 -16.4481 -16.4470 -16.4469 -16.4468 -16.4468
   -16.4466 -16.4466 -16.4465 -16.4465 -16.4428 -16.4427 -16.4427 -16.4425
   -16.4388 -16.4387 -16.4387 -16.4384 -16.4381 -16.4381 -16.4301 -16.4299
   -16.4299 -16.4299 -16.4295 -16.4294 -16.4294 -16.4292 -16.4259 -16.4258
   -16.4258 -16.4257 -16.4257 -16.4256 -16.4256 -16.4256 -16.4234 -16.4232
   -16.4230 -16.4229 -16.4227 -16.4226 -16.4225 -16.4224 -16.4133 -16.4132
   -16.4131 -16.4131 -16.4130 -16.4129 -16.4128 -16.4125 -16.4078 -16.4076
   -16.4075 -16.4074 -16.4073 -16.4071 -16.4070 -16.4068 -16.4057 -16.4054
   -16.4053 -16.4052 -16.4051 -16.4050 -16.4049 -16.4047 -16.4046 -16.4045
[...]
     atom   77 type  1   force =   0.00000000E+00  0.00000000E+00  0.00000000E+00
     atom   78 type  1   force =   0.00000000E+00  0.00000000E+00  0.00000000E+00
     atom   79 type  1   force =   0.00000000E+00  0.00000000E+00  0.00000000E+00
     atom   80 type  1   force =   0.00000000E+00  0.00000000E+00  0.00000000E+00
     atom   81 type  1   force =   0.00000000E+00  0.00000000E+00  0.00000000E+00
     atom   82 type  1   force =   0.00000000E+00  0.00000000E+00  0.00000000E+00
     atom   83 type  1   force =   0.00000000E+00  0.00000000E+00  0.00000000E+00
     atom   84 type  1   force =   0.00000000E+00  0.00000000E+00  0.00000000E+00
     atom   85 type  1   force =   0.00000000E+00  0.00000000E+00  0.00000000E+00
     atom   86 type  1   force =   0.00000000E+00  0.00000000E+00  0.00000000E+00
     atom   87 type  1   force =   0.00000000E+00  0.00000000E+00  0.00000000E+00
     atom   88 type  1   force =   0.00000000E+00  0.00000000E+00  0.00000000E+00
     atom   89 type  1   force =   0.00000000E+00  0.00000000E+00  0.00000000E+00
     atom   90 type  1   force =   0.00000000E+00  0.00000000E+00  0.00000000E+00
     atom   91 type  1   force =   0.00000000E+00  0.00000000E+00  0.00000000E+00
     atom   92 type  1   force =   0.00000000E+00  0.00000000E+00  0.00000000E+00
     atom   93 type  1   force =   0.00000000E+00  0.00000000E+00  0.00000000E+00
     atom   94 type  1   force =   0.00000000E+00  0.00000000E+00  0.00000000E+00
     atom   95 type  1   force =   0.00000000E+00  0.00000000E+00  0.00000000E+00
     atom   96 type  1   force =   0.00000000E+00  0.00000000E+00  0.00000000E+00
     atom   97 type  1   force =   0.00000000E+00  0.00000000E+00  0.00000000E+00
     atom   98 type  1   force =   0.00000000E+00  0.00000000E+00  0.00000000E+00
     atom   99 type  1   force =   0.00000000E+00  0.00000000E+00  0.00000000E+00
     atom  100 type  1   force =   0.00000000E+00  0.00000000E+00  0.00000000E+00
     atom  101 type  1   force =   0.00000000E+00  0.00000000E+00  0.00000000E+00
     atom  102 type  1   force =   0.00000000E+00  0.00000000E+00  0.00000000E+00
     atom  103 type  1   force =   0.00000000E+00  0.00000000E+00  0.00000000E+00
     atom  104 type  1   force =   0.00000000E+00  0.00000000E+00  0.00000000E+00
     atom  105 type  1   force =   0.00000000E+00  0.00000000E+00  0.00000000E+00
     atom  106 type  1   force =   0.00000000E+00  0.00000000E+00  0.00000000E+00
     atom  107 type  1   force =   0.00000000E+00  0.00000000E+00  0.00000000E+00
     atom  108 type  1   force =   0.00000000E+00  0.00000000E+00  0.00000000E+00
     atom  109 type  1   force =   0.00000000E+00  0.00000000E+00  0.00000000E+00
     atom  110 type  1   force =   0.00000000E+00  0.00000000E+00  0.00000000E+00
     atom  111 type  1   force =   0.00000000E+00  0.00000000E+00  0.00000000E+00
     atom  112 type  1   force =   0.00000000E+00  0.00000000E+00  0.00000000E+00
     atom  113 type  1   force =   0.00000000E+00  0.00000000E+00  0.00000000E+00
     atom  114 type  1   force =   0.00000000E+00  0.00000000E+00  0.00000000E+00
     atom  115 type  1   force =   0.00000000E+00  0.00000000E+00  0.00000000E+00
     atom  116 type  1   force =   0.00000000E+00  0.00000000E+00  0.00000000E+00
     atom  117 type  1   force =   0.00000000E+00  0.00000000E+00  0.00000000E+00
     atom  118 type  1   force =   0.00000000E+00  0.00000000E+00  0.00000000E+00
     atom  119 type  1   force =   0.00000000E+00  0.00000000E+00  0.00000000E+00
     atom  120 type  1   force =   0.00000000E+00  0.00000000E+00  0.00000000E+00
     atom  121 type  1   force =   0.00000000E+00  0.00000000E+00  0.00000000E+00
     atom  122 type  1   force =   0.00000000E+00  0.00000000E+00  0.00000000E+00
     atom  123 type  1   force =   0.00000000E+00  0.00000000E+00  0.00000000E+00
     atom  124 type  1   force =   0.00000000E+00  0.00000000E+00  0.00000000E+00
     atom  125 type  1   force =   0.00000000E+00  0.00000000E+00  0.00000000E+00
     atom  126 type  1   force =   0.00000000E+00  0.00000000E+00  0.00000000E+00
     atom  127 type  1   force =   0.00000000E+00  0.00000000E+00  0.00000000E+00
     atom  128 type  1   force =   0.00000000E+00  0.00000000E+00  0.00000000E+00
     The SCF correction term to forces
     atom    1 type  1   force =   0.24783426E-05  0.37493705E-06 -0.17447844E-05
     atom    2 type  1   force =   0.22202942E-05 -0.27066732E-06 -0.37644251E-05
     atom    3 type  1   force =   0.13607572E-05 -0.11226911E-05 -0.36223116E-05
     atom    4 type  1   force =  -0.63263735E-07 -0.21696934E-05 -0.23056636E-05
     atom    5 type  1   force =  -0.85483332E-06 -0.32310310E-05  0.12215115E-05
     atom    6 type  1   force =  -0.32966969E-06 -0.13991851E-05  0.18566803E-05
     atom    7 type  1   force =   0.13381740E-05 -0.33527244E-06  0.12788364E-05
     atom    8 type  1   force =   0.18236454E-05  0.31775401E-06 -0.72292043E-06
     atom    9 type  1   force =   0.85374944E-06 -0.83280761E-06 -0.40727698E-05
     atom   10 type  1   force =   0.15997087E-05  0.12797104E-06 -0.38150527E-05
     atom   11 type  1   force =   0.17514091E-05  0.29477849E-06 -0.26066707E-05
     atom   12 type  1   force =   0.11066653E-05  0.22150205E-06 -0.93069730E-06
     atom   13 type  1   force =  -0.23398952E-06 -0.13430198E-05  0.15392713E-05
     atom   14 type  1   force =  -0.14933709E-06 -0.16975764E-05  0.11183311E-05
     atom   15 type  1   force =   0.94290920E-07 -0.10479737E-05 -0.53594173E-06
     atom   16 type  1   force =   0.40608515E-06 -0.13431465E-05 -0.25726879E-05
     atom   17 type  1   force =   0.24000950E-05  0.21116306E-06 -0.25613063E-05
     atom   18 type  1   force =   0.37535627E-05  0.10412198E-05 -0.11907340E-05
     atom   19 type  1   force =   0.36465070E-05  0.10411985E-05 -0.70672169E-06
     atom   20 type  1   force =   0.20152552E-05 -0.83176951E-06  0.43217311E-06
     atom   21 type  1   force =  -0.70519465E-06 -0.23807651E-05  0.99025157E-06
     atom   22 type  1   force =  -0.11058191E-05 -0.35981124E-05  0.28320267E-06
     atom   23 type  1   force =  -0.12882042E-05 -0.29104358E-05 -0.14635319E-05
     atom   24 type  1   force =   0.56291802E-06 -0.17453374E-05 -0.20684045E-05
     atom   25 type  1   force =   0.33764240E-05  0.15216606E-05 -0.10178016E-05
     atom   26 type  1   force =   0.32548593E-05  0.15657772E-05 -0.17708429E-05
     atom   27 type  1   force =   0.25023420E-05  0.32589714E-06 -0.14256615E-05
     atom   28 type  1   force =   0.23754711E-06 -0.23785728E-05 -0.14481593E-05
     atom   29 type  1   force =  -0.17679827E-05 -0.42187416E-05 -0.20285207E-06
     atom   30 type  1   force =  -0.16195055E-05 -0.44169386E-05 -0.22400132E-06
     atom   31 type  1   force =   0.44219225E-06 -0.15339798E-05 -0.25949687E-06
     atom   32 type  1   force =   0.24667312E-05  0.13945530E-06  0.30205345E-06
     atom   33 type  1   force =   0.64126034E-06 -0.19299284E-06 -0.27253430E-05
     atom   34 type  1   force =   0.34245077E-06  0.12728215E-05 -0.18058242E-05
     atom   35 type  1   force =   0.17735544E-05  0.56041912E-06 -0.11596723E-05
     atom   36 type  1   force =   0.33588953E-06  0.11290897E-05  0.20252448E-05
     atom   37 type  1   force =   0.21230072E-06 -0.11490465E-05  0.25760674E-05
     atom   38 type  1   force =  -0.15407262E-05 -0.73813253E-06  0.27735543E-05
     atom   39 type  1   force =  -0.25615562E-06 -0.13378485E-05  0.17785595E-06
     atom   40 type  1   force =  -0.81487693E-06 -0.10175428E-06 -0.10394343E-05
     atom   41 type  1   force =   0.13935957E-05  0.17442232E-05 -0.18664550E-05
     atom   42 type  1   force =   0.15625484E-05  0.36182884E-05 -0.35735827E-06
     atom   43 type  1   force =   0.13453088E-05  0.23807892E-05 -0.29225585E-06
     atom   44 type  1   force =  -0.61096569E-06  0.11406727E-05  0.15036481E-05
     atom   45 type  1   force =  -0.15460421E-05 -0.10420388E-05  0.11721025E-05
     atom   46 type  1   force =  -0.33428558E-05 -0.20606727E-05  0.11211181E-05
     atom   47 type  1   force =  -0.17262506E-05 -0.19362750E-05 -0.93764900E-06
     atom   48 type  1   force =  -0.12208865E-05  0.15927134E-06 -0.11879419E-05
     atom   49 type  1   force =   0.25244915E-05  0.23795225E-05  0.51850969E-07
     atom   50 type  1   force =   0.22326571E-05  0.25907191E-05 -0.27547765E-06
     atom   51 type  1   force =   0.14373691E-05  0.10780558E-05 -0.40226732E-06
     atom   52 type  1   force =  -0.17529966E-05 -0.98745066E-06  0.16378419E-06
     atom   53 type  1   force =  -0.25316189E-05 -0.35359832E-05  0.32084432E-06
     atom   54 type  1   force =  -0.32841994E-05 -0.22945023E-05  0.13431583E-05
     atom   55 type  1   force =  -0.31999665E-06 -0.80050960E-06  0.42883430E-06
     atom   56 type  1   force =   0.14172187E-05  0.20006468E-05  0.92403450E-06
     atom   57 type  1   force =   0.16826176E-05  0.11404732E-05 -0.15251921E-05
     atom   58 type  1   force =   0.34553420E-06  0.15972254E-05 -0.23538903E-05
     atom   59 type  1   force =  -0.11745409E-06 -0.86050386E-06 -0.26308910E-05
     atom   60 type  1   force =  -0.16199150E-05 -0.11781955E-05  0.18980101E-07
     atom   61 type  1   force =  -0.12698548E-05 -0.21263285E-05  0.15269417E-05
     atom   62 type  1   force =  -0.71713591E-06 -0.45183520E-06  0.34073951E-05
     atom   63 type  1   force =   0.12709632E-05 -0.12925107E-06  0.16427146E-05
     atom   64 type  1   force =   0.10592719E-05  0.12062190E-05  0.49792287E-06
     atom   65 type  1   force =   0.12626230E-05  0.20434488E-05 -0.41538040E-06
     atom   66 type  1   force =   0.23815253E-05  0.32112903E-05  0.97918062E-07
     atom   67 type  1   force =   0.18325387E-05  0.27882415E-05  0.12027249E-05
     atom   68 type  1   force =  -0.66200864E-06  0.11525442E-05  0.84941232E-06
     atom   69 type  1   force =  -0.23678904E-05 -0.12891570E-05  0.28807203E-05
     atom   70 type  1   force =  -0.34721337E-05 -0.19520748E-05  0.21900212E-05
     atom   71 type  1   force =  -0.23875833E-05 -0.11382405E-05  0.76811023E-06
     atom   72 type  1   force =  -0.13647196E-05 -0.10615434E-06 -0.11088943E-06
     atom   73 type  1   force =   0.13534520E-05  0.34681428E-05 -0.10538662E-06
     atom   74 type  1   force =   0.13598931E-05  0.29394126E-05 -0.80831529E-06
     atom   75 type  1   force =   0.37378623E-06  0.20593125E-05 -0.63814025E-06
     atom   76 type  1   force =  -0.15109067E-05 -0.80808678E-07  0.16825075E-06
     atom   77 type  1   force =  -0.42983893E-05 -0.17819985E-05  0.12319170E-05
     atom   78 type  1   force =  -0.36357633E-05 -0.15659413E-05  0.18049153E-05
     atom   79 type  1   force =  -0.19075726E-05  0.66707842E-06  0.13670487E-05
     atom   80 type  1   force =   0.18388481E-06  0.25309105E-05  0.12501657E-05
     atom   81 type  1   force =   0.12039527E-05  0.21994684E-05 -0.50286258E-06
     atom   82 type  1   force =   0.43652266E-06  0.17724418E-05 -0.17743181E-05
     atom   83 type  1   force =  -0.10407935E-05  0.48562238E-06 -0.14186894E-05
     atom   84 type  1   force =  -0.21979198E-05 -0.44471855E-06  0.25700102E-06
     atom   85 type  1   force =  -0.30152755E-05 -0.93672134E-06  0.24846491E-05
     atom   86 type  1   force =  -0.13468252E-05 -0.35234405E-06  0.36276585E-05
     atom   87 type  1   force =  -0.34437010E-06  0.14051261E-05  0.23421334E-05
     atom   88 type  1   force =   0.43800976E-06  0.16146378E-05  0.11371177E-05
     atom   89 type  1   force =  -0.34012527E-06  0.11526624E-05 -0.21518102E-05
     atom   90 type  1   force =  -0.13361825E-07  0.15457367E-05 -0.19305064E-05
     atom   91 type  1   force =  -0.84929542E-08  0.19172735E-05 -0.67048210E-07
     atom   92 type  1   force =   0.24220681E-06  0.14143582E-05  0.23398913E-05
     atom   93 type  1   force =  -0.12663034E-05  0.22434872E-06  0.40141030E-05
     atom   94 type  1   force =  -0.19786489E-05 -0.24894818E-06  0.34547042E-05
     atom   95 type  1   force =  -0.13527437E-05 -0.10368957E-06  0.17739237E-05
     atom   96 type  1   force =  -0.14742886E-05  0.59356199E-06 -0.77229336E-07
     atom   97 type  1   force =   0.20270415E-05  0.21734854E-05  0.54969015E-06
     atom   98 type  1   force =   0.25986532E-05  0.23202207E-05 -0.93798726E-06
     atom   99 type  1   force =   0.70782346E-06  0.19760832E-05 -0.50988163E-06
     atom  100 type  1   force =  -0.10037160E-05 -0.69008277E-06 -0.26742166E-06
     atom  101 type  1   force =  -0.34291548E-05 -0.24483107E-05  0.12677024E-05
     atom  102 type  1   force =  -0.29800222E-05 -0.30964215E-05  0.38781203E-06
     atom  103 type  1   force =  -0.97524776E-06 -0.36068817E-06  0.12365437E-05
     atom  104 type  1   force =   0.19381294E-05  0.13461187E-05  0.29171206E-06
     atom  105 type  1   force =   0.66249459E-06  0.24207016E-05 -0.70069442E-06
     atom  106 type  1   force =   0.91440836E-06  0.11234151E-05 -0.26936663E-05
     atom  107 type  1   force =  -0.98479108E-06  0.99810057E-06 -0.20747052E-05
     atom  108 type  1   force =  -0.12723605E-05 -0.10910104E-05 -0.12590016E-05
     atom  109 type  1   force =  -0.27036356E-05 -0.15497143E-05  0.18180457E-05
     atom  110 type  1   force =  -0.91467997E-06 -0.91007978E-06  0.21901123E-05
     atom  111 type  1   force =   0.14301965E-07  0.11514922E-05  0.13225256E-05
     atom  112 type  1   force =   0.63991456E-06  0.12112652E-05 -0.18037463E-06
     atom  113 type  1   force =  -0.84940352E-07  0.61553223E-06 -0.19748656E-05
     atom  114 type  1   force =   0.13187310E-05  0.26643627E-06 -0.30552654E-05
     atom  115 type  1   force =   0.47579609E-06  0.67358064E-06 -0.11659514E-05
     atom  116 type  1   force =   0.10048506E-05  0.73072315E-07  0.14632843E-05
     atom  117 type  1   force =  -0.82039392E-06  0.28306414E-07  0.31506656E-05
     atom  118 type  1   force =  -0.61544297E-06 -0.15394945E-05  0.24698078E-05
     atom  119 type  1   force =  -0.61677702E-06  0.62026797E-07  0.13141488E-05
     atom  120 type  1   force =   0.14000045E-06 -0.76380832E-06 -0.11808138E-05
     atom  121 type  1   force =   0.67416482E-06  0.17246893E-05 -0.85396078E-06
     atom  122 type  1   force =   0.27912632E-05  0.23263641E-05 -0.91596922E-06
     atom  123 type  1   force =   0.20199058E-05  0.23902249E-05  0.68464783E-06
     atom  124 type  1   force =   0.95835076E-06 -0.21120142E-07  0.11372105E-05
     atom  125 type  1   force =  -0.13453849E-05 -0.14179131E-05  0.25343766E-05
     atom  126 type  1   force =  -0.22104757E-05 -0.28911624E-05  0.10343675E-05
     atom  127 type  1   force =  -0.24143514E-05 -0.17818129E-05 -0.72727691E-08
     atom  128 type  1   force =  -0.70593841E-07 -0.90383565E-06 -0.15225366E-05

     Total force =     0.015170     Total SCF correction =     0.000033


     entering subroutine stress ...

          total   stress  (Ry/bohr**3)                   (kbar)     P=    0.23
   0.0000015709  -0.0000005059   0.0000001704          0.23     -0.07      0.03
  -0.0000005059   0.0000015723  -0.0000007665         -0.07      0.23     -0.11
   0.0000001704  -0.0000007665   0.0000015717          0.03     -0.11      0.23

     kinetic stress (kbar)   9996.63      0.07     -0.02
                                0.07   9996.63      0.11
                               -0.02      0.11   9996.63

     local   stress (kbar)   1777.11     12.27     -4.08
                               12.27   1777.05     18.71
                               -4.08     18.71   1777.11

     nonloc. stress (kbar)   2937.39     -0.06      0.02
                               -0.06   2937.39     -0.09
                                0.02     -0.09   2937.39

     hartree stress (kbar)  26306.46     -4.79      1.59
                               -4.79  26306.48     -7.31
                                1.59     -7.31  26306.46

     exc-cor stress (kbar)  19474.21     -0.00      0.00
                               -0.00  19474.21     -0.00
                                0.00     -0.00  19474.21

     corecor stress (kbar) -29142.11      0.00     -0.00
                                0.00 -29142.11      0.01
                               -0.00      0.01 -29142.11

     ewald   stress (kbar) -31349.46     -7.57      2.51
                               -7.57 -31349.43    -11.53
                                2.51    -11.53 -31349.46

     hubbard stress (kbar)      0.00      0.00      0.00
                                0.00      0.00      0.00
                                0.00      0.00      0.00

     london  stress (kbar)      0.00      0.00      0.00
                                0.00      0.00      0.00
                                0.00      0.00      0.00

     XDM     stress (kbar)      0.00      0.00      0.00
                                0.00      0.00      0.00
                                0.00      0.00      0.00

     dft-nl  stress (kbar)      0.00      0.00      0.00
                                0.00      0.00      0.00
                                0.00      0.00      0.00



     Writing output data file Ge_diamond.scf.in.super.444.011.save

     init_run     :   1528.59s CPU   1191.68s WALL (       1 calls)
     electrons    :  99436.29s CPU  81314.06s WALL (       1 calls)
     forces       :   1025.31s CPU    729.42s WALL (       1 calls)
     stress       :   5364.52s CPU   5280.98s WALL (       1 calls)

     Called by init_run:
     wfcinit      :   1464.60s CPU   1127.49s WALL (       1 calls)
     potinit      :      1.09s CPU      1.12s WALL (       1 calls)

     Called by electrons:
     c_bands      :  92436.83s CPU  75279.06s WALL (      13 calls)
     sum_band     :   6180.75s CPU   5215.08s WALL (      13 calls)
     v_of_rho     :     10.03s CPU     10.05s WALL (      13 calls)
     v_h          :      0.65s CPU      0.65s WALL (      13 calls)
     v_xc         :     10.29s CPU     10.32s WALL (      15 calls)
     newd         :    850.75s CPU    851.41s WALL (      13 calls)
     mix_rho      :     16.73s CPU     16.76s WALL (      13 calls)

     Called by c_bands:
     init_us_2    :     44.33s CPU     44.80s WALL (     232 calls)
     cegterg      :  92055.89s CPU  74885.39s WALL (     104 calls)

     Called by sum_band:
     sum_band:bec :     23.68s CPU     23.69s WALL (     104 calls)
     addusdens    :    509.36s CPU    509.92s WALL (      13 calls)

     Called by *egterg:
     h_psi        :  25084.56s CPU  20381.21s WALL (     403 calls)
     s_psi        :   6754.52s CPU   4372.24s WALL (     403 calls)
     g_psi        :     11.16s CPU     15.01s WALL (     291 calls)
     cdiaghg      :  40904.40s CPU  37022.46s WALL (     387 calls)
     cegterg:over :   9147.76s CPU   6174.03s WALL (     291 calls)
     cegterg:upda :   4508.06s CPU   2935.56s WALL (     291 calls)
     cegterg:last :   3095.94s CPU   1981.07s WALL (     104 calls)

     Called by h_psi:
     h_psi:vloc   :  11108.73s CPU  11165.75s WALL (     403 calls)
     h_psi:vnl    :  13949.44s CPU   9188.69s WALL (     403 calls)
     add_vuspsi   :   6776.26s CPU   4382.18s WALL (     403 calls)

     General routines
     calbec       :  11874.09s CPU   8360.83s WALL (     523 calls)
     fft          :    199.21s CPU    199.42s WALL (     233 calls)
     ffts         :      9.98s CPU      9.98s WALL (     369 calls)
     fftw         :  12211.48s CPU  12272.35s WALL (  661276 calls)
     interpolate  :      2.74s CPU      2.78s WALL (      26 calls)

     Parallel routines
     fft_scatter  :   8253.87s CPU   8305.45s WALL (  661878 calls)

     PWSCF        :     1d    5h50m CPU        1d    0h37m WALL


   This run was terminated on:  22:31:42  18Jan2017            

=------------------------------------------------------------------------------=
   JOB DONE.
=------------------------------------------------------------------------------=
