
     Program PWSCF v.5.1 starts on 18Jan2017 at  1:27:22 

     This program is part of the open-source Quantum ESPRESSO suite
     for quantum simulation of materials; please cite
         "P. Giannozzi et al., J. Phys.:Condens. Matter 21 395502 (2009);
          URL http://www.quantum-espresso.org", 
     in publications or presentations arising from this work. More details at
     http://www.quantum-espresso.org/quote

     Parallel version (MPI), running on    16 processors
     R & G space division:  proc/nbgrp/npool/nimage =      16
     Reading input from /tmp/Ge_diamond.scf.in.super.444.Si.01.4275/Ge_diamond.scf.in.super.444.Si.01.t
Warning: card &IONS ignored
Warning: card   ION_DYNAMICS='BFGS', ignored
Warning: card / ignored
Warning: card &CELL ignored
Warning: card  CELL_DYNAMICS = 'BFGS' ignored
Warning: card / ignored
     Message from routine read_cards :
     DEPRECATED: no units specified in CELL_PARAMETERS card

     Current dimensions of program PWSCF are:
     Max number of different atomic species (ntypx) = 10
     Max number of k-points (npk) =  40000
     Max angular momentum in pseudopotentials (lmaxx) =  3

     Subspace diagonalization in iterative solution of the eigenvalue problem:
     a serial algorithm will be used


     Parallelization info
     --------------------
     sticks:   dense  smooth     PW     G-vecs:    dense   smooth      PW
     Min         793     553    145                58871    34448    4637
     Max         795     554    146                58873    34482    4641
     Sum       12703    8863   2335               941961   551433   74249



     bravais-lattice index     =            0
     lattice parameter (alat)  =    30.323768153  a.u.
     unit-cell volume          =   19716.7125 (a.u.)^3
     number of atoms/cell      =          128
     number of atomic types    =            2
     number of electrons       =      1782.00
     number of Kohn-Sham states=         1069
     kinetic-energy cutoff     =      35.0000  Ry
     charge density cutoff     =     200.0000  Ry
     convergence threshold     =      1.0E-09
     mixing beta               =       0.3000
     number of iterations used =            8  local-TF  mixing
     Exchange-correlation      = SLA  PW   PSX  PSC ( 1  4 10  8 0)
     A smooth kinetic-energy cutoff is imposed at      34.5000 Ry
     height of the smooth step-function =             800.0000 Ry
     width of the smooth step-function  =               1.0000 Ry


     celldm(1)=  30.323768  celldm(2)=   0.000000  celldm(3)=   0.000000
     celldm(4)=   0.000000  celldm(5)=   0.000000  celldm(6)=   0.000000

     crystal axes: (cart. coord. in units of alat)
               a(1) = (   0.000000000000   0.707106781187   0.707106781187 )  
               a(2) = (   0.707106781187   0.000000000000   0.707106781187 )  
               a(3) = (   0.707106781187   0.707106781187  -0.000000000000 )  

     reciprocal axes: (cart. coord. in units 2 pi/alat)
               b(1) = ( -0.707107  0.707107  0.707107 )  
               b(2) = (  0.707107 -0.707107  0.707107 )  
               b(3) = (  0.707107  0.707107 -0.707107 )  


     PseudoPot. # 1 for Ge read from file:
     /users/kfg/psuedo/gbrv_1.5/ge.pbesol.UPF
     MD5 check sum: 7bed0412183f5e553a4d27ec7023354d
     Pseudo is Ultrasoft + core correction, Zval = 14.0
     Generated by new atomic code, or converted to UPF format
     Using radial grid of  873 points,  6 beta functions with: 
                l(1) =   0
                l(2) =   0
                l(3) =   1
                l(4) =   1
                l(5) =   2
                l(6) =   2
     Q(r) pseudized with  8 coefficients,  rinner =    1.400   1.400   1.400
                                                       1.400   1.400

     PseudoPot. # 2 for Si read from file:
     /users/kfg/psuedo/gbrv_1.5/si.pbesol.UPF
     MD5 check sum: ef58ba74faed4df802eb8a9742fc00a8
     Pseudo is Ultrasoft + core correction, Zval =  4.0
     Generated by new atomic code, or converted to UPF format
     Using radial grid of  899 points,  6 beta functions with: 
                l(1) =   0
                l(2) =   0
                l(3) =   1
                l(4) =   1
                l(5) =   2
                l(6) =   2
     Q(r) pseudized with  8 coefficients,  rinner =    0.900   0.900   0.900
                                                       0.900   0.900

     atomic species   valence    mass     pseudopotential
        Ge            14.00    72.64000     Ge( 1.00)
        Si             4.00    28.00000     Si( 1.00)

     No symmetry found


                                    s                        frac. trans.

      isym =  1     identity                                     

 cryst.   s( 1) = (     1          0          0      )
                  (     0          1          0      )
                  (     0          0          1      )

 cart.    s( 1) = (  1.0000000  0.0000000  0.0000000 )
                  (  0.0000000  1.0000000  0.0000000 )
                  (  0.0000000  0.0000000  1.0000000 )


     point group C_1 (1)    
     there are  1 classes
     the character table:

       E    
A      1.00

     the symmetry operations in each class:
     E        1

   Cartesian axes

     site n.     atom                  positions (alat units)
         1           Si  tau(   1) = (   -0.00007876522   -0.00005445196   -0.00005442804  )
         2           Ge  tau(   2) = (    0.08850690709    0.08824401521    0.08849069530  )
         3           Ge  tau(   3) = (    0.17674927334    0.17672820026    0.00001511949  )
         4           Ge  tau(   4) = (    0.26508791239    0.26506923206    0.08852355486  )
         5           Ge  tau(   5) = (    0.35366326643    0.35338863401   -0.00013058633  )
         6           Ge  tau(   6) = (    0.44198470644    0.44193431179    0.08847442750  )
         7           Ge  tau(   7) = (    0.53048825063    0.53036985352    0.00005744412  )
         8           Ge  tau(   8) = (    0.61858666061    0.61885875733    0.08843446688  )
         9           Ge  tau(   9) = (    0.17688821401   -0.00001370727    0.17686978521  )
        10           Ge  tau(  10) = (    0.26504648739    0.08835602628    0.26511205912  )
        11           Ge  tau(  11) = (    0.35346115193    0.17661611502    0.17661183800  )
        12           Ge  tau(  12) = (    0.44195402377    0.26502866547    0.26527451737  )
        13           Ge  tau(  13) = (    0.53031921006    0.35359225254    0.17673312193  )
        14           Ge  tau(  14) = (    0.61876630147    0.44184982752    0.26522275866  )
        15           Ge  tau(  15) = (    0.70705556291    0.53023438197    0.17682064941  )
        16           Ge  tau(  16) = (    0.79562857545    0.61860782560    0.26526764003  )
        17           Ge  tau(  17) = (    0.35348260145    0.00011409065    0.35362877665  )
        18           Ge  tau(  18) = (    0.44202966130    0.08848902636    0.44201804162  )
        19           Ge  tau(  19) = (    0.53030726143    0.17694087633    0.35340532136  )
        20           Ge  tau(  20) = (    0.61878268859    0.26531103738    0.44197057002  )
        21           Ge  tau(  21) = (    0.70716893247    0.35367033461    0.35345578328  )
        22           Ge  tau(  22) = (    0.79552971320    0.44185010653    0.44185773058  )
        23           Ge  tau(  23) = (    0.88382869675    0.53028412534    0.35338972192  )
        24           Ge  tau(  24) = (    0.97228189232    0.61872751121    0.44199485063  )
        25           Ge  tau(  25) = (    0.53034523185    0.00010693545    0.53018638820  )
        26           Ge  tau(  26) = (    0.61883322475    0.08834011947    0.61859805315  )
        27           Ge  tau(  27) = (    0.70695829535    0.17665755743    0.53021627095  )
        28           Ge  tau(  28) = (    0.79535063515    0.26528302909    0.61870797992  )
        29           Ge  tau(  29) = (    0.88397413109    0.35341847975    0.53022287894  )
        30           Ge  tau(  30) = (    0.97232876732    0.44187643638    0.61881587788  )
        31           Ge  tau(  31) = (    1.06065234836    0.53024250406    0.53023632534  )
        32           Ge  tau(  32) = (    1.14901875513    0.61867101180    0.61873162106  )
        33           Ge  tau(  33) = (   -0.00002572264    0.17667944653    0.17664042399  )
        34           Ge  tau(  34) = (    0.08839512419    0.26524681908    0.26509675746  )
        35           Ge  tau(  35) = (    0.17686259374    0.35345773125    0.17668363797  )
        36           Ge  tau(  36) = (    0.26521866062    0.44200841363    0.26501763747  )
        37           Ge  tau(  37) = (    0.35339974032    0.53017074493    0.17676943310  )
        38           Ge  tau(  38) = (    0.44189461950    0.61857280059    0.26528106669  )
        39           Ge  tau(  39) = (    0.53020476017    0.70707871295    0.17669047377  )
        40           Ge  tau(  40) = (    0.61879976603    0.79546661770    0.26516367714  )
        41           Ge  tau(  41) = (    0.17694047177    0.17673860252    0.35360897813  )
        42           Ge  tau(  42) = (    0.26506586457    0.26516363595    0.44187197937  )
        43           Ge  tau(  43) = (    0.35348674208    0.35355947386    0.35339092675  )
        44           Ge  tau(  44) = (    0.44201083267    0.44192838526    0.44185182103  )
        45           Ge  tau(  45) = (    0.53019057880    0.53021437299    0.35357981306  )
        46           Ge  tau(  46) = (    0.61873435637    0.61858175664    0.44199703002  )
        47           Ge  tau(  47) = (    0.70719897988    0.70699871245    0.35357348325  )
        48           Ge  tau(  48) = (    0.79550447088    0.79544131463    0.44186996924  )
        49           Ge  tau(  49) = (    0.35354584420    0.17665753156    0.53043957677  )
        50           Ge  tau(  50) = (    0.44205759348    0.26512107102    0.61876196267  )
        51           Ge  tau(  51) = (    0.53038950016    0.35363277981    0.53047931896  )
        52           Ge  tau(  52) = (    0.61878227719    0.44192256076    0.61876996074  )
        53           Ge  tau(  53) = (    0.70707070936    0.53018823708    0.53045251732  )
        54           Ge  tau(  54) = (    0.79534025360    0.61885225792    0.61868807978  )
        55           Ge  tau(  55) = (    0.88382507734    0.70695765559    0.53021928222  )
        56           Ge  tau(  56) = (    0.97229877431    0.79565468845    0.61879991654  )
        57           Ge  tau(  57) = (    0.53023371251    0.17693492959    0.70709957958  )
        58           Ge  tau(  58) = (    0.61875496426    0.26530300652    0.79540371518  )
        59           Ge  tau(  59) = (    0.70726930642    0.35360375565    0.70696722349  )
        60           Ge  tau(  60) = (    0.79563614014    0.44183128903    0.79564566035  )
        61           Ge  tau(  61) = (    0.88397972882    0.53019196831    0.70719185992  )
        62           Ge  tau(  62) = (    0.97238909151    0.61860720953    0.79563020262  )
        63           Ge  tau(  63) = (    1.06077460507    0.70710593640    0.70709350112  )
        64           Ge  tau(  64) = (    1.14915355205    0.79541759692    0.79562801141  )
        65           Ge  tau(  65) = (   -0.00002625073    0.35364087063    0.35360378989  )
        66           Ge  tau(  66) = (    0.08830968012    0.44185509995    0.44183921198  )
        67           Ge  tau(  67) = (    0.17677215322    0.53049303192    0.35353702689  )
        68           Ge  tau(  68) = (    0.26500816610    0.61865824139    0.44186558689  )
        69           Ge  tau(  69) = (    0.35352051756    0.70706537547    0.35347076989  )
        70           Ge  tau(  70) = (    0.44186657945    0.79551776020    0.44188300579  )
        71           Ge  tau(  71) = (    0.53043424192    0.88400232683    0.35360333786  )
        72           Ge  tau(  72) = (    0.61875188358    0.97239604987    0.44195001841  )
        73           Ge  tau(  73) = (    0.17664930673    0.35357568925    0.53041150800  )
        74           Ge  tau(  74) = (    0.26509206591    0.44186179355    0.61885186163  )
        75           Ge  tau(  75) = (    0.35352413623    0.53025503854    0.53049070994  )
        76           Ge  tau(  76) = (    0.44178054072    0.61887041682    0.61858236539  )
        77           Ge  tau(  77) = (    0.53046883708    0.70718301979    0.53043215073  )
        78           Ge  tau(  78) = (    0.61886468467    0.79542542695    0.61875225762  )
        79           Ge  tau(  79) = (    0.70725137479    0.88396254687    0.53016573930  )
        80           Ge  tau(  80) = (    0.79551525251    0.97222917127    0.61876268037  )
        81           Ge  tau(  81) = (    0.35345712139    0.35350768050    0.70713719431  )
        82           Ge  tau(  82) = (    0.44205075257    0.44181993257    0.79536192458  )
        83           Ge  tau(  83) = (    0.53028274591    0.53020281862    0.70701201219  )
        84           Ge  tau(  84) = (    0.61863053178    0.61871565120    0.79544647261  )
        85           Ge  tau(  85) = (    0.70722277956    0.70723467756    0.70724061097  )
        86           Ge  tau(  86) = (    0.79549881006    0.79555028959    0.79546009685  )
        87           Ge  tau(  87) = (    0.88388571591    0.88374881828    0.70712391104  )
        88           Ge  tau(  88) = (    0.97229254439    0.97240191317    0.79536869960  )
        89           Ge  tau(  89) = (    0.53028052009    0.35360331028    0.88383068948  )
        90           Ge  tau(  90) = (    0.61883551117    0.44208226620    0.97236717483  )
        91           Ge  tau(  91) = (    0.70709136129    0.53043020019    0.88385574386  )
        92           Ge  tau(  92) = (    0.79538802365    0.61863672746    0.97222838668  )
        93           Ge  tau(  93) = (    0.88387890113    0.70713704320    0.88397677806  )
        94           Ge  tau(  94) = (    0.97239903249    0.79562567358    0.97235556377  )
        95           Ge  tau(  95) = (    1.06058022352    0.88395427346    0.88377995263  )
        96           Ge  tau(  96) = (    1.14919674595    0.97233353155    0.97220556409  )
        97           Ge  tau(  97) = (   -0.00011474415    0.53024454641    0.53038887458  )
        98           Ge  tau(  98) = (    0.08834519526    0.61857819821    0.61855917214  )
        99           Ge  tau(  99) = (    0.17689358543    0.70698872602    0.53032946576  )
       100           Ge  tau( 100) = (    0.26522810953    0.79547596355    0.61864572281  )
       101           Ge  tau( 101) = (    0.35340395128    0.88403552833    0.53026991431  )
       102           Ge  tau( 102) = (    0.44196683319    0.97225382010    0.61874450334  )
       103           Ge  tau( 103) = (    0.53036089497    1.06068030845    0.53030452008  )
       104           Ge  tau( 104) = (    0.61865205903    1.14906954452    0.61882346912  )
       105           Ge  tau( 105) = (    0.17682641356    0.53042031802    0.70696752929  )
       106           Ge  tau( 106) = (    0.26523556132    0.61868092372    0.79536531897  )
       107           Ge  tau( 107) = (    0.35343037657    0.70698688571    0.70721596565  )
       108           Ge  tau( 108) = (    0.44200815365    0.79548462407    0.79540936901  )
       109           Ge  tau( 109) = (    0.53045303277    0.88396022642    0.70712160219  )
       110           Ge  tau( 110) = (    0.61877321497    0.97230216122    0.79538603056  )
       111           Ge  tau( 111) = (    0.70698017830    1.06060089475    0.70718227349  )
       112           Ge  tau( 112) = (    0.79556257968    1.14919945954    0.79540026693  )
       113           Ge  tau( 113) = (    0.35340285523    0.53018141441    0.88388001381  )
       114           Ge  tau( 114) = (    0.44208219764    0.61872732888    0.97237814548  )
       115           Ge  tau( 115) = (    0.53037948918    0.70725102742    0.88397416923  )
       116           Ge  tau( 116) = (    0.61887800901    0.79540809946    0.97231787212  )
       117           Ge  tau( 117) = (    0.70701958057    0.88372447499    0.88374357088  )
       118           Ge  tau( 118) = (    0.79556234139    0.97224101778    0.97226133071  )
       119           Ge  tau( 119) = (    0.88375405506    1.06081629419    0.88381238362  )
       120           Ge  tau( 120) = (    0.97214318964    1.14912171753    0.97237142686  )
       121           Ge  tau( 121) = (    0.53043610676    0.53033321955    1.06076831102  )
       122           Ge  tau( 122) = (    0.61886066437    0.61872236113    1.14908776295  )
       123           Ge  tau( 123) = (    0.70724907279    0.70710017118    1.06056020041  )
       124           Ge  tau( 124) = (    0.79565982249    0.79533339560    1.14913644797  )
       125           Ge  tau( 125) = (    0.88395762122    0.88388984549    1.06059405119  )
       126           Ge  tau( 126) = (    0.97224285257    0.97219166581    1.14891949531  )
       127           Ge  tau( 127) = (    1.06052731546    1.06063222690    1.06061203022  )
       128           Ge  tau( 128) = (    1.14909021433    1.14920871771    1.14888601214  )

   Crystallographic axes

     site n.     atom                  positions (cryst. coord.)
         1           Si  tau(   1) = (   -0.00002129436   -0.00005567851   -0.00005571233  )
         2           Ge  tau(   2) = (    0.06238647809    0.06275826335    0.06240940503  )
         3           Ge  tau(   3) = (   -0.00000420982    0.00002559201    0.24993562748  )
         4           Ge  tau(   4) = (    0.06258239695    0.06260881492    0.31228210600  )
         5           Ge  tau(   5) = (   -0.00028653293    0.00010185597    0.50005353193  )
         6           Ge  tau(   6) = (    0.06252523325    0.06259650205    0.56246426416  )
         7           Ge  tau(   7) = (   -0.00004310027    0.00012433853    0.75009934019  )
         8           Ge  tau(   8) = (    0.06272501266    0.06234020979    0.81247343516  )
         9           Ge  tau(   9) = (   -0.00002272364    0.25015437265    0.00000333863  )
        10           Ge  tau(  10) = (    0.06252351155    0.31240155800    0.06243077913  )
        11           Ge  tau(  11) = (   -0.00016489653    0.24993175311    0.24993780172  )
        12           Ge  tau(  12) = (    0.06247228949    0.31268253073    0.31233484363  )
        13           Ge  tau(  13) = (    0.00000435890    0.24993401906    0.50005060019  )
        14           Ge  tau(  14) = (    0.06244197274    0.31263964961    0.56242804587  )
        15           Ge  tau(  15) = (   -0.00000037584    0.25006253635    0.74986503006  )
        16           Ge  tau(  16) = (    0.06239997447    0.31274511973    0.81244360228  )
        17           Ge  tau(  17) = (    0.00018403575    0.49992257624   -0.00002268721  )
        18           Ge  tau(  18) = (    0.06256297424    0.56254493503    0.06257940695  )
        19           Ge  tau(  19) = (    0.00002753209    0.49976306639    0.25020465495  )
        20           Ge  tau(  20) = (    0.06257818562    0.56246258868    0.31262828169  )
        21           Ge  tau(  21) = (   -0.00003027447    0.49989223689    0.50019565829  )
        22           Ge  tau(  22) = (    0.06235134937    0.56252984586    0.56251906382  )
        23           Ge  tau(  23) = (   -0.00010949512    0.49987803267    0.75004449708  )
        24           Ge  tau(  24) = (    0.06253685573    0.56253825653    0.81247598204  )
        25           Ge  tau(  25) = (   -0.00003670464    0.74983348542    0.00018793421  )
        26           Ge  tau(  26) = (    0.06229960610    0.81253015033    0.06263218896  )
        27           Ge  tau(  27) = (   -0.00005972717    0.74989876854    0.24989124077  )
        28           Ge  tau(  28) = (    0.06267820945    0.81230700691    0.31248864816  )
        29           Ge  tau(  29) = (   -0.00023530562    0.75008369210    0.50004451287  )
        30           Ge  tau(  30) = (    0.06248246325    0.81265534386    0.56242518597  )
        31           Ge  tau(  31) = (   -0.00012269643    0.74999009899    0.74999883702  )
        32           Ge  tau(  32) = (    0.06249683929    0.81252181068    0.81243609625  )
        33           Ge  tau(  33) = (    0.24985306503   -0.00004578176    0.00000940444  )
        34           Ge  tau(  34) = (    0.31250474759    0.06239868215    0.06261090133  )
        35           Ge  tau(  35) = (    0.24980581779    0.00006257927    0.25005889947  )
        36           Ge  tau(  36) = (    0.31240500178    0.06238653539    0.31268929146  )
        37           Ge  tau(  37) = (    0.24999084093   -0.00000111122    0.49978381693  )
        38           Ge  tau(  38) = (    0.31251238111    0.06265170124    0.56228166280  )
        39           Ge  tau(  39) = (    0.25000780360   -0.00012973925    0.74995250192  )
        40           Ge  tau(  40) = (    0.31242136306    0.06257670541    0.81253831611  )
        41           Ge  tau(  41) = (    0.24989656321    0.25018204944    0.00004956547  )
        42           Ge  tau(  42) = (    0.31251980783    0.31238153823    0.06247820238  )
        43           Ge  tau(  43) = (    0.24993654985    0.24983369158    0.25007205319  )
        44           Ge  tau(  44) = (    0.31237811981    0.31249471805    0.31260299623  )
        45           Ge  tau(  45) = (    0.25003550854    0.25000185847    0.49980084872  )
        46           Ge  tau(  46) = (    0.31243119289    0.31264700150    0.56237551679  )
        47           Ge  tau(  47) = (    0.24987259720    0.25015581811    0.74997457053  )
        48           Ge  tau(  48) = (    0.31240459344    0.31249390986    0.81251930178  )
        49           Ge  tau(  49) = (    0.24999849636    0.50015634713   -0.00016701934  )
        50           Ge  tau(  50) = (    0.31241776488    0.56264379461    0.06252004944  )
        51           Ge  tau(  51) = (    0.25011964814    0.50009139930    0.24999262517  )
        52           Ge  tau(  52) = (    0.31247773043    0.56259514004    0.31249514852  )
        53           Ge  tau(  53) = (    0.25001177648    0.50016136771    0.49978761902  )
        54           Ge  tau(  54) = (    0.31268267811    0.56227439520    0.56250657815  )
        55           Ge  tau(  55) = (    0.24985749668    0.49998580327    0.74993160787  )
        56           Ge  tau(  56) = (    0.31265138621    0.56246384815    0.81257426516  )
        57           Ge  tau(  57) = (    0.25017494251    0.74981487288    0.00004883458  )
        58           Ge  tau(  58) = (    0.31250708464    0.81236363693    0.06268802532  )
        59           Ge  tau(  59) = (    0.24982200858    0.74998062703    0.25024921836  )
        60           Ge  tau(  60) = (    0.31242863242    0.81278425130    0.31241516880  )
        61           Ge  tau(  61) = (    0.24989443519    0.75022588431    0.49991023705  )
        62           Ge  tau(  62) = (    0.31243394378    0.81275707941    0.56240876172  )
        63           Ge  tau(  63) = (    0.24990909567    0.75007212348    0.75008970963  )
        64           Ge  tau(  64) = (    0.31246486955    0.81272305480    0.81242548377  )
        65           Ge  tau(  65) = (    0.50011605748   -0.00004478211    0.00000765797  )
        66           Ge  tau(  66) = (    0.56242186680    0.06243313917    0.06245560815  )
        67           Ge  tau(  67) = (    0.50010686109   -0.00013000286    0.25012357939  )
        68           Ge  tau(  68) = (    0.56251451927    0.06237778646    0.31240035618  )
        69           Ge  tau(  69) = (    0.49993554483   -0.00005238815    0.50000589865  )
        70           Ge  tau(  70) = (    0.56252761797    0.06238932180    0.56250438761  )
        71           Ge  tau(  71) = (    0.50004570850    0.00002492760    0.75012237127  )
        72           Ge  tau(  72) = (    0.56257004308    0.06244166685    0.81260563865  )
        73           Ge  tau(  73) = (    0.50016341898    0.24995172927   -0.00013188392  )
        74           Ge  tau(  74) = (    0.56258942103    0.31259927479    0.06229752010  )
        75           Ge  tau(  75) = (    0.50008119782    0.25014595889    0.24981266920  )
        76           Ge  tau(  76) = (    0.56262523756    0.31218233302    0.31258969925  )
        77           Ge  tau(  77) = (    0.50002796767    0.25011637381    0.50007985000  )
        78           Ge  tau(  78) = (    0.56237121539    0.31267661909    0.56253021125  )
        79           Ge  tau(  79) = (    0.49983745751    0.24993012132    0.75027436491  )
        80           Ge  tau(  80) = (    0.56248689752    0.31257567695    0.81245278222  )
        81           Ge  tau(  81) = (    0.50005725602    0.49998575463   -0.00012189985  )
        82           Ge  tau(  82) = (    0.56224259598    0.56256902476    0.06258514478  )
        83           Ge  tau(  83) = (    0.49987647107    0.49998950533    0.24994354583  )
        84           Ge  tau(  84) = (    0.56252578337    0.56240540633    0.31247028181  )
        85           Ge  tau(  85) = (    0.50010304511    0.50008621879    0.50007782768  )
        86           Ge  tau(  86) = (    0.56251163017    0.56243882712    0.56256637892  )
        87           Ge  tau(  87) = (    0.49991531140    0.50010891388    0.74989425315  )
        88           Ge  tau(  88) = (    0.56248793644    0.56233326562    0.81269603724  )
        89           Ge  tau(  89) = (    0.50003302082    0.74989232709    0.00003757628  )
        90           Ge  tau(  90) = (    0.56258400501    0.81255084125    0.06261473153  )
        91           Ge  tau(  91) = (    0.50006208509    0.74989869506    0.25007949792  )
        92           Ge  tau(  92) = (    0.56248724497    0.81245132520    0.31239720519  )
        93           Ge  tau(  93) = (    0.50009060791    0.75004134044    0.49995218903  )
        94           Ge  tau(  94) = (    0.56256157204    0.81255685369    0.56262304610  )
        95           Ge  tau(  95) = (    0.50003339056    0.74982020460    0.75006673148  )
        96           Ge  tau(  96) = (    0.56239196883    0.81251432533    0.81269529863  )
        97           Ge  tau(  97) = (    0.75006222070    0.00002091906   -0.00018319180  )
        98           Ge  tau(  98) = (    0.81231873718    0.06245603319    0.06248294012  )
        99           Ge  tau(  99) = (    0.74983343009    0.00016569292    0.24999961470  )
       100           Ge  tau( 100) = (    0.81239043904    0.06250673246    0.31258245715  )
       101           Ge  tau( 101) = (    0.75017063871   -0.00025573418    0.50004439508  )
       102           Ge  tau( 102) = (    0.81248795856    0.06254890971    0.56248657990  )
       103           Ge  tau( 103) = (    0.74997437571   -0.00001053122    0.75005410185  )
       104           Ge  tau( 104) = (    0.81263607222    0.06251247052    0.81239366175  )
       105           Ge  tau( 105) = (    0.74993018167    0.24987288641    0.00019742583  )
       106           Ge  tau( 106) = (    0.81233182310    0.31248459803    0.06261513001  )
       107           Ge  tau( 107) = (    0.75007941022    0.25007499993    0.24975103197  )
       108           Ge  tau( 108) = (    0.81238496787    0.31249374943    0.31260017615  )
       109           Ge  tau( 109) = (    0.74997781386    0.25004314620    0.50013072694  )
       110           Ge  tau( 110) = (    0.81240557111    0.31244014063    0.56263733202  )
       111           Ge  tau( 111) = (    0.75010098769    0.25000577456    0.74981518192  )
       112           Ge  tau( 112) = (    0.81249195833    0.31237388668    0.81272150322  )
       113           Ge  tau( 113) = (    0.74999886948    0.49999623356   -0.00020912271  )
       114           Ge  tau( 114) = (    0.81248215071    0.56266821039    0.06253042920  )
       115           Ge  tau( 115) = (    0.75013119355    0.49999706536    0.25007280144  )
       116           Ge  tau( 116) = (    0.81235818488    0.56270693681    0.31251873699  )
       117           Ge  tau( 117) = (    0.74985030091    0.49995184268    0.49992483702  )
       118           Ge  tau( 118) = (    0.81242327020    0.56256188986    0.56253316305  )
       119           Ge  tau( 119) = (    0.75015163974    0.49974781978    0.75006915069  )
       120           Ge  tau( 120) = (    0.81271314697    0.56242771257    0.81239037079  )
       121           Ge  tau( 121) = (    0.75000371374    0.75014921824    0.00000071792  )
       122           Ge  tau( 122) = (    0.81242995420    0.81262554452    0.06257560025  )
       123           Ge  tau( 123) = (    0.74982402023    0.75003459890    0.25016663181  )
       124           Ge  tau( 124) = (    0.81233135620    0.81279299354    0.31243991846  )
       125           Ge  tau( 125) = (    0.74990532101    0.75000117036    0.50010368613  )
       126           Ge  tau( 126) = (    0.81237257166    0.81244496067    0.56251406735  )
       127           Ge  tau( 127) = (    0.75004014237    0.74989177519    0.74992033760  )
       128           Ge  tau( 128) = (    0.81246888454    0.81230129545    0.81275767005  )

     number of k points=     8  gaussian smearing, width (Ry)=  0.0150
                       cart. coord. in units 2pi/alat
        k(    1) = (   0.0000000   0.0000000   0.0000000), wk =   0.2500000
        k(    2) = (  -0.3535534  -0.3535534   0.3535534), wk =   0.2500000
        k(    3) = (  -0.7071068   0.0000000   0.0000000), wk =   0.2500000
        k(    4) = (   0.3535534   0.3535534   0.3535534), wk =   0.2500000
        k(    5) = (   0.3535534  -0.3535534  -0.3535534), wk =   0.2500000
        k(    6) = (  -0.3535534   0.3535534  -0.3535534), wk =   0.2500000
        k(    7) = (   0.0000000  -0.7071068   0.0000000), wk =   0.2500000
        k(    8) = (   0.0000000   0.0000000  -0.7071068), wk =   0.2500000

                       cryst. coord.
        k(    1) = (   0.0000000   0.0000000   0.0000000), wk =   0.2500000
        k(    2) = (   0.0000000   0.0000000  -0.5000000), wk =   0.2500000
        k(    3) = (   0.0000000  -0.5000000  -0.5000000), wk =   0.2500000
        k(    4) = (   0.5000000   0.5000000   0.5000000), wk =   0.2500000
        k(    5) = (  -0.5000000   0.0000000   0.0000000), wk =   0.2500000
        k(    6) = (   0.0000000  -0.5000000   0.0000000), wk =   0.2500000
        k(    7) = (  -0.5000000   0.0000000  -0.5000000), wk =   0.2500000
        k(    8) = (  -0.5000000  -0.5000000   0.0000000), wk =   0.2500000

     Dense  grid:   941961 G-vectors     FFT dimensions: ( 144, 144, 144)

     Smooth grid:   551433 G-vectors     FFT dimensions: ( 120, 120, 120)

     Largest allocated arrays     est. size (Mb)     dimensions
        Kohn-Sham Wavefunctions        70.56 Mb     (    4326, 1069)
        NL pseudopotentials           152.09 Mb     (    4326, 2304)
        Each V/rho on FFT grid          2.85 Mb     (  186624)
        Each G-vector array             0.45 Mb     (   58872)
        G-vector shells                 0.02 Mb     (    3076)
     Largest temporary arrays     est. size (Mb)     dimensions
        Auxiliary wavefunctions       282.26 Mb     (    4326, 4276)
        Each subspace H/S matrix      278.99 Mb     (    4276, 4276)
        Each <psi_i|beta_j> matrix     37.58 Mb     (    2304, 1069)
        Arrays for rho mixing          22.78 Mb     (  186624,    8)

     Check: negative/imaginary core charge=   -0.000001    0.000000

     Initial potential from superposition of free atoms

     starting charge 1781.89672, renormalised to 1782.00000
     Starting wfc are 1147 randomized atomic wfcs

     total cpu time spent up to now is     1013.5 secs

     Self-consistent Calculation

     iteration #  1     ecut=    35.00 Ry     beta=0.30
     Davidson diagonalization with overlap
     ethr =  1.00E-02,  avg # of iterations =  4.6

     Threshold (ethr) on eigenvalues was too large:
     Diagonalizing with lowered threshold

     Davidson diagonalization with overlap
     ethr =  1.12E-04,  avg # of iterations =  7.8

     total cpu time spent up to now is    14848.6 secs

     total energy              =  -27084.63648226 Ry
     Harris-Foulkes estimate   =  -27084.85238019 Ry
     estimated scf accuracy    <       2.13232756 Ry

     iteration #  2     ecut=    35.00 Ry     beta=0.30
     Davidson diagonalization with overlap
     ethr =  1.20E-04,  avg # of iterations =  1.0

     total cpu time spent up to now is    17732.3 secs

     total energy              =  -27084.23899982 Ry
     Harris-Foulkes estimate   =  -27084.64375471 Ry
     estimated scf accuracy    <       1.30840069 Ry

     iteration #  3     ecut=    35.00 Ry     beta=0.30
     Davidson diagonalization with overlap
     ethr =  7.34E-05,  avg # of iterations =  2.0

     total cpu time spent up to now is    21270.1 secs

     total energy              =  -27084.30588858 Ry
     Harris-Foulkes estimate   =  -27084.30884503 Ry
     estimated scf accuracy    <       0.02351949 Ry

     iteration #  4     ecut=    35.00 Ry     beta=0.30
     Davidson diagonalization with overlap
     ethr =  1.32E-06,  avg # of iterations =  5.8

     total cpu time spent up to now is    31996.9 secs

     total energy              =  -27084.31037754 Ry
     Harris-Foulkes estimate   =  -27084.31061242 Ry
     estimated scf accuracy    <       0.00259353 Ry

     iteration #  5     ecut=    35.00 Ry     beta=0.30
     Davidson diagonalization with overlap
     ethr =  1.46E-07,  avg # of iterations =  2.0

     total cpu time spent up to now is    35970.6 secs

     total energy              =  -27084.31039581 Ry
     Harris-Foulkes estimate   =  -27084.31059426 Ry
     estimated scf accuracy    <       0.00051621 Ry

     iteration #  6     ecut=    35.00 Ry     beta=0.30
     Davidson diagonalization with overlap
     ethr =  2.90E-08,  avg # of iterations =  1.6

     total cpu time spent up to now is    38970.4 secs

     total energy              =  -27084.31042809 Ry
     Harris-Foulkes estimate   =  -27084.31040960 Ry
     estimated scf accuracy    <       0.00001687 Ry

     iteration #  7     ecut=    35.00 Ry     beta=0.30
     Davidson diagonalization with overlap
     ethr =  9.47E-10,  avg # of iterations =  2.0

     total cpu time spent up to now is    42432.0 secs

     total energy              =  -27084.31043427 Ry
     Harris-Foulkes estimate   =  -27084.31043135 Ry
     estimated scf accuracy    <       0.00001095 Ry

     iteration #  8     ecut=    35.00 Ry     beta=0.30
     Davidson diagonalization with overlap
     ethr =  6.14E-10,  avg # of iterations =  2.0

     total cpu time spent up to now is    45818.5 secs

     total energy              =  -27084.31043773 Ry
     Harris-Foulkes estimate   =  -27084.31043501 Ry
     estimated scf accuracy    <       0.00000052 Ry

     iteration #  9     ecut=    35.00 Ry     beta=0.30
     Davidson diagonalization with overlap
     ethr =  2.91E-11,  avg # of iterations =  2.0

     total cpu time spent up to now is    50941.0 secs

     total energy              =  -27084.31043915 Ry
     Harris-Foulkes estimate   =  -27084.31043790 Ry
     estimated scf accuracy    <       0.00000031 Ry

     iteration # 10     ecut=    35.00 Ry     beta=0.30
     Davidson diagonalization with overlap
     ethr =  1.76E-11,  avg # of iterations =  2.0

     total cpu time spent up to now is    54655.1 secs

     total energy              =  -27084.31043982 Ry
     Harris-Foulkes estimate   =  -27084.31043917 Ry
     estimated scf accuracy    <       0.00000003 Ry

     iteration # 11     ecut=    35.00 Ry     beta=0.30
     Davidson diagonalization with overlap
     ethr =  1.70E-12,  avg # of iterations =  2.0

     total cpu time spent up to now is    58952.9 secs

     total energy              =  -27084.31044018 Ry
     Harris-Foulkes estimate   =  -27084.31043983 Ry
     estimated scf accuracy    <       0.00000001 Ry

     iteration # 12     ecut=    35.00 Ry     beta=0.30
     Davidson diagonalization with overlap
     ethr =  6.17E-13,  avg # of iterations =  2.5

     total cpu time spent up to now is    62847.5 secs

     End of self-consistent calculation

          k = 0.0000 0.0000 0.0000 ( 69041 PWs)   bands (ev):

   -16.6624 -16.6623 -16.6621 -16.6618 -16.6617 -16.6615 -16.6614 -16.6612
   -16.6610 -16.6609 -16.6608 -16.6607 -16.6603 -16.6601 -16.6598 -16.6596
   -16.6595 -16.6594 -16.6593 -16.6593 -16.6591 -16.6590 -16.6589 -16.6588
   -16.6587 -16.6586 -16.6584 -16.6583 -16.6582 -16.6580 -16.6579 -16.6574
   -16.6572 -16.6570 -16.6567 -16.6565 -16.6555 -16.6554 -16.6550 -16.6549
   -16.6546 -16.6546 -16.6544 -16.6536 -16.6531 -16.6526 -16.6522 -16.6517
   -16.6489 -16.6486 -16.6484 -16.6484 -16.6481 -16.6478 -16.6477 -16.6476
   -16.6473 -16.6472 -16.6471 -16.6469 -16.6467 -16.6466 -16.6464 -16.6462
   -16.6462 -16.6460 -16.6459 -16.6458 -16.6457 -16.6456 -16.6456 -16.6454
   -16.6453 -16.6452 -16.6452 -16.6450 -16.6449 -16.6448 -16.6447 -16.6445
   -16.6444 -16.6441 -16.6435 -16.6431 -16.6428 -16.6426 -16.6423 -16.6410
   -16.6405 -16.6401 -16.6390 -16.6386 -16.6386 -16.6381 -16.6380 -16.6365
   -16.6362 -16.6360 -16.6340 -16.6339 -16.6336 -16.6335 -16.6333 -16.6331
   -16.6329 -16.6327 -16.6325 -16.6324 -16.6323 -16.6322 -16.6319 -16.6318
   -16.6317 -16.6317 -16.6313 -16.6310 -16.6305 -16.6303 -16.6301 -16.6297
   -16.6293 -16.6289 -16.6288 -16.6220 -16.6215 -16.6213 -16.6205 -16.6184
   -16.6182 -16.6146 -16.6144 -16.6143 -16.6094 -16.6093 -16.6090 -16.6064
   -16.6055 -16.6048 -16.6046 -16.6043 -16.5970 -16.5966 -16.5964 -16.5949
   -16.5882 -16.5874 -16.5870 -16.5796 -16.5794 -16.5780 -16.5780 -16.5779
   -16.5778 -16.5778 -16.5776 -16.5775 -16.5773 -16.5773 -16.5772 -16.5771
   -16.5768 -16.5766 -16.5764 -16.5763 -16.5762 -16.5760 -16.5759 -16.5749
   -16.5742 -16.5740 -16.5738 -16.5737 -16.5734 -16.5718 -16.5716 -16.5710
   -16.5707 -16.5706 -16.5704 -16.5703 -16.5700 -16.5678 -16.5643 -16.5642
   -16.5641 -16.5616 -16.5615 -16.5611 -16.5532 -16.5530 -16.5528 -16.5525
   -16.5524 -16.5522 -16.5518 -16.5517 -16.5516 -16.5515 -16.5514 -16.5513
   -16.5512 -16.5511 -16.5497 -16.5495 -16.5478 -16.5470 -16.5468 -16.5465
   -16.5445 -16.5442 -16.5388 -16.5385 -16.5383 -16.5382 -16.5378 -16.5377
   -16.5376 -16.5373 -16.5371 -16.5370 -16.5368 -16.5367 -16.5360 -16.5358
   -16.5356 -16.5353 -16.5350 -16.5348 -16.5305 -16.5303 -16.5302 -16.5293
   -16.5289 -16.5237 -16.5233 -16.5232 -16.5226 -16.5225 -16.5223 -16.5219
   -16.5216 -16.5209 -16.5156 -16.5149 -16.5147 -16.5141 -16.5136 -16.5135
   -16.5133 -16.5133 -16.5133 -16.5131 -16.5130 -16.5129 -16.5128 -16.5127
   -16.5126 -16.5125 -16.5123 -16.5123 -16.5121 -16.5120 -16.5119 -16.5117
   -16.5116 -16.5115 -16.5114 -16.5107 -16.5105 -16.5103 -16.5102 -16.5098
   -16.5094 -16.5090 -16.5088 -16.5086 -16.5084 -16.5082 -16.5078 -16.5059
   -16.5059 -16.5053 -16.5016 -16.5014 -16.5011 -16.4982 -16.4981 -16.4938
   -16.4937 -16.4936 -16.4935 -16.4934 -16.4934 -16.4934 -16.4932 -16.4930
   -16.4928 -16.4925 -16.4924 -16.4922 -16.4921 -16.4920 -16.4912 -16.4908
   -16.4907 -16.4906 -16.4834 -16.4831 -16.4829 -16.4819 -16.4817 -16.4762
   -16.4761 -16.4758 -16.4757 -16.4756 -16.4756 -16.4755 -16.4754 -16.4754
   -16.4753 -16.4752 -16.4751 -16.4749 -16.4749 -16.4747 -16.4747 -16.4747
   -16.4745 -16.4745 -16.4742 -16.4742 -16.4740 -16.4734 -16.4733 -16.4727
   -16.4725 -16.4720 -16.4710 -16.4702 -16.4700 -16.4694 -16.4692 -16.4691
   -16.4684 -16.4663 -16.4660 -16.4657 -16.4605 -16.4604 -16.4603 -16.4583
   -16.4583 -16.4581 -16.4490 -16.4487 -16.4483 -16.4481 -16.4480 -16.4427
   -16.4426 -16.4425 -16.4422 -16.4420 -16.4419 -16.4417 -16.4407 -16.4403
   -16.4401 -16.4401 -16.4399 -16.4396 -16.4394 -16.4393 -16.4391 -16.4390
   -16.4385 -16.4383 -16.4330 -16.4327 -16.4321 -16.4318 -16.4318 -16.4288
   -16.4286 -16.4285 -16.4284 -16.4282 -16.4281 -16.4280 -16.4279 -16.4277
   -16.4277 -16.4276 -16.4276 -16.4275 -16.4273 -16.4272 -16.4271 -16.4269
   -16.4266 -16.4262 -16.4221 -16.4218 -16.4218 -16.4215 -16.4214 -16.4205
   -16.4204 -16.4203 -16.4194 -16.4194 -16.4193 -16.4184 -16.4144 -16.4143
   -16.4131 -16.4129 -16.4128 -16.4107 -16.4096 -16.4095 -16.4092 -16.4091
   -16.4089 -16.4086 -16.4084 -16.4082 -16.4081 -16.4078 -16.4077 -16.4075
   -16.4073 -16.4073 -16.4072 -16.4071 -16.4069 -16.4053 -16.4051 -16.4051
   -16.4049 -16.4047 -16.4044 -16.4012 -16.4009 -16.3992 -16.3991 -16.3989
   -16.3988 -16.3987 -16.3986 -16.3986 -16.3985 -16.3983 -16.3983 -16.3982
   -16.3982 -16.3981 -16.3980 -16.3979 -16.3979 -16.3978 -16.3977 -16.3976
   -16.3975 -16.3972 -16.3971 -16.3971 -16.3969 -16.3969 -16.3968 -16.3963
   -16.3962 -16.3958 -16.3957 -16.3955 -16.3955 -16.3945 -16.3943 -16.3942
   -16.3924 -16.3923 -16.3920 -16.3917 -16.3915 -16.3913 -16.3900 -16.3891
   -16.3889 -16.3887 -16.3865 -16.3862 -16.3859 -16.3837 -16.3818 -16.3817
   -16.3817 -16.3802 -16.3739 -16.3737 -16.3737 -16.3638 -16.3631 -16.3626
   -16.3605 -16.3605 -16.3495 -16.3494 -16.3484 -16.3482 -16.3482 -16.3481
   -16.3473 -16.3472 -16.3471 -16.3466 -16.3465 -16.3464 -16.3459 -16.3455
   -16.3455 -16.3445 -16.3444 -16.3440 -16.3413 -16.3412 -16.3410 -16.3409
   -16.3407 -16.3406 -16.3406 -16.3406 -16.3405 -16.3404 -16.3403 -16.3403
   -16.3402 -16.3372 -16.3371 -16.3366 -16.3345 -16.3342 -16.3340 -16.3338
   -16.3336 -16.3319 -16.3318 -16.3317 -16.3279 -16.3278 -16.3277 -16.3276
   -16.3274 -16.3273 -16.3272 -16.3271 -16.3269 -16.3269 -16.3269 -16.3267
   -16.3265 -16.3264 -16.3264 -16.3263 -16.3262 -16.3262 -16.3255 -16.3253
   -16.3252 -16.3250 -16.3250 -16.3245 -16.3235 -16.3233 -16.3232 -16.3231
   -16.3230 -16.3229 -16.3226 -16.3225 -16.3223 -16.3217 -16.3216 -16.3214
   -16.3211 -16.3208 -16.3206 -16.3201 -16.3200 -16.3198 -16.3195 -16.3191
   -16.3190 -16.3186 -16.3185 -16.3183 -16.3183 -16.3182 -16.3180 -16.3157
   -16.3154 -16.3152 -16.3137 -16.3134 -16.3133 -16.3132 -16.3130 -16.3130
   -16.3129 -16.3128 -16.3126 -16.3126 -16.3125 -16.3124 -16.3123 -16.3122
   -16.3121 -16.3117 -16.3116 -16.3115 -16.3114 -16.3112 -16.3110 -16.3097
   -16.3096 -16.3094 -16.3094 -16.3091 -16.3090 -16.3085 -16.3079 -16.3074
   -16.3073 -16.3068 -16.3067  -4.5212  -3.7928  -3.7907  -3.7905  -3.7898
    -3.7888  -3.7874  -3.7864  -3.7449  -3.5255  -3.5248  -3.5220  -3.5209
    -3.5205  -3.4792  -2.6577  -2.6567  -2.6544  -2.6539  -2.6534  -2.6530
    -2.6521  -2.6516  -2.6503  -2.6492  -2.6478  -2.5934  -2.4508  -2.4494
    -2.4480  -2.4223  -2.0485  -2.0483  -2.0477  -2.0460  -2.0454  -2.0448
    -2.0442  -2.0439  -2.0435  -2.0428  -2.0418  -2.0413  -2.0413  -2.0404
    -2.0402  -2.0394  -2.0386  -2.0384  -2.0376  -2.0368  -2.0363  -2.0358
    -2.0346  -1.8449  -0.6676  -0.6659  -0.6647  -0.6626  -0.6618  -0.6453
    -0.5719  -0.5707  -0.5699  -0.5691  -0.5685  -0.5672  -0.5662  -0.5656
    -0.5648  -0.5641  -0.5626  -0.4522   0.6160   0.6170   0.6187   0.6278
     0.8218   0.8224   0.8232   0.8238   0.8250   0.8253   0.8256   0.8265
     0.8268   0.8278   0.8281   0.8284   0.8293   0.8295   0.8300   0.8305
     0.8307   0.8316   0.8322   0.8330   0.8338   0.8347   0.8353   0.9945
     1.6746   1.6759   1.6767   1.6775   1.6783   1.6789   1.6798   1.6803
     1.6814   1.6827   1.6837   1.7787   3.4696   3.4706   3.4713   3.4731
     3.4739   3.4748   3.4752   3.4754   3.4764   3.4781   3.4793   3.4797
     3.4813   3.5667   4.3046   4.3053   4.3060   4.3063   4.3065   4.3072
     4.3077   4.3081   4.3088   4.3095   4.3097   4.3101   4.3415   4.3416
     4.3419   4.3425   4.3431   4.3438   4.3444   4.3451   4.3459   4.3463
     4.3468   4.3496   4.4779   4.4792   4.4796   4.4801   4.4807   4.4808
     4.4814   4.4816   4.4819   4.4822   4.4827   4.4830   4.4834   4.4835
     4.4840   4.4845   4.4847   4.4855   4.4858   4.4871   4.4874   4.4879
     4.4888   4.5002   5.1454   5.1460   5.1466   5.1470   5.1475   5.1487
     5.8086   5.8094   5.8107   5.8118   5.8120   5.8127   5.8131   5.8133
     5.8140   5.8142   5.8145   5.8149   5.8153   5.8157   5.8160   5.8165
     5.8168   5.8172   5.8175   5.8181   5.8190   5.8193   5.8198   5.8203
     6.1714   6.1724   6.1735   6.1756   6.1765   6.1771   6.1776   6.1781
     6.1787   6.1793   6.1796   6.1810   6.7011   6.7021   6.7041   6.7056
     6.7061   6.7068   6.7076   6.7093   6.7098   6.7107   6.7111   6.7123
     6.8021   6.8043   6.8062   6.8078   6.8095   6.8096   6.8102   6.8134
     7.3145   7.3154   7.3159   7.3224   7.3230   7.3252   7.3258   7.3262
     7.3269   7.3270   7.3283   7.3287   7.3292   7.3305   7.3315   7.3326
     8.1229   8.1977   8.1995   8.2027   8.2931   8.2940   8.2952   8.3180
     8.7839   8.7851   8.7860   8.7899   8.7905   8.7918   8.7933   8.8269
     8.8690   8.8702   8.8713   8.8724   8.8746   8.8929   9.1441   9.1450
     9.1454   9.1496   9.1506   9.1630   9.5206   9.5214   9.5228   9.5237
     9.5248   9.5395   9.5409   9.5412   9.5421   9.5422   9.5424   9.5432
     9.5437   9.5441   9.5445   9.5452   9.5459   9.5470   9.5470   9.5476
     9.5485   9.5491   9.5501   9.5908  10.0851  10.0854  10.0862  10.0902
    10.0924  10.0961  10.0969  10.0983  10.0994  10.1003  10.1012  10.1356
    10.7214  10.7238  10.7254  10.8572  10.8576  10.8644  10.8646  10.8651
    10.8844  11.7643  11.7651  11.7674  11.7837  11.7854  11.7923  11.7943
    11.7959  11.7965  11.7974  11.7986  11.7994  11.7999  11.8003  11.8019
    11.8029  11.8873  11.8877  11.8914  11.8937  11.8957  11.9024  11.9046
    11.9068  12.3194  12.3209  12.3227  12.3308  12.3322  12.3464  12.3473
    12.3475  12.3480  12.3494  12.3497  12.3500  12.3505  12.3508  12.3511
    12.3516  12.3519  12.3526  12.3531  12.3539  12.3545  12.3546  12.3558
    12.3838  12.4420  12.4434  12.4444  12.4464  12.4472  12.4520  12.4536
    12.4546  12.4562  12.4568  12.4580  12.4908  12.8068  12.8083  12.8095
    12.8161  12.8172  12.8268  12.8273  12.8280  12.8306  12.8321  12.8340
    12.8348  12.9277  12.9301  12.9319  12.9437  12.9451  12.9484  12.9504
    12.9510  12.9528  12.9532  12.9550  12.9555  13.2013  13.2019  13.2030
    13.2205  13.2211  13.2219  13.2266  13.2284  13.2291  13.2294  13.2308
    13.2427  13.3936  13.3945  13.4021  13.4037  13.4053  13.4094  13.4097
    13.4100  13.4103  13.4119  13.4129  13.4280

     occupation numbers 
     1.0000   1.0000   1.0000   1.0000   1.0000   1.0000   1.0000   1.0000
     1.0000   1.0000   1.0000   1.0000   1.0000   1.0000   1.0000   1.0000
     1.0000   1.0000   1.0000   1.0000   1.0000   1.0000   1.0000   1.0000
     1.0000   1.0000   1.0000   1.0000   1.0000   1.0000   1.0000   1.0000
     1.0000   1.0000   1.0000   1.0000   1.0000   1.0000   1.0000   1.0000
     1.0000   1.0000   1.0000   1.0000   1.0000   1.0000   1.0000   1.0000
     1.0000   1.0000   1.0000   1.0000   1.0000   1.0000   1.0000   1.0000
     1.0000   1.0000   1.0000   1.0000   1.0000   1.0000   1.0000   1.0000
     1.0000   1.0000   1.0000   1.0000   1.0000   1.0000   1.0000   1.0000
     1.0000   1.0000   1.0000   1.0000   1.0000   1.0000   1.0000   1.0000
     1.0000   1.0000   1.0000   1.0000   1.0000   1.0000   1.0000   1.0000
     1.0000   1.0000   1.0000   1.0000   1.0000   1.0000   1.0000   1.0000
     1.0000   1.0000   1.0000   1.0000   1.0000   1.0000   1.0000   1.0000
     1.0000   1.0000   1.0000   1.0000   1.0000   1.0000   1.0000   1.0000
     1.0000   1.0000   1.0000   1.0000   1.0000   1.0000   1.0000   1.0000
     1.0000   1.0000   1.0000   1.0000   1.0000   1.0000   1.0000   1.0000
     1.0000   1.0000   1.0000   1.0000   1.0000   1.0000   1.0000   1.0000
     1.0000   1.0000   1.0000   1.0000   1.0000   1.0000   1.0000   1.0000
     1.0000   1.0000   1.0000   1.0000   1.0000   1.0000   1.0000   1.0000
     1.0000   1.0000   1.0000   1.0000   1.0000   1.0000   1.0000   1.0000
     1.0000   1.0000   1.0000   1.0000   1.0000   1.0000   1.0000   1.0000
     1.0000   1.0000   1.0000   1.0000   1.0000   1.0000   1.0000   1.0000
     1.0000   1.0000   1.0000   1.0000   1.0000   1.0000   1.0000   1.0000
     1.0000   1.0000   1.0000   1.0000   1.0000   1.0000   1.0000   1.0000
     1.0000   1.0000   1.0000   1.0000   1.0000   1.0000   1.0000   1.0000
     1.0000   1.0000   1.0000   1.0000   1.0000   1.0000   1.0000   1.0000
     1.0000   1.0000   1.0000   1.0000   1.0000   1.0000   1.0000   1.0000
     1.0000   1.0000   1.0000   1.0000   1.0000   1.0000   1.0000   1.0000
     1.0000   1.0000   1.0000   1.0000   1.0000   1.0000   1.0000   1.0000
     1.0000   1.0000   1.0000   1.0000   1.0000   1.0000   1.0000   1.0000
     1.0000   1.0000   1.0000   1.0000   1.0000   1.0000   1.0000   1.0000
     1.0000   1.0000   1.0000   1.0000   1.0000   1.0000   1.0000   1.0000
     1.0000   1.0000   1.0000   1.0000   1.0000   1.0000   1.0000   1.0000
     1.0000   1.0000   1.0000   1.0000   1.0000   1.0000   1.0000   1.0000
     1.0000   1.0000   1.0000   1.0000   1.0000   1.0000   1.0000   1.0000
     1.0000   1.0000   1.0000   1.0000   1.0000   1.0000   1.0000   1.0000
     1.0000   1.0000   1.0000   1.0000   1.0000   1.0000   1.0000   1.0000
     1.0000   1.0000   1.0000   1.0000   1.0000   1.0000   1.0000   1.0000
     1.0000   1.0000   1.0000   1.0000   1.0000   1.0000   1.0000   1.0000
     1.0000   1.0000   1.0000   1.0000   1.0000   1.0000   1.0000   1.0000
     1.0000   1.0000   1.0000   1.0000   1.0000   1.0000   1.0000   1.0000
     1.0000   1.0000   1.0000   1.0000   1.0000   1.0000   1.0000   1.0000
     1.0000   1.0000   1.0000   1.0000   1.0000   1.0000   1.0000   1.0000
     1.0000   1.0000   1.0000   1.0000   1.0000   1.0000   1.0000   1.0000
     1.0000   1.0000   1.0000   1.0000   1.0000   1.0000   1.0000   1.0000
     1.0000   1.0000   1.0000   1.0000   1.0000   1.0000   1.0000   1.0000
     1.0000   1.0000   1.0000   1.0000   1.0000   1.0000   1.0000   1.0000
     1.0000   1.0000   1.0000   1.0000   1.0000   1.0000   1.0000   1.0000
     1.0000   1.0000   1.0000   1.0000   1.0000   1.0000   1.0000   1.0000
     1.0000   1.0000   1.0000   1.0000   1.0000   1.0000   1.0000   1.0000
     1.0000   1.0000   1.0000   1.0000   1.0000   1.0000   1.0000   1.0000
     1.0000   1.0000   1.0000   1.0000   1.0000   1.0000   1.0000   1.0000
     1.0000   1.0000   1.0000   1.0000   1.0000   1.0000   1.0000   1.0000
     1.0000   1.0000   1.0000   1.0000   1.0000   1.0000   1.0000   1.0000
     1.0000   1.0000   1.0000   1.0000   1.0000   1.0000   1.0000   1.0000
     1.0000   1.0000   1.0000   1.0000   1.0000   1.0000   1.0000   1.0000
     1.0000   1.0000   1.0000   1.0000   1.0000   1.0000   1.0000   1.0000
     1.0000   1.0000   1.0000   1.0000   1.0000   1.0000   1.0000   1.0000
     1.0000   1.0000   1.0000   1.0000   1.0000   1.0000   1.0000   1.0000
     1.0000   1.0000   1.0000   1.0000   1.0000   1.0000   1.0000   1.0000
     1.0000   1.0000   1.0000   1.0000   1.0000   1.0000   1.0000   1.0000
     1.0000   1.0000   1.0000   1.0000   1.0000   1.0000   1.0000   1.0000
     1.0000   1.0000   1.0000   1.0000   1.0000   1.0000   1.0000   1.0000
     1.0000   1.0000   1.0000   1.0000   1.0000   1.0000   1.0000   1.0000
     1.0000   1.0000   1.0000   1.0000   1.0000   1.0000   1.0000   1.0000
     1.0000   1.0000   1.0000   1.0000   1.0000   1.0000   1.0000   1.0000
     1.0000   1.0000   1.0000   1.0000   1.0000   1.0000   1.0000   1.0000
     1.0000   1.0000   1.0000   1.0000   1.0000   1.0000   1.0000   1.0000
     1.0000   1.0000   1.0000   1.0000   1.0000   1.0000   1.0000   1.0000
     1.0000   1.0000   1.0000   1.0000   1.0000   1.0000   1.0000   1.0000
     1.0000   1.0000   1.0000   1.0000   1.0000   1.0000   1.0000   1.0000
     1.0000   1.0000   1.0000   1.0000   1.0000   1.0000   1.0000   1.0000
     1.0000   1.0000   1.0000   1.0000   1.0000   1.0000   1.0000   1.0000
     1.0000   1.0000   1.0000   1.0000   1.0000   1.0000   1.0000   1.0000
     1.0000   1.0000   1.0000   1.0000   1.0000   1.0000   1.0000   1.0000
     1.0000   1.0000   1.0000   1.0000   1.0000   1.0000   1.0000   1.0000
     1.0000   1.0000   1.0000   1.0000   1.0000   1.0000   1.0000   1.0000
     1.0000   1.0000   1.0000   1.0000   1.0000   1.0000   1.0000   1.0000
     1.0000   1.0000   1.0000   1.0000   1.0000   1.0000   1.0000   1.0000
     1.0000   1.0000   1.0000   1.0000   1.0000   1.0000   1.0000   1.0000
     1.0000   1.0000   1.0000   1.0000   1.0000   1.0000   1.0000   1.0000
     1.0000   1.0000   1.0000   1.0000   1.0000   1.0000   1.0000   1.0000
     1.0000   1.0000   1.0000   1.0000   1.0000   1.0000   1.0000   1.0000
     1.0000   1.0000   1.0000   1.0000   1.0000   1.0000   1.0000   1.0000
     1.0000   1.0000   1.0000   1.0000   1.0000   1.0000   1.0000   1.0000
     1.0000   1.0000   1.0000   1.0000   1.0000   1.0000   1.0000   1.0000
     1.0000   1.0000   1.0000   1.0000   1.0000   1.0000   1.0000   1.0000
     1.0000   1.0000   1.0000   1.0000   1.0000   1.0000   1.0000   1.0000
     1.0000   1.0000   1.0000   1.0000   1.0000   1.0000   1.0000   1.0000
     1.0000   1.0000   1.0000   1.0000   1.0000   1.0000   1.0000   1.0000
     1.0000   1.0000   1.0000   1.0000   1.0000   1.0000   1.0000   1.0000
     1.0000   1.0000   1.0000   1.0000   1.0000   1.0000   1.0000   1.0000
     1.0000   1.0000   1.0000   1.0000   1.0000   1.0000   1.0000   1.0000
     1.0000   1.0000   1.0000   1.0000   1.0000   1.0000   1.0000   1.0000
     1.0000   1.0000   1.0000   1.0000   1.0000   1.0000   1.0000   1.0000
     1.0000   1.0000   1.0000   1.0000   1.0000   1.0000   1.0000   1.0000
     1.0000   1.0000   1.0000   1.0000   1.0000   1.0000   1.0000   1.0000
     1.0000   1.0000   1.0000   1.0000   1.0000   1.0000   1.0000   1.0000
     1.0000   1.0000   1.0000   1.0000   1.0000   1.0000   1.0000   1.0000
     1.0000   1.0000   1.0000   1.0000   1.0000   1.0000   1.0000   1.0000
     1.0000   1.0000   1.0000   1.0000   1.0000   1.0000   1.0000   1.0000
     1.0000   1.0000   1.0000   1.0000   1.0000   1.0000   1.0000   1.0000
     1.0000   1.0000   1.0000   1.0000   1.0000   1.0000   1.0000   1.0000
     1.0000   1.0000   1.0000   1.0000   1.0000   1.0000   1.0000   1.0000
     1.0000   1.0000   1.0000   1.0000   1.0000   1.0000   1.0000   1.0000
     1.0000   1.0000   1.0000   1.0000   1.0000   1.0000   1.0000   1.0000
     1.0000   1.0000   1.0000   1.0000   1.0000   1.0000   1.0000   1.0000
     1.0000   1.0000   1.0000   1.0000   1.0000   1.0000   1.0000   1.0000
     1.0000   1.0000   1.0000   1.0000   1.0000   1.0000   1.0000   1.0000
     1.0000   1.0000   1.0000   1.0000   1.0000   1.0000   1.0000   1.0000
     1.0000   1.0000   1.0000   1.0000   1.0000   1.0000   1.0000   1.0000
     0.6699   0.4687   0.4636   0.4549   0.2297   0.2278   0.2253   0.1808
     0.0000   0.0000   0.0000   0.0000   0.0000   0.0000   0.0000   0.0000
     0.0000   0.0000   0.0000   0.0000   0.0000   0.0000   0.0000   0.0000
     0.0000   0.0000   0.0000   0.0000   0.0000   0.0000   0.0000   0.0000
     0.0000   0.0000   0.0000   0.0000   0.0000   0.0000   0.0000   0.0000
     0.0000   0.0000   0.0000   0.0000   0.0000   0.0000   0.0000   0.0000
     0.0000   0.0000   0.0000   0.0000   0.0000   0.0000   0.0000   0.0000
     0.0000   0.0000   0.0000   0.0000   0.0000   0.0000   0.0000   0.0000
     0.0000   0.0000   0.0000   0.0000   0.0000   0.0000   0.0000   0.0000
     0.0000   0.0000   0.0000   0.0000   0.0000   0.0000   0.0000   0.0000
     0.0000   0.0000   0.0000   0.0000   0.0000   0.0000   0.0000   0.0000
     0.0000   0.0000   0.0000   0.0000   0.0000   0.0000   0.0000   0.0000
     0.0000   0.0000   0.0000   0.0000   0.0000   0.0000   0.0000   0.0000
     0.0000   0.0000   0.0000   0.0000   0.0000   0.0000   0.0000   0.0000
     0.0000   0.0000   0.0000   0.0000   0.0000   0.0000   0.0000   0.0000
     0.0000   0.0000   0.0000   0.0000   0.0000   0.0000   0.0000   0.0000
     0.0000   0.0000   0.0000   0.0000   0.0000   0.0000   0.0000   0.0000
     0.0000   0.0000   0.0000   0.0000   0.0000   0.0000   0.0000   0.0000
     0.0000   0.0000   0.0000   0.0000   0.0000   0.0000   0.0000   0.0000
     0.0000   0.0000   0.0000   0.0000   0.0000   0.0000   0.0000   0.0000
     0.0000   0.0000   0.0000   0.0000   0.0000   0.0000   0.0000   0.0000
     0.0000   0.0000   0.0000   0.0000   0.0000   0.0000   0.0000   0.0000
     0.0000   0.0000   0.0000   0.0000   0.0000

          k =-0.3536-0.3536 0.3536 ( 68884 PWs)   bands (ev):

   -16.6639 -16.6635 -16.6633 -16.6631 -16.6631 -16.6629 -16.6626 -16.6625
   -16.6622 -16.6621 -16.6620 -16.6617 -16.6614 -16.6613 -16.6609 -16.6606
   -16.6600 -16.6597 -16.6563 -16.6560 -16.6559 -16.6556 -16.6555 -16.6554
   -16.6552 -16.6551 -16.6550 -16.6549 -16.6547 -16.6546 -16.6545 -16.6542
   -16.6541 -16.6540 -16.6538 -16.6538 -16.6537 -16.6535 -16.6534 -16.6532
   -16.6531 -16.6529 -16.6528 -16.6524 -16.6523 -16.6517 -16.6510 -16.6509
   -16.6506 -16.6505 -16.6502 -16.6499 -16.6497 -16.6496 -16.6488 -16.6487
   -16.6484 -16.6483 -16.6481 -16.6480 -16.6480 -16.6477 -16.6477 -16.6476
   -16.6474 -16.6473 -16.6472 -16.6470 -16.6469 -16.6468 -16.6466 -16.6464
   -16.6462 -16.6462 -16.6461 -16.6459 -16.6457 -16.6454 -16.6452 -16.6447
   -16.6446 -16.6431 -16.6428 -16.6424 -16.6422 -16.6419 -16.6418 -16.6414
   -16.6412 -16.6408 -16.6406 -16.6405 -16.6402 -16.6402 -16.6400 -16.6399
   -16.6396 -16.6395 -16.6393 -16.6389 -16.6387 -16.6387 -16.6384 -16.6382
   -16.6378 -16.6376 -16.6366 -16.6357 -16.6356 -16.6351 -16.6350 -16.6345
   -16.6340 -16.6329 -16.6322 -16.6295 -16.6290 -16.6284 -16.6275 -16.6274
   -16.6270 -16.6225 -16.6221 -16.6213 -16.6209 -16.6166 -16.6147 -16.6138
   -16.6122 -16.6119 -16.6112 -16.6108 -16.6104 -16.6075 -16.6032 -16.6027
   -16.6019 -16.6014 -16.6008 -16.6005 -16.5993 -16.5976 -16.5973 -16.5957
   -16.5937 -16.5933 -16.5932 -16.5890 -16.5883 -16.5852 -16.5841 -16.5838
   -16.5830 -16.5811 -16.5805 -16.5781 -16.5777 -16.5775 -16.5771 -16.5770
   -16.5770 -16.5767 -16.5761 -16.5755 -16.5754 -16.5752 -16.5749 -16.5746
   -16.5737 -16.5734 -16.5731 -16.5691 -16.5690 -16.5675 -16.5673 -16.5672
   -16.5661 -16.5655 -16.5647 -16.5645 -16.5639 -16.5583 -16.5582 -16.5578
   -16.5577 -16.5576 -16.5572 -16.5571 -16.5563 -16.5562 -16.5546 -16.5545
   -16.5542 -16.5536 -16.5534 -16.5533 -16.5527 -16.5526 -16.5512 -16.5495
   -16.5491 -16.5490 -16.5487 -16.5472 -16.5467 -16.5417 -16.5417 -16.5398
   -16.5396 -16.5392 -16.5378 -16.5376 -16.5368 -16.5360 -16.5358 -16.5335
   -16.5334 -16.5325 -16.5323 -16.5322 -16.5318 -16.5316 -16.5314 -16.5312
   -16.5312 -16.5309 -16.5308 -16.5306 -16.5305 -16.5303 -16.5302 -16.5301
   -16.5300 -16.5300 -16.5298 -16.5297 -16.5295 -16.5295 -16.5294 -16.5293
   -16.5292 -16.5291 -16.5288 -16.5286 -16.5286 -16.5283 -16.5281 -16.5279
   -16.5269 -16.5263 -16.5261 -16.5257 -16.5254 -16.5250 -16.5246 -16.5165
   -16.5164 -16.5130 -16.5129 -16.5124 -16.5093 -16.5084 -16.5083 -16.5075
   -16.5072 -16.5069 -16.5043 -16.5040 -16.5039 -16.5037 -16.5036 -16.5034
   -16.5032 -16.5030 -16.5027 -16.5025 -16.5021 -16.5018 -16.5017 -16.5016
   -16.5015 -16.5012 -16.5011 -16.5005 -16.5004 -16.5002 -16.5000 -16.4999
   -16.4997 -16.4995 -16.4989 -16.4962 -16.4961 -16.4954 -16.4950 -16.4943
   -16.4934 -16.4933 -16.4933 -16.4930 -16.4929 -16.4926 -16.4924 -16.4922
   -16.4920 -16.4919 -16.4918 -16.4915 -16.4904 -16.4901 -16.4899 -16.4895
   -16.4878 -16.4876 -16.4875 -16.4815 -16.4806 -16.4804 -16.4782 -16.4782
   -16.4781 -16.4720 -16.4719 -16.4716 -16.4708 -16.4704 -16.4680 -16.4677
   -16.4675 -16.4673 -16.4672 -16.4669 -16.4667 -16.4634 -16.4622 -16.4620
   -16.4593 -16.4591 -16.4576 -16.4575 -16.4574 -16.4569 -16.4566 -16.4565
   -16.4563 -16.4557 -16.4556 -16.4544 -16.4541 -16.4537 -16.4535 -16.4531
   -16.4530 -16.4503 -16.4503 -16.4498 -16.4496 -16.4495 -16.4494 -16.4488
   -16.4488 -16.4486 -16.4481 -16.4479 -16.4474 -16.4473 -16.4464 -16.4460
   -16.4457 -16.4456 -16.4452 -16.4450 -16.4440 -16.4439 -16.4438 -16.4424
   -16.4422 -16.4421 -16.4413 -16.4412 -16.4409 -16.4350 -16.4344 -16.4344
   -16.4289 -16.4288 -16.4285 -16.4279 -16.4277 -16.4272 -16.4266 -16.4264
   -16.4252 -16.4241 -16.4240 -16.4216 -16.4214 -16.4208 -16.4199 -16.4198
   -16.4188 -16.4188 -16.4179 -16.4177 -16.4176 -16.4176 -16.4170 -16.4168
   -16.4167 -16.4166 -16.4161 -16.4159 -16.4154 -16.4146 -16.4144 -16.4143
   -16.4142 -16.4140 -16.4139 -16.4137 -16.4136 -16.4135 -16.4134 -16.4131
   -16.4130 -16.4128 -16.4128 -16.4124 -16.4123 -16.4119 -16.4116 -16.4104
   -16.4102 -16.4101 -16.4099 -16.4095 -16.4093 -16.4088 -16.4081 -16.4079
   -16.4077 -16.4073 -16.4069 -16.4059 -16.4057 -16.4051 -16.4049 -16.4048
   -16.4045 -16.4042 -16.4040 -16.4034 -16.4033 -16.4028 -16.4025 -16.4025
   -16.4021 -16.4020 -16.4019 -16.4009 -16.4007 -16.4006 -16.4001 -16.4000
   -16.3998 -16.3997 -16.3994 -16.3993 -16.3992 -16.3988 -16.3984 -16.3984
   -16.3968 -16.3965 -16.3942 -16.3914 -16.3899 -16.3872 -16.3870 -16.3855
   -16.3855 -16.3852 -16.3851 -16.3848 -16.3847 -16.3845 -16.3844 -16.3841
   -16.3838 -16.3836 -16.3834 -16.3833 -16.3827 -16.3805 -16.3764 -16.3744
   -16.3739 -16.3738 -16.3724 -16.3723 -16.3708 -16.3707 -16.3702 -16.3678
   -16.3676 -16.3675 -16.3673 -16.3616 -16.3609 -16.3550 -16.3514 -16.3511
   -16.3510 -16.3508 -16.3507 -16.3505 -16.3503 -16.3501 -16.3462 -16.3459
   -16.3384 -16.3383 -16.3380 -16.3376 -16.3375 -16.3374 -16.3371 -16.3370
   -16.3367 -16.3366 -16.3365 -16.3365 -16.3361 -16.3359 -16.3358 -16.3356
   -16.3355 -16.3350 -16.3347 -16.3331 -16.3328 -16.3324 -16.3323 -16.3320
   -16.3319 -16.3312 -16.3307 -16.3302 -16.3295 -16.3294 -16.3291 -16.3288
   -16.3280 -16.3277 -16.3271 -16.3270 -16.3267 -16.3266 -16.3263 -16.3261
   -16.3259 -16.3259 -16.3256 -16.3255 -16.3253 -16.3252 -16.3251 -16.3249
   -16.3247 -16.3242 -16.3240 -16.3236 -16.3234 -16.3231 -16.3230 -16.3228
   -16.3226 -16.3225 -16.3224 -16.3221 -16.3220 -16.3219 -16.3215 -16.3213
   -16.3209 -16.3207 -16.3203 -16.3199 -16.3196 -16.3193 -16.3190 -16.3189
   -16.3188 -16.3185 -16.3184 -16.3183 -16.3180 -16.3178 -16.3177 -16.3176
   -16.3174 -16.3172 -16.3171 -16.3170 -16.3168 -16.3167 -16.3166 -16.3164
   -16.3162 -16.3159 -16.3158 -16.3157 -16.3156 -16.3149 -16.3147 -16.3135
   -16.3125 -16.3107 -16.3102 -16.3101 -16.3100 -16.3097 -16.3093 -16.3093
   -16.3091 -16.3088 -16.3088 -16.3085 -16.3082 -16.3079 -16.3076 -16.3068
   -16.3068 -16.3061 -16.3060  -4.3387  -4.3258  -3.8427  -3.8422  -3.8414
    -3.8399  -3.8376  -3.8044  -3.3781  -3.3775  -3.3758  -3.3738  -3.3724
    -3.3398  -2.9853  -2.9752  -2.8709  -2.8684  -2.8678  -2.8660  -2.8648
    -2.8310  -2.5000  -2.4991  -2.4978  -2.4971  -2.4959  -2.4952  -2.4945
    -2.4930  -2.4924  -2.4919  -2.4901  -2.4378  -2.3566  -2.3547  -2.3533
    -2.3529  -2.3508  -2.2865  -1.8831  -1.8815  -1.8801  -1.8792  -1.8776
    -1.8346  -1.4783  -1.4779  -1.4761  -1.4748  -1.4733  -1.4539  -1.3637
    -1.3629  -1.3617  -1.3610  -1.3605  -1.3595  -1.3578  -1.3570  -1.3564
    -1.3550  -1.3538  -1.2297   0.1826   0.1829   0.1834   0.1844   0.1849
     0.1852   0.1872   0.1883   0.1886   0.1896   0.1904   0.2231   0.2553
     0.2570   0.2583   0.2585   0.2608   0.3327   0.6141   0.6162   0.6176
     0.6184   0.6217   0.6555   0.7430   0.7435   0.7469   0.7478   0.7508
     0.7941   1.3835   1.3842   1.3847   1.3861   1.3864   1.3872   1.3882
     1.3883   1.3889   1.3908   1.3921   1.4667   1.5378   1.5596   2.1250
     2.1271   2.1275   2.1279   2.1298   2.1751   2.6857   2.6867   2.6907
     2.6913   2.6919   2.7316   4.0068   4.0086   4.0093   4.0105   4.0127
     4.0417   4.0588   4.0591   4.0606   4.0613   4.0619   4.0673   4.0707
     4.0708   4.0717   4.0724   4.0726   4.0727   4.0739   4.0740   4.0757
     4.0762   4.0769   4.0804   4.6489   4.6507   4.6509   4.6514   4.6520
     4.6524   4.6607   4.6616   4.6622   4.6630   4.6636   4.6641   4.6641
     4.6656   4.6663   4.6677   4.6685   4.6742   5.1252   5.1263   5.1264
     5.1271   5.1279   5.1287   5.1293   5.1295   5.1299   5.1305   5.1309
     5.1318   5.3211   5.3216   5.3236   5.3242   5.3245   5.3263   5.3516
     5.3533   5.3545   5.3558   5.3569   5.3589   5.5426   5.5457   5.5470
     5.5476   5.5483   5.5561   5.6482   5.6498   5.6500   5.6503   5.6527
     5.6546   5.8151   5.8264   5.8284   5.8288   5.8291   5.8300   5.8316
     5.8318   6.1072   6.1105   6.1118   6.1125   6.1149   6.1152   6.1156
     6.1165   6.1168   6.1178   6.1180   6.1190   6.1322   6.1327   6.1340
     6.1349   6.1364   6.1373   6.4558   6.4566   6.4571   6.4578   6.4602
     6.4621   6.6760   6.6814   6.6838   6.6842   6.6864   6.6882   6.7687
     6.7696   6.7731   6.7751   6.7757   6.7765   6.9384   6.9408   6.9415
     6.9451   7.2778   7.2798   7.2833   7.2835   7.2842   7.2865   7.8639
     7.8672   7.8687   7.8720   8.4262   8.4344   9.0159   9.0170   9.0247
     9.0258   9.0273   9.0341   9.1637   9.1728   9.3974   9.4014   9.4036
     9.4048   9.4067   9.4139   9.5225   9.5231   9.5276   9.5297   9.5303
     9.5493   9.7378   9.7405   9.7497   9.7510   9.7514   9.7524   9.7640
     9.7655   9.7684   9.7704   9.7711   9.7980  10.0425  10.0427  10.0471
    10.0493  10.0517  10.0547  10.0642  10.0660  10.0743  10.0758  10.0776
    10.0891  10.4020  10.4026  10.4235  10.4260  10.4266  10.4269  10.4273
    10.4282  10.4299  10.4303  10.4305  10.4394  10.5810  10.5833  10.5870
    10.5882  10.5896  10.5908  10.5917  10.5921  10.5928  10.5934  10.5942
    10.6087  10.7624  10.7635  10.7657  10.7667  10.7677  10.7698  10.8141
    10.8159  10.8231  10.8245  10.8257  10.8444  11.1613  11.1645  11.1715
    11.1746  11.5252  11.5272  11.5526  11.5549  11.5555  11.5563  11.5571
    11.5591  11.5593  11.5605  11.5639  11.5672  11.6156  11.6242  11.6670
    11.6766  11.6800  11.6826  11.6842  11.6866  11.9128  11.9144  11.9269
    11.9305  11.9356  11.9369  11.9387  11.9401  11.9409  11.9434  12.0792
    12.0967  12.0983  12.0987  12.0997  12.1018  12.3263  12.3282  12.3455
    12.3465  12.3479  12.3486  12.3498  12.3503  12.3518  12.3533  12.3544
    12.3589  12.5973  12.5990  12.6254  12.6266  12.6283  12.6289  12.7191
    12.7206  12.7311  12.7316  12.7359  12.7366  12.9682  12.9774  12.9795
    12.9859  12.9882  12.9899  13.0061  13.0073  13.0190  13.0230  13.0237
    13.0267  13.0273  13.0280  13.0289  13.0304  13.0315  13.0326  13.1371
    13.1387  13.1442  13.1470  13.1499  13.1517  13.1939  13.1965  13.2129
    13.2141  13.2163  13.2207  13.2217  13.2232

     occupation numbers 
     1.0000   1.0000   1.0000   1.0000   1.0000   1.0000   1.0000   1.0000
     1.0000   1.0000   1.0000   1.0000   1.0000   1.0000   1.0000   1.0000
     1.0000   1.0000   1.0000   1.0000   1.0000   1.0000   1.0000   1.0000
     1.0000   1.0000   1.0000   1.0000   1.0000   1.0000   1.0000   1.0000
     1.0000   1.0000   1.0000   1.0000   1.0000   1.0000   1.0000   1.0000
     1.0000   1.0000   1.0000   1.0000   1.0000   1.0000   1.0000   1.0000
     1.0000   1.0000   1.0000   1.0000   1.0000   1.0000   1.0000   1.0000
     1.0000   1.0000   1.0000   1.0000   1.0000   1.0000   1.0000   1.0000
     1.0000   1.0000   1.0000   1.0000   1.0000   1.0000   1.0000   1.0000
     1.0000   1.0000   1.0000   1.0000   1.0000   1.0000   1.0000   1.0000
     1.0000   1.0000   1.0000   1.0000   1.0000   1.0000   1.0000   1.0000
     1.0000   1.0000   1.0000   1.0000   1.0000   1.0000   1.0000   1.0000
     1.0000   1.0000   1.0000   1.0000   1.0000   1.0000   1.0000   1.0000
     1.0000   1.0000   1.0000   1.0000   1.0000   1.0000   1.0000   1.0000
     1.0000   1.0000   1.0000   1.0000   1.0000   1.0000   1.0000   1.0000
     1.0000   1.0000   1.0000   1.0000   1.0000   1.0000   1.0000   1.0000
     1.0000   1.0000   1.0000   1.0000   1.0000   1.0000   1.0000   1.0000
     1.0000   1.0000   1.0000   1.0000   1.0000   1.0000   1.0000   1.0000
     1.0000   1.0000   1.0000   1.0000   1.0000   1.0000   1.0000   1.0000
     1.0000   1.0000   1.0000   1.0000   1.0000   1.0000   1.0000   1.0000
     1.0000   1.0000   1.0000   1.0000   1.0000   1.0000   1.0000   1.0000
     1.0000   1.0000   1.0000   1.0000   1.0000   1.0000   1.0000   1.0000
     1.0000   1.0000   1.0000   1.0000   1.0000   1.0000   1.0000   1.0000
     1.0000   1.0000   1.0000   1.0000   1.0000   1.0000   1.0000   1.0000
     1.0000   1.0000   1.0000   1.0000   1.0000   1.0000   1.0000   1.0000
     1.0000   1.0000   1.0000   1.0000   1.0000   1.0000   1.0000   1.0000
     1.0000   1.0000   1.0000   1.0000   1.0000   1.0000   1.0000   1.0000
     1.0000   1.0000   1.0000   1.0000   1.0000   1.0000   1.0000   1.0000
     1.0000   1.0000   1.0000   1.0000   1.0000   1.0000   1.0000   1.0000
     1.0000   1.0000   1.0000   1.0000   1.0000   1.0000   1.0000   1.0000
     1.0000   1.0000   1.0000   1.0000   1.0000   1.0000   1.0000   1.0000
     1.0000   1.0000   1.0000   1.0000   1.0000   1.0000   1.0000   1.0000
     1.0000   1.0000   1.0000   1.0000   1.0000   1.0000   1.0000   1.0000
     1.0000   1.0000   1.0000   1.0000   1.0000   1.0000   1.0000   1.0000
     1.0000   1.0000   1.0000   1.0000   1.0000   1.0000   1.0000   1.0000
     1.0000   1.0000   1.0000   1.0000   1.0000   1.0000   1.0000   1.0000
     1.0000   1.0000   1.0000   1.0000   1.0000   1.0000   1.0000   1.0000
     1.0000   1.0000   1.0000   1.0000   1.0000   1.0000   1.0000   1.0000
     1.0000   1.0000   1.0000   1.0000   1.0000   1.0000   1.0000   1.0000
     1.0000   1.0000   1.0000   1.0000   1.0000   1.0000   1.0000   1.0000
     1.0000   1.0000   1.0000   1.0000   1.0000   1.0000   1.0000   1.0000
     1.0000   1.0000   1.0000   1.0000   1.0000   1.0000   1.0000   1.0000
     1.0000   1.0000   1.0000   1.0000   1.0000   1.0000   1.0000   1.0000
     1.0000   1.0000   1.0000   1.0000   1.0000   1.0000   1.0000   1.0000
     1.0000   1.0000   1.0000   1.0000   1.0000   1.0000   1.0000   1.0000
     1.0000   1.0000   1.0000   1.0000   1.0000   1.0000   1.0000   1.0000
     1.0000   1.0000   1.0000   1.0000   1.0000   1.0000   1.0000   1.0000
     1.0000   1.0000   1.0000   1.0000   1.0000   1.0000   1.0000   1.0000
     1.0000   1.0000   1.0000   1.0000   1.0000   1.0000   1.0000   1.0000
     1.0000   1.0000   1.0000   1.0000   1.0000   1.0000   1.0000   1.0000
     1.0000   1.0000   1.0000   1.0000   1.0000   1.0000   1.0000   1.0000
     1.0000   1.0000   1.0000   1.0000   1.0000   1.0000   1.0000   1.0000
     1.0000   1.0000   1.0000   1.0000   1.0000   1.0000   1.0000   1.0000
     1.0000   1.0000   1.0000   1.0000   1.0000   1.0000   1.0000   1.0000
     1.0000   1.0000   1.0000   1.0000   1.0000   1.0000   1.0000   1.0000
     1.0000   1.0000   1.0000   1.0000   1.0000   1.0000   1.0000   1.0000
     1.0000   1.0000   1.0000   1.0000   1.0000   1.0000   1.0000   1.0000
     1.0000   1.0000   1.0000   1.0000   1.0000   1.0000   1.0000   1.0000
     1.0000   1.0000   1.0000   1.0000   1.0000   1.0000   1.0000   1.0000
     1.0000   1.0000   1.0000   1.0000   1.0000   1.0000   1.0000   1.0000
     1.0000   1.0000   1.0000   1.0000   1.0000   1.0000   1.0000   1.0000
     1.0000   1.0000   1.0000   1.0000   1.0000   1.0000   1.0000   1.0000
     1.0000   1.0000   1.0000   1.0000   1.0000   1.0000   1.0000   1.0000
     1.0000   1.0000   1.0000   1.0000   1.0000   1.0000   1.0000   1.0000
     1.0000   1.0000   1.0000   1.0000   1.0000   1.0000   1.0000   1.0000
     1.0000   1.0000   1.0000   1.0000   1.0000   1.0000   1.0000   1.0000
     1.0000   1.0000   1.0000   1.0000   1.0000   1.0000   1.0000   1.0000
     1.0000   1.0000   1.0000   1.0000   1.0000   1.0000   1.0000   1.0000
     1.0000   1.0000   1.0000   1.0000   1.0000   1.0000   1.0000   1.0000
     1.0000   1.0000   1.0000   1.0000   1.0000   1.0000   1.0000   1.0000
     1.0000   1.0000   1.0000   1.0000   1.0000   1.0000   1.0000   1.0000
     1.0000   1.0000   1.0000   1.0000   1.0000   1.0000   1.0000   1.0000
     1.0000   1.0000   1.0000   1.0000   1.0000   1.0000   1.0000   1.0000
     1.0000   1.0000   1.0000   1.0000   1.0000   1.0000   1.0000   1.0000
     1.0000   1.0000   1.0000   1.0000   1.0000   1.0000   1.0000   1.0000
     1.0000   1.0000   1.0000   1.0000   1.0000   1.0000   1.0000   1.0000
     1.0000   1.0000   1.0000   1.0000   1.0000   1.0000   1.0000   1.0000
     1.0000   1.0000   1.0000   1.0000   1.0000   1.0000   1.0000   1.0000
     1.0000   1.0000   1.0000   1.0000   1.0000   1.0000   1.0000   1.0000
     1.0000   1.0000   1.0000   1.0000   1.0000   1.0000   1.0000   1.0000
     1.0000   1.0000   1.0000   1.0000   1.0000   1.0000   1.0000   1.0000
     1.0000   1.0000   1.0000   1.0000   1.0000   1.0000   1.0000   1.0000
     1.0000   1.0000   1.0000   1.0000   1.0000   1.0000   1.0000   1.0000
     1.0000   1.0000   1.0000   1.0000   1.0000   1.0000   1.0000   1.0000
     1.0000   1.0000   1.0000   1.0000   1.0000   1.0000   1.0000   1.0000
     1.0000   1.0000   1.0000   1.0000   1.0000   1.0000   1.0000   1.0000
     1.0000   1.0000   1.0000   1.0000   1.0000   1.0000   1.0000   1.0000
     1.0000   1.0000   1.0000   1.0000   1.0000   1.0000   1.0000   1.0000
     1.0000   1.0000   1.0000   1.0000   1.0000   1.0000   1.0000   1.0000
     1.0000   1.0000   1.0000   1.0000   1.0000   1.0000   1.0000   1.0000
     1.0000   1.0000   1.0000   1.0000   1.0000   1.0000   1.0000   1.0000
     1.0000   1.0000   1.0000   1.0000   1.0000   1.0000   1.0000   1.0000
     1.0000   1.0000   1.0000   1.0000   1.0000   1.0000   1.0000   1.0000
     1.0000   1.0000   1.0000   1.0000   1.0000   1.0000   1.0000   1.0000
     1.0000   1.0000   1.0000   1.0000   1.0000   1.0000   1.0000   1.0000
     1.0000   1.0000   1.0000   1.0000   1.0000   1.0000   1.0000   1.0000
     1.0000   1.0000   1.0000   1.0000   1.0000   1.0000   1.0000   1.0000
     1.0000   1.0000   1.0000   1.0000   1.0000   1.0000   1.0000   1.0000
     1.0000   1.0000   1.0000   1.0000   1.0000   1.0000   1.0000   1.0000
     1.0000   1.0000   1.0000   1.0000   1.0000   1.0000   1.0000   1.0000
     1.0000   1.0000   1.0000   1.0000   1.0000   1.0000   1.0000   1.0000
     1.0000   1.0000   1.0000   1.0000   1.0000   1.0000   1.0000   1.0000
     1.0000   1.0000   1.0000   1.0000   1.0000   1.0000   1.0000   1.0000
     1.0000   1.0000   1.0000   1.0000   1.0000   1.0000   1.0000   1.0000
     1.0000   1.0000   1.0000   1.0000   1.0000   1.0000   1.0000   1.0000
     1.0000   1.0000   1.0000   1.0000   1.0000   1.0000   1.0000   1.0000
     1.0000   1.0000   1.0000   1.0000   1.0000   1.0000   1.0000   1.0000
     1.0000   1.0000   1.0000   1.0000   1.0000   1.0000   1.0000   1.0000
     1.0000   1.0000   1.0000   1.0000   1.0000   1.0000   1.0000   1.0000
     1.0000   1.0000   1.0000   1.0000   1.0000   1.0000   1.0000   1.0000
     1.0000   1.0000   1.0000   1.0000   1.0000   1.0000   1.0000   0.9873
     0.9865   0.9861   0.9853   0.0482   0.0428   0.0000   0.0000   0.0000
     0.0000   0.0000   0.0000   0.0000   0.0000   0.0000   0.0000   0.0000
     0.0000   0.0000   0.0000   0.0000   0.0000   0.0000   0.0000   0.0000
     0.0000   0.0000   0.0000   0.0000   0.0000   0.0000   0.0000   0.0000
     0.0000   0.0000   0.0000   0.0000   0.0000   0.0000   0.0000   0.0000
     0.0000   0.0000   0.0000   0.0000   0.0000   0.0000   0.0000   0.0000
     0.0000   0.0000   0.0000   0.0000   0.0000   0.0000   0.0000   0.0000
     0.0000   0.0000   0.0000   0.0000   0.0000   0.0000   0.0000   0.0000
     0.0000   0.0000   0.0000   0.0000   0.0000   0.0000   0.0000   0.0000
     0.0000   0.0000   0.0000   0.0000   0.0000   0.0000   0.0000   0.0000
     0.0000   0.0000   0.0000   0.0000   0.0000   0.0000   0.0000   0.0000
     0.0000   0.0000   0.0000   0.0000   0.0000   0.0000   0.0000   0.0000
     0.0000   0.0000   0.0000   0.0000   0.0000   0.0000   0.0000   0.0000
     0.0000   0.0000   0.0000   0.0000   0.0000   0.0000   0.0000   0.0000
     0.0000   0.0000   0.0000   0.0000   0.0000   0.0000   0.0000   0.0000
     0.0000   0.0000   0.0000   0.0000   0.0000   0.0000   0.0000   0.0000
     0.0000   0.0000   0.0000   0.0000   0.0000   0.0000   0.0000   0.0000
     0.0000   0.0000   0.0000   0.0000   0.0000   0.0000   0.0000   0.0000
     0.0000   0.0000   0.0000   0.0000   0.0000   0.0000   0.0000   0.0000
     0.0000   0.0000   0.0000   0.0000   0.0000   0.0000   0.0000   0.0000
     0.0000   0.0000   0.0000   0.0000   0.0000   0.0000   0.0000   0.0000
     0.0000   0.0000   0.0000   0.0000   0.0000   0.0000   0.0000   0.0000
     0.0000   0.0000   0.0000   0.0000   0.0000

          k =-0.7071 0.0000 0.0000 ( 68952 PWs)   bands (ev):

   -16.6648 -16.6646 -16.6645 -16.6638 -16.6633 -16.6633 -16.6629 -16.6628
   -16.6627 -16.6621 -16.6617 -16.6615 -16.6594 -16.6592 -16.6590 -16.6589
   -16.6587 -16.6582 -16.6580 -16.6578 -16.6563 -16.6557 -16.6556 -16.6553
   -16.6552 -16.6551 -16.6549 -16.6545 -16.6539 -16.6538 -16.6537 -16.6536
   -16.6533 -16.6531 -16.6529 -16.6529 -16.6526 -16.6526 -16.6523 -16.6522
   -16.6521 -16.6520 -16.6516 -16.6516 -16.6514 -16.6513 -16.6508 -16.6505
   -16.6503 -16.6502 -16.6502 -16.6499 -16.6495 -16.6494 -16.6491 -16.6489
   -16.6488 -16.6487 -16.6486 -16.6486 -16.6483 -16.6482 -16.6481 -16.6480
   -16.6478 -16.6476 -16.6474 -16.6473 -16.6469 -16.6468 -16.6466 -16.6462
   -16.6462 -16.6460 -16.6456 -16.6454 -16.6448 -16.6447 -16.6446 -16.6442
   -16.6440 -16.6439 -16.6438 -16.6436 -16.6434 -16.6432 -16.6430 -16.6429
   -16.6426 -16.6425 -16.6424 -16.6419 -16.6416 -16.6413 -16.6411 -16.6411
   -16.6410 -16.6405 -16.6405 -16.6401 -16.6398 -16.6394 -16.6391 -16.6389
   -16.6379 -16.6371 -16.6368 -16.6364 -16.6361 -16.6357 -16.6353 -16.6351
   -16.6344 -16.6326 -16.6325 -16.6319 -16.6296 -16.6276 -16.6266 -16.6263
   -16.6261 -16.6222 -16.6215 -16.6210 -16.6205 -16.6192 -16.6186 -16.6115
   -16.6114 -16.6098 -16.6084 -16.6073 -16.6027 -16.6026 -16.6006 -16.6004
   -16.5989 -16.5987 -16.5983 -16.5980 -16.5979 -16.5976 -16.5973 -16.5973
   -16.5969 -16.5964 -16.5957 -16.5954 -16.5941 -16.5882 -16.5880 -16.5850
   -16.5836 -16.5828 -16.5824 -16.5821 -16.5819 -16.5806 -16.5804 -16.5803
   -16.5794 -16.5791 -16.5787 -16.5775 -16.5772 -16.5714 -16.5705 -16.5701
   -16.5697 -16.5688 -16.5671 -16.5665 -16.5665 -16.5650 -16.5642 -16.5642
   -16.5622 -16.5621 -16.5618 -16.5616 -16.5615 -16.5605 -16.5590 -16.5581
   -16.5578 -16.5573 -16.5562 -16.5552 -16.5549 -16.5546 -16.5544 -16.5542
   -16.5527 -16.5508 -16.5507 -16.5503 -16.5486 -16.5478 -16.5474 -16.5459
   -16.5457 -16.5454 -16.5452 -16.5451 -16.5450 -16.5448 -16.5448 -16.5445
   -16.5443 -16.5441 -16.5440 -16.5436 -16.5433 -16.5429 -16.5426 -16.5424
   -16.5421 -16.5417 -16.5412 -16.5405 -16.5385 -16.5381 -16.5373 -16.5371
   -16.5368 -16.5364 -16.5363 -16.5345 -16.5323 -16.5288 -16.5273 -16.5267
   -16.5255 -16.5253 -16.5249 -16.5248 -16.5247 -16.5246 -16.5242 -16.5241
   -16.5240 -16.5237 -16.5236 -16.5227 -16.5204 -16.5202 -16.5198 -16.5196
   -16.5185 -16.5182 -16.5181 -16.5177 -16.5171 -16.5165 -16.5163 -16.5162
   -16.5155 -16.5149 -16.5147 -16.5144 -16.5143 -16.5133 -16.5130 -16.5125
   -16.5121 -16.5118 -16.5115 -16.5113 -16.5111 -16.5103 -16.5096 -16.5090
   -16.5085 -16.5084 -16.5083 -16.5079 -16.5066 -16.5063 -16.5062 -16.5061
   -16.5058 -16.5056 -16.5056 -16.5050 -16.5049 -16.5046 -16.5044 -16.5040
   -16.5039 -16.5037 -16.5035 -16.4998 -16.4995 -16.4993 -16.4993 -16.4989
   -16.4987 -16.4984 -16.4976 -16.4887 -16.4883 -16.4856 -16.4837 -16.4834
   -16.4809 -16.4806 -16.4804 -16.4801 -16.4796 -16.4793 -16.4791 -16.4788
   -16.4784 -16.4782 -16.4780 -16.4779 -16.4778 -16.4771 -16.4758 -16.4744
   -16.4743 -16.4738 -16.4737 -16.4727 -16.4718 -16.4714 -16.4709 -16.4706
   -16.4703 -16.4699 -16.4698 -16.4691 -16.4688 -16.4665 -16.4663 -16.4658
   -16.4654 -16.4652 -16.4650 -16.4628 -16.4618 -16.4616 -16.4614 -16.4610
   -16.4590 -16.4589 -16.4582 -16.4548 -16.4533 -16.4528 -16.4526 -16.4521
[...]
     atom   77 type  1   force =   0.00000000E+00  0.00000000E+00  0.00000000E+00
     atom   78 type  1   force =   0.00000000E+00  0.00000000E+00  0.00000000E+00
     atom   79 type  1   force =   0.00000000E+00  0.00000000E+00  0.00000000E+00
     atom   80 type  1   force =   0.00000000E+00  0.00000000E+00  0.00000000E+00
     atom   81 type  1   force =   0.00000000E+00  0.00000000E+00  0.00000000E+00
     atom   82 type  1   force =   0.00000000E+00  0.00000000E+00  0.00000000E+00
     atom   83 type  1   force =   0.00000000E+00  0.00000000E+00  0.00000000E+00
     atom   84 type  1   force =   0.00000000E+00  0.00000000E+00  0.00000000E+00
     atom   85 type  1   force =   0.00000000E+00  0.00000000E+00  0.00000000E+00
     atom   86 type  1   force =   0.00000000E+00  0.00000000E+00  0.00000000E+00
     atom   87 type  1   force =   0.00000000E+00  0.00000000E+00  0.00000000E+00
     atom   88 type  1   force =   0.00000000E+00  0.00000000E+00  0.00000000E+00
     atom   89 type  1   force =   0.00000000E+00  0.00000000E+00  0.00000000E+00
     atom   90 type  1   force =   0.00000000E+00  0.00000000E+00  0.00000000E+00
     atom   91 type  1   force =   0.00000000E+00  0.00000000E+00  0.00000000E+00
     atom   92 type  1   force =   0.00000000E+00  0.00000000E+00  0.00000000E+00
     atom   93 type  1   force =   0.00000000E+00  0.00000000E+00  0.00000000E+00
     atom   94 type  1   force =   0.00000000E+00  0.00000000E+00  0.00000000E+00
     atom   95 type  1   force =   0.00000000E+00  0.00000000E+00  0.00000000E+00
     atom   96 type  1   force =   0.00000000E+00  0.00000000E+00  0.00000000E+00
     atom   97 type  1   force =   0.00000000E+00  0.00000000E+00  0.00000000E+00
     atom   98 type  1   force =   0.00000000E+00  0.00000000E+00  0.00000000E+00
     atom   99 type  1   force =   0.00000000E+00  0.00000000E+00  0.00000000E+00
     atom  100 type  1   force =   0.00000000E+00  0.00000000E+00  0.00000000E+00
     atom  101 type  1   force =   0.00000000E+00  0.00000000E+00  0.00000000E+00
     atom  102 type  1   force =   0.00000000E+00  0.00000000E+00  0.00000000E+00
     atom  103 type  1   force =   0.00000000E+00  0.00000000E+00  0.00000000E+00
     atom  104 type  1   force =   0.00000000E+00  0.00000000E+00  0.00000000E+00
     atom  105 type  1   force =   0.00000000E+00  0.00000000E+00  0.00000000E+00
     atom  106 type  1   force =   0.00000000E+00  0.00000000E+00  0.00000000E+00
     atom  107 type  1   force =   0.00000000E+00  0.00000000E+00  0.00000000E+00
     atom  108 type  1   force =   0.00000000E+00  0.00000000E+00  0.00000000E+00
     atom  109 type  1   force =   0.00000000E+00  0.00000000E+00  0.00000000E+00
     atom  110 type  1   force =   0.00000000E+00  0.00000000E+00  0.00000000E+00
     atom  111 type  1   force =   0.00000000E+00  0.00000000E+00  0.00000000E+00
     atom  112 type  1   force =   0.00000000E+00  0.00000000E+00  0.00000000E+00
     atom  113 type  1   force =   0.00000000E+00  0.00000000E+00  0.00000000E+00
     atom  114 type  1   force =   0.00000000E+00  0.00000000E+00  0.00000000E+00
     atom  115 type  1   force =   0.00000000E+00  0.00000000E+00  0.00000000E+00
     atom  116 type  1   force =   0.00000000E+00  0.00000000E+00  0.00000000E+00
     atom  117 type  1   force =   0.00000000E+00  0.00000000E+00  0.00000000E+00
     atom  118 type  1   force =   0.00000000E+00  0.00000000E+00  0.00000000E+00
     atom  119 type  1   force =   0.00000000E+00  0.00000000E+00  0.00000000E+00
     atom  120 type  1   force =   0.00000000E+00  0.00000000E+00  0.00000000E+00
     atom  121 type  1   force =   0.00000000E+00  0.00000000E+00  0.00000000E+00
     atom  122 type  1   force =   0.00000000E+00  0.00000000E+00  0.00000000E+00
     atom  123 type  1   force =   0.00000000E+00  0.00000000E+00  0.00000000E+00
     atom  124 type  1   force =   0.00000000E+00  0.00000000E+00  0.00000000E+00
     atom  125 type  1   force =   0.00000000E+00  0.00000000E+00  0.00000000E+00
     atom  126 type  1   force =   0.00000000E+00  0.00000000E+00  0.00000000E+00
     atom  127 type  1   force =   0.00000000E+00  0.00000000E+00  0.00000000E+00
     atom  128 type  1   force =   0.00000000E+00  0.00000000E+00  0.00000000E+00
     The SCF correction term to forces
     atom    1 type  2   force =  -0.36858632E-06  0.28068812E-06 -0.95420257E-07
     atom    2 type  1   force =   0.19647812E-05  0.20689490E-05  0.26815392E-05
     atom    3 type  1   force =   0.18120703E-05  0.35362955E-05 -0.86729769E-05
     atom    4 type  1   force =  -0.35267131E-05 -0.37774480E-05 -0.41483122E-05
     atom    5 type  1   force =  -0.71865912E-06  0.62992730E-06  0.86871308E-06
     atom    6 type  1   force =   0.36185639E-05  0.34678594E-05 -0.56330526E-05
     atom    7 type  1   force =  -0.31013836E-05 -0.15460587E-05 -0.11148330E-04
     atom    8 type  1   force =  -0.26752464E-05 -0.16827368E-05  0.52986949E-06
     atom    9 type  1   force =   0.27855123E-05 -0.89508084E-05  0.37250524E-05
     atom   10 type  1   force =  -0.37824755E-05 -0.49037214E-05 -0.37164687E-05
     atom   11 type  1   force =  -0.50831848E-05 -0.31080062E-05 -0.20941517E-05
     atom   12 type  1   force =   0.33192591E-05 -0.42070159E-05 -0.40345767E-05
     atom   13 type  1   force =   0.21662648E-05  0.37810019E-05 -0.26445559E-05
     atom   14 type  1   force =   0.48535665E-05  0.31927630E-05 -0.34985342E-05
     atom   15 type  1   force =   0.10204053E-04 -0.17494519E-05  0.32730022E-05
     atom   16 type  1   force =  -0.15209212E-06  0.19201561E-05 -0.36920095E-05
     atom   17 type  1   force =  -0.12310932E-05  0.15780695E-05  0.90264171E-06
     atom   18 type  1   force =   0.32168566E-05 -0.66332210E-05  0.46908532E-05
     atom   19 type  1   force =   0.89494067E-06 -0.22206723E-05  0.41964133E-05
     atom   20 type  1   force =   0.49778515E-05 -0.34922192E-05  0.45982483E-05
     atom   21 type  1   force =  -0.40556223E-06  0.11097750E-05  0.64488546E-06
     atom   22 type  1   force =  -0.53664137E-06  0.94756777E-06  0.50261363E-06
     atom   23 type  1   force =  -0.73107015E-05  0.75100282E-05 -0.28001050E-05
     atom   24 type  1   force =   0.17968462E-06  0.11138662E-05  0.46685597E-06
     atom   25 type  1   force =  -0.19961015E-05 -0.10395760E-04 -0.15576890E-05
     atom   26 type  1   force =  -0.32968504E-05  0.15923313E-05 -0.23089124E-05
     atom   27 type  1   force =   0.90042933E-05  0.18136882E-05 -0.61706055E-06
     atom   28 type  1   force =  -0.19800256E-05 -0.38942983E-05  0.17979181E-05
     atom   29 type  1   force =  -0.73968884E-05 -0.23974800E-05  0.70751308E-05
     atom   30 type  1   force =   0.30161514E-06  0.33287336E-06  0.71211669E-06
     atom   31 type  1   force =   0.35300005E-05  0.81188732E-05  0.71235752E-05
     atom   32 type  1   force =   0.49938484E-05  0.22216236E-05  0.76277136E-06
     atom   33 type  1   force =  -0.10038681E-04  0.29036948E-05  0.13555626E-05
     atom   34 type  1   force =  -0.41313021E-05 -0.41732843E-05 -0.40215488E-05
     atom   35 type  1   force =  -0.25188834E-05 -0.41547391E-05 -0.33546685E-05
     atom   36 type  1   force =  -0.37273051E-05  0.35554543E-05 -0.47973364E-05
     atom   37 type  1   force =   0.27489021E-05  0.20574818E-05 -0.32971712E-05
     atom   38 type  1   force =   0.34674989E-05  0.46631704E-05 -0.34568067E-05
     atom   39 type  1   force =  -0.25658974E-05  0.10903739E-04  0.52572377E-06
     atom   40 type  1   force =   0.26881829E-05 -0.12537040E-05 -0.52168083E-05
     atom   41 type  1   force =  -0.19133284E-05 -0.37523943E-05 -0.41725882E-05
     atom   42 type  1   force =  -0.40924609E-05 -0.53902331E-05  0.31939796E-05
     atom   43 type  1   force =   0.18074996E-06 -0.63101778E-06 -0.55238427E-06
     atom   44 type  1   force =   0.46511544E-05  0.36634878E-05  0.32362877E-05
     atom   45 type  1   force =   0.31929749E-05  0.27453728E-05 -0.25703592E-05
     atom   46 type  1   force =   0.42332391E-05  0.33853067E-05 -0.16448546E-05
     atom   47 type  1   force =   0.10787055E-05 -0.52590231E-06 -0.75963974E-05
     atom   48 type  1   force =  -0.27756814E-05 -0.39026487E-05 -0.32983787E-05
     atom   49 type  1   force =   0.39235085E-05 -0.35771313E-05  0.27649259E-05
     atom   50 type  1   force =   0.44857924E-05 -0.50952402E-05  0.58656543E-05
     atom   51 type  1   force =   0.35048498E-05 -0.36510264E-05  0.34952183E-05
     atom   52 type  1   force =   0.41403979E-05 -0.26886754E-05  0.34283584E-05
     atom   53 type  1   force =   0.42320809E-06  0.13491737E-05  0.97648414E-06
     atom   54 type  1   force =  -0.23507425E-05  0.16590010E-05  0.65081442E-06
     atom   55 type  1   force =  -0.74732752E-06 -0.11782718E-05  0.29541431E-06
     atom   56 type  1   force =   0.33851287E-05 -0.36325721E-05  0.33355664E-05
     atom   57 type  1   force =  -0.16201374E-05  0.22489647E-05  0.10209103E-04
     atom   58 type  1   force =   0.38249787E-06 -0.50121005E-05 -0.22041846E-05
     atom   59 type  1   force =  -0.62280571E-06 -0.89295904E-05  0.97581396E-08
     atom   60 type  1   force =  -0.30466573E-05 -0.36037804E-05 -0.40747332E-05
     atom   61 type  1   force =  -0.71859465E-06  0.44448873E-06 -0.65307491E-06
     atom   62 type  1   force =   0.27795658E-05  0.35011873E-05 -0.36803933E-05
     atom   63 type  1   force =   0.99487781E-05 -0.16064943E-06 -0.73326557E-06
     atom   64 type  1   force =   0.45033609E-05 -0.83817163E-06 -0.27810012E-05
     atom   65 type  1   force =   0.76096157E-06  0.64552138E-06 -0.25652728E-06
     atom   66 type  1   force =  -0.60844615E-05  0.39657895E-05  0.33122615E-05
     atom   67 type  1   force =  -0.33369768E-05  0.30912534E-05  0.28455094E-05
     atom   68 type  1   force =  -0.40582161E-05  0.48223118E-05  0.27014920E-05
     atom   69 type  1   force =  -0.76968872E-06  0.14320578E-06 -0.10016488E-05
     atom   70 type  1   force =   0.70374671E-06 -0.13719975E-05  0.23175509E-06
     atom   71 type  1   force =   0.66139312E-05 -0.61565786E-05 -0.38842539E-05
     atom   72 type  1   force =   0.10460454E-05  0.23792047E-06  0.36890154E-06
     atom   73 type  1   force =  -0.30196859E-05  0.24473187E-05  0.21055545E-05
     atom   74 type  1   force =  -0.31214921E-05  0.30861996E-05  0.52554327E-05
     atom   75 type  1   force =  -0.25025212E-05  0.31968423E-05  0.29588469E-05
     atom   76 type  1   force =  -0.18325940E-05  0.33795711E-05  0.35535361E-05
     atom   77 type  1   force =   0.25867763E-05 -0.24017893E-06  0.12845958E-05
     atom   78 type  1   force =   0.19520282E-05 -0.24539002E-05  0.19469823E-05
     atom   79 type  1   force =  -0.41766599E-06 -0.20970917E-05  0.11273138E-05
     atom   80 type  1   force =  -0.28763665E-05  0.17357381E-05  0.30423102E-05
     atom   81 type  1   force =   0.65075581E-06 -0.11062136E-05  0.36622096E-06
     atom   82 type  1   force =   0.12833007E-05 -0.55442518E-06 -0.56784830E-06
     atom   83 type  1   force =   0.14780521E-05  0.37410840E-07  0.26933301E-06
     atom   84 type  1   force =   0.28295683E-05  0.13231749E-05 -0.25133623E-05
     atom   85 type  1   force =  -0.85359200E-08  0.49854624E-06 -0.62986601E-06
     atom   86 type  1   force =  -0.19156826E-05 -0.26433869E-05 -0.24314601E-05
     atom   87 type  1   force =  -0.33590257E-06 -0.13102929E-05  0.31525057E-06
     atom   88 type  1   force =   0.95555825E-06 -0.10058554E-05 -0.11268220E-05
     atom   89 type  1   force =   0.70821767E-05 -0.41318778E-05 -0.78901550E-05
     atom   90 type  1   force =   0.49675021E-06  0.37103843E-06 -0.25010343E-06
     atom   91 type  1   force =  -0.76842424E-06  0.91572713E-06 -0.25971646E-06
     atom   92 type  1   force =  -0.32576374E-05  0.35927074E-05  0.25778712E-05
     atom   93 type  1   force =  -0.94701229E-06  0.36366678E-06 -0.74707118E-06
     atom   94 type  1   force =  -0.19082440E-06 -0.49036525E-06 -0.72444922E-06
     atom   95 type  1   force =   0.37749822E-05 -0.71109920E-05 -0.70193572E-05
     atom   96 type  1   force =   0.55048739E-05 -0.54182015E-05 -0.71933042E-05
     atom   97 type  1   force =  -0.11613001E-04 -0.17835373E-05 -0.31644872E-05
     atom   98 type  1   force =  -0.12509920E-06 -0.18010751E-05 -0.20234174E-05
     atom   99 type  1   force =   0.16932299E-05  0.10231383E-04 -0.32671452E-05
     atom  100 type  1   force =  -0.48693435E-05 -0.10452622E-05  0.24367068E-05
     atom  101 type  1   force =  -0.31999234E-05 -0.62276374E-05  0.64689250E-05
     atom  102 type  1   force =   0.49342111E-06  0.11149019E-05  0.16303523E-05
     atom  103 type  1   force =   0.69193287E-05  0.41415303E-05  0.71071295E-05
     atom  104 type  1   force =   0.62493843E-06  0.56211903E-05  0.11590564E-05
     atom  105 type  1   force =   0.28474047E-05 -0.17951816E-05  0.10423056E-04
     atom  106 type  1   force =  -0.45009826E-05  0.24982817E-05  0.27141751E-07
     atom  107 type  1   force =  -0.79677741E-05 -0.64520371E-06  0.59111692E-06
     atom  108 type  1   force =  -0.38596046E-05 -0.20342142E-05 -0.29919013E-05
     atom  109 type  1   force =   0.15981309E-05 -0.13254858E-05 -0.72481993E-06
     atom  110 type  1   force =   0.26986238E-05  0.26358361E-05 -0.37599163E-05
     atom  111 type  1   force =  -0.12347840E-05  0.83638939E-05 -0.44194700E-06
     atom  112 type  1   force =  -0.18030765E-05  0.42776391E-05 -0.49671359E-06
     atom  113 type  1   force =  -0.34900787E-05  0.66700354E-05 -0.70538357E-05
     atom  114 type  1   force =  -0.30618855E-06  0.54394386E-06  0.14003820E-05
     atom  115 type  1   force =   0.97779223E-06 -0.84234478E-06 -0.13794608E-05
     atom  116 type  1   force =   0.36385719E-05 -0.37513835E-05  0.29625674E-05
     atom  117 type  1   force =   0.10825520E-05 -0.11754516E-05 -0.20351174E-05
     atom  118 type  1   force =  -0.45520984E-06  0.22550555E-06  0.16981229E-06
     atom  119 type  1   force =  -0.60063778E-05  0.29684690E-05 -0.64670802E-05
     atom  120 type  1   force =  -0.58431848E-05  0.63085091E-05 -0.47221172E-05
     atom  121 type  1   force =   0.77749631E-05  0.71124980E-05  0.42492154E-05
     atom  122 type  1   force =   0.23743461E-06  0.17726993E-05  0.58099666E-05
     atom  123 type  1   force =  -0.11775010E-07 -0.17514139E-05  0.94164256E-05
     atom  124 type  1   force =  -0.22785457E-05 -0.13985472E-05  0.43227700E-05
     atom  125 type  1   force =  -0.57633439E-05 -0.74378572E-05  0.28199488E-05
     atom  126 type  1   force =  -0.62030375E-05 -0.47583722E-05  0.54130566E-05
     atom  127 type  1   force =   0.26962097E-06  0.53233035E-06  0.43001595E-07
     atom  128 type  1   force =   0.52949397E-05  0.65702803E-05  0.59910473E-05

     Total force =     0.034940     Total SCF correction =     0.000075


     entering subroutine stress ...

          total   stress  (Ry/bohr**3)                   (kbar)     P=   -0.58
  -0.0000039499  -0.0000005878  -0.0000002152         -0.58     -0.09     -0.03
  -0.0000005878  -0.0000039432  -0.0000009226         -0.09     -0.58     -0.14
  -0.0000002152  -0.0000009226  -0.0000039593         -0.03     -0.14     -0.58

     kinetic stress (kbar)   9932.77      0.09      0.03
                                0.09   9932.77      0.13
                                0.03      0.13   9932.77

     local   stress (kbar)   1567.84     14.18      5.47
                               14.18   1567.99     22.35
                                5.47     22.35   1569.23

     nonloc. stress (kbar)   2927.32     -0.07     -0.03
                               -0.07   2927.32     -0.11
                               -0.03     -0.11   2927.32

     hartree stress (kbar)  26196.14     -5.52     -2.15
                               -5.52  26196.02     -8.73
                               -2.15     -8.73  26195.51

     exc-cor stress (kbar)  19329.03     -0.00     -0.00
                               -0.00  19329.03     -0.01
                               -0.00     -0.01  19329.03

     corecor stress (kbar) -28928.01      0.00      0.00
                                0.00 -28928.01      0.01
                                0.00      0.01 -28928.01

     ewald   stress (kbar) -31025.68     -8.76     -3.36
                               -8.76 -31025.71    -13.78
                               -3.36    -13.78 -31026.44

     hubbard stress (kbar)      0.00      0.00      0.00
                                0.00      0.00      0.00
                                0.00      0.00      0.00

     london  stress (kbar)      0.00      0.00      0.00
                                0.00      0.00      0.00
                                0.00      0.00      0.00

     XDM     stress (kbar)      0.00      0.00      0.00
                                0.00      0.00      0.00
                                0.00      0.00      0.00

     dft-nl  stress (kbar)      0.00      0.00      0.00
                                0.00      0.00      0.00
                                0.00      0.00      0.00



     Writing output data file Ge_diamond.scf.in.super.444.Si.011.save

     init_run     :   1251.09s CPU   1012.63s WALL (       1 calls)
     electrons    :  77173.38s CPU  61834.26s WALL (       1 calls)
     forces       :    915.25s CPU    668.08s WALL (       1 calls)
     stress       :   4056.72s CPU   4005.40s WALL (       1 calls)

     Called by init_run:
     wfcinit      :   1212.19s CPU    972.89s WALL (       1 calls)
     potinit      :      0.98s CPU      1.09s WALL (       1 calls)

     Called by electrons:
     c_bands      :  71918.45s CPU  57149.88s WALL (      13 calls)
     sum_band     :   4791.60s CPU   4213.18s WALL (      13 calls)
     v_of_rho     :      6.95s CPU      7.92s WALL (      13 calls)
     v_h          :      0.46s CPU      0.55s WALL (      13 calls)
     v_xc         :      7.66s CPU      8.68s WALL (      15 calls)
     newd         :    479.87s CPU    485.85s WALL (      13 calls)
     mix_rho      :     11.15s CPU     12.46s WALL (      13 calls)

     Called by c_bands:
     init_us_2    :     37.58s CPU     38.23s WALL (     232 calls)
     cegterg      :  71615.96s CPU  56835.94s WALL (     104 calls)

     Called by sum_band:
     sum_band:bec :     19.58s CPU     19.66s WALL (     104 calls)
     addusdens    :    339.16s CPU    340.69s WALL (      13 calls)

     Called by *egterg:
     h_psi        :  18581.69s CPU  15499.64s WALL (     410 calls)
     s_psi        :   5650.09s CPU   3529.75s WALL (     410 calls)
     g_psi        :      8.62s CPU      9.73s WALL (     298 calls)
     cdiaghg      :  31474.34s CPU  27419.12s WALL (     394 calls)
     cegterg:over :   7637.30s CPU   5027.30s WALL (     298 calls)
     cegterg:upda :   3551.45s CPU   2231.23s WALL (     298 calls)
     cegterg:last :   2519.13s CPU   1546.07s WALL (     104 calls)

     Called by h_psi:
     h_psi:vloc   :   7020.18s CPU   8150.95s WALL (     410 calls)
     h_psi:vnl    :  11542.31s CPU   7328.99s WALL (     410 calls)
     add_vuspsi   :   5604.05s CPU   3504.96s WALL (     410 calls)

     General routines
     calbec       :   9343.20s CPU   6211.60s WALL (     530 calls)
     fft          :    308.77s CPU    310.85s WALL (     233 calls)
     ffts         :      7.02s CPU      7.96s WALL (     381 calls)
     fftw         :   7866.56s CPU   9249.13s WALL (  643514 calls)
     interpolate  :      1.59s CPU      2.00s WALL (      26 calls)

     Parallel routines
     fft_scatter  :   4811.39s CPU   5645.77s WALL (  644128 calls)

     PWSCF        :    23h10m CPU       18h46m WALL


   This run was terminated on:  20:13:55  18Jan2017            

=------------------------------------------------------------------------------=
   JOB DONE.
=------------------------------------------------------------------------------=
