
     Program PWSCF v.5.1 starts on 17Jan2017 at 22:43:25 

     This program is part of the open-source Quantum ESPRESSO suite
     for quantum simulation of materials; please cite
         "P. Giannozzi et al., J. Phys.:Condens. Matter 21 395502 (2009);
          URL http://www.quantum-espresso.org", 
     in publications or presentations arising from this work. More details at
     http://www.quantum-espresso.org/quote

     Parallel version (MPI), running on    16 processors
     R & G space division:  proc/nbgrp/npool/nimage =      16
     Reading input from /tmp/Ge_diamond.scf.in.super.444.02.19936/Ge_diamond.scf.in.super.444.02.t
Warning: card &IONS ignored
Warning: card   ION_DYNAMICS='BFGS', ignored
Warning: card / ignored
Warning: card &CELL ignored
Warning: card  CELL_DYNAMICS = 'BFGS' ignored
Warning: card / ignored
     Message from routine read_cards :
     DEPRECATED: no units specified in CELL_PARAMETERS card

     Current dimensions of program PWSCF are:
     Max number of different atomic species (ntypx) = 10
     Max number of k-points (npk) =  40000
     Max angular momentum in pseudopotentials (lmaxx) =  3

     Subspace diagonalization in iterative solution of the eigenvalue problem:
     a serial algorithm will be used


     Parallelization info
     --------------------
     sticks:   dense  smooth     PW     G-vecs:    dense   smooth      PW
     Min         793     553    145                58871    34448    4637
     Max         795     554    146                58873    34482    4641
     Sum       12703    8863   2335               941961   551433   74249



     bravais-lattice index     =            0
     lattice parameter (alat)  =    30.323768153  a.u.
     unit-cell volume          =   19716.7125 (a.u.)^3
     number of atoms/cell      =          128
     number of atomic types    =            1
     number of electrons       =      1792.00
     number of Kohn-Sham states=         1075
     kinetic-energy cutoff     =      35.0000  Ry
     charge density cutoff     =     200.0000  Ry
     convergence threshold     =      1.0E-09
     mixing beta               =       0.3000
     number of iterations used =            8  local-TF  mixing
     Exchange-correlation      = SLA  PW   PSX  PSC ( 1  4 10  8 0)
     A smooth kinetic-energy cutoff is imposed at      34.5000 Ry
     height of the smooth step-function =             800.0000 Ry
     width of the smooth step-function  =               1.0000 Ry


     celldm(1)=  30.323768  celldm(2)=   0.000000  celldm(3)=   0.000000
     celldm(4)=   0.000000  celldm(5)=   0.000000  celldm(6)=   0.000000

     crystal axes: (cart. coord. in units of alat)
               a(1) = (   0.000000000000   0.707106781187   0.707106781187 )  
               a(2) = (   0.707106781187   0.000000000000   0.707106781187 )  
               a(3) = (   0.707106781187   0.707106781187   0.000000000000 )  

     reciprocal axes: (cart. coord. in units 2 pi/alat)
               b(1) = ( -0.707107  0.707107  0.707107 )  
               b(2) = (  0.707107 -0.707107  0.707107 )  
               b(3) = (  0.707107  0.707107 -0.707107 )  


     PseudoPot. # 1 for Ge read from file:
     /users/kfg/psuedo/gbrv_1.5/ge.pbesol.UPF
     MD5 check sum: 7bed0412183f5e553a4d27ec7023354d
     Pseudo is Ultrasoft + core correction, Zval = 14.0
     Generated by new atomic code, or converted to UPF format
     Using radial grid of  873 points,  6 beta functions with: 
                l(1) =   0
                l(2) =   0
                l(3) =   1
                l(4) =   1
                l(5) =   2
                l(6) =   2
     Q(r) pseudized with  8 coefficients,  rinner =    1.400   1.400   1.400
                                                       1.400   1.400

     atomic species   valence    mass     pseudopotential
        Ge            14.00    72.64000     Ge( 1.00)

     No symmetry found


                                    s                        frac. trans.

      isym =  1     identity                                     

 cryst.   s( 1) = (     1          0          0      )
                  (     0          1          0      )
                  (     0          0          1      )

 cart.    s( 1) = (  1.0000000  0.0000000  0.0000000 )
                  (  0.0000000  1.0000000  0.0000000 )
                  (  0.0000000  0.0000000  1.0000000 )


     point group C_1 (1)    
     there are  1 classes
     the character table:

       E    
A      1.00

     the symmetry operations in each class:
     E        1

   Cartesian axes

     site n.     atom                  positions (alat units)
         1           Ge  tau(   1) = (    0.00004239226   -0.00015552365   -0.00002910482  )
         2           Ge  tau(   2) = (    0.08832637321    0.08854725468    0.08852702576  )
         3           Ge  tau(   3) = (    0.17665517047    0.17666897939   -0.00009605627  )
         4           Ge  tau(   4) = (    0.26529454968    0.26503144530    0.08838017750  )
         5           Ge  tau(   5) = (    0.35341078218    0.35344062123   -0.00005662046  )
         6           Ge  tau(   6) = (    0.44197441718    0.44178111465    0.08836835517  )
         7           Ge  tau(   7) = (    0.53039087066    0.53029866711    0.00010190945  )
         8           Ge  tau(   8) = (    0.61866121273    0.61859514616    0.08850897512  )
         9           Ge  tau(   9) = (    0.17686043484   -0.00005097735    0.17672959522  )
        10           Ge  tau(  10) = (    0.26515845841    0.08853397606    0.26520550233  )
        11           Ge  tau(  11) = (    0.35356369046    0.17680378794    0.17690729635  )
        12           Ge  tau(  12) = (    0.44179194755    0.26513651471    0.26515197427  )
        13           Ge  tau(  13) = (    0.53017789608    0.35368556220    0.17665758642  )
        14           Ge  tau(  14) = (    0.61858791061    0.44192188689    0.26521627252  )
        15           Ge  tau(  15) = (    0.70701613686    0.53038131867    0.17677280464  )
        16           Ge  tau(  16) = (    0.79545221648    0.61860508777    0.26508029660  )
        17           Ge  tau(  17) = (    0.35353239153    0.00013787721    0.35357956338  )
        18           Ge  tau(  18) = (    0.44189227413    0.08840366366    0.44180703707  )
        19           Ge  tau(  19) = (    0.53043884844    0.17686601659    0.35347732675  )
        20           Ge  tau(  20) = (    0.61865705153    0.26500768557    0.44199247487  )
        21           Ge  tau(  21) = (    0.70715301392    0.35357697523    0.35371274818  )
        22           Ge  tau(  22) = (    0.79556578915    0.44185664319    0.44189762455  )
        23           Ge  tau(  23) = (    0.88381092278    0.53036071697    0.35339895318  )
        24           Ge  tau(  24) = (    0.97233648374    0.61883212384    0.44196117582  )
        25           Ge  tau(  25) = (    0.53028349908    0.00012717052    0.53041942658  )
        26           Ge  tau(  26) = (    0.61860521214    0.08835684202    0.61871453960  )
        27           Ge  tau(  27) = (    0.70718227325    0.17687222293    0.53040968602  )
        28           Ge  tau(  28) = (    0.79545053800    0.26530544022    0.61879322987  )
        29           Ge  tau(  29) = (    0.88398639572    0.35345422623    0.53039135497  )
        30           Ge  tau(  30) = (    0.97220380306    0.44207858250    0.61877429917  )
        31           Ge  tau(  31) = (    1.06074111196    0.53040838547    0.53031824814  )
        32           Ge  tau(  32) = (    1.14903456088    0.61874535182    0.61880565277  )
        33           Ge  tau(  33) = (   -0.00006673990    0.17693619475    0.17683016203  )
        34           Ge  tau(  34) = (    0.08848159126    0.26518016621    0.26517817625  )
        35           Ge  tau(  35) = (    0.17676945722    0.35358041852    0.17686819530  )
        36           Ge  tau(  36) = (    0.26505491249    0.44200168299    0.26527540064  )
        37           Ge  tau(  37) = (    0.35362481980    0.53044320312    0.17674533205  )
        38           Ge  tau(  38) = (    0.44186056802    0.61868347838    0.26528392768  )
        39           Ge  tau(  39) = (    0.53028842469    0.70713980551    0.17690729679  )
        40           Ge  tau(  40) = (    0.61858047420    0.79562621648    0.26519716930  )
        41           Ge  tau(  41) = (    0.17668588862    0.17687056999    0.35342694529  )
        42           Ge  tau(  42) = (    0.26518246773    0.26530838410    0.44186995145  )
        43           Ge  tau(  43) = (    0.35344655202    0.35369091528    0.35361756143  )
        44           Ge  tau(  44) = (    0.44209576580    0.44188008016    0.44189220914  )
        45           Ge  tau(  45) = (    0.53048539955    0.53018638766    0.35358005127  )
        46           Ge  tau(  46) = (    0.61887413599    0.61886230359    0.44192033463  )
        47           Ge  tau(  47) = (    0.70700235491    0.70713835008    0.35364223380  )
        48           Ge  tau(  48) = (    0.79542044249    0.79555034571    0.44204830553  )
        49           Ge  tau(  49) = (    0.35349048239    0.17662496638    0.53020436503  )
        50           Ge  tau(  50) = (    0.44184192955    0.26504040955    0.61869235891  )
        51           Ge  tau(  51) = (    0.53048369212    0.35364483228    0.53025509916  )
        52           Ge  tau(  52) = (    0.61874060753    0.44198046586    0.61881430569  )
        53           Ge  tau(  53) = (    0.70725444963    0.53024948116    0.53041011337  )
        54           Ge  tau(  54) = (    0.79557005388    0.61883443982    0.61861809622  )
        55           Ge  tau(  55) = (    0.88385292830    0.70694229199    0.53021518616  )
        56           Ge  tau(  56) = (    0.97226523909    0.79551587296    0.61857983662  )
        57           Ge  tau(  57) = (    0.53028165924    0.17661931225    0.70703452025  )
        58           Ge  tau(  58) = (    0.61878996610    0.26503880637    0.79541803223  )
        59           Ge  tau(  59) = (    0.70705351739    0.35356797766    0.70710787901  )
        60           Ge  tau(  60) = (    0.79549869235    0.44201456657    0.79565982494  )
        61           Ge  tau(  61) = (    0.88377820286    0.53035533330    0.70725572859  )
        62           Ge  tau(  62) = (    0.97217352917    0.61886877478    0.79544866025  )
        63           Ge  tau(  63) = (    1.06074060904    0.70698019920    0.70708424289  )
        64           Ge  tau(  64) = (    1.14909218465    0.79563766281    0.79535097554  )
        65           Ge  tau(  65) = (   -0.00008672394    0.35339727066    0.35361126819  )
        66           Ge  tau(  66) = (    0.08824485780    0.44186086176    0.44193031459  )
        67           Ge  tau(  67) = (    0.17691713604    0.53043428833    0.35361275180  )
        68           Ge  tau(  68) = (    0.26521678215    0.61870100022    0.44197995231  )
        69           Ge  tau(  69) = (    0.35343658564    0.70707969879    0.35369719067  )
        70           Ge  tau(  70) = (    0.44180673353    0.79565830279    0.44201985240  )
        71           Ge  tau(  71) = (    0.53045197013    0.88376105482    0.35366433503  )
        72           Ge  tau(  72) = (    0.61866197241    0.97232546319    0.44198661815  )
        73           Ge  tau(  73) = (    0.17673251474    0.35350013644    0.53039192224  )
        74           Ge  tau(  74) = (    0.26518431189    0.44209292355    0.61870511836  )
        75           Ge  tau(  75) = (    0.35347165447    0.53046215854    0.53036888733  )
        76           Ge  tau(  76) = (    0.44203566905    0.61881775087    0.61867687647  )
        77           Ge  tau(  77) = (    0.53019507610    0.70706608916    0.53037432774  )
        78           Ge  tau(  78) = (    0.61872342371    0.79538221309    0.61858506933  )
        79           Ge  tau(  79) = (    0.70720698351    0.88379236686    0.53024143275  )
        80           Ge  tau(  80) = (    0.79564559964    0.97218535164    0.61887547938  )
        81           Ge  tau(  81) = (    0.35356999071    0.35349057231    0.70724891710  )
        82           Ge  tau(  82) = (    0.44200623339    0.44205481343    0.79552952807  )
        83           Ge  tau(  83) = (    0.53043064352    0.53034293856    0.70710128268  )
        84           Ge  tau(  84) = (    0.61862487148    0.61873119351    0.79562490345  )
        85           Ge  tau(  85) = (    0.70716705635    0.70707405895    0.70696800630  )
        86           Ge  tau(  86) = (    0.79549480186    0.79561524140    0.79549308043  )
        87           Ge  tau(  87) = (    0.88375822555    0.88395970719    0.70714205658  )
        88           Ge  tau(  88) = (    0.97226438434    0.97222495239    0.79533215472  )
        89           Ge  tau(  89) = (    0.53027252762    0.35359537348    0.88389929963  )
        90           Ge  tau(  90) = (    0.61859691758    0.44188470714    0.97228980747  )
        91           Ge  tau(  91) = (    0.70716614937    0.53027833150    0.88373962815  )
        92           Ge  tau(  92) = (    0.79543926462    0.61881055433    0.97215053022  )
        93           Ge  tau(  93) = (    0.88383475992    0.70726981960    0.88386690791  )
        94           Ge  tau(  94) = (    0.97238107301    0.79552752060    0.97230263572  )
        95           Ge  tau(  95) = (    1.06070117171    0.88382158472    0.88373753450  )
        96           Ge  tau(  96) = (    1.14903114327    0.97235671072    0.97232299329  )
        97           Ge  tau(  97) = (   -0.00013029185    0.53032824407    0.53041781009  )
        98           Ge  tau(  98) = (    0.08844163393    0.61874625675    0.61876783146  )
        99           Ge  tau(  99) = (    0.17685759614    0.70713184917    0.53023117735  )
       100           Ge  tau( 100) = (    0.26515130006    0.79546851758    0.61886191964  )
       101           Ge  tau( 101) = (    0.35344678394    0.88383022832    0.53048167295  )
       102           Ge  tau( 102) = (    0.44202030336    0.97220081613    0.61862369098  )
       103           Ge  tau( 103) = (    0.53036022806    1.06063209858    0.53032877243  )
       104           Ge  tau( 104) = (    0.61884067045    1.14893621981    0.61886490485  )
       105           Ge  tau( 105) = (    0.17677572182    0.53030909371    0.70700121370  )
       106           Ge  tau( 106) = (    0.26512984684    0.61870729930    0.79561808197  )
       107           Ge  tau( 107) = (    0.35358811298    0.70725282668    0.70719844764  )
       108           Ge  tau( 108) = (    0.44204181854    0.79538385269    0.79557569775  )
       109           Ge  tau( 109) = (    0.53043186194    0.88385928749    0.70702374684  )
       110           Ge  tau( 110) = (    0.61875551082    0.97239052764    0.79538616580  )
       111           Ge  tau( 111) = (    0.70694810940    1.06059054388    0.70704352121  )
       112           Ge  tau( 112) = (    0.79565647114    1.14916275235    0.79544652104  )
       113           Ge  tau( 113) = (    0.35355617296    0.53035693827    0.88372802013  )
       114           Ge  tau( 114) = (    0.44209090693    0.61871971494    0.97212068908  )
       115           Ge  tau( 115) = (    0.53039623933    0.70717166852    0.88400981985  )
       116           Ge  tau( 116) = (    0.61868080307    0.79549668869    0.97225484831  )
       117           Ge  tau( 117) = (    0.70700736884    0.88392753463    0.88384979128  )
       118           Ge  tau( 118) = (    0.79539383256    0.97219553212    0.97231818132  )
       119           Ge  tau( 119) = (    0.88372362835    1.06049591083    0.88392893538  )
       120           Ge  tau( 120) = (    0.97216301178    1.14901590416    0.97222013432  )
       121           Ge  tau( 121) = (    0.53036475824    0.53021970994    1.06078745650  )
       122           Ge  tau( 122) = (    0.61881071747    0.61880500737    1.14903205007  )
       123           Ge  tau( 123) = (    0.70709394595    0.70720305361    1.06052571516  )
       124           Ge  tau( 124) = (    0.79550850309    0.79564536827    1.14906513002  )
       125           Ge  tau( 125) = (    0.88379204903    0.88375318405    1.06062078396  )
       126           Ge  tau( 126) = (    0.97218852103    0.97216668407    1.14914002670  )
       127           Ge  tau( 127) = (    1.06068447495    1.06061048091    1.06076815335  )
       128           Ge  tau( 128) = (    1.14893968154    1.14911388540    1.14919786550  )

   Crystallographic axes

     site n.     atom                  positions (cryst. coord.)
         1           Ge  tau(   1) = (   -0.00016052790    0.00011936747   -0.00005941576  )
         2           Ge  tau(   2) = (    0.06275424702    0.06244187345    0.06247048146  )
         3           Ge  tau(   3) = (   -0.00005815766   -0.00007768642    0.24990582436  )
         4           Ge  tau(   4) = (    0.06230817994    0.06268026572    0.31250288445  )
         5           Ge  tau(   5) = (   -0.00001893732   -0.00006113610    0.49985945735  )
         6           Ge  tau(   6) = (    0.06234917765    0.06262254871    0.56242366629  )
         7           Ge  tau(   7) = (    0.00000686311    0.00013725862    0.74994870403  )
         8           Ge  tau(   8) = (    0.06253858039    0.06263201261    0.81228706494  )
         9           Ge  tau(   9) = (   -0.00012856401    0.25006195445    0.00005647115  )
        10           Ge  tau(  10) = (    0.06263623990    0.31242097830    0.06256970976  )
        11           Ge  tau(  11) = (    0.00010422318    0.25008047461    0.24993409161  )
        12           Ge  tau(  12) = (    0.06257650456    0.31240501355    0.31238315043  )
        13           Ge  tau(  13) = (    0.00011685119    0.24971470342    0.50007006769  )
        14           Ge  tau(  14) = (    0.06261448141    0.31245796816    0.56235744455  )
        15           Ge  tau(  15) = (    0.00009757115    0.24989692663    0.74997488294  )
        16           Ge  tau(  16) = (    0.06239027135    0.31248987923    0.81244943353  )
        17           Ge  tau(  17) = (    0.00013084945    0.49990616447    0.00006413837  )
        18           Ge  tau(  18) = (    0.06245055836    0.56235894543    0.06257110176  )
        19           Ge  tau(  19) = (   -0.00006753231    0.49995996179    0.25019385168  )
        20           Ge  tau(  20) = (    0.06246801138    0.56260374104    0.31230945168  )
        21           Ge  tau(  21) = (    0.00009666820    0.50012869745    0.49993668551  )
        22           Ge  tau(  22) = (    0.06235867124    0.56257894258    0.56252098619  )
        23           Ge  tau(  23) = (   -0.00003624108    0.49981783360    0.75007955998  )
        24           Ge  tau(  24) = (    0.06254841438    0.56247907451    0.81261236798  )
        25           Ge  tau(  25) = (    0.00018603839    0.74994030842   -0.00000619211  )
        26           Ge  tau(  26) = (    0.06255502834    0.81243946480    0.06240041597  )
        27           Ge  tau(  27) = (    0.00007045308    0.75004211851    0.25006464340  )
        28           Ge  tau(  28) = (    0.06268369534    0.81242208264    0.31251485639  )
        29           Ge  tau(  29) = (   -0.00009957091    0.75018621847    0.49995933131  )
        30           Ge  tau(  30) = (    0.06268436463    0.81239464131    0.56250916238  )
        31           Ge  tau(  31) = (   -0.00001023774    0.74999349663    0.75012097007  )
        32           Ge  tau(  32) = (    0.06259057759    0.81253276903    0.81244749061  )
        33           Ge  tau(  33) = (    0.25019778207   -0.00012216869    0.00002778422  )
        34           Ge  tau(  34) = (    0.31245404722    0.06256452608    0.06256734030  )
        35           Ge  tau(  35) = (    0.25008893000    0.00004047055    0.24994929326  )
        36           Ge  tau(  36) = (    0.31269829601    0.06245777335    0.31238647867  )
        37           Ge  tau(  37) = (    0.25000730073   -0.00005165505    0.50015267120  )
        38           Ge  tau(  38) = (    0.31261674318    0.06255138522    0.56233382275  )
        39           Ge  tau(  39) = (    0.25014515984    0.00003953856    0.74990154360  )
        40           Ge  tau(  40) = (    0.31271296172    0.06233247182    0.81247242422  )
        41           Ge  tau(  41) = (    0.25004117912    0.24978000022    0.00009157975  )
        42           Ge  tau(  42) = (    0.31253827539    0.31236020276    0.06266443961  )
        43           Ge  tau(  43) = (    0.25021816655    0.24987258472    0.24997632272  )
        44           Ge  tau(  44) = (    0.31231246486    0.31261749041    0.31260033745  )
        45           Ge  tau(  45) = (    0.24980741861    0.25023028528    0.49998936140  )
        46           Ge  tau(  46) = (    0.31247649859    0.31249323213    0.56272696439  )
        47           Ge  tau(  47) = (    0.25015898474    0.24996665853    0.74988566042  )
        48           Ge  tau(  48) = (    0.31266720990    0.31248349900    0.81241087856  )
        49           Ge  tau(  49) = (    0.24984829619    0.49997390766   -0.00006287329  )
        50           Ge  tau(  50) = (    0.31246400874    0.56249911617    0.06235973302  )
        51           Ge  tau(  51) = (    0.24990301940    0.49999093335    0.25022629868  )
        52           Ge  tau(  52) = (    0.31257949703    0.56255608667    0.31247527209  )
        53           Ge  tau(  53) = (    0.24989517447    0.50021800148    0.49999083323  )
        54           Ge  tau(  54) = (    0.31245809962    0.56240000198    0.56270595804  )
        55           Ge  tau(  55) = (    0.24982404303    0.50001346422    0.74994333412  )
        56           Ge  tau(  56) = (    0.31242132182    0.56238267254    0.81260801481  )
        57           Ge  tau(  57) = (    0.24987186000    0.75002594761   -0.00009443323  )
        58           Ge  tau(  58) = (    0.31230564057    0.81258532837    0.06251583395  )
        59           Ge  tau(  59) = (    0.25004875408    0.74995279848    0.24997187514  )
        60           Ge  tau(  60) = (    0.31266543535    0.81256748012    0.31243755945  )
        61           Ge  tau(  61) = (    0.25019761402    0.75001302941    0.49983809120  )
        62           Ge  tau(  62) = (    0.31264295410    0.81229132940    0.56256966053  )
        63           Ge  tau(  63) = (    0.24983767830    0.75013044773    0.74998330773  )
        64           Ge  tau(  64) = (    0.31246797900    0.81232815746    0.81273359449  )
        65           Ge  tau(  65) = (    0.49999185526    0.00008999602   -0.00021264219  )
        66           Ge  tau(  66) = (    0.56253619659    0.06244764792    0.06234942679  )
        67           Ge  tau(  67) = (    0.50001635036    0.00006759906    0.25013101415  )
        68           Ge  tau(  68) = (    0.56247810907    0.06257593379    0.31249723650  )
        69           Ge  tau(  69) = (    0.50016512544    0.00003823858    0.49979657427  )
        70           Ge  tau(  70) = (    0.56276607921    0.06234439089    0.56246468361  )
        71           Ge  tau(  71) = (    0.49990569920    0.00025119992    0.74992117043  )
        72           Ge  tau(  72) = (    0.56260958747    0.06245388230    0.81246626961  )
        73           Ge  tau(  73) = (    0.50003730890    0.25005014090   -0.00011262165  )
        74           Ge  tau(  74) = (    0.56258386371    0.31239730579    0.06262994461  )
        75           Ge  tau(  75) = (    0.50017862240    0.24987625112    0.25000815654  )
        76           Ge  tau(  76) = (    0.56247442356    0.31246680587    0.31266603236  )
        77           Ge  tau(  77) = (    0.50009797643    0.24996459099    0.49984447635  )
        78           Ge  tau(  78) = (    0.56232232519    0.31248906934    0.56251798783  )
        79           Ge  tau(  79) = (    0.49980203479    0.25007259074    0.75006911675  )
        80           Ge  tau(  80) = (    0.56244350397    0.31277859239    0.81243420546  )
        81           Ge  tau(  81) = (    0.50004434798    0.50015666256   -0.00013318645  )
        82           Ge  tau(  82) = (    0.56255867521    0.56248997265    0.06260123726  )
        83           Ge  tau(  83) = (    0.49993409519    0.50005812874    0.25008408123  )
        84           Ge  tau(  84) = (    0.56266694553    0.56251658349    0.31235109978  )
        85           Ge  tau(  85) = (    0.49983611225    0.49996763042    0.50011761153  )
        86           Ge  tau(  86) = (    0.56258371517    0.56241338795    0.56258614964  )
        87           Ge  tau(  87) = (    0.50016741250    0.49988247443    0.74994039400  )
        88           Ge  tau(  88) = (    0.56235687730    0.56241264249    0.81257683605  )
        89           Ge  tau(  89) = (    0.50008157489    0.74994080243   -0.00002220211  )
        90           Ge  tau(  90) = (    0.56255831382    0.81246711846    0.06236103202  )
        91           Ge  tau(  91) = (    0.49981970834    0.74997685939    0.25010709989  )
        92           Ge  tau(  92) = (    0.56251887346    0.81230959105    0.31261140501  )
        93           Ge  tau(  93) = (    0.50013801763    0.74983855087    0.50009255351  )
        94           Ge  tau(  94) = (    0.56246744089    0.81257613327    0.56257836798  )
        95           Ge  tau(  95) = (    0.49982404802    0.74996955885    0.75008842381  )
        96           Ge  tau(  96) = (    0.56260849274    0.81246387137    0.81251155503  )
        97           Ge  tau(  97) = (    0.75015285827   -0.00002879751   -0.00015546299  )
        98           Ge  tau(  98) = (    0.81251692450    0.06255293472    0.06252242347  )
        99           Ge  tau(  99) = (    0.74989058130   -0.00003045911    0.25014487018  )
       100           Ge  tau( 100) = (    0.81259236069    0.06261055930    0.31237000532  )
       101           Ge  tau( 101) = (    0.75014491839    0.00006945809    0.49977977734  )
       102           Ge  tau( 102) = (    0.81232724274    0.06253877106    0.56257233679  )
       103           Ge  tau( 103) = (    0.74995790676    0.00004023573    0.75000239174  )
       104           Ge  tau( 104) = (    0.81243772849    0.06276941323    0.81240345587  )
       105           Ge  tau( 105) = (    0.74991119715    0.24993950788    0.00005911542  )
       106           Ge  tau( 106) = (    0.81260395531    0.31256992669    0.06238029850  )
       107           Ge  tau( 107) = (    0.75014353529    0.24998610066    0.25006300422  )
       108           Ge  tau( 108) = (    0.81240751926    0.31270642240    0.31243511251  )
       109           Ge  tau( 109) = (    0.74985221512    0.25003035658    0.50011357649  )
       110           Ge  tau( 110) = (    0.81248066996    0.31236523305    0.56268720215  )
       111           Ge  tau( 111) = (    0.75001823198    0.24989230491    0.74988329930  )
       112           Ge  tau( 112) = (    0.81243231774    0.31249894046    0.81272923201  )
       113           Ge  tau( 113) = (    0.74990709582    0.49987305569    0.00013087917  )
       114           Ge  tau( 114) = (    0.81228855928    0.56249770348    0.06271325290  )
       115           Ge  tau( 115) = (    0.75008844298    0.50009023352    0.25000332157  )
       116           Ge  tau( 116) = (    0.81251570802    0.56246028454    0.31248649794  )
       117           Ge  tau( 117) = (    0.75007762992    0.49987473200    0.49998467771  )
       118           Ge  tau( 118) = (    0.81255046016    0.56251509880    0.56234164663  )
       119           Ge  tau( 119) = (    0.75002902396    0.50003526462    0.74973867598  )
       120           Ge  tau( 120) = (    0.81251732925    0.56240957031    0.81243654579  )
       121           Ge  tau( 121) = (    0.74998743925    0.75019256853   -0.00014353441  )
       122           Ge  tau( 122) = (    0.81248431676    0.81249239206    0.06263811714  )
       123           Ge  tau( 123) = (    0.74998207558    0.74982777405    0.25015407419  )
       124           Ge  tau( 124) = (    0.81260852376    0.81241496717    0.31260394689  )
       125           Ge  tau( 125) = (    0.74994466691    0.74999963029    0.49987107176  )
       126           Ge  tau( 126) = (    0.81254926435    0.81258014647    0.56230204515  )
       127           Ge  tau( 127) = (    0.75002403281    0.75012867619    0.74990569368  )
       128           Ge  tau( 128) = (    0.81272878435    0.81248242289    0.81236365709  )

     number of k points=     8  gaussian smearing, width (Ry)=  0.0150
                       cart. coord. in units 2pi/alat
        k(    1) = (   0.0000000   0.0000000   0.0000000), wk =   0.2500000
        k(    2) = (  -0.3535534  -0.3535534   0.3535534), wk =   0.2500000
        k(    3) = (  -0.7071068   0.0000000   0.0000000), wk =   0.2500000
        k(    4) = (   0.3535534   0.3535534   0.3535534), wk =   0.2500000
        k(    5) = (   0.3535534  -0.3535534  -0.3535534), wk =   0.2500000
        k(    6) = (  -0.3535534   0.3535534  -0.3535534), wk =   0.2500000
        k(    7) = (   0.0000000  -0.7071068   0.0000000), wk =   0.2500000
        k(    8) = (   0.0000000   0.0000000  -0.7071068), wk =   0.2500000

                       cryst. coord.
        k(    1) = (   0.0000000   0.0000000   0.0000000), wk =   0.2500000
        k(    2) = (   0.0000000   0.0000000  -0.5000000), wk =   0.2500000
        k(    3) = (   0.0000000  -0.5000000  -0.5000000), wk =   0.2500000
        k(    4) = (   0.5000000   0.5000000   0.5000000), wk =   0.2500000
        k(    5) = (  -0.5000000   0.0000000   0.0000000), wk =   0.2500000
        k(    6) = (   0.0000000  -0.5000000   0.0000000), wk =   0.2500000
        k(    7) = (  -0.5000000   0.0000000  -0.5000000), wk =   0.2500000
        k(    8) = (  -0.5000000  -0.5000000   0.0000000), wk =   0.2500000

     Dense  grid:   941961 G-vectors     FFT dimensions: ( 144, 144, 144)

     Smooth grid:   551433 G-vectors     FFT dimensions: ( 120, 120, 120)

     Largest allocated arrays     est. size (Mb)     dimensions
        Kohn-Sham Wavefunctions        70.96 Mb     (    4326, 1075)
        NL pseudopotentials           152.09 Mb     (    4326, 2304)
        Each V/rho on FFT grid          2.85 Mb     (  186624)
        Each G-vector array             0.45 Mb     (   58872)
        G-vector shells                 0.02 Mb     (    3076)
     Largest temporary arrays     est. size (Mb)     dimensions
        Auxiliary wavefunctions       283.84 Mb     (    4326, 4300)
        Each subspace H/S matrix      282.14 Mb     (    4300, 4300)
        Each <psi_i|beta_j> matrix     37.79 Mb     (    2304, 1075)
        Arrays for rho mixing          22.78 Mb     (  186624,    8)

     Check: negative/imaginary core charge=   -0.000001    0.000000

     Initial potential from superposition of free atoms

     starting charge 1791.89656, renormalised to 1792.00000
     Starting wfc are 1152 randomized atomic wfcs

     total cpu time spent up to now is     1152.9 secs

     per-process dynamical memory:   847.4 Mb

     Self-consistent Calculation

     iteration #  1     ecut=    35.00 Ry     beta=0.30
     Davidson diagonalization with overlap
     ethr =  1.00E-02,  avg # of iterations =  4.9

     Threshold (ethr) on eigenvalues was too large:
     Diagonalizing with lowered threshold

     Davidson diagonalization with overlap
     ethr =  1.11E-04,  avg # of iterations =  7.1

     total cpu time spent up to now is    16679.0 secs

     total energy              =  -27288.26951593 Ry
     Harris-Foulkes estimate   =  -27288.48492826 Ry
     estimated scf accuracy    <       2.12575918 Ry

     iteration #  2     ecut=    35.00 Ry     beta=0.30
     Davidson diagonalization with overlap
     ethr =  1.19E-04,  avg # of iterations =  1.0

     total cpu time spent up to now is    20038.0 secs

     total energy              =  -27287.87318728 Ry
     Harris-Foulkes estimate   =  -27288.27675498 Ry
     estimated scf accuracy    <       1.30442644 Ry

     iteration #  3     ecut=    35.00 Ry     beta=0.30
     Davidson diagonalization with overlap
     ethr =  7.28E-05,  avg # of iterations =  2.5

     total cpu time spent up to now is    24399.8 secs

     total energy              =  -27287.93969936 Ry
     Harris-Foulkes estimate   =  -27287.94277475 Ry
     estimated scf accuracy    <       0.02357335 Ry

     iteration #  4     ecut=    35.00 Ry     beta=0.30
     Davidson diagonalization with overlap
     ethr =  1.32E-06,  avg # of iterations =  4.5

     total cpu time spent up to now is    34943.9 secs

     total energy              =  -27287.94424225 Ry
     Harris-Foulkes estimate   =  -27287.94448333 Ry
     estimated scf accuracy    <       0.00251737 Ry

     iteration #  5     ecut=    35.00 Ry     beta=0.30
     Davidson diagonalization with overlap
     ethr =  1.40E-07,  avg # of iterations =  2.0

     total cpu time spent up to now is    39401.1 secs

     total energy              =  -27287.94425843 Ry
     Harris-Foulkes estimate   =  -27287.94445798 Ry
     estimated scf accuracy    <       0.00052854 Ry

     iteration #  6     ecut=    35.00 Ry     beta=0.30
     Davidson diagonalization with overlap
     ethr =  2.95E-08,  avg # of iterations =  1.0

     total cpu time spent up to now is    42754.7 secs

     total energy              =  -27287.94428892 Ry
     Harris-Foulkes estimate   =  -27287.94427032 Ry
     estimated scf accuracy    <       0.00001768 Ry

     iteration #  7     ecut=    35.00 Ry     beta=0.30
     Davidson diagonalization with overlap
     ethr =  9.87E-10,  avg # of iterations =  2.5

     total cpu time spent up to now is    49074.3 secs

     total energy              =  -27287.94429475 Ry
     Harris-Foulkes estimate   =  -27287.94429370 Ry
     estimated scf accuracy    <       0.00001635 Ry

     iteration #  8     ecut=    35.00 Ry     beta=0.30
     Davidson diagonalization with overlap
     ethr =  9.12E-10,  avg # of iterations =  2.0

     total cpu time spent up to now is    53558.1 secs

     total energy              =  -27287.94429882 Ry
     Harris-Foulkes estimate   =  -27287.94429600 Ry
     estimated scf accuracy    <       0.00000008 Ry

     iteration #  9     ecut=    35.00 Ry     beta=0.30
     Davidson diagonalization with overlap
     ethr =  4.59E-12,  avg # of iterations =  3.0

     total cpu time spent up to now is    61039.2 secs

     total energy              =  -27287.94430021 Ry
     Harris-Foulkes estimate   =  -27287.94429886 Ry
     estimated scf accuracy    <       0.00000004 Ry

     iteration # 10     ecut=    35.00 Ry     beta=0.30
     Davidson diagonalization with overlap
     ethr =  2.46E-12,  avg # of iterations =  2.0

     total cpu time spent up to now is    65067.5 secs

     total energy              =  -27287.94430087 Ry
     Harris-Foulkes estimate   =  -27287.94430021 Ry
     estimated scf accuracy    <       0.00000002 Ry

     iteration # 11     ecut=    35.00 Ry     beta=0.30
     Davidson diagonalization with overlap
     ethr =  8.47E-13,  avg # of iterations =  2.1

     total cpu time spent up to now is    71173.7 secs

     total energy              =  -27287.94430124 Ry
     Harris-Foulkes estimate   =  -27287.94430088 Ry
     estimated scf accuracy    <       0.00000002 Ry

     iteration # 12     ecut=    35.00 Ry     beta=0.30
     Davidson diagonalization with overlap
     ethr =  8.47E-13,  avg # of iterations =  2.0

     total cpu time spent up to now is    77091.2 secs

     End of self-consistent calculation

          k = 0.0000 0.0000 0.0000 ( 69041 PWs)   bands (ev):

   -16.6394 -16.6393 -16.6392 -16.6390 -16.6388 -16.6386 -16.6386 -16.6383
   -16.6382 -16.6381 -16.6378 -16.6377 -16.6375 -16.6374 -16.6371 -16.6369
   -16.6369 -16.6367 -16.6366 -16.6364 -16.6364 -16.6363 -16.6361 -16.6361
   -16.6360 -16.6359 -16.6358 -16.6357 -16.6356 -16.6356 -16.6353 -16.6353
   -16.6351 -16.6350 -16.6349 -16.6346 -16.6331 -16.6329 -16.6329 -16.6325
   -16.6324 -16.6323 -16.6321 -16.6319 -16.6319 -16.6317 -16.6314 -16.6313
   -16.6260 -16.6257 -16.6256 -16.6255 -16.6253 -16.6251 -16.6246 -16.6245
   -16.6244 -16.6243 -16.6242 -16.6241 -16.6240 -16.6239 -16.6238 -16.6237
   -16.6235 -16.6234 -16.6233 -16.6232 -16.6232 -16.6230 -16.6229 -16.6229
   -16.6227 -16.6226 -16.6225 -16.6225 -16.6224 -16.6223 -16.6222 -16.6221
   -16.6220 -16.6220 -16.6219 -16.6218 -16.6217 -16.6216 -16.6215 -16.6212
   -16.6211 -16.6211 -16.6172 -16.6171 -16.6170 -16.6169 -16.6167 -16.6167
   -16.6165 -16.6163 -16.6112 -16.6110 -16.6109 -16.6107 -16.6106 -16.6105
   -16.6105 -16.6103 -16.6102 -16.6100 -16.6100 -16.6098 -16.6097 -16.6095
   -16.6095 -16.6093 -16.6092 -16.6090 -16.6090 -16.6089 -16.6087 -16.6086
   -16.6085 -16.6084 -16.6083 -16.6082 -16.6081 -16.6079 -16.5980 -16.5979
   -16.5978 -16.5978 -16.5978 -16.5977 -16.5904 -16.5903 -16.5902 -16.5835
   -16.5834 -16.5833 -16.5832 -16.5831 -16.5830 -16.5829 -16.5828 -16.5730
   -16.5728 -16.5727 -16.5726 -16.5570 -16.5570 -16.5554 -16.5554 -16.5551
   -16.5551 -16.5550 -16.5548 -16.5548 -16.5548 -16.5547 -16.5546 -16.5545
   -16.5545 -16.5544 -16.5543 -16.5542 -16.5542 -16.5541 -16.5540 -16.5539
   -16.5538 -16.5538 -16.5537 -16.5536 -16.5534 -16.5496 -16.5492 -16.5491
   -16.5490 -16.5489 -16.5489 -16.5488 -16.5487 -16.5487 -16.5486 -16.5484
   -16.5483 -16.5408 -16.5407 -16.5407 -16.5406 -16.5405 -16.5404 -16.5300
   -16.5299 -16.5297 -16.5297 -16.5295 -16.5294 -16.5291 -16.5291 -16.5289
   -16.5288 -16.5286 -16.5286 -16.5283 -16.5282 -16.5281 -16.5281 -16.5250
   -16.5248 -16.5246 -16.5245 -16.5242 -16.5240 -16.5155 -16.5154 -16.5153
   -16.5152 -16.5151 -16.5151 -16.5148 -16.5148 -16.5143 -16.5141 -16.5139
   -16.5138 -16.5137 -16.5137 -16.5136 -16.5134 -16.5133 -16.5131 -16.5130
   -16.5129 -16.5010 -16.5009 -16.5009 -16.5008 -16.5008 -16.5007 -16.5006
   -16.5006 -16.5005 -16.5005 -16.5003 -16.5002 -16.4909 -16.4909 -16.4907
   -16.4905 -16.4904 -16.4903 -16.4903 -16.4902 -16.4902 -16.4900 -16.4899
   -16.4899 -16.4898 -16.4897 -16.4896 -16.4896 -16.4895 -16.4894 -16.4894
   -16.4893 -16.4892 -16.4892 -16.4891 -16.4890 -16.4890 -16.4888 -16.4888
   -16.4888 -16.4887 -16.4886 -16.4867 -16.4865 -16.4863 -16.4863 -16.4861
   -16.4861 -16.4859 -16.4858 -16.4858 -16.4857 -16.4856 -16.4853 -16.4714
   -16.4712 -16.4711 -16.4711 -16.4711 -16.4710 -16.4709 -16.4708 -16.4708
   -16.4707 -16.4706 -16.4705 -16.4705 -16.4704 -16.4703 -16.4703 -16.4702
   -16.4702 -16.4701 -16.4700 -16.4700 -16.4699 -16.4699 -16.4698 -16.4531
   -16.4531 -16.4529 -16.4529 -16.4528 -16.4528 -16.4527 -16.4527 -16.4526
   -16.4525 -16.4525 -16.4524 -16.4524 -16.4522 -16.4522 -16.4522 -16.4521
   -16.4521 -16.4520 -16.4520 -16.4519 -16.4519 -16.4518 -16.4518 -16.4517
   -16.4517 -16.4516 -16.4516 -16.4516 -16.4515 -16.4514 -16.4514 -16.4513
   -16.4513 -16.4513 -16.4512 -16.4456 -16.4455 -16.4454 -16.4454 -16.4452
   -16.4452 -16.4361 -16.4360 -16.4360 -16.4359 -16.4358 -16.4357 -16.4203
   -16.4202 -16.4202 -16.4201 -16.4201 -16.4200 -16.4200 -16.4199 -16.4199
   -16.4198 -16.4198 -16.4197 -16.4176 -16.4175 -16.4174 -16.4173 -16.4172
   -16.4171 -16.4170 -16.4169 -16.4169 -16.4168 -16.4166 -16.4165 -16.4058
   -16.4057 -16.4056 -16.4056 -16.4054 -16.4054 -16.4053 -16.4052 -16.4052
   -16.4051 -16.4051 -16.4050 -16.4049 -16.4048 -16.4048 -16.4047 -16.4046
   -16.4045 -16.4044 -16.4044 -16.4043 -16.4043 -16.4041 -16.4040 -16.3988
   -16.3988 -16.3986 -16.3985 -16.3984 -16.3983 -16.3982 -16.3981 -16.3981
   -16.3980 -16.3978 -16.3977 -16.3891 -16.3891 -16.3890 -16.3889 -16.3889
   -16.3887 -16.3853 -16.3852 -16.3850 -16.3849 -16.3849 -16.3848 -16.3848
   -16.3847 -16.3846 -16.3846 -16.3845 -16.3845 -16.3844 -16.3843 -16.3843
   -16.3843 -16.3842 -16.3841 -16.3841 -16.3840 -16.3763 -16.3762 -16.3761
   -16.3760 -16.3759 -16.3758 -16.3758 -16.3757 -16.3756 -16.3756 -16.3756
   -16.3755 -16.3755 -16.3754 -16.3754 -16.3753 -16.3753 -16.3752 -16.3751
   -16.3751 -16.3751 -16.3750 -16.3750 -16.3749 -16.3749 -16.3748 -16.3748
   -16.3747 -16.3747 -16.3747 -16.3746 -16.3746 -16.3745 -16.3745 -16.3745
   -16.3744 -16.3744 -16.3742 -16.3741 -16.3740 -16.3713 -16.3712 -16.3711
   -16.3710 -16.3689 -16.3687 -16.3686 -16.3685 -16.3682 -16.3681 -16.3607
   -16.3606 -16.3606 -16.3605 -16.3604 -16.3604 -16.3603 -16.3602 -16.3501
   -16.3500 -16.3500 -16.3375 -16.3375 -16.3262 -16.3261 -16.3261 -16.3260
   -16.3259 -16.3257 -16.3245 -16.3243 -16.3243 -16.3242 -16.3241 -16.3240
   -16.3239 -16.3238 -16.3238 -16.3237 -16.3236 -16.3235 -16.3184 -16.3183
   -16.3181 -16.3181 -16.3180 -16.3179 -16.3179 -16.3179 -16.3178 -16.3177
   -16.3177 -16.3176 -16.3176 -16.3174 -16.3173 -16.3172 -16.3120 -16.3118
   -16.3118 -16.3118 -16.3116 -16.3116 -16.3115 -16.3115 -16.3050 -16.3050
   -16.3049 -16.3048 -16.3046 -16.3045 -16.3044 -16.3043 -16.3043 -16.3042
   -16.3042 -16.3041 -16.3040 -16.3040 -16.3040 -16.3040 -16.3039 -16.3037
   -16.3037 -16.3036 -16.3035 -16.3033 -16.3032 -16.3031 -16.3008 -16.3008
   -16.3007 -16.3006 -16.3005 -16.3004 -16.3004 -16.3003 -16.3003 -16.3000
   -16.3000 -16.2999 -16.2985 -16.2985 -16.2984 -16.2983 -16.2983 -16.2982
   -16.2970 -16.2969 -16.2969 -16.2969 -16.2967 -16.2966 -16.2965 -16.2965
   -16.2963 -16.2963 -16.2962 -16.2961 -16.2909 -16.2908 -16.2907 -16.2906
   -16.2904 -16.2903 -16.2902 -16.2902 -16.2901 -16.2900 -16.2900 -16.2899
   -16.2899 -16.2898 -16.2897 -16.2897 -16.2896 -16.2895 -16.2895 -16.2893
   -16.2893 -16.2892 -16.2891 -16.2889 -16.2868 -16.2868 -16.2867 -16.2864
   -16.2864 -16.2863 -16.2862 -16.2862 -16.2861 -16.2860 -16.2858 -16.2858
    -4.5049  -3.7694  -3.7686  -3.7685  -3.7673  -3.7664  -3.7653  -3.7645
    -3.7643  -3.5022  -3.5017  -3.5006  -3.5000  -3.4991  -3.4980  -2.6344
    -2.6333  -2.6326  -2.6320  -2.6318  -2.6313  -2.6306  -2.6294  -2.6290
    -2.6274  -2.6267  -2.6258  -2.4283  -2.4276  -2.4267  -2.4258  -2.0258
    -2.0255  -2.0243  -2.0236  -2.0232  -2.0222  -2.0218  -2.0213  -2.0209
    -2.0200  -2.0198  -2.0195  -2.0188  -2.0184  -2.0183  -2.0181  -2.0172
    -2.0166  -2.0161  -2.0155  -2.0151  -2.0145  -2.0140  -2.0120  -0.6456
    -0.6438  -0.6432  -0.6414  -0.6408  -0.6399  -0.5499  -0.5482  -0.5477
    -0.5471  -0.5461  -0.5455  -0.5449  -0.5443  -0.5437  -0.5415  -0.5405
    -0.5395   0.6375   0.6380   0.6395   0.6406   0.8441   0.8449   0.8450
     0.8462   0.8467   0.8472   0.8474   0.8481   0.8490   0.8498   0.8504
     0.8508   0.8514   0.8518   0.8525   0.8529   0.8533   0.8542   0.8545
     0.8549   0.8550   0.8557   0.8566   0.8575   1.6961   1.6989   1.7001
     1.7008   1.7013   1.7015   1.7020   1.7021   1.7031   1.7034   1.7046
     1.7060   3.4923   3.4938   3.4947   3.4955   3.4967   3.4978   3.4986
     3.4992   3.5002   3.5006   3.5011   3.5020   3.5029   3.5032   4.3273
     4.3277   4.3283   4.3286   4.3291   4.3297   4.3302   4.3306   4.3312
     4.3313   4.3318   4.3326   4.3633   4.3638   4.3647   4.3651   4.3661
     4.3668   4.3668   4.3676   4.3681   4.3683   4.3688   4.3692   4.5013
     4.5015   4.5024   4.5029   4.5035   4.5038   4.5040   4.5044   4.5046
     4.5050   4.5056   4.5059   4.5062   4.5065   4.5066   4.5067   4.5072
     4.5075   4.5078   4.5080   4.5086   4.5089   4.5090   4.5102   5.1682
     5.1686   5.1690   5.1693   5.1698   5.1701   5.8338   5.8343   5.8346
     5.8349   5.8356   5.8359   5.8361   5.8366   5.8370   5.8374   5.8377
     5.8382   5.8385   5.8387   5.8389   5.8391   5.8397   5.8399   5.8402
     5.8408   5.8409   5.8413   5.8420   5.8426   6.1974   6.1979   6.1989
     6.1992   6.2000   6.2001   6.2005   6.2007   6.2012   6.2023   6.2030
     6.2035   6.7280   6.7284   6.7297   6.7301   6.7304   6.7306   6.7312
     6.7314   6.7330   6.7335   6.7345   6.7356   6.8290   6.8304   6.8312
     6.8315   6.8323   6.8330   6.8333   6.8343   7.3446   7.3460   7.3467
     7.3471   7.3479   7.3484   7.3491   7.3499   7.3507   7.3512   7.3521
     7.3526   7.3528   7.3537   7.3543   7.3550   8.1357   8.2249   8.2265
     8.2285   8.3188   8.3193   8.3200   8.3203   8.8117   8.8123   8.8127
     8.8133   8.8134   8.8141   8.8146   8.8162   8.8980   8.8988   8.8997
     8.8998   8.9011   8.9013   9.1720   9.1734   9.1737   9.1751   9.1762
     9.1786   9.5617   9.5619   9.5625   9.5629   9.5634   9.5638   9.5647
     9.5653   9.5657   9.5662   9.5668   9.5672   9.5676   9.5677   9.5680
     9.5684   9.5686   9.5694   9.5697   9.5705   9.5710   9.5718   9.5719
     9.5731  10.1159  10.1175  10.1181  10.1188  10.1194  10.1201  10.1203
    10.1209  10.1214  10.1222  10.1239  10.1245  10.7501  10.7516  10.7528
    10.8876  10.8880  10.8887  10.8890  10.8901  10.8905  11.8165  11.8168
    11.8181  11.8188  11.8188  11.8192  11.8201  11.8213  11.8218  11.8222
    11.8225  11.8234  11.8235  11.8243  11.8247  11.8256  11.9232  11.9240
    11.9245  11.9256  11.9265  11.9272  11.9282  11.9291  12.3692  12.3695
    12.3697  12.3702  12.3706  12.3713  12.3716  12.3718  12.3725  12.3727
    12.3730  12.3732  12.3738  12.3739  12.3743  12.3745  12.3752  12.3755
    12.3760  12.3764  12.3768  12.3773  12.3778  12.3783  12.4744  12.4746
    12.4750  12.4758  12.4763  12.4765  12.4768  12.4773  12.4780  12.4788
    12.4791  12.4796  12.8523  12.8525  12.8530  12.8533  12.8538  12.8540
    12.8547  12.8552  12.8558  12.8564  12.8566  12.8572  12.9687  12.9700
    12.9717  12.9723  12.9740  12.9742  12.9747  12.9757  12.9759  12.9765
    12.9786  12.9790  13.2474  13.2480  13.2484  13.2489  13.2501  13.2502
    13.2508  13.2510  13.2515  13.2519  13.2535  13.2546  13.4312  13.4320
    13.4325  13.4330  13.4336  13.4338  13.4338  13.4341  13.4344  13.4347
    13.4352  13.4357  13.5677

     occupation numbers 
     1.0000   1.0000   1.0000   1.0000   1.0000   1.0000   1.0000   1.0000
     1.0000   1.0000   1.0000   1.0000   1.0000   1.0000   1.0000   1.0000
     1.0000   1.0000   1.0000   1.0000   1.0000   1.0000   1.0000   1.0000
     1.0000   1.0000   1.0000   1.0000   1.0000   1.0000   1.0000   1.0000
     1.0000   1.0000   1.0000   1.0000   1.0000   1.0000   1.0000   1.0000
     1.0000   1.0000   1.0000   1.0000   1.0000   1.0000   1.0000   1.0000
     1.0000   1.0000   1.0000   1.0000   1.0000   1.0000   1.0000   1.0000
     1.0000   1.0000   1.0000   1.0000   1.0000   1.0000   1.0000   1.0000
     1.0000   1.0000   1.0000   1.0000   1.0000   1.0000   1.0000   1.0000
     1.0000   1.0000   1.0000   1.0000   1.0000   1.0000   1.0000   1.0000
     1.0000   1.0000   1.0000   1.0000   1.0000   1.0000   1.0000   1.0000
     1.0000   1.0000   1.0000   1.0000   1.0000   1.0000   1.0000   1.0000
     1.0000   1.0000   1.0000   1.0000   1.0000   1.0000   1.0000   1.0000
     1.0000   1.0000   1.0000   1.0000   1.0000   1.0000   1.0000   1.0000
     1.0000   1.0000   1.0000   1.0000   1.0000   1.0000   1.0000   1.0000
     1.0000   1.0000   1.0000   1.0000   1.0000   1.0000   1.0000   1.0000
     1.0000   1.0000   1.0000   1.0000   1.0000   1.0000   1.0000   1.0000
     1.0000   1.0000   1.0000   1.0000   1.0000   1.0000   1.0000   1.0000
     1.0000   1.0000   1.0000   1.0000   1.0000   1.0000   1.0000   1.0000
     1.0000   1.0000   1.0000   1.0000   1.0000   1.0000   1.0000   1.0000
     1.0000   1.0000   1.0000   1.0000   1.0000   1.0000   1.0000   1.0000
     1.0000   1.0000   1.0000   1.0000   1.0000   1.0000   1.0000   1.0000
     1.0000   1.0000   1.0000   1.0000   1.0000   1.0000   1.0000   1.0000
     1.0000   1.0000   1.0000   1.0000   1.0000   1.0000   1.0000   1.0000
     1.0000   1.0000   1.0000   1.0000   1.0000   1.0000   1.0000   1.0000
     1.0000   1.0000   1.0000   1.0000   1.0000   1.0000   1.0000   1.0000
     1.0000   1.0000   1.0000   1.0000   1.0000   1.0000   1.0000   1.0000
     1.0000   1.0000   1.0000   1.0000   1.0000   1.0000   1.0000   1.0000
     1.0000   1.0000   1.0000   1.0000   1.0000   1.0000   1.0000   1.0000
     1.0000   1.0000   1.0000   1.0000   1.0000   1.0000   1.0000   1.0000
     1.0000   1.0000   1.0000   1.0000   1.0000   1.0000   1.0000   1.0000
     1.0000   1.0000   1.0000   1.0000   1.0000   1.0000   1.0000   1.0000
     1.0000   1.0000   1.0000   1.0000   1.0000   1.0000   1.0000   1.0000
     1.0000   1.0000   1.0000   1.0000   1.0000   1.0000   1.0000   1.0000
     1.0000   1.0000   1.0000   1.0000   1.0000   1.0000   1.0000   1.0000
     1.0000   1.0000   1.0000   1.0000   1.0000   1.0000   1.0000   1.0000
     1.0000   1.0000   1.0000   1.0000   1.0000   1.0000   1.0000   1.0000
     1.0000   1.0000   1.0000   1.0000   1.0000   1.0000   1.0000   1.0000
     1.0000   1.0000   1.0000   1.0000   1.0000   1.0000   1.0000   1.0000
     1.0000   1.0000   1.0000   1.0000   1.0000   1.0000   1.0000   1.0000
     1.0000   1.0000   1.0000   1.0000   1.0000   1.0000   1.0000   1.0000
     1.0000   1.0000   1.0000   1.0000   1.0000   1.0000   1.0000   1.0000
     1.0000   1.0000   1.0000   1.0000   1.0000   1.0000   1.0000   1.0000
     1.0000   1.0000   1.0000   1.0000   1.0000   1.0000   1.0000   1.0000
     1.0000   1.0000   1.0000   1.0000   1.0000   1.0000   1.0000   1.0000
     1.0000   1.0000   1.0000   1.0000   1.0000   1.0000   1.0000   1.0000
     1.0000   1.0000   1.0000   1.0000   1.0000   1.0000   1.0000   1.0000
     1.0000   1.0000   1.0000   1.0000   1.0000   1.0000   1.0000   1.0000
     1.0000   1.0000   1.0000   1.0000   1.0000   1.0000   1.0000   1.0000
     1.0000   1.0000   1.0000   1.0000   1.0000   1.0000   1.0000   1.0000
     1.0000   1.0000   1.0000   1.0000   1.0000   1.0000   1.0000   1.0000
     1.0000   1.0000   1.0000   1.0000   1.0000   1.0000   1.0000   1.0000
     1.0000   1.0000   1.0000   1.0000   1.0000   1.0000   1.0000   1.0000
     1.0000   1.0000   1.0000   1.0000   1.0000   1.0000   1.0000   1.0000
     1.0000   1.0000   1.0000   1.0000   1.0000   1.0000   1.0000   1.0000
     1.0000   1.0000   1.0000   1.0000   1.0000   1.0000   1.0000   1.0000
     1.0000   1.0000   1.0000   1.0000   1.0000   1.0000   1.0000   1.0000
     1.0000   1.0000   1.0000   1.0000   1.0000   1.0000   1.0000   1.0000
     1.0000   1.0000   1.0000   1.0000   1.0000   1.0000   1.0000   1.0000
     1.0000   1.0000   1.0000   1.0000   1.0000   1.0000   1.0000   1.0000
     1.0000   1.0000   1.0000   1.0000   1.0000   1.0000   1.0000   1.0000
     1.0000   1.0000   1.0000   1.0000   1.0000   1.0000   1.0000   1.0000
     1.0000   1.0000   1.0000   1.0000   1.0000   1.0000   1.0000   1.0000
     1.0000   1.0000   1.0000   1.0000   1.0000   1.0000   1.0000   1.0000
     1.0000   1.0000   1.0000   1.0000   1.0000   1.0000   1.0000   1.0000
     1.0000   1.0000   1.0000   1.0000   1.0000   1.0000   1.0000   1.0000
     1.0000   1.0000   1.0000   1.0000   1.0000   1.0000   1.0000   1.0000
     1.0000   1.0000   1.0000   1.0000   1.0000   1.0000   1.0000   1.0000
     1.0000   1.0000   1.0000   1.0000   1.0000   1.0000   1.0000   1.0000
     1.0000   1.0000   1.0000   1.0000   1.0000   1.0000   1.0000   1.0000
     1.0000   1.0000   1.0000   1.0000   1.0000   1.0000   1.0000   1.0000
     1.0000   1.0000   1.0000   1.0000   1.0000   1.0000   1.0000   1.0000
     1.0000   1.0000   1.0000   1.0000   1.0000   1.0000   1.0000   1.0000
     1.0000   1.0000   1.0000   1.0000   1.0000   1.0000   1.0000   1.0000
     1.0000   1.0000   1.0000   1.0000   1.0000   1.0000   1.0000   1.0000
     1.0000   1.0000   1.0000   1.0000   1.0000   1.0000   1.0000   1.0000
     1.0000   1.0000   1.0000   1.0000   1.0000   1.0000   1.0000   1.0000
     1.0000   1.0000   1.0000   1.0000   1.0000   1.0000   1.0000   1.0000
     1.0000   1.0000   1.0000   1.0000   1.0000   1.0000   1.0000   1.0000
     1.0000   1.0000   1.0000   1.0000   1.0000   1.0000   1.0000   1.0000
     1.0000   1.0000   1.0000   1.0000   1.0000   1.0000   1.0000   1.0000
     1.0000   1.0000   1.0000   1.0000   1.0000   1.0000   1.0000   1.0000
     1.0000   1.0000   1.0000   1.0000   1.0000   1.0000   1.0000   1.0000
     1.0000   1.0000   1.0000   1.0000   1.0000   1.0000   1.0000   1.0000
     1.0000   1.0000   1.0000   1.0000   1.0000   1.0000   1.0000   1.0000
     1.0000   1.0000   1.0000   1.0000   1.0000   1.0000   1.0000   1.0000
     1.0000   1.0000   1.0000   1.0000   1.0000   1.0000   1.0000   1.0000
     1.0000   1.0000   1.0000   1.0000   1.0000   1.0000   1.0000   1.0000
     1.0000   1.0000   1.0000   1.0000   1.0000   1.0000   1.0000   1.0000
     1.0000   1.0000   1.0000   1.0000   1.0000   1.0000   1.0000   1.0000
     1.0000   1.0000   1.0000   1.0000   1.0000   1.0000   1.0000   1.0000
     1.0000   1.0000   1.0000   1.0000   1.0000   1.0000   1.0000   1.0000
     1.0000   1.0000   1.0000   1.0000   1.0000   1.0000   1.0000   1.0000
     1.0000   1.0000   1.0000   1.0000   1.0000   1.0000   1.0000   1.0000
     1.0000   1.0000   1.0000   1.0000   1.0000   1.0000   1.0000   1.0000
     1.0000   1.0000   1.0000   1.0000   1.0000   1.0000   1.0000   1.0000
     1.0000   1.0000   1.0000   1.0000   1.0000   1.0000   1.0000   1.0000
     1.0000   1.0000   1.0000   1.0000   1.0000   1.0000   1.0000   1.0000
     1.0000   1.0000   1.0000   1.0000   1.0000   1.0000   1.0000   1.0000
     1.0000   1.0000   1.0000   1.0000   1.0000   1.0000   1.0000   1.0000
     1.0000   1.0000   1.0000   1.0000   1.0000   1.0000   1.0000   1.0000
     1.0000   1.0000   1.0000   1.0000   1.0000   1.0000   1.0000   1.0000
     1.0000   1.0000   1.0000   1.0000   1.0000   1.0000   1.0000   1.0000
     1.0000   1.0000   1.0000   1.0000   1.0000   1.0000   1.0000   1.0000
     1.0000   1.0000   1.0000   1.0000   1.0000   1.0000   1.0000   1.0000
     1.0000   1.0000   1.0000   1.0000   1.0000   1.0000   1.0000   1.0000
     1.0000   1.0000   1.0000   1.0000   1.0000   1.0000   1.0000   1.0000
     1.0000   1.0000   1.0000   1.0000   1.0000   1.0000   1.0000   1.0000
     1.0000   1.0000   1.0000   1.0000   1.0000   1.0000   1.0000   1.0000
     1.0000   1.0000   1.0000   1.0000   1.0000   1.0000   1.0000   1.0000
     1.0000   1.0000   1.0000   1.0000   1.0000   1.0000   1.0000   1.0000
     1.0000   1.0000   1.0000   1.0000   1.0000   0.6930   0.4547   0.4505
     0.4450   0.2224   0.2213   0.2198   0.2193   0.0000   0.0000   0.0000
     0.0000   0.0000   0.0000   0.0000   0.0000   0.0000   0.0000   0.0000
     0.0000   0.0000   0.0000   0.0000   0.0000   0.0000   0.0000   0.0000
     0.0000   0.0000   0.0000   0.0000   0.0000   0.0000   0.0000   0.0000
     0.0000   0.0000   0.0000   0.0000   0.0000   0.0000   0.0000   0.0000
     0.0000   0.0000   0.0000   0.0000   0.0000   0.0000   0.0000   0.0000
     0.0000   0.0000   0.0000   0.0000   0.0000   0.0000   0.0000   0.0000
     0.0000   0.0000   0.0000   0.0000   0.0000   0.0000   0.0000   0.0000
     0.0000   0.0000   0.0000   0.0000   0.0000   0.0000   0.0000   0.0000
     0.0000   0.0000   0.0000   0.0000   0.0000   0.0000   0.0000   0.0000
     0.0000   0.0000   0.0000   0.0000   0.0000   0.0000   0.0000   0.0000
     0.0000   0.0000   0.0000   0.0000   0.0000   0.0000   0.0000   0.0000
     0.0000   0.0000   0.0000   0.0000   0.0000   0.0000   0.0000   0.0000
     0.0000   0.0000   0.0000   0.0000   0.0000   0.0000   0.0000   0.0000
     0.0000   0.0000   0.0000   0.0000   0.0000   0.0000   0.0000   0.0000
     0.0000   0.0000   0.0000   0.0000   0.0000   0.0000   0.0000   0.0000
     0.0000   0.0000   0.0000   0.0000   0.0000   0.0000   0.0000   0.0000
     0.0000   0.0000   0.0000   0.0000   0.0000   0.0000   0.0000   0.0000
     0.0000   0.0000   0.0000   0.0000   0.0000   0.0000   0.0000   0.0000
     0.0000   0.0000   0.0000   0.0000   0.0000   0.0000   0.0000   0.0000
     0.0000   0.0000   0.0000   0.0000   0.0000   0.0000   0.0000   0.0000
     0.0000   0.0000   0.0000   0.0000   0.0000   0.0000   0.0000   0.0000
     0.0000   0.0000   0.0000

          k =-0.3536-0.3536 0.3536 ( 68884 PWs)   bands (ev):

   -16.6407 -16.6406 -16.6404 -16.6403 -16.6402 -16.6399 -16.6398 -16.6397
   -16.6395 -16.6395 -16.6393 -16.6392 -16.6391 -16.6390 -16.6387 -16.6386
   -16.6385 -16.6382 -16.6332 -16.6330 -16.6328 -16.6327 -16.6326 -16.6324
   -16.6323 -16.6322 -16.6321 -16.6321 -16.6318 -16.6316 -16.6316 -16.6316
   -16.6313 -16.6312 -16.6311 -16.6309 -16.6309 -16.6308 -16.6307 -16.6306
   -16.6305 -16.6303 -16.6303 -16.6302 -16.6301 -16.6300 -16.6298 -16.6295
   -16.6279 -16.6279 -16.6278 -16.6277 -16.6275 -16.6273 -16.6262 -16.6258
   -16.6257 -16.6255 -16.6254 -16.6253 -16.6251 -16.6251 -16.6250 -16.6249
   -16.6247 -16.6247 -16.6246 -16.6246 -16.6245 -16.6244 -16.6242 -16.6241
   -16.6241 -16.6240 -16.6239 -16.6237 -16.6237 -16.6236 -16.6234 -16.6234
   -16.6233 -16.6231 -16.6229 -16.6227 -16.6196 -16.6193 -16.6191 -16.6190
   -16.6188 -16.6186 -16.6184 -16.6183 -16.6182 -16.6179 -16.6179 -16.6175
   -16.6174 -16.6171 -16.6170 -16.6169 -16.6168 -16.6167 -16.6166 -16.6165
   -16.6163 -16.6163 -16.6162 -16.6157 -16.6154 -16.6152 -16.6145 -16.6143
   -16.6127 -16.6121 -16.6119 -16.6117 -16.6115 -16.6110 -16.6057 -16.6055
   -16.6054 -16.6053 -16.6049 -16.6047 -16.5992 -16.5991 -16.5984 -16.5982
   -16.5896 -16.5893 -16.5891 -16.5890 -16.5890 -16.5888 -16.5887 -16.5885
   -16.5799 -16.5796 -16.5795 -16.5792 -16.5791 -16.5788 -16.5777 -16.5774
   -16.5720 -16.5718 -16.5716 -16.5715 -16.5714 -16.5713 -16.5618 -16.5616
   -16.5614 -16.5609 -16.5606 -16.5604 -16.5550 -16.5548 -16.5547 -16.5546
   -16.5543 -16.5541 -16.5540 -16.5539 -16.5538 -16.5537 -16.5535 -16.5533
   -16.5524 -16.5524 -16.5523 -16.5520 -16.5518 -16.5517 -16.5463 -16.5462
   -16.5454 -16.5453 -16.5428 -16.5425 -16.5424 -16.5422 -16.5421 -16.5419
   -16.5354 -16.5351 -16.5349 -16.5348 -16.5347 -16.5344 -16.5321 -16.5320
   -16.5319 -16.5318 -16.5317 -16.5316 -16.5315 -16.5314 -16.5313 -16.5313
   -16.5312 -16.5310 -16.5267 -16.5265 -16.5264 -16.5262 -16.5261 -16.5259
   -16.5186 -16.5186 -16.5177 -16.5176 -16.5142 -16.5141 -16.5140 -16.5139
   -16.5139 -16.5137 -16.5096 -16.5094 -16.5092 -16.5091 -16.5089 -16.5088
   -16.5086 -16.5083 -16.5081 -16.5080 -16.5079 -16.5077 -16.5075 -16.5075
   -16.5074 -16.5073 -16.5072 -16.5071 -16.5070 -16.5070 -16.5069 -16.5068
   -16.5068 -16.5067 -16.5066 -16.5066 -16.5065 -16.5064 -16.5064 -16.5064
   -16.5063 -16.5062 -16.5060 -16.5059 -16.5058 -16.5057 -16.5041 -16.5040
   -16.5040 -16.5034 -16.5034 -16.5033 -16.4872 -16.4871 -16.4870 -16.4870
   -16.4869 -16.4868 -16.4816 -16.4814 -16.4812 -16.4811 -16.4811 -16.4809
   -16.4808 -16.4808 -16.4806 -16.4806 -16.4804 -16.4803 -16.4793 -16.4792
   -16.4791 -16.4791 -16.4791 -16.4790 -16.4788 -16.4787 -16.4787 -16.4786
   -16.4785 -16.4784 -16.4783 -16.4780 -16.4778 -16.4777 -16.4775 -16.4774
   -16.4708 -16.4706 -16.4704 -16.4704 -16.4702 -16.4702 -16.4701 -16.4700
   -16.4699 -16.4696 -16.4696 -16.4695 -16.4695 -16.4695 -16.4694 -16.4693
   -16.4692 -16.4691 -16.4678 -16.4677 -16.4675 -16.4672 -16.4671 -16.4671
   -16.4562 -16.4561 -16.4561 -16.4560 -16.4559 -16.4558 -16.4456 -16.4454
   -16.4453 -16.4453 -16.4452 -16.4450 -16.4450 -16.4449 -16.4447 -16.4446
   -16.4445 -16.4445 -16.4351 -16.4350 -16.4348 -16.4348 -16.4347 -16.4346
   -16.4346 -16.4345 -16.4345 -16.4344 -16.4343 -16.4343 -16.4318 -16.4317
   -16.4316 -16.4314 -16.4314 -16.4311 -16.4271 -16.4270 -16.4268 -16.4267
   -16.4266 -16.4266 -16.4265 -16.4264 -16.4263 -16.4262 -16.4262 -16.4260
   -16.4245 -16.4243 -16.4242 -16.4241 -16.4240 -16.4239 -16.4219 -16.4217
   -16.4216 -16.4216 -16.4215 -16.4214 -16.4213 -16.4210 -16.4208 -16.4208
   -16.4207 -16.4205 -16.4061 -16.4060 -16.4060 -16.4054 -16.4054 -16.4053
   -16.4041 -16.4040 -16.4040 -16.4040 -16.4039 -16.4037 -16.3972 -16.3970
   -16.3970 -16.3969 -16.3966 -16.3966 -16.3953 -16.3952 -16.3949 -16.3949
   -16.3949 -16.3947 -16.3946 -16.3946 -16.3945 -16.3945 -16.3944 -16.3943
   -16.3917 -16.3915 -16.3914 -16.3912 -16.3911 -16.3911 -16.3909 -16.3908
   -16.3907 -16.3906 -16.3905 -16.3904 -16.3903 -16.3902 -16.3901 -16.3901
   -16.3900 -16.3899 -16.3878 -16.3876 -16.3875 -16.3875 -16.3874 -16.3872
   -16.3862 -16.3860 -16.3860 -16.3858 -16.3856 -16.3854 -16.3830 -16.3830
   -16.3824 -16.3823 -16.3821 -16.3821 -16.3820 -16.3819 -16.3819 -16.3818
   -16.3804 -16.3802 -16.3801 -16.3801 -16.3800 -16.3799 -16.3798 -16.3798
   -16.3797 -16.3796 -16.3795 -16.3793 -16.3777 -16.3776 -16.3775 -16.3762
   -16.3761 -16.3760 -16.3758 -16.3757 -16.3756 -16.3756 -16.3755 -16.3754
   -16.3683 -16.3674 -16.3626 -16.3625 -16.3624 -16.3624 -16.3623 -16.3622
   -16.3621 -16.3620 -16.3619 -16.3619 -16.3618 -16.3618 -16.3616 -16.3615
   -16.3615 -16.3613 -16.3539 -16.3532 -16.3494 -16.3493 -16.3492 -16.3492
   -16.3492 -16.3489 -16.3457 -16.3455 -16.3455 -16.3455 -16.3454 -16.3453
   -16.3287 -16.3284 -16.3284 -16.3282 -16.3281 -16.3281 -16.3275 -16.3275
   -16.3275 -16.3274 -16.3156 -16.3155 -16.3154 -16.3154 -16.3153 -16.3151
   -16.3142 -16.3140 -16.3138 -16.3137 -16.3137 -16.3136 -16.3135 -16.3134
   -16.3133 -16.3133 -16.3130 -16.3130 -16.3129 -16.3128 -16.3123 -16.3121
   -16.3099 -16.3098 -16.3098 -16.3088 -16.3087 -16.3087 -16.3066 -16.3065
   -16.3065 -16.3063 -16.3062 -16.3061 -16.3040 -16.3040 -16.3039 -16.3039
   -16.3038 -16.3038 -16.3037 -16.3034 -16.3033 -16.3032 -16.3030 -16.3029
   -16.3029 -16.3026 -16.3023 -16.3022 -16.3021 -16.3020 -16.3005 -16.3004
   -16.3004 -16.3000 -16.2998 -16.2997 -16.2996 -16.2995 -16.2995 -16.2994
   -16.2993 -16.2992 -16.2991 -16.2991 -16.2990 -16.2989 -16.2989 -16.2988
   -16.2968 -16.2965 -16.2965 -16.2963 -16.2959 -16.2958 -16.2957 -16.2956
   -16.2952 -16.2951 -16.2949 -16.2947 -16.2946 -16.2945 -16.2943 -16.2943
   -16.2943 -16.2942 -16.2939 -16.2939 -16.2937 -16.2937 -16.2936 -16.2936
   -16.2933 -16.2932 -16.2932 -16.2930 -16.2928 -16.2927 -16.2871 -16.2869
   -16.2869 -16.2867 -16.2866 -16.2864 -16.2862 -16.2860 -16.2859 -16.2858
   -16.2858 -16.2857 -16.2857 -16.2856 -16.2854 -16.2852 -16.2851 -16.2850
    -4.3166  -4.3149  -3.8196  -3.8193  -3.8184  -3.8175  -3.8172  -3.8165
    -3.3555  -3.3547  -3.3534  -3.3533  -3.3513  -3.3507  -2.9636  -2.9610
    -2.8476  -2.8459  -2.8455  -2.8449  -2.8437  -2.8423  -2.4764  -2.4762
    -2.4754  -2.4742  -2.4740  -2.4729  -2.4725  -2.4722  -2.4707  -2.4704
    -2.4697  -2.4677  -2.3330  -2.3322  -2.3318  -2.3311  -2.3303  -2.3291
    -1.8589  -1.8587  -1.8581  -1.8579  -1.8566  -1.8548  -1.4558  -1.4556
    -1.4541  -1.4538  -1.4532  -1.4519  -1.3411  -1.3399  -1.3397  -1.3388
    -1.3380  -1.3371  -1.3369  -1.3357  -1.3348  -1.3342  -1.3331  -1.3308
     0.2036   0.2055   0.2059   0.2061   0.2071   0.2084   0.2094   0.2100
     0.2107   0.2112   0.2115   0.2131   0.2789   0.2795   0.2798   0.2802
     0.2821   0.2825   0.6357   0.6376   0.6397   0.6405   0.6428   0.6434
     0.7664   0.7671   0.7672   0.7682   0.7704   0.7717   1.4060   1.4066
     1.4072   1.4078   1.4088   1.4095   1.4104   1.4109   1.4113   1.4127
     1.4130   1.4153   1.5588   1.5609   2.1453   2.1475   2.1491   2.1516
     2.1526   2.1535   2.7094   2.7104   2.7119   2.7129   2.7135   2.7142
     4.0300   4.0318   4.0328   4.0334   4.0345   4.0358   4.0816   4.0823
     4.0827   4.0837   4.0838   4.0854   4.0930   4.0934   4.0941   4.0942
     4.0950   4.0951   4.0956   4.0962   4.0966   4.0972   4.0974   4.0981
     4.6725   4.6729   4.6731   4.6737   4.6743   4.6744   4.6842   4.6844
     4.6851   4.6856   4.6860   4.6866   4.6873   4.6879   4.6885   4.6892
     4.6895   4.6902   5.1491   5.1494   5.1500   5.1502   5.1506   5.1510
     5.1514   5.1518   5.1525   5.1530   5.1534   5.1540   5.3444   5.3449
     5.3458   5.3461   5.3476   5.3478   5.3758   5.3769   5.3777   5.3784
     5.3789   5.3798   5.5685   5.5690   5.5698   5.5703   5.5707   5.5710
     5.6706   5.6727   5.6732   5.6743   5.6749   5.6755   5.8401   5.8417
     5.8509   5.8514   5.8518   5.8526   5.8528   5.8547   6.1346   6.1355
     6.1361   6.1365   6.1374   6.1376   6.1384   6.1388   6.1394   6.1401
     6.1410   6.1421   6.1562   6.1568   6.1570   6.1578   6.1585   6.1609
     6.4797   6.4804   6.4819   6.4820   6.4839   6.4846   6.7035   6.7053
     6.7064   6.7070   6.7084   6.7093   6.7957   6.7963   6.7968   6.7975
     6.7985   6.8007   6.9646   6.9647   6.9652   6.9685   7.3053   7.3059
     7.3066   7.3079   7.3084   7.3102   7.8922   7.8928   7.8935   7.8973
     8.4484   8.4514   9.0482   9.0486   9.0499   9.0501   9.0511   9.0527
     9.1864   9.1890   9.4276   9.4297   9.4303   9.4312   9.4319   9.4347
     9.5513   9.5518   9.5524   9.5538   9.5541   9.5545   9.7715   9.7716
     9.7731   9.7737   9.7745   9.7765   9.7912   9.7921   9.7922   9.7925
     9.7936   9.7950  10.0723  10.0726  10.0735  10.0744  10.0747  10.0759
    10.0975  10.0988  10.0990  10.0994  10.1001  10.1003  10.4464  10.4478
    10.4487  10.4488  10.4491  10.4496  10.4505  10.4511  10.4521  10.4530
    10.4534  10.4552  10.6110  10.6114  10.6125  10.6132  10.6136  10.6138
    10.6148  10.6156  10.6157  10.6164  10.6172  10.6184  10.7873  10.7881
    10.7889  10.7895  10.7901  10.7928  10.8455  10.8471  10.8473  10.8480
    10.8487  10.8506  11.1947  11.1964  11.1965  11.1986  11.5765  11.5780
    11.5783  11.5797  11.5799  11.5804  11.5810  11.5816  11.5823  11.5828
    11.5832  11.5848  11.6458  11.6480  11.7056  11.7069  11.7071  11.7078
    11.7101  11.7116  11.9567  11.9580  11.9596  11.9606  11.9611  11.9619
    11.9627  11.9634  11.9649  11.9672  12.1215  12.1235  12.1240  12.1250
    12.1258  12.1280  12.3692  12.3702  12.3707  12.3720  12.3724  12.3728
    12.3730  12.3738  12.3744  12.3745  12.3752  12.3759  12.6468  12.6484
    12.6494  12.6497  12.6507  12.6509  12.7566  12.7567  12.7578  12.7584
    12.7598  12.7613  13.0113  13.0115  13.0119  13.0129  13.0138  13.0140
    13.0483  13.0490  13.0497  13.0507  13.0511  13.0516  13.0520  13.0524
    13.0530  13.0532  13.0545  13.0549  13.1702  13.1704  13.1716  13.1717
    13.1729  13.1738  13.2407  13.2421  13.2425  13.2432  13.2437  13.2443
    13.2445  13.2453  13.2457

     occupation numbers 
     1.0000   1.0000   1.0000   1.0000   1.0000   1.0000   1.0000   1.0000
     1.0000   1.0000   1.0000   1.0000   1.0000   1.0000   1.0000   1.0000
     1.0000   1.0000   1.0000   1.0000   1.0000   1.0000   1.0000   1.0000
     1.0000   1.0000   1.0000   1.0000   1.0000   1.0000   1.0000   1.0000
     1.0000   1.0000   1.0000   1.0000   1.0000   1.0000   1.0000   1.0000
     1.0000   1.0000   1.0000   1.0000   1.0000   1.0000   1.0000   1.0000
     1.0000   1.0000   1.0000   1.0000   1.0000   1.0000   1.0000   1.0000
     1.0000   1.0000   1.0000   1.0000   1.0000   1.0000   1.0000   1.0000
     1.0000   1.0000   1.0000   1.0000   1.0000   1.0000   1.0000   1.0000
     1.0000   1.0000   1.0000   1.0000   1.0000   1.0000   1.0000   1.0000
     1.0000   1.0000   1.0000   1.0000   1.0000   1.0000   1.0000   1.0000
     1.0000   1.0000   1.0000   1.0000   1.0000   1.0000   1.0000   1.0000
     1.0000   1.0000   1.0000   1.0000   1.0000   1.0000   1.0000   1.0000
     1.0000   1.0000   1.0000   1.0000   1.0000   1.0000   1.0000   1.0000
     1.0000   1.0000   1.0000   1.0000   1.0000   1.0000   1.0000   1.0000
     1.0000   1.0000   1.0000   1.0000   1.0000   1.0000   1.0000   1.0000
     1.0000   1.0000   1.0000   1.0000   1.0000   1.0000   1.0000   1.0000
     1.0000   1.0000   1.0000   1.0000   1.0000   1.0000   1.0000   1.0000
     1.0000   1.0000   1.0000   1.0000   1.0000   1.0000   1.0000   1.0000
     1.0000   1.0000   1.0000   1.0000   1.0000   1.0000   1.0000   1.0000
     1.0000   1.0000   1.0000   1.0000   1.0000   1.0000   1.0000   1.0000
     1.0000   1.0000   1.0000   1.0000   1.0000   1.0000   1.0000   1.0000
     1.0000   1.0000   1.0000   1.0000   1.0000   1.0000   1.0000   1.0000
     1.0000   1.0000   1.0000   1.0000   1.0000   1.0000   1.0000   1.0000
     1.0000   1.0000   1.0000   1.0000   1.0000   1.0000   1.0000   1.0000
     1.0000   1.0000   1.0000   1.0000   1.0000   1.0000   1.0000   1.0000
     1.0000   1.0000   1.0000   1.0000   1.0000   1.0000   1.0000   1.0000
     1.0000   1.0000   1.0000   1.0000   1.0000   1.0000   1.0000   1.0000
     1.0000   1.0000   1.0000   1.0000   1.0000   1.0000   1.0000   1.0000
     1.0000   1.0000   1.0000   1.0000   1.0000   1.0000   1.0000   1.0000
     1.0000   1.0000   1.0000   1.0000   1.0000   1.0000   1.0000   1.0000
     1.0000   1.0000   1.0000   1.0000   1.0000   1.0000   1.0000   1.0000
     1.0000   1.0000   1.0000   1.0000   1.0000   1.0000   1.0000   1.0000
     1.0000   1.0000   1.0000   1.0000   1.0000   1.0000   1.0000   1.0000
     1.0000   1.0000   1.0000   1.0000   1.0000   1.0000   1.0000   1.0000
     1.0000   1.0000   1.0000   1.0000   1.0000   1.0000   1.0000   1.0000
     1.0000   1.0000   1.0000   1.0000   1.0000   1.0000   1.0000   1.0000
     1.0000   1.0000   1.0000   1.0000   1.0000   1.0000   1.0000   1.0000
     1.0000   1.0000   1.0000   1.0000   1.0000   1.0000   1.0000   1.0000
     1.0000   1.0000   1.0000   1.0000   1.0000   1.0000   1.0000   1.0000
     1.0000   1.0000   1.0000   1.0000   1.0000   1.0000   1.0000   1.0000
     1.0000   1.0000   1.0000   1.0000   1.0000   1.0000   1.0000   1.0000
     1.0000   1.0000   1.0000   1.0000   1.0000   1.0000   1.0000   1.0000
     1.0000   1.0000   1.0000   1.0000   1.0000   1.0000   1.0000   1.0000
     1.0000   1.0000   1.0000   1.0000   1.0000   1.0000   1.0000   1.0000
     1.0000   1.0000   1.0000   1.0000   1.0000   1.0000   1.0000   1.0000
     1.0000   1.0000   1.0000   1.0000   1.0000   1.0000   1.0000   1.0000
     1.0000   1.0000   1.0000   1.0000   1.0000   1.0000   1.0000   1.0000
     1.0000   1.0000   1.0000   1.0000   1.0000   1.0000   1.0000   1.0000
     1.0000   1.0000   1.0000   1.0000   1.0000   1.0000   1.0000   1.0000
     1.0000   1.0000   1.0000   1.0000   1.0000   1.0000   1.0000   1.0000
     1.0000   1.0000   1.0000   1.0000   1.0000   1.0000   1.0000   1.0000
     1.0000   1.0000   1.0000   1.0000   1.0000   1.0000   1.0000   1.0000
     1.0000   1.0000   1.0000   1.0000   1.0000   1.0000   1.0000   1.0000
     1.0000   1.0000   1.0000   1.0000   1.0000   1.0000   1.0000   1.0000
     1.0000   1.0000   1.0000   1.0000   1.0000   1.0000   1.0000   1.0000
     1.0000   1.0000   1.0000   1.0000   1.0000   1.0000   1.0000   1.0000
     1.0000   1.0000   1.0000   1.0000   1.0000   1.0000   1.0000   1.0000
     1.0000   1.0000   1.0000   1.0000   1.0000   1.0000   1.0000   1.0000
     1.0000   1.0000   1.0000   1.0000   1.0000   1.0000   1.0000   1.0000
     1.0000   1.0000   1.0000   1.0000   1.0000   1.0000   1.0000   1.0000
     1.0000   1.0000   1.0000   1.0000   1.0000   1.0000   1.0000   1.0000
     1.0000   1.0000   1.0000   1.0000   1.0000   1.0000   1.0000   1.0000
     1.0000   1.0000   1.0000   1.0000   1.0000   1.0000   1.0000   1.0000
     1.0000   1.0000   1.0000   1.0000   1.0000   1.0000   1.0000   1.0000
     1.0000   1.0000   1.0000   1.0000   1.0000   1.0000   1.0000   1.0000
     1.0000   1.0000   1.0000   1.0000   1.0000   1.0000   1.0000   1.0000
     1.0000   1.0000   1.0000   1.0000   1.0000   1.0000   1.0000   1.0000
     1.0000   1.0000   1.0000   1.0000   1.0000   1.0000   1.0000   1.0000
     1.0000   1.0000   1.0000   1.0000   1.0000   1.0000   1.0000   1.0000
     1.0000   1.0000   1.0000   1.0000   1.0000   1.0000   1.0000   1.0000
     1.0000   1.0000   1.0000   1.0000   1.0000   1.0000   1.0000   1.0000
     1.0000   1.0000   1.0000   1.0000   1.0000   1.0000   1.0000   1.0000
     1.0000   1.0000   1.0000   1.0000   1.0000   1.0000   1.0000   1.0000
     1.0000   1.0000   1.0000   1.0000   1.0000   1.0000   1.0000   1.0000
     1.0000   1.0000   1.0000   1.0000   1.0000   1.0000   1.0000   1.0000
     1.0000   1.0000   1.0000   1.0000   1.0000   1.0000   1.0000   1.0000
     1.0000   1.0000   1.0000   1.0000   1.0000   1.0000   1.0000   1.0000
     1.0000   1.0000   1.0000   1.0000   1.0000   1.0000   1.0000   1.0000
     1.0000   1.0000   1.0000   1.0000   1.0000   1.0000   1.0000   1.0000
     1.0000   1.0000   1.0000   1.0000   1.0000   1.0000   1.0000   1.0000
     1.0000   1.0000   1.0000   1.0000   1.0000   1.0000   1.0000   1.0000
     1.0000   1.0000   1.0000   1.0000   1.0000   1.0000   1.0000   1.0000
     1.0000   1.0000   1.0000   1.0000   1.0000   1.0000   1.0000   1.0000
     1.0000   1.0000   1.0000   1.0000   1.0000   1.0000   1.0000   1.0000
     1.0000   1.0000   1.0000   1.0000   1.0000   1.0000   1.0000   1.0000
     1.0000   1.0000   1.0000   1.0000   1.0000   1.0000   1.0000   1.0000
     1.0000   1.0000   1.0000   1.0000   1.0000   1.0000   1.0000   1.0000
     1.0000   1.0000   1.0000   1.0000   1.0000   1.0000   1.0000   1.0000
     1.0000   1.0000   1.0000   1.0000   1.0000   1.0000   1.0000   1.0000
     1.0000   1.0000   1.0000   1.0000   1.0000   1.0000   1.0000   1.0000
     1.0000   1.0000   1.0000   1.0000   1.0000   1.0000   1.0000   1.0000
     1.0000   1.0000   1.0000   1.0000   1.0000   1.0000   1.0000   1.0000
     1.0000   1.0000   1.0000   1.0000   1.0000   1.0000   1.0000   1.0000
     1.0000   1.0000   1.0000   1.0000   1.0000   1.0000   1.0000   1.0000
     1.0000   1.0000   1.0000   1.0000   1.0000   1.0000   1.0000   1.0000
     1.0000   1.0000   1.0000   1.0000   1.0000   1.0000   1.0000   1.0000
     1.0000   1.0000   1.0000   1.0000   1.0000   1.0000   1.0000   1.0000
     1.0000   1.0000   1.0000   1.0000   1.0000   1.0000   1.0000   1.0000
     1.0000   1.0000   1.0000   1.0000   1.0000   1.0000   1.0000   1.0000
     1.0000   1.0000   1.0000   1.0000   1.0000   1.0000   1.0000   1.0000
     1.0000   1.0000   1.0000   1.0000   1.0000   1.0000   1.0000   1.0000
     1.0000   1.0000   1.0000   1.0000   1.0000   1.0000   1.0000   1.0000
     1.0000   1.0000   1.0000   1.0000   1.0000   1.0000   1.0000   1.0000
     1.0000   1.0000   1.0000   1.0000   1.0000   1.0000   1.0000   1.0000
     1.0000   1.0000   1.0000   1.0000   1.0000   1.0000   1.0000   1.0000
     1.0000   1.0000   1.0000   1.0000   1.0000   1.0000   1.0000   1.0000
     1.0000   1.0000   1.0000   1.0000   1.0000   1.0000   1.0000   1.0000
     1.0000   1.0000   1.0000   1.0000   1.0000   1.0000   1.0000   1.0000
     1.0000   1.0000   1.0000   1.0000   1.0000   1.0000   1.0000   1.0000
     1.0000   1.0000   1.0000   1.0000   1.0000   1.0000   1.0000   1.0000
     1.0000   1.0000   1.0000   1.0000   0.9858   0.9857   0.9855   0.9845
     0.0482   0.0462   0.0000   0.0000   0.0000   0.0000   0.0000   0.0000
     0.0000   0.0000   0.0000   0.0000   0.0000   0.0000   0.0000   0.0000
     0.0000   0.0000   0.0000   0.0000   0.0000   0.0000   0.0000   0.0000
     0.0000   0.0000   0.0000   0.0000   0.0000   0.0000   0.0000   0.0000
     0.0000   0.0000   0.0000   0.0000   0.0000   0.0000   0.0000   0.0000
     0.0000   0.0000   0.0000   0.0000   0.0000   0.0000   0.0000   0.0000
     0.0000   0.0000   0.0000   0.0000   0.0000   0.0000   0.0000   0.0000
     0.0000   0.0000   0.0000   0.0000   0.0000   0.0000   0.0000   0.0000
     0.0000   0.0000   0.0000   0.0000   0.0000   0.0000   0.0000   0.0000
     0.0000   0.0000   0.0000   0.0000   0.0000   0.0000   0.0000   0.0000
     0.0000   0.0000   0.0000   0.0000   0.0000   0.0000   0.0000   0.0000
     0.0000   0.0000   0.0000   0.0000   0.0000   0.0000   0.0000   0.0000
     0.0000   0.0000   0.0000   0.0000   0.0000   0.0000   0.0000   0.0000
     0.0000   0.0000   0.0000   0.0000   0.0000   0.0000   0.0000   0.0000
     0.0000   0.0000   0.0000   0.0000   0.0000   0.0000   0.0000   0.0000
     0.0000   0.0000   0.0000   0.0000   0.0000   0.0000   0.0000   0.0000
     0.0000   0.0000   0.0000   0.0000   0.0000   0.0000   0.0000   0.0000
     0.0000   0.0000   0.0000   0.0000   0.0000   0.0000   0.0000   0.0000
     0.0000   0.0000   0.0000   0.0000   0.0000   0.0000   0.0000   0.0000
     0.0000   0.0000   0.0000   0.0000   0.0000   0.0000   0.0000   0.0000
     0.0000   0.0000   0.0000   0.0000   0.0000   0.0000   0.0000   0.0000
     0.0000   0.0000   0.0000   0.0000   0.0000   0.0000   0.0000   0.0000
     0.0000   0.0000   0.0000

          k =-0.7071 0.0000 0.0000 ( 68952 PWs)   bands (ev):

   -16.6421 -16.6419 -16.6415 -16.6413 -16.6408 -16.6404 -16.6404 -16.6401
   -16.6399 -16.6396 -16.6394 -16.6390 -16.6365 -16.6364 -16.6363 -16.6361
   -16.6361 -16.6359 -16.6358 -16.6355 -16.6332 -16.6329 -16.6329 -16.6328
   -16.6325 -16.6324 -16.6323 -16.6322 -16.6311 -16.6310 -16.6308 -16.6307
   -16.6306 -16.6303 -16.6303 -16.6301 -16.6299 -16.6296 -16.6295 -16.6293
   -16.6292 -16.6291 -16.6290 -16.6289 -16.6288 -16.6286 -16.6286 -16.6285
   -16.6284 -16.6282 -16.6281 -16.6279 -16.6266 -16.6265 -16.6263 -16.6262
   -16.6262 -16.6261 -16.6260 -16.6260 -16.6259 -16.6257 -16.6255 -16.6254
   -16.6254 -16.6252 -16.6251 -16.6250 -16.6249 -16.6248 -16.6246 -16.6244
   -16.6235 -16.6234 -16.6233 -16.6232 -16.6231 -16.6230 -16.6228 -16.6226
   -16.6221 -16.6219 -16.6215 -16.6214 -16.6208 -16.6208 -16.6205 -16.6204
   -16.6203 -16.6202 -16.6201 -16.6199 -16.6198 -16.6197 -16.6195 -16.6194
   -16.6191 -16.6189 -16.6189 -16.6186 -16.6181 -16.6181 -16.6177 -16.6176
   -16.6175 -16.6173 -16.6172 -16.6170 -16.6145 -16.6143 -16.6140 -16.6135
   -16.6132 -16.6131 -16.6130 -16.6125 -16.6101 -16.6098 -16.6095 -16.6094
   -16.6039 -16.6036 -16.6035 -16.6029 -16.5986 -16.5985 -16.5970 -16.5969
   -16.5967 -16.5966 -16.5862 -16.5861 -16.5859 -16.5858 -16.5782 -16.5782
   -16.5762 -16.5759 -16.5758 -16.5758 -16.5757 -16.5756 -16.5755 -16.5752
   -16.5750 -16.5747 -16.5745 -16.5745 -16.5743 -16.5743 -16.5741 -16.5739
   -16.5608 -16.5605 -16.5604 -16.5603 -16.5601 -16.5601 -16.5599 -16.5598
   -16.5571 -16.5568 -16.5567 -16.5567 -16.5564 -16.5563 -16.5562 -16.5561
   -16.5486 -16.5483 -16.5444 -16.5442 -16.5442 -16.5439 -16.5436 -16.5436
   -16.5434 -16.5432 -16.5395 -16.5392 -16.5391 -16.5388 -16.5386 -16.5384
   -16.5382 -16.5380 -16.5337 -16.5337 -16.5329 -16.5328 -16.5327 -16.5327
   -16.5326 -16.5324 -16.5324 -16.5323 -16.5276 -16.5273 -16.5273 -16.5267
   -16.5228 -16.5227 -16.5227 -16.5227 -16.5227 -16.5225 -16.5225 -16.5224
   -16.5223 -16.5223 -16.5222 -16.5221 -16.5220 -16.5219 -16.5218 -16.5216
   -16.5204 -16.5202 -16.5200 -16.5196 -16.5194 -16.5193 -16.5190 -16.5186
   -16.5150 -16.5150 -16.5147 -16.5147 -16.5146 -16.5144 -16.5143 -16.5139
   -16.5026 -16.5026 -16.5024 -16.5023 -16.5022 -16.5022 -16.5021 -16.5021
   -16.5020 -16.5019 -16.5019 -16.5017 -16.5017 -16.5015 -16.5013 -16.5012
   -16.4962 -16.4960 -16.4958 -16.4957 -16.4956 -16.4955 -16.4953 -16.4951
   -16.4933 -16.4932 -16.4931 -16.4931 -16.4930 -16.4930 -16.4929 -16.4928
   -16.4914 -16.4913 -16.4894 -16.4893 -16.4890 -16.4888 -16.4887 -16.4886
   -16.4885 -16.4882 -16.4879 -16.4877 -16.4842 -16.4840 -16.4839 -16.4838
   -16.4837 -16.4836 -16.4835 -16.4834 -16.4827 -16.4824 -16.4823 -16.4822
   -16.4821 -16.4820 -16.4819 -16.4819 -16.4817 -16.4816 -16.4815 -16.4810
   -16.4770 -16.4769 -16.4768 -16.4767 -16.4765 -16.4765 -16.4762 -16.4762
   -16.4581 -16.4580 -16.4579 -16.4578 -16.4577 -16.4577 -16.4576 -16.4574
   -16.4565 -16.4564 -16.4564 -16.4562 -16.4562 -16.4561 -16.4560 -16.4559
   -16.4558 -16.4557 -16.4554 -16.4551 -16.4489 -16.4488 -16.4487 -16.4486
   -16.4486 -16.4484 -16.4483 -16.4482 -16.4470 -16.4469 -16.4468 -16.4467
   -16.4467 -16.4466 -16.4465 -16.4464 -16.4429 -16.4428 -16.4426 -16.4425
   -16.4389 -16.4388 -16.4385 -16.4384 -16.4381 -16.4381 -16.4301 -16.4299
   -16.4298 -16.4297 -16.4297 -16.4295 -16.4295 -16.4293 -16.4259 -16.4259
   -16.4258 -16.4257 -16.4257 -16.4256 -16.4255 -16.4255 -16.4235 -16.4231
   -16.4230 -16.4228 -16.4228 -16.4225 -16.4224 -16.4223 -16.4135 -16.4133
   -16.4132 -16.4131 -16.4130 -16.4130 -16.4125 -16.4124 -16.4079 -16.4077
   -16.4077 -16.4074 -16.4073 -16.4072 -16.4069 -16.4068 -16.4055 -16.4055
   -16.4053 -16.4051 -16.4051 -16.4050 -16.4048 -16.4047 -16.4046 -16.4045
[...]
     atom   77 type  1   force =   0.00000000E+00  0.00000000E+00  0.00000000E+00
     atom   78 type  1   force =   0.00000000E+00  0.00000000E+00  0.00000000E+00
     atom   79 type  1   force =   0.00000000E+00  0.00000000E+00  0.00000000E+00
     atom   80 type  1   force =   0.00000000E+00  0.00000000E+00  0.00000000E+00
     atom   81 type  1   force =   0.00000000E+00  0.00000000E+00  0.00000000E+00
     atom   82 type  1   force =   0.00000000E+00  0.00000000E+00  0.00000000E+00
     atom   83 type  1   force =   0.00000000E+00  0.00000000E+00  0.00000000E+00
     atom   84 type  1   force =   0.00000000E+00  0.00000000E+00  0.00000000E+00
     atom   85 type  1   force =   0.00000000E+00  0.00000000E+00  0.00000000E+00
     atom   86 type  1   force =   0.00000000E+00  0.00000000E+00  0.00000000E+00
     atom   87 type  1   force =   0.00000000E+00  0.00000000E+00  0.00000000E+00
     atom   88 type  1   force =   0.00000000E+00  0.00000000E+00  0.00000000E+00
     atom   89 type  1   force =   0.00000000E+00  0.00000000E+00  0.00000000E+00
     atom   90 type  1   force =   0.00000000E+00  0.00000000E+00  0.00000000E+00
     atom   91 type  1   force =   0.00000000E+00  0.00000000E+00  0.00000000E+00
     atom   92 type  1   force =   0.00000000E+00  0.00000000E+00  0.00000000E+00
     atom   93 type  1   force =   0.00000000E+00  0.00000000E+00  0.00000000E+00
     atom   94 type  1   force =   0.00000000E+00  0.00000000E+00  0.00000000E+00
     atom   95 type  1   force =   0.00000000E+00  0.00000000E+00  0.00000000E+00
     atom   96 type  1   force =   0.00000000E+00  0.00000000E+00  0.00000000E+00
     atom   97 type  1   force =   0.00000000E+00  0.00000000E+00  0.00000000E+00
     atom   98 type  1   force =   0.00000000E+00  0.00000000E+00  0.00000000E+00
     atom   99 type  1   force =   0.00000000E+00  0.00000000E+00  0.00000000E+00
     atom  100 type  1   force =   0.00000000E+00  0.00000000E+00  0.00000000E+00
     atom  101 type  1   force =   0.00000000E+00  0.00000000E+00  0.00000000E+00
     atom  102 type  1   force =   0.00000000E+00  0.00000000E+00  0.00000000E+00
     atom  103 type  1   force =   0.00000000E+00  0.00000000E+00  0.00000000E+00
     atom  104 type  1   force =   0.00000000E+00  0.00000000E+00  0.00000000E+00
     atom  105 type  1   force =   0.00000000E+00  0.00000000E+00  0.00000000E+00
     atom  106 type  1   force =   0.00000000E+00  0.00000000E+00  0.00000000E+00
     atom  107 type  1   force =   0.00000000E+00  0.00000000E+00  0.00000000E+00
     atom  108 type  1   force =   0.00000000E+00  0.00000000E+00  0.00000000E+00
     atom  109 type  1   force =   0.00000000E+00  0.00000000E+00  0.00000000E+00
     atom  110 type  1   force =   0.00000000E+00  0.00000000E+00  0.00000000E+00
     atom  111 type  1   force =   0.00000000E+00  0.00000000E+00  0.00000000E+00
     atom  112 type  1   force =   0.00000000E+00  0.00000000E+00  0.00000000E+00
     atom  113 type  1   force =   0.00000000E+00  0.00000000E+00  0.00000000E+00
     atom  114 type  1   force =   0.00000000E+00  0.00000000E+00  0.00000000E+00
     atom  115 type  1   force =   0.00000000E+00  0.00000000E+00  0.00000000E+00
     atom  116 type  1   force =   0.00000000E+00  0.00000000E+00  0.00000000E+00
     atom  117 type  1   force =   0.00000000E+00  0.00000000E+00  0.00000000E+00
     atom  118 type  1   force =   0.00000000E+00  0.00000000E+00  0.00000000E+00
     atom  119 type  1   force =   0.00000000E+00  0.00000000E+00  0.00000000E+00
     atom  120 type  1   force =   0.00000000E+00  0.00000000E+00  0.00000000E+00
     atom  121 type  1   force =   0.00000000E+00  0.00000000E+00  0.00000000E+00
     atom  122 type  1   force =   0.00000000E+00  0.00000000E+00  0.00000000E+00
     atom  123 type  1   force =   0.00000000E+00  0.00000000E+00  0.00000000E+00
     atom  124 type  1   force =   0.00000000E+00  0.00000000E+00  0.00000000E+00
     atom  125 type  1   force =   0.00000000E+00  0.00000000E+00  0.00000000E+00
     atom  126 type  1   force =   0.00000000E+00  0.00000000E+00  0.00000000E+00
     atom  127 type  1   force =   0.00000000E+00  0.00000000E+00  0.00000000E+00
     atom  128 type  1   force =   0.00000000E+00  0.00000000E+00  0.00000000E+00
     The SCF correction term to forces
     atom    1 type  1   force =   0.11388926E-05  0.30561813E-05 -0.26111061E-05
     atom    2 type  1   force =   0.17029138E-05  0.22591889E-05 -0.22630925E-05
     atom    3 type  1   force =   0.65612149E-07  0.10718785E-05 -0.13245830E-05
     atom    4 type  1   force =  -0.60406111E-06 -0.31457250E-06 -0.16619382E-05
     atom    5 type  1   force =  -0.25590471E-05 -0.13091765E-05 -0.67770363E-06
     atom    6 type  1   force =  -0.16700124E-05 -0.18329646E-05  0.91335932E-06
     atom    7 type  1   force =  -0.14799281E-05 -0.37732841E-06 -0.53181434E-06
     atom    8 type  1   force =   0.74145345E-06  0.54678763E-06 -0.16543366E-05
     atom    9 type  1   force =   0.30392348E-05  0.14183901E-05 -0.22406000E-05
     atom   10 type  1   force =   0.23092759E-05 -0.20449405E-06 -0.15003445E-05
     atom   11 type  1   force =  -0.64632422E-06 -0.41266867E-06 -0.39532068E-06
     atom   12 type  1   force =   0.10723006E-06 -0.15185976E-05 -0.59821983E-06
     atom   13 type  1   force =  -0.20431273E-05 -0.51018905E-06  0.43774072E-06
     atom   14 type  1   force =  -0.84127092E-06 -0.13335134E-05  0.21574029E-05
     atom   15 type  1   force =  -0.20530181E-06 -0.38441499E-06  0.94920417E-06
     atom   16 type  1   force =   0.23563822E-05 -0.88320663E-06 -0.85228877E-06
     atom   17 type  1   force =   0.30642910E-05  0.12637501E-06 -0.11697525E-05
     atom   18 type  1   force =   0.12533081E-05 -0.84682725E-06 -0.63015537E-06
     atom   19 type  1   force =   0.72399140E-06 -0.16935212E-05  0.11044614E-05
     atom   20 type  1   force =   0.20867485E-05 -0.12153071E-05  0.12529657E-05
     atom   21 type  1   force =   0.11465950E-05 -0.15964562E-05  0.32097635E-05
     atom   22 type  1   force =  -0.11161744E-06 -0.30289321E-05  0.28317020E-05
     atom   23 type  1   force =   0.85512839E-06 -0.27431010E-05  0.14665287E-05
     atom   24 type  1   force =   0.22490813E-05 -0.46331733E-06 -0.28073608E-06
     atom   25 type  1   force =   0.11153279E-05  0.14965456E-05 -0.15835468E-05
     atom   26 type  1   force =   0.38383135E-06  0.13981266E-05 -0.21461688E-05
     atom   27 type  1   force =   0.10091886E-05  0.11331898E-05 -0.17615510E-06
     atom   28 type  1   force =  -0.65242315E-07  0.71138270E-06 -0.95118736E-06
     atom   29 type  1   force =  -0.59977602E-06 -0.15974281E-05  0.53236555E-06
     atom   30 type  1   force =  -0.25746507E-05 -0.21558466E-05  0.84076589E-07
     atom   31 type  1   force =  -0.73559054E-06 -0.12097670E-05 -0.16386750E-06
     atom   32 type  1   force =  -0.17354253E-06  0.14918576E-05 -0.23941847E-05
     atom   33 type  1   force =   0.11523251E-05  0.34968647E-05 -0.33494192E-05
     atom   34 type  1   force =   0.19922964E-06  0.19639680E-05 -0.19812699E-05
     atom   35 type  1   force =  -0.16492568E-05  0.85934305E-06 -0.15811789E-05
     atom   36 type  1   force =  -0.14201992E-05  0.31725530E-06 -0.14192169E-05
     atom   37 type  1   force =  -0.19825468E-05  0.13807301E-06  0.77166497E-07
     atom   38 type  1   force =  -0.29631687E-05 -0.89297783E-06  0.76073534E-06
     atom   39 type  1   force =  -0.14850008E-05  0.86250393E-07 -0.66821727E-07
     atom   40 type  1   force =  -0.52576116E-06  0.27413189E-05 -0.66354482E-06
     atom   41 type  1   force =   0.19759948E-05  0.18367115E-05 -0.32221096E-05
     atom   42 type  1   force =   0.11001839E-05  0.11804770E-06 -0.92547619E-06
     atom   43 type  1   force =  -0.37044435E-06 -0.80162529E-06 -0.11189698E-05
     atom   44 type  1   force =   0.12887487E-05 -0.72098989E-06 -0.28902653E-06
     atom   45 type  1   force =   0.39029462E-07 -0.10749021E-05  0.22514377E-06
     atom   46 type  1   force =  -0.13373486E-06 -0.19934678E-05  0.28835153E-05
     atom   47 type  1   force =  -0.60196136E-06 -0.11112766E-05  0.17942018E-05
     atom   48 type  1   force =   0.22751405E-06 -0.20695830E-06  0.17306390E-06
     atom   49 type  1   force =   0.29790648E-05 -0.10444379E-05 -0.71877812E-06
     atom   50 type  1   force =   0.18690970E-05 -0.85716418E-06  0.29638983E-06
     atom   51 type  1   force =   0.29916004E-05 -0.13477090E-05  0.89805918E-06
     atom   52 type  1   force =   0.24929474E-05 -0.36156713E-06  0.19687321E-05
     atom   53 type  1   force =   0.80939532E-06 -0.21087872E-05  0.25161396E-05
     atom   54 type  1   force =  -0.14501713E-05 -0.36064431E-05  0.21834283E-05
     atom   55 type  1   force =   0.57425774E-06 -0.29090066E-05  0.15538883E-05
     atom   56 type  1   force =   0.24572880E-05 -0.64564133E-06 -0.81227380E-06
     atom   57 type  1   force =   0.21641689E-05  0.16249833E-05 -0.16639562E-05
     atom   58 type  1   force =   0.14257231E-05  0.25854287E-05 -0.11404761E-05
     atom   59 type  1   force =   0.57780432E-06  0.19905828E-06 -0.39269493E-06
     atom   60 type  1   force =  -0.14888278E-05  0.93452758E-06 -0.46506955E-06
     atom   61 type  1   force =  -0.15919666E-05 -0.15699446E-05  0.75155260E-06
     atom   62 type  1   force =  -0.27726880E-05 -0.17187804E-05  0.76790580E-06
     atom   63 type  1   force =  -0.53523917E-06 -0.11432813E-05 -0.39784576E-06
     atom   64 type  1   force =  -0.10219566E-06  0.16885552E-05 -0.16308387E-05
     atom   65 type  1   force =  -0.64946837E-06  0.25725497E-05 -0.31422838E-05
     atom   66 type  1   force =  -0.86761093E-06  0.12997411E-05 -0.20033840E-05
     atom   67 type  1   force =  -0.98712885E-06  0.84913412E-06 -0.17489320E-05
     atom   68 type  1   force =  -0.83862807E-06  0.21966333E-05 -0.70302677E-06
     atom   69 type  1   force =  -0.18844812E-05  0.10445895E-05  0.51904876E-06
     atom   70 type  1   force =  -0.27578756E-05  0.22997210E-06  0.21191868E-05
     atom   71 type  1   force =  -0.18225840E-05  0.13646130E-05  0.51838381E-06
     atom   72 type  1   force =  -0.92756748E-06  0.14356996E-05 -0.25582587E-05
     atom   73 type  1   force =   0.13519019E-05  0.14391334E-05 -0.17271105E-05
     atom   74 type  1   force =   0.61325077E-06  0.94212452E-06  0.58050242E-06
     atom   75 type  1   force =  -0.41115323E-06  0.15299886E-05  0.83252980E-06
     atom   76 type  1   force =   0.10660681E-05  0.11908232E-05  0.19143496E-05
     atom   77 type  1   force =  -0.15158826E-05  0.75101031E-07  0.16837922E-05
     atom   78 type  1   force =  -0.16662679E-05 -0.28805114E-05  0.19766910E-05
     atom   79 type  1   force =  -0.15962624E-05 -0.12355484E-05  0.91698308E-08
     atom   80 type  1   force =   0.93242676E-06  0.14896326E-06  0.28261406E-06
     atom   81 type  1   force =   0.28367431E-05  0.10569032E-05  0.97242448E-06
     atom   82 type  1   force =   0.21205332E-05  0.14052529E-05  0.19821972E-05
     atom   83 type  1   force =   0.18376636E-05 -0.38764061E-06  0.26085002E-05
     atom   84 type  1   force =   0.12402840E-06 -0.20759592E-05  0.11285371E-05
     atom   85 type  1   force =  -0.96154604E-06 -0.29354620E-05  0.14891872E-05
     atom   86 type  1   force =  -0.10781820E-05 -0.26897219E-05  0.26219621E-05
     atom   87 type  1   force =  -0.10674742E-06 -0.10467198E-05  0.17653620E-05
     atom   88 type  1   force =   0.18591836E-05  0.17529193E-06  0.70201310E-06
     atom   89 type  1   force =   0.10645245E-05  0.28643091E-05 -0.22795922E-06
     atom   90 type  1   force =  -0.78896451E-06  0.14628266E-05 -0.19374831E-05
     atom   91 type  1   force =  -0.69347519E-06 -0.47639738E-06 -0.10720087E-05
     atom   92 type  1   force =  -0.17276240E-05  0.70097722E-06 -0.12945144E-05
     atom   93 type  1   force =  -0.92796418E-06 -0.11543936E-05  0.14936894E-05
     atom   94 type  1   force =  -0.26828780E-05 -0.93803496E-06  0.16494004E-05
     atom   95 type  1   force =  -0.63696253E-06  0.30982656E-06  0.15640864E-05
     atom   96 type  1   force =   0.68306112E-06  0.29676620E-05 -0.81924549E-06
     atom   97 type  1   force =  -0.22658813E-06  0.24486308E-05 -0.28067925E-05
     atom   98 type  1   force =   0.49797270E-06  0.20905988E-05 -0.13121376E-05
     atom   99 type  1   force =  -0.45923387E-06  0.25204080E-05 -0.46310295E-06
     atom  100 type  1   force =  -0.15254649E-07  0.20966099E-05 -0.29614647E-06
     atom  101 type  1   force =  -0.21943669E-05  0.32221419E-06  0.22453037E-06
     atom  102 type  1   force =  -0.38046467E-05 -0.13598955E-05 -0.10433723E-06
     atom  103 type  1   force =  -0.25662788E-05  0.21336913E-06 -0.78808450E-06
     atom  104 type  1   force =  -0.72804633E-06  0.12340805E-05 -0.16897184E-05
     atom  105 type  1   force =   0.21298505E-05  0.25097143E-05 -0.34367856E-06
     atom  106 type  1   force =   0.25731378E-05  0.89143351E-06  0.68344305E-06
     atom  107 type  1   force =  -0.31005127E-06  0.71635700E-06  0.71662515E-06
     atom  108 type  1   force =  -0.71223994E-06 -0.16938735E-05  0.53509730E-06
     atom  109 type  1   force =  -0.20299952E-05 -0.99974603E-06  0.52608072E-06
     atom  110 type  1   force =  -0.16471895E-05 -0.18599671E-05  0.10262937E-05
     atom  111 type  1   force =  -0.12402303E-05 -0.53126231E-06  0.72046376E-06
     atom  112 type  1   force =   0.14313278E-05  0.72210579E-06  0.32702736E-06
     atom  113 type  1   force =   0.31800235E-05  0.14521816E-05 -0.52813318E-06
     atom  114 type  1   force =   0.13598753E-05 -0.36960638E-06 -0.79239392E-06
     atom  115 type  1   force =  -0.76253845E-07 -0.24273590E-05  0.80103249E-06
     atom  116 type  1   force =   0.19515070E-06 -0.19401296E-05  0.11827337E-05
     atom  117 type  1   force =   0.14413730E-06 -0.25633823E-05  0.22457977E-05
     atom  118 type  1   force =   0.83729864E-07 -0.21846051E-05  0.37480896E-05
     atom  119 type  1   force =   0.10240041E-05 -0.29699432E-06  0.26018338E-05
     atom  120 type  1   force =   0.21938457E-05  0.41670897E-06  0.76730969E-06
     atom  121 type  1   force =   0.92695070E-06  0.13301440E-05 -0.24994073E-05
     atom  122 type  1   force =  -0.67745341E-06  0.82747005E-06 -0.20953207E-05
     atom  123 type  1   force =  -0.19609490E-06  0.20902487E-06 -0.41667592E-06
     atom  124 type  1   force =  -0.57192284E-07  0.16725641E-05 -0.61199329E-06
     atom  125 type  1   force =  -0.80589722E-06 -0.53505269E-06  0.25570367E-05
     atom  126 type  1   force =  -0.19707730E-05 -0.41897858E-06  0.22301144E-05
     atom  127 type  1   force =  -0.85164388E-06 -0.43672261E-06  0.98586673E-06
     atom  128 type  1   force =  -0.14132294E-06  0.11619423E-05 -0.19178308E-05

     Total force =     0.014932     Total SCF correction =     0.000030


     entering subroutine stress ...

          total   stress  (Ry/bohr**3)                   (kbar)     P=    0.24
   0.0000016570  -0.0000002030  -0.0000007501          0.24     -0.03     -0.11
  -0.0000002030   0.0000016556  -0.0000001525         -0.03      0.24     -0.02
  -0.0000007501  -0.0000001525   0.0000016593         -0.11     -0.02      0.24

     kinetic stress (kbar)   9996.63      0.03      0.11
                                0.03   9996.63      0.02
                                0.11      0.02   9996.63

     local   stress (kbar)   1777.08      4.87     18.25
                                4.87   1777.13      3.69
                               18.25      3.69   1777.05

     nonloc. stress (kbar)   2937.40     -0.02     -0.09
                               -0.02   2937.40     -0.02
                               -0.09     -0.02   2937.40

     hartree stress (kbar)  26306.47     -1.90     -7.13
                               -1.90  26306.45     -1.44
                               -7.13     -1.44  26306.48

     exc-cor stress (kbar)  19474.21     -0.00     -0.00
                               -0.00  19474.21     -0.00
                               -0.00     -0.00  19474.21

     corecor stress (kbar) -29142.11      0.00      0.01
                                0.00 -29142.11      0.00
                                0.01      0.00 -29142.11

     ewald   stress (kbar) -31349.44     -3.00    -11.25
                               -3.00 -31349.47     -2.27
                              -11.25     -2.27 -31349.42

     hubbard stress (kbar)      0.00      0.00      0.00
                                0.00      0.00      0.00
                                0.00      0.00      0.00

     london  stress (kbar)      0.00      0.00      0.00
                                0.00      0.00      0.00
                                0.00      0.00      0.00

     XDM     stress (kbar)      0.00      0.00      0.00
                                0.00      0.00      0.00
                                0.00      0.00      0.00

     dft-nl  stress (kbar)      0.00      0.00      0.00
                                0.00      0.00      0.00
                                0.00      0.00      0.00



     Writing output data file Ge_diamond.scf.in.super.444.022.save

     init_run     :   1556.61s CPU   1152.08s WALL (       1 calls)
     electrons    :  98520.74s CPU  75938.54s WALL (       1 calls)
     forces       :   1114.15s CPU    777.00s WALL (       1 calls)
     stress       :   4658.96s CPU   4575.32s WALL (       1 calls)

     Called by init_run:
     wfcinit      :   1511.74s CPU   1107.13s WALL (       1 calls)
     potinit      :      0.80s CPU      0.82s WALL (       1 calls)

     Called by electrons:
     c_bands      :  92088.34s CPU  70572.38s WALL (      13 calls)
     sum_band     :   5835.96s CPU   4769.00s WALL (      13 calls)
     v_of_rho     :      9.12s CPU      9.15s WALL (      13 calls)
     v_h          :      0.69s CPU      0.69s WALL (      13 calls)
     v_xc         :      9.52s CPU      9.56s WALL (      15 calls)
     newd         :    613.53s CPU    614.14s WALL (      13 calls)
     mix_rho      :     14.40s CPU     14.42s WALL (      13 calls)

     Called by c_bands:
     init_us_2    :     50.35s CPU     50.61s WALL (     232 calls)
     cegterg      :  91706.61s CPU  70179.86s WALL (     104 calls)

     Called by sum_band:
     sum_band:bec :     23.60s CPU     23.61s WALL (     104 calls)
     addusdens    :    448.96s CPU    449.23s WALL (      13 calls)

     Called by *egterg:
     h_psi        :  24139.50s CPU  18809.65s WALL (     405 calls)
     s_psi        :   6993.17s CPU   4263.16s WALL (     405 calls)
     g_psi        :     11.11s CPU     14.05s WALL (     293 calls)
     cdiaghg      :  40225.72s CPU  34010.67s WALL (     389 calls)
     cegterg:over :   9642.88s CPU   6231.49s WALL (     293 calls)
     cegterg:upda :   4813.67s CPU   2930.72s WALL (     293 calls)
     cegterg:last :   3248.05s CPU   1929.39s WALL (     104 calls)

     Called by h_psi:
     h_psi:vloc   :   9849.64s CPU   9913.44s WALL (     405 calls)
     h_psi:vnl    :  14266.32s CPU   8872.14s WALL (     405 calls)
     add_vuspsi   :   6965.88s CPU   4224.91s WALL (     405 calls)

     General routines
     calbec       :  11913.28s CPU   8013.79s WALL (     525 calls)
     fft          :    228.21s CPU    228.33s WALL (     233 calls)
     ffts         :      8.21s CPU      8.23s WALL (     371 calls)
     fftw         :  10483.44s CPU  10550.91s WALL (  671764 calls)
     interpolate  :      2.43s CPU      2.44s WALL (      26 calls)

     Parallel routines
     fft_scatter  :   6410.08s CPU   6473.72s WALL (  672368 calls)

     PWSCF        :     1d    5h25m CPU        0d   22h55m WALL


   This run was terminated on:  21:38:47  18Jan2017            

=------------------------------------------------------------------------------=
   JOB DONE.
=------------------------------------------------------------------------------=
