
     Program PWSCF v.5.1 starts on 18Jan2017 at 10:24:38 

     This program is part of the open-source Quantum ESPRESSO suite
     for quantum simulation of materials; please cite
         "P. Giannozzi et al., J. Phys.:Condens. Matter 21 395502 (2009);
          URL http://www.quantum-espresso.org", 
     in publications or presentations arising from this work. More details at
     http://www.quantum-espresso.org/quote

     Parallel version (MPI), running on    16 processors
     R & G space division:  proc/nbgrp/npool/nimage =      16
     Reading input from /tmp/Ge_diamond.scf.in.super.444.SiSi.01.6136/Ge_diamond.scf.in.super.444.SiSi.01.t
Warning: card &IONS ignored
Warning: card   ION_DYNAMICS='BFGS', ignored
Warning: card / ignored
Warning: card &CELL ignored
Warning: card  CELL_DYNAMICS = 'BFGS' ignored
Warning: card / ignored
     Message from routine read_cards :
     DEPRECATED: no units specified in CELL_PARAMETERS card

     Current dimensions of program PWSCF are:
     Max number of different atomic species (ntypx) = 10
     Max number of k-points (npk) =  40000
     Max angular momentum in pseudopotentials (lmaxx) =  3

     Subspace diagonalization in iterative solution of the eigenvalue problem:
     a serial algorithm will be used


     Parallelization info
     --------------------
     sticks:   dense  smooth     PW     G-vecs:    dense   smooth      PW
     Min         793     553    145                58871    34448    4637
     Max         795     554    146                58873    34482    4641
     Sum       12703    8863   2335               941961   551433   74249



     bravais-lattice index     =            0
     lattice parameter (alat)  =    30.323768153  a.u.
     unit-cell volume          =   19716.7125 (a.u.)^3
     number of atoms/cell      =          128
     number of atomic types    =            2
     number of electrons       =      1772.00
     number of Kohn-Sham states=         1063
     kinetic-energy cutoff     =      35.0000  Ry
     charge density cutoff     =     200.0000  Ry
     convergence threshold     =      1.0E-09
     mixing beta               =       0.3000
     number of iterations used =            8  local-TF  mixing
     Exchange-correlation      = SLA  PW   PSX  PSC ( 1  4 10  8 0)
     A smooth kinetic-energy cutoff is imposed at      34.5000 Ry
     height of the smooth step-function =             800.0000 Ry
     width of the smooth step-function  =               1.0000 Ry


     celldm(1)=  30.323768  celldm(2)=   0.000000  celldm(3)=   0.000000
     celldm(4)=   0.000000  celldm(5)=   0.000000  celldm(6)=   0.000000

     crystal axes: (cart. coord. in units of alat)
               a(1) = (   0.000000000000   0.707106781187   0.707106781187 )  
               a(2) = (   0.707106781187   0.000000000000   0.707106781187 )  
               a(3) = (   0.707106781187   0.707106781187  -0.000000000000 )  

     reciprocal axes: (cart. coord. in units 2 pi/alat)
               b(1) = ( -0.707107  0.707107  0.707107 )  
               b(2) = (  0.707107 -0.707107  0.707107 )  
               b(3) = (  0.707107  0.707107 -0.707107 )  


     PseudoPot. # 1 for Ge read from file:
     /users/kfg/psuedo/gbrv_1.5/ge.pbesol.UPF
     MD5 check sum: 7bed0412183f5e553a4d27ec7023354d
     Pseudo is Ultrasoft + core correction, Zval = 14.0
     Generated by new atomic code, or converted to UPF format
     Using radial grid of  873 points,  6 beta functions with: 
                l(1) =   0
                l(2) =   0
                l(3) =   1
                l(4) =   1
                l(5) =   2
                l(6) =   2
     Q(r) pseudized with  8 coefficients,  rinner =    1.400   1.400   1.400
                                                       1.400   1.400

     PseudoPot. # 2 for Si read from file:
     /users/kfg/psuedo/gbrv_1.5/si.pbesol.UPF
     MD5 check sum: ef58ba74faed4df802eb8a9742fc00a8
     Pseudo is Ultrasoft + core correction, Zval =  4.0
     Generated by new atomic code, or converted to UPF format
     Using radial grid of  899 points,  6 beta functions with: 
                l(1) =   0
                l(2) =   0
                l(3) =   1
                l(4) =   1
                l(5) =   2
                l(6) =   2
     Q(r) pseudized with  8 coefficients,  rinner =    0.900   0.900   0.900
                                                       0.900   0.900

     atomic species   valence    mass     pseudopotential
        Ge            14.00    72.64000     Ge( 1.00)
        Si             4.00    28.00000     Si( 1.00)

     No symmetry found


                                    s                        frac. trans.

      isym =  1     identity                                     

 cryst.   s( 1) = (     1          0          0      )
                  (     0          1          0      )
                  (     0          0          1      )

 cart.    s( 1) = (  1.0000000  0.0000000  0.0000000 )
                  (  0.0000000  1.0000000  0.0000000 )
                  (  0.0000000  0.0000000  1.0000000 )


     point group C_1 (1)    
     there are  1 classes
     the character table:

       E    
A      1.00

     the symmetry operations in each class:
     E        1

   Cartesian axes

     site n.     atom                  positions (alat units)
         1           Si  tau(   1) = (   -0.00002908164    0.00016344323    0.00011177325  )
         2           Si  tau(   2) = (    0.08825563151    0.08839815894    0.08825273672  )
         3           Ge  tau(   3) = (    0.17693953759    0.17665709111    0.00010695816  )
         4           Ge  tau(   4) = (    0.26502243374    0.26511491674    0.08846659032  )
         5           Ge  tau(   5) = (    0.35367198854    0.35367512543   -0.00000972710  )
         6           Ge  tau(   6) = (    0.44188234426    0.44201721746    0.08829846796  )
         7           Ge  tau(   7) = (    0.53038122670    0.53041680143    0.00002313921  )
         8           Ge  tau(   8) = (    0.61869106117    0.61863581071    0.08851979109  )
         9           Ge  tau(   9) = (    0.17671840915   -0.00002565098    0.17665150064  )
        10           Ge  tau(  10) = (    0.26527569423    0.08827506167    0.26519405372  )
        11           Ge  tau(  11) = (    0.35364723922    0.17674791394    0.17694136112  )
        12           Ge  tau(  12) = (    0.44202783598    0.26517444131    0.26518623462  )
        13           Ge  tau(  13) = (    0.53019664935    0.35345814027    0.17678159021  )
        14           Ge  tau(  14) = (    0.61870383353    0.44195092705    0.26528073100  )
        15           Ge  tau(  15) = (    0.70716058477    0.53032130152    0.17690050466  )
        16           Ge  tau(  16) = (    0.79562237933    0.61887632117    0.26503230921  )
        17           Ge  tau(  17) = (    0.35368493596   -0.00011432720    0.35369982671  )
        18           Ge  tau(  18) = (    0.44189533062    0.08849432782    0.44188813491  )
        19           Ge  tau(  19) = (    0.53034650134    0.17683962844    0.35349339649  )
        20           Ge  tau(  20) = (    0.61863251905    0.26517300679    0.44207063572  )
        21           Ge  tau(  21) = (    0.70718914691    0.35370317640    0.35364920655  )
        22           Ge  tau(  22) = (    0.79560717962    0.44183171025    0.44193266013  )
        23           Ge  tau(  23) = (    0.88381717930    0.53017091985    0.35362272819  )
        24           Ge  tau(  24) = (    0.97227381893    0.61873742314    0.44188689369  )
        25           Ge  tau(  25) = (    0.53027629280    0.00005126434    0.53035036486  )
        26           Ge  tau(  26) = (    0.61887823955    0.08840104899    0.61866522210  )
        27           Ge  tau(  27) = (    0.70696378763    0.17694059692    0.53034611704  )
        28           Ge  tau(  28) = (    0.79555732567    0.26511684708    0.61868567584  )
        29           Ge  tau(  29) = (    0.88399769053    0.35345168194    0.53029360176  )
        30           Ge  tau(  30) = (    0.97220052856    0.44206625276    0.61874867331  )
        31           Ge  tau(  31) = (    1.06081330742    0.53026188100    0.53035720213  )
        32           Ge  tau(  32) = (    1.14902416560    0.61879503577    0.61870864147  )
        33           Ge  tau(  33) = (    0.00001790526    0.17683013087    0.17667688456  )
        34           Ge  tau(  34) = (    0.08830814779    0.26515315570    0.26501615449  )
        35           Ge  tau(  35) = (    0.17686905833    0.35343143233    0.17664833681  )
        36           Ge  tau(  36) = (    0.26520531449    0.44187632875    0.26526533776  )
        37           Ge  tau(  37) = (    0.35366937795    0.53044743879    0.17664337143  )
        38           Ge  tau(  38) = (    0.44201616298    0.61887756459    0.26528052644  )
        39           Ge  tau(  39) = (    0.53041687768    0.70716436127    0.17678466234  )
        40           Ge  tau(  40) = (    0.61878571284    0.79535209711    0.26530931464  )
        41           Ge  tau(  41) = (    0.17685684415    0.17671343535    0.35354192412  )
        42           Ge  tau(  42) = (    0.26508130207    0.26515855030    0.44183978063  )
        43           Ge  tau(  43) = (    0.35352097696    0.35363204497    0.35370300701  )
        44           Ge  tau(  44) = (    0.44183194102    0.44185752758    0.44190815742  )
        45           Ge  tau(  45) = (    0.53029159554    0.53041817690    0.35350948253  )
        46           Ge  tau(  46) = (    0.61884135566    0.61887639243    0.44178875486  )
        47           Ge  tau(  47) = (    0.70722008718    0.70712220638    0.35348499503  )
        48           Ge  tau(  48) = (    0.79564007388    0.79554372650    0.44204910533  )
        49           Ge  tau(  49) = (    0.35371322281    0.17662310860    0.53037849925  )
        50           Ge  tau(  50) = (    0.44205665815    0.26508597896    0.61866544422  )
        51           Ge  tau(  51) = (    0.53026753616    0.35339079765    0.53041725317  )
        52           Ge  tau(  52) = (    0.61879306352    0.44178175461    0.61868457579  )
        53           Ge  tau(  53) = (    0.70708570908    0.53034069955    0.53044687128  )
        54           Ge  tau(  54) = (    0.79556287399    0.61867786567    0.61883800919  )
        55           Ge  tau(  55) = (    0.88381328414    0.70716315971    0.53029124899  )
        56           Ge  tau(  56) = (    0.97239203504    0.79548508260    0.61879705961  )
        57           Ge  tau(  57) = (    0.53016559155    0.17693380976    0.70712118915  )
        58           Ge  tau(  58) = (    0.61879024818    0.26531178351    0.79564877966  )
        59           Ge  tau(  59) = (    0.70706036792    0.35350815361    0.70721027471  )
        60           Ge  tau(  60) = (    0.79558385674    0.44198164152    0.79549574723  )
        61           Ge  tau(  61) = (    0.88385998524    0.53029098680    0.70698319981  )
        62           Ge  tau(  62) = (    0.97220168702    0.61864981443    0.79553105990  )
        63           Ge  tau(  63) = (    1.06074334396    0.70717168291    0.70710754334  )
        64           Ge  tau(  64) = (    1.14907445965    0.79541563218    0.79560717603  )
        65           Ge  tau(  65) = (    0.00013351535    0.35370873766    0.35357654453  )
        66           Ge  tau(  66) = (    0.08832479435    0.44190728654    0.44206109484  )
        67           Ge  tau(  67) = (    0.17676015961    0.53034130563    0.35354590761  )
        68           Ge  tau(  68) = (    0.26526238461    0.61876868409    0.44183522981  )
        69           Ge  tau(  69) = (    0.35349816969    0.70704286381    0.35357206698  )
        70           Ge  tau(  70) = (    0.44197515193    0.79554400537    0.44199583410  )
        71           Ge  tau(  71) = (    0.53037433577    0.88392370521    0.35365954679  )
        72           Ge  tau(  72) = (    0.61864086689    0.97227878101    0.44195937325  )
        73           Ge  tau(  73) = (    0.17676074788    0.35369467560    0.53021746777  )
        74           Ge  tau(  74) = (    0.26518084037    0.44208547139    0.61874997892  )
        75           Ge  tau(  75) = (    0.35354005842    0.53038109575    0.53031728697  )
        76           Ge  tau(  76) = (    0.44201046607    0.61856639444    0.61870814983  )
        77           Ge  tau(  77) = (    0.53036501269    0.70722785214    0.53033492195  )
        78           Ge  tau(  78) = (    0.61874228991    0.79537023406    0.61877700172  )
        79           Ge  tau(  79) = (    0.70726350098    0.88381010708    0.53018068049  )
        80           Ge  tau(  80) = (    0.79544838415    0.97237271028    0.61865315303  )
        81           Ge  tau(  81) = (    0.35345831232    0.35344967744    0.70720004280  )
        82           Ge  tau(  82) = (    0.44192430995    0.44204928882    0.79544859253  )
        83           Ge  tau(  83) = (    0.53021927479    0.53039253828    0.70718393185  )
        84           Ge  tau(  84) = (    0.61881346721    0.61888242394    0.79545480255  )
        85           Ge  tau(  85) = (    0.70721461902    0.70725571700    0.70701361433  )
        86           Ge  tau(  86) = (    0.79547527044    0.79537984076    0.79538552642  )
        87           Ge  tau(  87) = (    0.88378113525    0.88376601036    0.70703769441  )
        88           Ge  tau(  88) = (    0.97231625115    0.97235760192    0.79544208522  )
        89           Ge  tau(  89) = (    0.53041385943    0.35353322367    0.88381801419  )
        90           Ge  tau(  90) = (    0.61887969146    0.44184964470    0.97220793251  )
        91           Ge  tau(  91) = (    0.70705599293    0.53039889592    0.88381727923  )
        92           Ge  tau(  92) = (    0.79534757571    0.61878801478    0.97215510470  )
        93           Ge  tau(  93) = (    0.88377852109    0.70703562567    0.88393797793  )
        94           Ge  tau(  94) = (    0.97214503987    0.79561564106    0.97233831960  )
        95           Ge  tau(  95) = (    1.06071535608    0.88401752434    0.88401553049  )
        96           Ge  tau(  96) = (    1.14905345931    0.97241902648    0.97211091520  )
        97           Ge  tau(  97) = (   -0.00009172707    0.53034392558    0.53030568722  )
        98           Ge  tau(  98) = (    0.08834585252    0.61868548174    0.61884425179  )
        99           Ge  tau(  99) = (    0.17662222469    0.70715894657    0.53023543843  )
       100           Ge  tau( 100) = (    0.26519517087    0.79534409576    0.61869961217  )
       101           Ge  tau( 101) = (    0.35339718417    0.88401798682    0.53025671014  )
       102           Ge  tau( 102) = (    0.44207324474    0.97232305831    0.61881202268  )
       103           Ge  tau( 103) = (    0.53028750111    1.06064728329    0.53044306578  )
       104           Ge  tau( 104) = (    0.61870176936    1.14918514792    0.61858287769  )
       105           Ge  tau( 105) = (    0.17680932404    0.53035834746    0.70726529490  )
       106           Ge  tau( 106) = (    0.26522576133    0.61882265593    0.79545088983  )
       107           Ge  tau( 107) = (    0.35348129318    0.70722094102    0.70706446617  )
       108           Ge  tau( 108) = (    0.44186537595    0.79543676308    0.79549284736  )
       109           Ge  tau( 109) = (    0.53025780562    0.88391499758    0.70706150009  )
       110           Ge  tau( 110) = (    0.61874397863    0.97242405695    0.79561073655  )
       111           Ge  tau( 111) = (    0.70697113589    1.06078249320    0.70715276015  )
       112           Ge  tau( 112) = (    0.79557445684    1.14907758347    0.79562980240  )
       113           Ge  tau( 113) = (    0.35362986866    0.53019588085    0.88374437959  )
       114           Ge  tau( 114) = (    0.44209971124    0.61886023511    0.97224064595  )
       115           Ge  tau( 115) = (    0.53044981475    0.70709710595    0.88371983600  )
       116           Ge  tau( 116) = (    0.61862765278    0.79559498859    0.97218642190  )
       117           Ge  tau( 117) = (    0.70706171643    0.88396994160    0.88384017945  )
       118           Ge  tau( 118) = (    0.79537477542    0.97222482768    0.97216550877  )
       119           Ge  tau( 119) = (    0.88398423341    1.06064227078    0.88381810096  )
       120           Ge  tau( 120) = (    0.97235308898    1.14913398690    0.97212288188  )
       121           Ge  tau( 121) = (    0.53016799162    0.53043129356    1.06055502380  )
       122           Ge  tau( 122) = (    0.61884285139    0.61880565813    1.14898834461  )
       123           Ge  tau( 123) = (    0.70724622762    0.70714956083    1.06062600672  )
       124           Ge  tau( 124) = (    0.79556834439    0.79554177868    1.14898815394  )
       125           Ge  tau( 125) = (    0.88401768266    0.88382809002    1.06065115541  )
       126           Ge  tau( 126) = (    0.97233263408    0.97240434674    1.14903356607  )
       127           Ge  tau( 127) = (    1.06050860802    1.06081758704    1.06052013333  )
       128           Ge  tau( 128) = (    1.14911871163    1.14897165849    1.14910056283  )

   Crystallographic axes

     site n.     atom                  positions (cryst. coord.)
         1           Si  tau(   1) = (    0.00021517127   -0.00005710002    0.00001597237  )
         2           Si  tau(   2) = (    0.06250489070    0.06230332648    0.06250898455  )
         3           Ge  tau(   3) = (   -0.00012408898    0.00027535066    0.24995494312  )
         4           Ge  tau(   4) = (    0.06262072127    0.06248993057    0.31230838957  )
         5           Ge  tau(   5) = (   -0.00000465998   -0.00000909622    0.50017681904  )
         6           Ge  tau(   6) = (    0.06253181522    0.06234107571    0.56257492852  )
         7           Ge  tau(   7) = (    0.00004151703   -0.00000879324    0.75008111727  )
         8           Ge  tau(   8) = (    0.06255387657    0.06263201252    0.81232927711  )
         9           Ge  tau(   9) = (   -0.00006544945    0.24988839747    0.00002917348  )
        10           Ge  tau(  10) = (    0.06236216616    0.31267886127    0.06247762328  )
        11           Ge  tau(  11) = (    0.00002972383    0.25020314881    0.24992957319  )
        12           Ge  tau(  12) = (    0.06246075013    0.31256921943    0.31255254116  )
        13           Ge  tau(  13) = (    0.00003046296    0.24997645949    0.49983483274  )
        14           Ge  tau(  14) = (    0.06259862504    0.31256498257    0.56241436990  )
        15           Ge  tau(  15) = (    0.00004329007    0.25013180281    0.74994428695  )
        16           Ge  tau(  16) = (    0.06242780681    0.31238447935    0.81279548003  )
        17           Ge  tau(  17) = (   -0.00007031219    0.50027740413   -0.00009137089  )
        18           Ge  tau(  18) = (    0.06256985117    0.56235434228    0.06258002743  )
        19           Ge  tau(  19) = (   -0.00000952926    0.49992468479    0.25009853016  )
        20           Ge  tau(  20) = (    0.06265752629    0.56252476228    0.31235373629  )
        21           Ge  tau(  21) = (    0.00011542531    0.50002007891    0.50009640381  )
        22           Ge  tau(  22) = (    0.06233654740    0.56265061421    0.56250784953  )
        23           Ge  tau(  23) = (   -0.00001663911    0.50011469728    0.74979154434  )
        24           Ge  tau(  24) = (    0.06247323618    0.56244920191    0.81255361917  )
        25           Ge  tau(  25) = (    0.00008862621    0.74994005258   -0.00001612749  )
        26           Ge  tau(  26) = (    0.06235835512    0.81256639255    0.06265960729  )
        27           Ge  tau(  27) = (    0.00022834339    0.74979432808    0.25000344850  )
        28           Ge  tau(  28) = (    0.06239877738    0.81255489623    0.31253306337  )
        29           Ge  tau(  29) = (   -0.00017847858    0.75012688224    0.50003464083  )
        30           Ge  tau(  30) = (    0.06265984139    0.81238292411    0.56251624873  )
        31           Ge  tau(  31) = (   -0.00013733731    0.75017568547    0.75004088104  )
        32           Ge  tau(  32) = (    0.06256446268    0.81242168925    0.81254386924  )
        33           Ge  tau(  33) = (    0.24995454688   -0.00009570058    0.00012102244  )
        34           Ge  tau(  34) = (    0.31244302428    0.06234641565    0.06254016462  )
        35           Ge  tau(  35) = (    0.24975768881    0.00006078488    0.25006983617  )
        36           Ge  tau(  36) = (    0.31249619137    0.06264564692    0.31241130564  )
        37           Ge  tau(  37) = (    0.24990669137   -0.00009523980    0.50025927069  )
        38           Ge  tau(  38) = (    0.31264155557    0.06252176275    0.56258348972  )
        39           Ge  tau(  39) = (    0.24998497776    0.00002628935    0.75009645278  )
        40           Ge  tau(  40) = (    0.31245330315    0.06275072785    0.81234441945  )
        41           Ge  tau(  41) = (    0.24989048664    0.25009329732    0.00002005028  )
        42           Ge  tau(  42) = (    0.31248252783    0.31237328233    0.06250829018  )
        43           Ge  tau(  43) = (    0.25018433172    0.25002725785    0.24992690236  )
        44           Ge  tau(  44) = (    0.31249434721    0.31245816234    0.31238656094  )
        45           Ge  tau(  45) = (    0.25005845885    0.24987944577    0.50006612065  )
        46           Ge  tau(  46) = (    0.31241659915    0.31236704967    0.56280678846  )
        47           Ge  tau(  47) = (    0.24988242485    0.25002084921    0.75013938966  )
        48           Ge  tau(  48) = (    0.31250779211    0.31264404789    0.81256093537  )
        49           Ge  tau(  49) = (    0.24981261278    0.50025585405   -0.00002981717  )
        50           Ge  tau(  50) = (    0.31232536357    0.56259969822    0.06256282308  )
        51           Ge  tau(  51) = (    0.24999089534    0.50013237781    0.24977916351  )
        52           Ge  tau(  52) = (    0.31231016208    0.56264195584    0.31246358689  )
        53           Ge  tau(  53) = (    0.25010498496    0.50006017452    0.49991002502  )
        54           Ge  tau(  54) = (    0.31250796388    0.56266114163    0.56243466449  )
        55           Ge  tau(  55) = (    0.25006203728    0.49988303905    0.75001769399  )
        56           Ge  tau(  56) = (    0.31246349131    0.56264770274    0.81252230116  )
        57           Ge  tau(  57) = (    0.25023759973    0.74978277621   -0.00001540633  )
        58           Ge  tau(  58) = (    0.31266162818    0.81255566691    0.06254589433  )
        59           Ge  tau(  59) = (    0.25007401273    0.75007234921    0.24986201252  )
        60           Ge  tau(  60) = (    0.31246591304    0.81253496150    0.31259051871  )
        61           Ge  tau(  61) = (    0.24990157835    0.74992365119    0.50004312718  )
        62           Ge  tau(  62) = (    0.31252648049    0.81252433371    0.56237647744  )
        63           Ge  tau(  63) = (    0.24998761976    0.75001345809    0.75010416513  )
        64           Ge  tau(  64) = (    0.31250467420    0.81265378446    0.81238290055  )
        65           Ge  tau(  65) = (    0.50003180966    0.00000093495    0.00018788427  )
        66           Ge  tau(  66) = (    0.56260497580    0.06256381992    0.06234630214  )
        67           Ge  tau(  67) = (    0.50001433479   -0.00002491732    0.25000153232  )
        68           Ge  tau(  68) = (    0.56239138872    0.06245798561    0.31267967629  )
        69           Ge  tau(  69) = (    0.50000705686    0.00001935554    0.49990255032  )
        70           Ge  tau(  70) = (    0.56254918543    0.06252731767    0.56251993643  )
        71           Ge  tau(  71) = (    0.50007222039    0.00007790715    0.74998467163  )
        72           Ge  tau(  72) = (    0.56257223699    0.06245270268    0.81243760152  )
        73           Ge  tau(  73) = (    0.50003154708    0.24980918685    0.00016826010  )
        74           Ge  tau(  74) = (    0.56261277016    0.31243184174    0.06259049920  )
        75           Ge  tau(  75) = (    0.50003644648    0.24994545310    0.25003569236  )
        76           Ge  tau(  76) = (    0.56233662253    0.31264883412    0.31244836172  )
        77           Ge  tau(  77) = (    0.50006433273    0.24994250650    0.50010688746  )
        78           Ge  tau(  78) = (    0.56243623102    0.31264659690    0.56238714110  )
        79           Ge  tau(  79) = (    0.49973165680    0.25005705206    0.75016458319  )
        80           Ge  tau(  80) = (    0.56255823047    0.31234944895    0.81258444409  )
        81           Ge  tau(  81) = (    0.50005984014    0.50007205170   -0.00020651269  )
        82           Ge  tau(  82) = (    0.56255546727    0.56237872046    0.06259663222  )
        83           Ge  tau(  83) = (    0.50017706955    0.49993203797    0.24991125147  )
        84           Ge  tau(  84) = (    0.56252024479    0.56242272524    0.31271167267  )
        85           Ge  tau(  85) = (    0.49996318174    0.49990506042    0.50024744530  )
        86           Ge  tau(  86) = (    0.56235502041    0.56248997836    0.56248193762  )
        87           Ge  tau(  87) = (    0.49994045336    0.49996184318    0.74989342445  )
        88           Ge  tau(  88) = (    0.56249173191    0.56243325309    0.81262957620  )
        89           Ge  tau(  89) = (    0.49988021416    0.75002720817    0.00009126550  )
        90           Ge  tau(  90) = (    0.56227567527    0.81263396834    0.06259408480  )
        91           Ge  tau(  91) = (    0.50003776024    0.74986862271    0.25005955185  )
        92           Ge  tau(  92) = (    0.56257100408    0.81226392971    0.31252739865  )
        93           Ge  tau(  93) = (    0.50006243847    0.75001463822    0.49983693244  )
        94           Ge  tau(  94) = (    0.56272188442    0.81237215438    0.56244854560  )
        95           Ge  tau(  95) = (    0.50014914124    0.75003761132    0.75004043106  )
        96           Ge  tau(  96) = (    0.56248681496    0.81228562545    0.81272136060  )
        97           Ge  tau(  97) = (    0.75005739451   -0.00009189944   -0.00003782224  )
        98           Ge  tau(  98) = (    0.81259571510    0.06258221879    0.06235768402  )
        99           Ge  tau(  99) = (    0.75007918785   -0.00021303957    0.24999458514  )
       100           Ge  tau( 100) = (    0.81235859111    0.06261479146    0.31242781587  )
       101           Ge  tau( 101) = (    0.75015368331   -0.00025745229    0.50003654304  )
       102           Ge  tau( 102) = (    0.81250941642    0.06262293862    0.56256303965  )
       103           Ge  tau( 103) = (    0.75010088729    0.00005889040    0.74988088563  )
       104           Ge  tau( 104) = (    0.81251254182    0.06229575326    0.81268068004  )
       105           Ge  tau( 105) = (    0.75010899806    0.25011517418   -0.00006903017  )
       106           Ge  tau( 106) = (    0.81249948028    0.31243795632    0.06264791244  )
       107           Ge  tau( 107) = (    0.75010178252    0.24983837500    0.25005966386  )
       108           Ge  tau( 108) = (    0.81251111223    0.31248566129    0.31240634613  )
       109           Ge  tau( 109) = (    0.75004138008    0.24989458278    0.50000319748  )
       110           Ge  tau( 110) = (    0.81267132874    0.31249216526    0.56254396097  )
       111           Ge  tau( 111) = (    0.75021492205    0.24985010202    0.74995806656  )
       112           Ge  tau( 112) = (    0.81255968660    0.31263077058    0.81248141616  )
       113           Ge  tau( 113) = (    0.74975266820    0.50005061910    0.00005753722  )
       114           Ge  tau( 114) = (    0.81246651878    0.56248938862    0.06273401893  )
       115           Ge  tau( 115) = (    0.74979278619    0.49997579122    0.25019353096  )
       116           Ge  tau( 116) = (    0.81257441470    0.56230480831    0.31256680832  )
       117           Ge  tau( 117) = (    0.75006239004    0.49987637871    0.50005989010  )
       118           Ge  tau( 118) = (    0.81247669489    0.56237295248    0.56245684209  )
       119           Ge  tau( 119) = (    0.74986986870    0.50003767635    0.75010481546  )
       120           Ge  tau( 120) = (    0.81239765363    0.56239171022    0.81272321562  )
       121           Ge  tau( 121) = (    0.75011183174    0.74973946657    0.00003129752  )
       122           Ge  tau( 122) = (    0.81243115037    0.81248374958    0.06269220383  )
       123           Ge  tau( 123) = (    0.74990748791    0.75004419540    0.25015301164  )
       124           Ge  tau( 124) = (    0.81243853037    0.81247609995    0.31262744248  )
       125           Ge  tau( 125) = (    0.74985956222    0.75012768671    0.50006210948  )
       126           Ge  tau( 126) = (    0.81254013489    0.81243871787    0.56264728038  )
       127           Ge  tau( 127) = (    0.75011945902    0.74968249670    0.75010315977  )
       128           Ge  tau( 128) = (    0.81243281798    0.81264078251    0.81245848425  )

     number of k points=     8  gaussian smearing, width (Ry)=  0.0150
                       cart. coord. in units 2pi/alat
        k(    1) = (   0.0000000   0.0000000   0.0000000), wk =   0.2500000
        k(    2) = (  -0.3535534  -0.3535534   0.3535534), wk =   0.2500000
        k(    3) = (  -0.7071068   0.0000000   0.0000000), wk =   0.2500000
        k(    4) = (   0.3535534   0.3535534   0.3535534), wk =   0.2500000
        k(    5) = (   0.3535534  -0.3535534  -0.3535534), wk =   0.2500000
        k(    6) = (  -0.3535534   0.3535534  -0.3535534), wk =   0.2500000
        k(    7) = (   0.0000000  -0.7071068   0.0000000), wk =   0.2500000
        k(    8) = (   0.0000000   0.0000000  -0.7071068), wk =   0.2500000

                       cryst. coord.
        k(    1) = (   0.0000000   0.0000000   0.0000000), wk =   0.2500000
        k(    2) = (   0.0000000   0.0000000  -0.5000000), wk =   0.2500000
        k(    3) = (   0.0000000  -0.5000000  -0.5000000), wk =   0.2500000
        k(    4) = (   0.5000000   0.5000000   0.5000000), wk =   0.2500000
        k(    5) = (  -0.5000000   0.0000000   0.0000000), wk =   0.2500000
        k(    6) = (   0.0000000  -0.5000000   0.0000000), wk =   0.2500000
        k(    7) = (  -0.5000000   0.0000000  -0.5000000), wk =   0.2500000
        k(    8) = (  -0.5000000  -0.5000000   0.0000000), wk =   0.2500000

     Dense  grid:   941961 G-vectors     FFT dimensions: ( 144, 144, 144)

     Smooth grid:   551433 G-vectors     FFT dimensions: ( 120, 120, 120)

     Largest allocated arrays     est. size (Mb)     dimensions
        Kohn-Sham Wavefunctions        70.17 Mb     (    4326, 1063)
        NL pseudopotentials           152.09 Mb     (    4326, 2304)
        Each V/rho on FFT grid          2.85 Mb     (  186624)
        Each G-vector array             0.45 Mb     (   58872)
        G-vector shells                 0.02 Mb     (    3076)
     Largest temporary arrays     est. size (Mb)     dimensions
        Auxiliary wavefunctions       280.67 Mb     (    4326, 4252)
        Each subspace H/S matrix      275.87 Mb     (    4252, 4252)
        Each <psi_i|beta_j> matrix     37.37 Mb     (    2304, 1063)
        Arrays for rho mixing          22.78 Mb     (  186624,    8)

     Check: negative/imaginary core charge=   -0.000001    0.000000

     Initial potential from superposition of free atoms

     starting charge 1771.89688, renormalised to 1772.00000
     Starting wfc are 1142 randomized atomic wfcs

     total cpu time spent up to now is     1514.0 secs

     Self-consistent Calculation

     iteration #  1     ecut=    35.00 Ry     beta=0.30
     Davidson diagonalization with overlap
     ethr =  1.00E-02,  avg # of iterations =  4.5

     Threshold (ethr) on eigenvalues was too large:
     Diagonalizing with lowered threshold

     Davidson diagonalization with overlap
     ethr =  1.13E-04,  avg # of iterations =  7.9

     total cpu time spent up to now is    18714.7 secs

     total energy              =  -26881.00374957 Ry
     Harris-Foulkes estimate   =  -26881.22015735 Ry
     estimated scf accuracy    <       2.13941601 Ry

     iteration #  2     ecut=    35.00 Ry     beta=0.30
     Davidson diagonalization with overlap
     ethr =  1.21E-04,  avg # of iterations =  1.0

     total cpu time spent up to now is    23041.2 secs

     total energy              =  -26880.60498684 Ry
     Harris-Foulkes estimate   =  -26881.01105442 Ry
     estimated scf accuracy    <       1.31281544 Ry

     iteration #  3     ecut=    35.00 Ry     beta=0.30
     Davidson diagonalization with overlap
     ethr =  7.41E-05,  avg # of iterations =  2.0

     total cpu time spent up to now is    27839.2 secs

     total energy              =  -26880.67231574 Ry
     Harris-Foulkes estimate   =  -26880.67513529 Ry
     estimated scf accuracy    <       0.02344359 Ry

     iteration #  4     ecut=    35.00 Ry     beta=0.30
     Davidson diagonalization with overlap
     c_bands:  1 eigenvalues not converged
     ethr =  1.32E-06,  avg # of iterations =  8.9

     total cpu time spent up to now is    45403.3 secs

     total energy              =  -26880.67672730 Ry
     Harris-Foulkes estimate   =  -26880.67696242 Ry
     estimated scf accuracy    <       0.00270526 Ry

     iteration #  5     ecut=    35.00 Ry     beta=0.30
     Davidson diagonalization with overlap
     ethr =  1.53E-07,  avg # of iterations =  2.0

     total cpu time spent up to now is    50765.2 secs

     total energy              =  -26880.67675196 Ry
     Harris-Foulkes estimate   =  -26880.67695178 Ry
     estimated scf accuracy    <       0.00051507 Ry

     iteration #  6     ecut=    35.00 Ry     beta=0.30
     Davidson diagonalization with overlap
     ethr =  2.91E-08,  avg # of iterations =  1.6

     total cpu time spent up to now is    54879.8 secs

     total energy              =  -26880.67678595 Ry
     Harris-Foulkes estimate   =  -26880.67676776 Ry
     estimated scf accuracy    <       0.00001826 Ry

     iteration #  7     ecut=    35.00 Ry     beta=0.30
     Davidson diagonalization with overlap
     ethr =  1.03E-09,  avg # of iterations =  2.0

     total cpu time spent up to now is    59910.3 secs

     total energy              =  -26880.67679240 Ry
     Harris-Foulkes estimate   =  -26880.67678882 Ry
     estimated scf accuracy    <       0.00001012 Ry

     iteration #  8     ecut=    35.00 Ry     beta=0.30
     Davidson diagonalization with overlap
     ethr =  5.71E-10,  avg # of iterations =  2.0

     total cpu time spent up to now is    65001.7 secs

     total energy              =  -26880.67679556 Ry
     Harris-Foulkes estimate   =  -26880.67679294 Ry
     estimated scf accuracy    <       0.00000101 Ry

     iteration #  9     ecut=    35.00 Ry     beta=0.30
     Davidson diagonalization with overlap
     ethr =  5.67E-11,  avg # of iterations =  2.1

     total cpu time spent up to now is    70261.5 secs

     total energy              =  -26880.67679693 Ry
     Harris-Foulkes estimate   =  -26880.67679582 Ry
     estimated scf accuracy    <       0.00000064 Ry

     iteration # 10     ecut=    35.00 Ry     beta=0.30
     Davidson diagonalization with overlap
     ethr =  3.61E-11,  avg # of iterations =  2.0

     total cpu time spent up to now is    74897.4 secs

     total energy              =  -26880.67679766 Ry
     Harris-Foulkes estimate   =  -26880.67679699 Ry
     estimated scf accuracy    <       0.00000002 Ry

     iteration # 11     ecut=    35.00 Ry     beta=0.30
     Davidson diagonalization with overlap
     ethr =  1.26E-12,  avg # of iterations =  2.8

     total cpu time spent up to now is    82215.2 secs

     total energy              =  -26880.67679801 Ry
     Harris-Foulkes estimate   =  -26880.67679766 Ry
     estimated scf accuracy    <       0.00000001 Ry

     iteration # 12     ecut=    35.00 Ry     beta=0.30
     Davidson diagonalization with overlap
     ethr =  6.87E-13,  avg # of iterations =  2.6

     total cpu time spent up to now is    87882.2 secs

     End of self-consistent calculation

          k = 0.0000 0.0000 0.0000 ( 69041 PWs)   bands (ev):

   -16.6852 -16.6850 -16.6850 -16.6847 -16.6846 -16.6844 -16.6842 -16.6840
   -16.6839 -16.6838 -16.6836 -16.6834 -16.6833 -16.6831 -16.6827 -16.6826
   -16.6825 -16.6823 -16.6819 -16.6818 -16.6816 -16.6815 -16.6813 -16.6813
   -16.6812 -16.6812 -16.6809 -16.6808 -16.6808 -16.6804 -16.6801 -16.6800
   -16.6798 -16.6796 -16.6794 -16.6792 -16.6784 -16.6780 -16.6779 -16.6777
   -16.6772 -16.6771 -16.6767 -16.6758 -16.6749 -16.6746 -16.6741 -16.6740
   -16.6716 -16.6715 -16.6710 -16.6709 -16.6708 -16.6706 -16.6703 -16.6702
   -16.6701 -16.6701 -16.6699 -16.6698 -16.6697 -16.6695 -16.6694 -16.6693
   -16.6692 -16.6691 -16.6690 -16.6689 -16.6686 -16.6685 -16.6684 -16.6684
   -16.6680 -16.6679 -16.6674 -16.6673 -16.6670 -16.6670 -16.6669 -16.6665
   -16.6664 -16.6658 -16.6651 -16.6649 -16.6644 -16.6640 -16.6639 -16.6634
   -16.6631 -16.6627 -16.6607 -16.6605 -16.6603 -16.6586 -16.6584 -16.6584
   -16.6581 -16.6579 -16.6566 -16.6563 -16.6562 -16.6560 -16.6555 -16.6555
   -16.6553 -16.6552 -16.6550 -16.6549 -16.6549 -16.6545 -16.6542 -16.6540
   -16.6539 -16.6537 -16.6535 -16.6531 -16.6526 -16.6522 -16.6520 -16.6517
   -16.6513 -16.6448 -16.6447 -16.6437 -16.6427 -16.6413 -16.6412 -16.6375
   -16.6374 -16.6364 -16.6318 -16.6316 -16.6314 -16.6313 -16.6310 -16.6291
   -16.6277 -16.6264 -16.6227 -16.6224 -16.6176 -16.6170 -16.6112 -16.6108
   -16.6091 -16.6089 -16.6027 -16.6020 -16.6020 -16.6010 -16.6007 -16.6005
   -16.6004 -16.6002 -16.6001 -16.6001 -16.5999 -16.5998 -16.5993 -16.5993
   -16.5990 -16.5988 -16.5987 -16.5986 -16.5981 -16.5978 -16.5975 -16.5974
   -16.5966 -16.5962 -16.5960 -16.5955 -16.5954 -16.5940 -16.5938 -16.5930
   -16.5928 -16.5924 -16.5919 -16.5883 -16.5862 -16.5861 -16.5860 -16.5852
   -16.5851 -16.5767 -16.5760 -16.5758 -16.5755 -16.5754 -16.5752 -16.5750
   -16.5747 -16.5745 -16.5741 -16.5741 -16.5737 -16.5736 -16.5734 -16.5732
   -16.5727 -16.5725 -16.5708 -16.5695 -16.5689 -16.5688 -16.5665 -16.5664
   -16.5617 -16.5616 -16.5613 -16.5611 -16.5609 -16.5607 -16.5605 -16.5604
   -16.5601 -16.5600 -16.5597 -16.5595 -16.5581 -16.5579 -16.5571 -16.5569
   -16.5564 -16.5559 -16.5525 -16.5523 -16.5522 -16.5520 -16.5492 -16.5490
   -16.5470 -16.5453 -16.5452 -16.5451 -16.5450 -16.5448 -16.5448 -16.5410
   -16.5392 -16.5388 -16.5372 -16.5368 -16.5368 -16.5367 -16.5365 -16.5363
   -16.5359 -16.5358 -16.5355 -16.5355 -16.5354 -16.5353 -16.5352 -16.5352
   -16.5349 -16.5348 -16.5343 -16.5342 -16.5341 -16.5339 -16.5339 -16.5336
   -16.5336 -16.5335 -16.5333 -16.5330 -16.5327 -16.5326 -16.5320 -16.5315
   -16.5311 -16.5304 -16.5302 -16.5302 -16.5297 -16.5275 -16.5249 -16.5247
   -16.5244 -16.5242 -16.5220 -16.5219 -16.5192 -16.5192 -16.5178 -16.5164
   -16.5162 -16.5159 -16.5158 -16.5157 -16.5156 -16.5156 -16.5149 -16.5146
   -16.5145 -16.5140 -16.5137 -16.5135 -16.5122 -16.5117 -16.5087 -16.5084
   -16.5065 -16.5062 -16.5057 -16.5056 -16.5012 -16.5010 -16.4997 -16.4989
   -16.4988 -16.4986 -16.4986 -16.4985 -16.4983 -16.4982 -16.4980 -16.4979
   -16.4978 -16.4977 -16.4976 -16.4975 -16.4974 -16.4973 -16.4972 -16.4968
   -16.4964 -16.4962 -16.4961 -16.4959 -16.4951 -16.4950 -16.4949 -16.4944
   -16.4913 -16.4909 -16.4908 -16.4907 -16.4907 -16.4894 -16.4886 -16.4881
   -16.4838 -16.4838 -16.4826 -16.4825 -16.4805 -16.4787 -16.4787 -16.4759
   -16.4721 -16.4718 -16.4709 -16.4708 -16.4665 -16.4664 -16.4661 -16.4648
   -16.4641 -16.4639 -16.4637 -16.4634 -16.4629 -16.4628 -16.4627 -16.4625
   -16.4621 -16.4620 -16.4620 -16.4618 -16.4602 -16.4590 -16.4589 -16.4571
   -16.4553 -16.4552 -16.4547 -16.4544 -16.4520 -16.4519 -16.4518 -16.4516
   -16.4516 -16.4515 -16.4508 -16.4507 -16.4504 -16.4502 -16.4501 -16.4501
   -16.4499 -16.4498 -16.4497 -16.4495 -16.4487 -16.4486 -16.4477 -16.4476
   -16.4450 -16.4446 -16.4440 -16.4437 -16.4430 -16.4428 -16.4425 -16.4420
   -16.4409 -16.4386 -16.4385 -16.4379 -16.4378 -16.4377 -16.4344 -16.4340
   -16.4338 -16.4325 -16.4324 -16.4321 -16.4314 -16.4313 -16.4312 -16.4311
   -16.4310 -16.4305 -16.4304 -16.4304 -16.4302 -16.4301 -16.4300 -16.4290
   -16.4289 -16.4282 -16.4281 -16.4280 -16.4275 -16.4274 -16.4271 -16.4270
   -16.4250 -16.4249 -16.4229 -16.4223 -16.4222 -16.4221 -16.4217 -16.4216
   -16.4215 -16.4215 -16.4213 -16.4212 -16.4209 -16.4208 -16.4206 -16.4205
   -16.4204 -16.4203 -16.4201 -16.4199 -16.4199 -16.4198 -16.4195 -16.4195
   -16.4192 -16.4191 -16.4191 -16.4183 -16.4182 -16.4179 -16.4176 -16.4175
   -16.4173 -16.4172 -16.4172 -16.4168 -16.4166 -16.4151 -16.4142 -16.4140
   -16.4138 -16.4137 -16.4123 -16.4121 -16.4109 -16.4095 -16.4091 -16.4089
   -16.4088 -16.4087 -16.4062 -16.4047 -16.4036 -16.3993 -16.3992 -16.3975
   -16.3904 -16.3866 -16.3865 -16.3860 -16.3857 -16.3835 -16.3835 -16.3724
   -16.3722 -16.3716 -16.3711 -16.3709 -16.3707 -16.3701 -16.3696 -16.3696
   -16.3690 -16.3690 -16.3689 -16.3678 -16.3676 -16.3675 -16.3673 -16.3667
   -16.3663 -16.3643 -16.3642 -16.3640 -16.3639 -16.3637 -16.3636 -16.3633
   -16.3630 -16.3628 -16.3628 -16.3624 -16.3623 -16.3622 -16.3602 -16.3589
   -16.3587 -16.3567 -16.3565 -16.3563 -16.3561 -16.3559 -16.3543 -16.3528
   -16.3526 -16.3510 -16.3509 -16.3509 -16.3507 -16.3505 -16.3503 -16.3497
   -16.3493 -16.3492 -16.3490 -16.3489 -16.3488 -16.3488 -16.3487 -16.3486
   -16.3486 -16.3484 -16.3483 -16.3481 -16.3480 -16.3480 -16.3479 -16.3478
   -16.3475 -16.3465 -16.3462 -16.3461 -16.3457 -16.3456 -16.3455 -16.3449
   -16.3447 -16.3443 -16.3442 -16.3442 -16.3439 -16.3434 -16.3432 -16.3430
   -16.3428 -16.3425 -16.3422 -16.3416 -16.3415 -16.3411 -16.3411 -16.3408
   -16.3407 -16.3405 -16.3394 -16.3392 -16.3390 -16.3383 -16.3382 -16.3368
   -16.3366 -16.3360 -16.3359 -16.3354 -16.3353 -16.3352 -16.3350 -16.3349
   -16.3349 -16.3347 -16.3346 -16.3343 -16.3341 -16.3340 -16.3339 -16.3336
   -16.3334 -16.3332 -16.3331 -16.3329 -16.3322 -16.3319 -16.3316 -16.3315
   -16.3312 -16.3310 -16.3307 -16.3302 -16.3300 -16.3299  -4.5387  -3.8140
    -3.8135  -3.8123  -3.8113  -3.8109  -3.8101  -3.7994  -3.7464  -3.5469
    -3.5460  -3.5443  -3.5439  -3.5314  -3.4697  -2.6799  -2.6782  -2.6779
    -2.6759  -2.6751  -2.6746  -2.6737  -2.6732  -2.6713  -2.6704  -2.6413
    -2.5986  -2.4717  -2.4707  -2.4594  -2.4285  -2.0722  -2.0707  -2.0697
    -2.0683  -2.0681  -2.0678  -2.0666  -2.0657  -2.0652  -2.0645  -2.0644
    -2.0635  -2.0626  -2.0622  -2.0619  -2.0614  -2.0612  -2.0606  -2.0598
    -2.0593  -2.0585  -2.0558  -1.9508  -1.7593  -0.6888  -0.6868  -0.6857
    -0.6849  -0.6692  -0.6672  -0.5937  -0.5935  -0.5917  -0.5903  -0.5895
    -0.5895  -0.5889  -0.5875  -0.5866  -0.5853  -0.4932  -0.4471   0.5948
     0.5958   0.6029   0.6074   0.7989   0.7997   0.8003   0.8007   0.8015
     0.8025   0.8032   0.8033   0.8049   0.8052   0.8054   0.8065   0.8070
     0.8071   0.8087   0.8093   0.8103   0.8106   0.8107   0.8115   0.8131
     0.8137   0.9326   1.0037   1.6516   1.6530   1.6542   1.6558   1.6559
     1.6564   1.6574   1.6594   1.6604   1.6607   1.7086   1.8007   3.4465
     3.4472   3.4495   3.4498   3.4509   3.4517   3.4521   3.4537   3.4549
     3.4556   3.4566   3.4570   3.4749   3.6105   4.2825   4.2827   4.2834
     4.2842   4.2844   4.2847   4.2852   4.2860   4.2862   4.2865   4.2873
     4.2886   4.3183   4.3188   4.3196   4.3199   4.3206   4.3213   4.3223
     4.3236   4.3239   4.3242   4.3253   4.3291   4.4555   4.4558   4.4571
     4.4574   4.4577   4.4585   4.4587   4.4594   4.4597   4.4601   4.4605
     4.4606   4.4608   4.4612   4.4614   4.4622   4.4628   4.4631   4.4642
     4.4646   4.4660   4.4663   4.4737   4.4820   5.1227   5.1234   5.1241
     5.1252   5.1257   5.1263   5.7812   5.7866   5.7874   5.7879   5.7880
     5.7896   5.7899   5.7903   5.7908   5.7910   5.7916   5.7921   5.7924
     5.7927   5.7934   5.7939   5.7945   5.7948   5.7949   5.7954   5.7963
     5.7969   5.7973   5.7980   6.1450   6.1464   6.1476   6.1517   6.1536
     6.1538   6.1548   6.1554   6.1561   6.1569   6.1576   6.1579   6.6726
     6.6784   6.6791   6.6792   6.6799   6.6839   6.6855   6.6861   6.6869
     6.6874   6.6885   6.6897   6.7766   6.7802   6.7819   6.7831   6.7842
     6.7878   6.7889   6.7892   7.2798   7.2834   7.2859   7.2992   7.3002
     7.3010   7.3018   7.3026   7.3034   7.3047   7.3053   7.3063   7.3066
     7.3071   7.3085   7.3093   8.1083   8.1725   8.1735   8.1746   8.2680
     8.2686   8.2809   8.3043   8.7551   8.7555   8.7617   8.7686   8.7695
     8.7705   8.7786   8.8230   8.8407   8.8415   8.8423   8.8440   8.8605
     8.8763   9.1155   9.1166   9.1201   9.1236   9.1247   9.1440   9.4749
     9.4770   9.4882   9.4894   9.5046   9.5105   9.5118   9.5165   9.5185
     9.5190   9.5196   9.5202   9.5208   9.5212   9.5226   9.5232   9.5237
     9.5243   9.5246   9.5251   9.5260   9.5271   9.5459   9.5680  10.0539
    10.0560  10.0598  10.0662  10.0668  10.0674  10.0677  10.0762  10.0777
    10.0789  10.0876  10.1328  10.6951  10.6959  10.6968  10.8267  10.8275
    10.8382  10.8386  10.8458  10.8756  11.7102  11.7135  11.7163  11.7543
    11.7564  11.7579  11.7610  11.7691  11.7712  11.7729  11.7742  11.7750
    11.7758  11.7771  11.7779  11.7797  11.8554  11.8562  11.8638  11.8640
    11.8658  11.8732  11.8742  11.8845  12.2825  12.2844  12.2903  12.2913
    12.3077  12.3188  12.3197  12.3203  12.3205  12.3226  12.3244  12.3250
    12.3264  12.3276  12.3281  12.3286  12.3288  12.3302  12.3306  12.3310
    12.3326  12.3333  12.3430  12.3622  12.4171  12.4174  12.4200  12.4207
    12.4260  12.4267  12.4276  12.4287  12.4321  12.4350  12.4439  12.4544
    12.7664  12.7675  12.7711  12.7745  12.7752  12.7855  12.8028  12.8038
    12.8055  12.8060  12.8091  12.8103  12.8927  12.9002  12.9013  12.9099
    12.9125  12.9245  12.9254  12.9264  12.9274  12.9280  12.9317  12.9324
    13.1481  13.1612  13.1615  13.1898  13.1910  13.2010  13.2016  13.2034
    13.2044  13.2058  13.2080  13.2234  13.3599  13.3609  13.3718  13.3744
    13.3817  13.3820  13.3829  13.3860  13.3865  13.3894  13.3919

     occupation numbers 
     1.0000   1.0000   1.0000   1.0000   1.0000   1.0000   1.0000   1.0000
     1.0000   1.0000   1.0000   1.0000   1.0000   1.0000   1.0000   1.0000
     1.0000   1.0000   1.0000   1.0000   1.0000   1.0000   1.0000   1.0000
     1.0000   1.0000   1.0000   1.0000   1.0000   1.0000   1.0000   1.0000
     1.0000   1.0000   1.0000   1.0000   1.0000   1.0000   1.0000   1.0000
     1.0000   1.0000   1.0000   1.0000   1.0000   1.0000   1.0000   1.0000
     1.0000   1.0000   1.0000   1.0000   1.0000   1.0000   1.0000   1.0000
     1.0000   1.0000   1.0000   1.0000   1.0000   1.0000   1.0000   1.0000
     1.0000   1.0000   1.0000   1.0000   1.0000   1.0000   1.0000   1.0000
     1.0000   1.0000   1.0000   1.0000   1.0000   1.0000   1.0000   1.0000
     1.0000   1.0000   1.0000   1.0000   1.0000   1.0000   1.0000   1.0000
     1.0000   1.0000   1.0000   1.0000   1.0000   1.0000   1.0000   1.0000
     1.0000   1.0000   1.0000   1.0000   1.0000   1.0000   1.0000   1.0000
     1.0000   1.0000   1.0000   1.0000   1.0000   1.0000   1.0000   1.0000
     1.0000   1.0000   1.0000   1.0000   1.0000   1.0000   1.0000   1.0000
     1.0000   1.0000   1.0000   1.0000   1.0000   1.0000   1.0000   1.0000
     1.0000   1.0000   1.0000   1.0000   1.0000   1.0000   1.0000   1.0000
     1.0000   1.0000   1.0000   1.0000   1.0000   1.0000   1.0000   1.0000
     1.0000   1.0000   1.0000   1.0000   1.0000   1.0000   1.0000   1.0000
     1.0000   1.0000   1.0000   1.0000   1.0000   1.0000   1.0000   1.0000
     1.0000   1.0000   1.0000   1.0000   1.0000   1.0000   1.0000   1.0000
     1.0000   1.0000   1.0000   1.0000   1.0000   1.0000   1.0000   1.0000
     1.0000   1.0000   1.0000   1.0000   1.0000   1.0000   1.0000   1.0000
     1.0000   1.0000   1.0000   1.0000   1.0000   1.0000   1.0000   1.0000
     1.0000   1.0000   1.0000   1.0000   1.0000   1.0000   1.0000   1.0000
     1.0000   1.0000   1.0000   1.0000   1.0000   1.0000   1.0000   1.0000
     1.0000   1.0000   1.0000   1.0000   1.0000   1.0000   1.0000   1.0000
     1.0000   1.0000   1.0000   1.0000   1.0000   1.0000   1.0000   1.0000
     1.0000   1.0000   1.0000   1.0000   1.0000   1.0000   1.0000   1.0000
     1.0000   1.0000   1.0000   1.0000   1.0000   1.0000   1.0000   1.0000
     1.0000   1.0000   1.0000   1.0000   1.0000   1.0000   1.0000   1.0000
     1.0000   1.0000   1.0000   1.0000   1.0000   1.0000   1.0000   1.0000
     1.0000   1.0000   1.0000   1.0000   1.0000   1.0000   1.0000   1.0000
     1.0000   1.0000   1.0000   1.0000   1.0000   1.0000   1.0000   1.0000
     1.0000   1.0000   1.0000   1.0000   1.0000   1.0000   1.0000   1.0000
     1.0000   1.0000   1.0000   1.0000   1.0000   1.0000   1.0000   1.0000
     1.0000   1.0000   1.0000   1.0000   1.0000   1.0000   1.0000   1.0000
     1.0000   1.0000   1.0000   1.0000   1.0000   1.0000   1.0000   1.0000
     1.0000   1.0000   1.0000   1.0000   1.0000   1.0000   1.0000   1.0000
     1.0000   1.0000   1.0000   1.0000   1.0000   1.0000   1.0000   1.0000
     1.0000   1.0000   1.0000   1.0000   1.0000   1.0000   1.0000   1.0000
     1.0000   1.0000   1.0000   1.0000   1.0000   1.0000   1.0000   1.0000
     1.0000   1.0000   1.0000   1.0000   1.0000   1.0000   1.0000   1.0000
     1.0000   1.0000   1.0000   1.0000   1.0000   1.0000   1.0000   1.0000
     1.0000   1.0000   1.0000   1.0000   1.0000   1.0000   1.0000   1.0000
     1.0000   1.0000   1.0000   1.0000   1.0000   1.0000   1.0000   1.0000
     1.0000   1.0000   1.0000   1.0000   1.0000   1.0000   1.0000   1.0000
     1.0000   1.0000   1.0000   1.0000   1.0000   1.0000   1.0000   1.0000
     1.0000   1.0000   1.0000   1.0000   1.0000   1.0000   1.0000   1.0000
     1.0000   1.0000   1.0000   1.0000   1.0000   1.0000   1.0000   1.0000
     1.0000   1.0000   1.0000   1.0000   1.0000   1.0000   1.0000   1.0000
     1.0000   1.0000   1.0000   1.0000   1.0000   1.0000   1.0000   1.0000
     1.0000   1.0000   1.0000   1.0000   1.0000   1.0000   1.0000   1.0000
     1.0000   1.0000   1.0000   1.0000   1.0000   1.0000   1.0000   1.0000
     1.0000   1.0000   1.0000   1.0000   1.0000   1.0000   1.0000   1.0000
     1.0000   1.0000   1.0000   1.0000   1.0000   1.0000   1.0000   1.0000
     1.0000   1.0000   1.0000   1.0000   1.0000   1.0000   1.0000   1.0000
     1.0000   1.0000   1.0000   1.0000   1.0000   1.0000   1.0000   1.0000
     1.0000   1.0000   1.0000   1.0000   1.0000   1.0000   1.0000   1.0000
     1.0000   1.0000   1.0000   1.0000   1.0000   1.0000   1.0000   1.0000
     1.0000   1.0000   1.0000   1.0000   1.0000   1.0000   1.0000   1.0000
     1.0000   1.0000   1.0000   1.0000   1.0000   1.0000   1.0000   1.0000
     1.0000   1.0000   1.0000   1.0000   1.0000   1.0000   1.0000   1.0000
     1.0000   1.0000   1.0000   1.0000   1.0000   1.0000   1.0000   1.0000
     1.0000   1.0000   1.0000   1.0000   1.0000   1.0000   1.0000   1.0000
     1.0000   1.0000   1.0000   1.0000   1.0000   1.0000   1.0000   1.0000
     1.0000   1.0000   1.0000   1.0000   1.0000   1.0000   1.0000   1.0000
     1.0000   1.0000   1.0000   1.0000   1.0000   1.0000   1.0000   1.0000
     1.0000   1.0000   1.0000   1.0000   1.0000   1.0000   1.0000   1.0000
     1.0000   1.0000   1.0000   1.0000   1.0000   1.0000   1.0000   1.0000
     1.0000   1.0000   1.0000   1.0000   1.0000   1.0000   1.0000   1.0000
     1.0000   1.0000   1.0000   1.0000   1.0000   1.0000   1.0000   1.0000
     1.0000   1.0000   1.0000   1.0000   1.0000   1.0000   1.0000   1.0000
     1.0000   1.0000   1.0000   1.0000   1.0000   1.0000   1.0000   1.0000
     1.0000   1.0000   1.0000   1.0000   1.0000   1.0000   1.0000   1.0000
     1.0000   1.0000   1.0000   1.0000   1.0000   1.0000   1.0000   1.0000
     1.0000   1.0000   1.0000   1.0000   1.0000   1.0000   1.0000   1.0000
     1.0000   1.0000   1.0000   1.0000   1.0000   1.0000   1.0000   1.0000
     1.0000   1.0000   1.0000   1.0000   1.0000   1.0000   1.0000   1.0000
     1.0000   1.0000   1.0000   1.0000   1.0000   1.0000   1.0000   1.0000
     1.0000   1.0000   1.0000   1.0000   1.0000   1.0000   1.0000   1.0000
     1.0000   1.0000   1.0000   1.0000   1.0000   1.0000   1.0000   1.0000
     1.0000   1.0000   1.0000   1.0000   1.0000   1.0000   1.0000   1.0000
     1.0000   1.0000   1.0000   1.0000   1.0000   1.0000   1.0000   1.0000
     1.0000   1.0000   1.0000   1.0000   1.0000   1.0000   1.0000   1.0000
     1.0000   1.0000   1.0000   1.0000   1.0000   1.0000   1.0000   1.0000
     1.0000   1.0000   1.0000   1.0000   1.0000   1.0000   1.0000   1.0000
     1.0000   1.0000   1.0000   1.0000   1.0000   1.0000   1.0000   1.0000
     1.0000   1.0000   1.0000   1.0000   1.0000   1.0000   1.0000   1.0000
     1.0000   1.0000   1.0000   1.0000   1.0000   1.0000   1.0000   1.0000
     1.0000   1.0000   1.0000   1.0000   1.0000   1.0000   1.0000   1.0000
     1.0000   1.0000   1.0000   1.0000   1.0000   1.0000   1.0000   1.0000
     1.0000   1.0000   1.0000   1.0000   1.0000   1.0000   1.0000   1.0000
     1.0000   1.0000   1.0000   1.0000   1.0000   1.0000   1.0000   1.0000
     1.0000   1.0000   1.0000   1.0000   1.0000   1.0000   1.0000   1.0000
     1.0000   1.0000   1.0000   1.0000   1.0000   1.0000   1.0000   1.0000
     1.0000   1.0000   1.0000   1.0000   1.0000   1.0000   1.0000   1.0000
     1.0000   1.0000   1.0000   1.0000   1.0000   1.0000   1.0000   1.0000
     1.0000   1.0000   1.0000   1.0000   1.0000   1.0000   1.0000   1.0000
     1.0000   1.0000   1.0000   1.0000   1.0000   1.0000   1.0000   1.0000
     1.0000   1.0000   1.0000   1.0000   1.0000   1.0000   1.0000   1.0000
     1.0000   1.0000   1.0000   1.0000   1.0000   1.0000   1.0000   1.0000
     1.0000   1.0000   1.0000   1.0000   1.0000   1.0000   1.0000   1.0000
     1.0000   1.0000   1.0000   1.0000   1.0000   1.0000   1.0000   1.0000
     1.0000   1.0000   1.0000   1.0000   1.0000   1.0000   1.0000   1.0000
     1.0000   1.0000   1.0000   1.0000   1.0000   1.0000   1.0000   1.0000
     1.0000   1.0000   1.0000   1.0000   1.0000   1.0000   1.0000   1.0000
     1.0000   1.0000   1.0000   1.0000   1.0000   1.0000   1.0000   1.0000
     1.0000   1.0000   1.0000   1.0000   1.0000   1.0000   1.0000   1.0000
     1.0000   1.0000   1.0000   1.0000   1.0000   1.0000   1.0000   1.0000
     1.0000   1.0000   1.0000   0.6503   0.4767   0.4739   0.4708   0.2356
     0.2344   0.2091   0.1656   0.0000   0.0000   0.0000   0.0000   0.0000
     0.0000   0.0000   0.0000   0.0000   0.0000   0.0000   0.0000   0.0000
     0.0000   0.0000   0.0000   0.0000   0.0000   0.0000   0.0000   0.0000
     0.0000   0.0000   0.0000   0.0000   0.0000   0.0000   0.0000   0.0000
     0.0000   0.0000   0.0000   0.0000   0.0000   0.0000   0.0000   0.0000
     0.0000   0.0000   0.0000   0.0000   0.0000   0.0000   0.0000   0.0000
     0.0000   0.0000   0.0000   0.0000   0.0000   0.0000   0.0000   0.0000
     0.0000   0.0000   0.0000   0.0000   0.0000   0.0000   0.0000   0.0000
     0.0000   0.0000   0.0000   0.0000   0.0000   0.0000   0.0000   0.0000
     0.0000   0.0000   0.0000   0.0000   0.0000   0.0000   0.0000   0.0000
     0.0000   0.0000   0.0000   0.0000   0.0000   0.0000   0.0000   0.0000
     0.0000   0.0000   0.0000   0.0000   0.0000   0.0000   0.0000   0.0000
     0.0000   0.0000   0.0000   0.0000   0.0000   0.0000   0.0000   0.0000
     0.0000   0.0000   0.0000   0.0000   0.0000   0.0000   0.0000   0.0000
     0.0000   0.0000   0.0000   0.0000   0.0000   0.0000   0.0000   0.0000
     0.0000   0.0000   0.0000   0.0000   0.0000   0.0000   0.0000   0.0000
     0.0000   0.0000   0.0000   0.0000   0.0000   0.0000   0.0000   0.0000
     0.0000   0.0000   0.0000   0.0000   0.0000   0.0000   0.0000   0.0000
     0.0000   0.0000   0.0000   0.0000   0.0000   0.0000   0.0000   0.0000
     0.0000   0.0000   0.0000   0.0000   0.0000   0.0000   0.0000   0.0000
     0.0000   0.0000   0.0000   0.0000   0.0000   0.0000   0.0000   0.0000
     0.0000   0.0000   0.0000   0.0000   0.0000   0.0000   0.0000

          k =-0.3536-0.3536 0.3536 ( 68884 PWs)   bands (ev):

   -16.6873 -16.6866 -16.6862 -16.6860 -16.6858 -16.6854 -16.6852 -16.6850
   -16.6848 -16.6846 -16.6841 -16.6840 -16.6838 -16.6836 -16.6835 -16.6832
   -16.6829 -16.6828 -16.6791 -16.6789 -16.6786 -16.6784 -16.6783 -16.6782
   -16.6781 -16.6780 -16.6778 -16.6777 -16.6774 -16.6773 -16.6771 -16.6771
   -16.6769 -16.6768 -16.6768 -16.6765 -16.6764 -16.6764 -16.6762 -16.6759
   -16.6757 -16.6755 -16.6751 -16.6749 -16.6747 -16.6743 -16.6738 -16.6734
   -16.6733 -16.6732 -16.6728 -16.6727 -16.6722 -16.6717 -16.6717 -16.6712
   -16.6712 -16.6711 -16.6709 -16.6709 -16.6708 -16.6706 -16.6705 -16.6703
   -16.6703 -16.6702 -16.6699 -16.6697 -16.6696 -16.6695 -16.6692 -16.6689
   -16.6687 -16.6685 -16.6683 -16.6680 -16.6677 -16.6675 -16.6671 -16.6662
   -16.6659 -16.6654 -16.6650 -16.6647 -16.6646 -16.6644 -16.6644 -16.6642
   -16.6639 -16.6637 -16.6633 -16.6630 -16.6627 -16.6624 -16.6622 -16.6621
   -16.6619 -16.6616 -16.6614 -16.6611 -16.6609 -16.6606 -16.6603 -16.6592
   -16.6587 -16.6584 -16.6583 -16.6579 -16.6574 -16.6574 -16.6570 -16.6556
   -16.6547 -16.6525 -16.6520 -16.6511 -16.6504 -16.6498 -16.6491 -16.6456
   -16.6443 -16.6439 -16.6438 -16.6393 -16.6373 -16.6369 -16.6365 -16.6358
   -16.6347 -16.6345 -16.6331 -16.6299 -16.6296 -16.6258 -16.6250 -16.6245
   -16.6242 -16.6235 -16.6227 -16.6208 -16.6205 -16.6195 -16.6184 -16.6174
   -16.6149 -16.6137 -16.6079 -16.6077 -16.6071 -16.6061 -16.6060 -16.6049
   -16.6034 -16.6027 -16.6017 -16.6005 -16.6001 -16.6000 -16.5997 -16.5993
   -16.5990 -16.5987 -16.5986 -16.5982 -16.5975 -16.5970 -16.5966 -16.5955
   -16.5953 -16.5920 -16.5916 -16.5901 -16.5899 -16.5893 -16.5883 -16.5879
   -16.5874 -16.5873 -16.5850 -16.5822 -16.5814 -16.5809 -16.5804 -16.5802
   -16.5799 -16.5795 -16.5789 -16.5786 -16.5786 -16.5777 -16.5766 -16.5764
   -16.5759 -16.5756 -16.5753 -16.5749 -16.5730 -16.5716 -16.5712 -16.5706
   -16.5700 -16.5693 -16.5683 -16.5648 -16.5642 -16.5628 -16.5624 -16.5618
   -16.5616 -16.5601 -16.5599 -16.5587 -16.5584 -16.5572 -16.5560 -16.5556
   -16.5553 -16.5549 -16.5545 -16.5542 -16.5541 -16.5540 -16.5539 -16.5538
   -16.5537 -16.5536 -16.5533 -16.5533 -16.5532 -16.5530 -16.5529 -16.5528
   -16.5527 -16.5526 -16.5524 -16.5524 -16.5523 -16.5520 -16.5518 -16.5514
   -16.5512 -16.5507 -16.5505 -16.5502 -16.5498 -16.5495 -16.5495 -16.5489
   -16.5486 -16.5483 -16.5464 -16.5440 -16.5432 -16.5370 -16.5364 -16.5361
   -16.5343 -16.5338 -16.5326 -16.5322 -16.5304 -16.5303 -16.5301 -16.5284
   -16.5277 -16.5269 -16.5268 -16.5266 -16.5264 -16.5263 -16.5262 -16.5261
   -16.5255 -16.5252 -16.5248 -16.5246 -16.5244 -16.5244 -16.5238 -16.5235
   -16.5232 -16.5228 -16.5226 -16.5222 -16.5219 -16.5211 -16.5211 -16.5199
   -16.5197 -16.5191 -16.5188 -16.5186 -16.5175 -16.5170 -16.5162 -16.5159
   -16.5158 -16.5157 -16.5153 -16.5151 -16.5147 -16.5144 -16.5143 -16.5137
   -16.5133 -16.5130 -16.5113 -16.5111 -16.5110 -16.5109 -16.5100 -16.5062
   -16.5053 -16.5051 -16.5032 -16.5018 -16.4995 -16.4984 -16.4980 -16.4947
   -16.4945 -16.4944 -16.4921 -16.4913 -16.4908 -16.4906 -16.4902 -16.4897
   -16.4894 -16.4888 -16.4868 -16.4854 -16.4852 -16.4849 -16.4833 -16.4805
   -16.4804 -16.4802 -16.4800 -16.4798 -16.4795 -16.4783 -16.4781 -16.4771
   -16.4769 -16.4766 -16.4764 -16.4762 -16.4752 -16.4739 -16.4734 -16.4732
   -16.4732 -16.4727 -16.4725 -16.4724 -16.4715 -16.4713 -16.4710 -16.4709
   -16.4705 -16.4704 -16.4695 -16.4692 -16.4687 -16.4683 -16.4681 -16.4679
   -16.4677 -16.4674 -16.4655 -16.4651 -16.4643 -16.4641 -16.4638 -16.4636
   -16.4633 -16.4599 -16.4576 -16.4568 -16.4548 -16.4534 -16.4527 -16.4511
   -16.4508 -16.4506 -16.4502 -16.4501 -16.4498 -16.4480 -16.4464 -16.4462
   -16.4446 -16.4442 -16.4438 -16.4428 -16.4425 -16.4420 -16.4408 -16.4406
   -16.4405 -16.4403 -16.4401 -16.4400 -16.4391 -16.4389 -16.4388 -16.4385
   -16.4380 -16.4374 -16.4372 -16.4370 -16.4370 -16.4368 -16.4368 -16.4367
   -16.4366 -16.4365 -16.4365 -16.4362 -16.4362 -16.4358 -16.4352 -16.4349
   -16.4348 -16.4346 -16.4342 -16.4338 -16.4334 -16.4329 -16.4327 -16.4326
   -16.4318 -16.4316 -16.4312 -16.4312 -16.4308 -16.4307 -16.4298 -16.4290
   -16.4282 -16.4280 -16.4278 -16.4277 -16.4274 -16.4272 -16.4269 -16.4265
   -16.4260 -16.4255 -16.4254 -16.4250 -16.4248 -16.4243 -16.4242 -16.4237
   -16.4235 -16.4234 -16.4232 -16.4229 -16.4229 -16.4227 -16.4222 -16.4213
   -16.4206 -16.4205 -16.4202 -16.4201 -16.4197 -16.4173 -16.4155 -16.4151
   -16.4119 -16.4110 -16.4106 -16.4104 -16.4086 -16.4080 -16.4078 -16.4076
   -16.4074 -16.4074 -16.4072 -16.4069 -16.4065 -16.4064 -16.4062 -16.4056
   -16.4040 -16.4021 -16.3995 -16.3984 -16.3973 -16.3971 -16.3969 -16.3952
   -16.3940 -16.3935 -16.3928 -16.3920 -16.3912 -16.3896 -16.3869 -16.3849
   -16.3832 -16.3796 -16.3777 -16.3739 -16.3739 -16.3738 -16.3737 -16.3735
   -16.3734 -16.3728 -16.3710 -16.3685 -16.3675 -16.3611 -16.3610 -16.3608
   -16.3604 -16.3602 -16.3600 -16.3598 -16.3597 -16.3595 -16.3593 -16.3592
   -16.3590 -16.3589 -16.3587 -16.3586 -16.3583 -16.3581 -16.3571 -16.3566
   -16.3553 -16.3550 -16.3548 -16.3545 -16.3540 -16.3536 -16.3534 -16.3532
   -16.3532 -16.3523 -16.3521 -16.3519 -16.3509 -16.3507 -16.3507 -16.3500
   -16.3498 -16.3491 -16.3490 -16.3489 -16.3488 -16.3487 -16.3486 -16.3483
   -16.3482 -16.3481 -16.3476 -16.3474 -16.3471 -16.3467 -16.3465 -16.3464
   -16.3463 -16.3462 -16.3459 -16.3457 -16.3455 -16.3453 -16.3452 -16.3452
   -16.3448 -16.3448 -16.3442 -16.3440 -16.3439 -16.3434 -16.3429 -16.3423
   -16.3421 -16.3419 -16.3418 -16.3416 -16.3415 -16.3413 -16.3412 -16.3410
   -16.3409 -16.3405 -16.3403 -16.3402 -16.3401 -16.3400 -16.3398 -16.3396
   -16.3395 -16.3394 -16.3393 -16.3390 -16.3389 -16.3384 -16.3384 -16.3382
   -16.3377 -16.3368 -16.3366 -16.3356 -16.3336 -16.3335 -16.3332 -16.3329
   -16.3324 -16.3322 -16.3319 -16.3316 -16.3312 -16.3310 -16.3308 -16.3307
   -16.3304 -16.3302 -16.3301 -16.3300 -16.3295 -16.3292  -4.3609  -4.3391
    -3.8658  -3.8635  -3.8628  -3.8618  -3.8520  -3.8064  -3.3997  -3.3987
    -3.3973  -3.3966  -3.3861  -3.3412  -3.0076  -2.9910  -2.8923  -2.8904
    -2.8880  -2.8876  -2.8783  -2.8308  -2.5216  -2.5205  -2.5200  -2.5187
    -2.5177  -2.5172  -2.5169  -2.5163  -2.5151  -2.5140  -2.4757  -2.4488
    -2.3782  -2.3775  -2.3756  -2.3743  -2.3360  -2.2746  -1.9045  -1.9041
    -1.9011  -1.9008  -1.8912  -1.8182  -1.5009  -1.4988  -1.4983  -1.4955
    -1.4781  -1.4722  -1.3853  -1.3846  -1.3837  -1.3834  -1.3816  -1.3814
    -1.3808  -1.3803  -1.3786  -1.3767  -1.2926  -1.1891   0.1596   0.1605
     0.1614   0.1618   0.1639   0.1646   0.1651   0.1652   0.1663   0.1684
     0.1985   0.1989   0.2333   0.2356   0.2369   0.2376   0.3031   0.3219
     0.5908   0.5932   0.5952   0.5985   0.6094   0.6499   0.7212   0.7229
     0.7241   0.7280   0.7605   0.7850   1.3604   1.3611   1.3619   1.3629
     1.3646   1.3656   1.3662   1.3668   1.3678   1.3688   1.4329   1.4519
     1.5194   1.5547   2.1012   2.1030   2.1049   2.1064   2.1241   2.1817
     2.6642   2.6650   2.6671   2.6685   2.6779   2.7414   3.9832   3.9864
     3.9869   3.9883   3.9946   4.0301   4.0361   4.0372   4.0381   4.0390
     4.0406   4.0476   4.0484   4.0489   4.0492   4.0498   4.0503   4.0512
     4.0516   4.0525   4.0535   4.0561   4.0569   4.0737   4.6265   4.6274
     4.6279   4.6299   4.6300   4.6304   4.6382   4.6389   4.6395   4.6400
     4.6408   4.6414   4.6423   4.6431   4.6439   4.6472   4.6510   4.6524
     5.1033   5.1039   5.1048   5.1051   5.1054   5.1058   5.1060   5.1064
     5.1072   5.1073   5.1075   5.1084   5.2993   5.2997   5.3005   5.3006
     5.3021   5.3036   5.3299   5.3301   5.3312   5.3326   5.3339   5.3373
     5.5200   5.5218   5.5240   5.5249   5.5305   5.5344   5.6248   5.6269
     5.6271   5.6284   5.6292   5.6333   5.7900   5.8018   5.8037   5.8058
     5.8070   5.8081   5.8094   5.8202   6.0831   6.0851   6.0892   6.0899
     6.0906   6.0918   6.0922   6.0935   6.0937   6.0941   6.0952   6.0962
     6.1078   6.1096   6.1102   6.1125   6.1136   6.1141   6.4294   6.4338
     6.4344   6.4349   6.4360   6.4381   6.6497   6.6570   6.6596   6.6611
     6.6638   6.6689   6.7414   6.7420   6.7505   6.7510   6.7526   6.7543
     6.9142   6.9155   6.9189   6.9206   7.2495   7.2520   7.2571   7.2604
     7.2627   7.2646   7.8368   7.8382   7.8459   7.8476   8.4039   8.4170
     8.9796   8.9922   8.9994   9.0036   9.0058   9.0064   9.1404   9.1562
     9.3647   9.3727   9.3770   9.3796   9.3817   9.3940   9.4928   9.5034
     9.5052   9.5076   9.5120   9.5265   9.7026   9.7129   9.7223   9.7264
     9.7283   9.7303   9.7398   9.7416   9.7461   9.7486   9.7529   9.7896
    10.0129  10.0151  10.0226  10.0252  10.0258  10.0265  10.0335  10.0471
    10.0484  10.0520  10.0579  10.0610  10.3642  10.3723  10.3950  10.3980
    10.3996  10.4033  10.4049  10.4053  10.4065  10.4080  10.4126  10.4134
    10.5533  10.5572  10.5610  10.5646  10.5668  10.5684  10.5688  10.5694
    10.5701  10.5708  10.5750  10.5840  10.7401  10.7406  10.7415  10.7424
    10.7444  10.7455  10.7877  10.7903  10.7940  10.7997  10.8026  10.8341
    11.1290  11.1299  11.1481  11.1498  11.4781  11.4942  11.5156  11.5250
    11.5300  11.5333  11.5341  11.5357  11.5358  11.5377  11.5406  11.5473
    11.5842  11.5982  11.6365  11.6388  11.6469  11.6601  11.6618  11.6628
    11.8681  11.8741  11.9001  11.9008  11.9072  11.9131  11.9134  11.9146
    11.9173  11.9180  12.0391  12.0639  12.0691  12.0754  12.0766  12.0786
    12.2928  12.3003  12.3140  12.3209  12.3230  12.3239  12.3255  12.3267
    12.3276  12.3285  12.3292  12.3358  12.5512  12.5718  12.5834  12.5998
    12.6040  12.6049  12.6862  12.6900  12.6986  12.7042  12.7096  12.7126
    12.9325  12.9382  12.9454  12.9555  12.9609  12.9633  12.9695  12.9757
    12.9856  12.9965  12.9971  12.9991  13.0003  13.0013  13.0048  13.0059
    13.0066  13.0071  13.1001  13.1125  13.1141  13.1196  13.1266  13.1294
    13.1591  13.1619  13.1790  13.1870  13.1909  13.1921  13.1982

     occupation numbers 
     1.0000   1.0000   1.0000   1.0000   1.0000   1.0000   1.0000   1.0000
     1.0000   1.0000   1.0000   1.0000   1.0000   1.0000   1.0000   1.0000
     1.0000   1.0000   1.0000   1.0000   1.0000   1.0000   1.0000   1.0000
     1.0000   1.0000   1.0000   1.0000   1.0000   1.0000   1.0000   1.0000
     1.0000   1.0000   1.0000   1.0000   1.0000   1.0000   1.0000   1.0000
     1.0000   1.0000   1.0000   1.0000   1.0000   1.0000   1.0000   1.0000
     1.0000   1.0000   1.0000   1.0000   1.0000   1.0000   1.0000   1.0000
     1.0000   1.0000   1.0000   1.0000   1.0000   1.0000   1.0000   1.0000
     1.0000   1.0000   1.0000   1.0000   1.0000   1.0000   1.0000   1.0000
     1.0000   1.0000   1.0000   1.0000   1.0000   1.0000   1.0000   1.0000
     1.0000   1.0000   1.0000   1.0000   1.0000   1.0000   1.0000   1.0000
     1.0000   1.0000   1.0000   1.0000   1.0000   1.0000   1.0000   1.0000
     1.0000   1.0000   1.0000   1.0000   1.0000   1.0000   1.0000   1.0000
     1.0000   1.0000   1.0000   1.0000   1.0000   1.0000   1.0000   1.0000
     1.0000   1.0000   1.0000   1.0000   1.0000   1.0000   1.0000   1.0000
     1.0000   1.0000   1.0000   1.0000   1.0000   1.0000   1.0000   1.0000
     1.0000   1.0000   1.0000   1.0000   1.0000   1.0000   1.0000   1.0000
     1.0000   1.0000   1.0000   1.0000   1.0000   1.0000   1.0000   1.0000
     1.0000   1.0000   1.0000   1.0000   1.0000   1.0000   1.0000   1.0000
     1.0000   1.0000   1.0000   1.0000   1.0000   1.0000   1.0000   1.0000
     1.0000   1.0000   1.0000   1.0000   1.0000   1.0000   1.0000   1.0000
     1.0000   1.0000   1.0000   1.0000   1.0000   1.0000   1.0000   1.0000
     1.0000   1.0000   1.0000   1.0000   1.0000   1.0000   1.0000   1.0000
     1.0000   1.0000   1.0000   1.0000   1.0000   1.0000   1.0000   1.0000
     1.0000   1.0000   1.0000   1.0000   1.0000   1.0000   1.0000   1.0000
     1.0000   1.0000   1.0000   1.0000   1.0000   1.0000   1.0000   1.0000
     1.0000   1.0000   1.0000   1.0000   1.0000   1.0000   1.0000   1.0000
     1.0000   1.0000   1.0000   1.0000   1.0000   1.0000   1.0000   1.0000
     1.0000   1.0000   1.0000   1.0000   1.0000   1.0000   1.0000   1.0000
     1.0000   1.0000   1.0000   1.0000   1.0000   1.0000   1.0000   1.0000
     1.0000   1.0000   1.0000   1.0000   1.0000   1.0000   1.0000   1.0000
     1.0000   1.0000   1.0000   1.0000   1.0000   1.0000   1.0000   1.0000
     1.0000   1.0000   1.0000   1.0000   1.0000   1.0000   1.0000   1.0000
     1.0000   1.0000   1.0000   1.0000   1.0000   1.0000   1.0000   1.0000
     1.0000   1.0000   1.0000   1.0000   1.0000   1.0000   1.0000   1.0000
     1.0000   1.0000   1.0000   1.0000   1.0000   1.0000   1.0000   1.0000
     1.0000   1.0000   1.0000   1.0000   1.0000   1.0000   1.0000   1.0000
     1.0000   1.0000   1.0000   1.0000   1.0000   1.0000   1.0000   1.0000
     1.0000   1.0000   1.0000   1.0000   1.0000   1.0000   1.0000   1.0000
     1.0000   1.0000   1.0000   1.0000   1.0000   1.0000   1.0000   1.0000
     1.0000   1.0000   1.0000   1.0000   1.0000   1.0000   1.0000   1.0000
     1.0000   1.0000   1.0000   1.0000   1.0000   1.0000   1.0000   1.0000
     1.0000   1.0000   1.0000   1.0000   1.0000   1.0000   1.0000   1.0000
     1.0000   1.0000   1.0000   1.0000   1.0000   1.0000   1.0000   1.0000
     1.0000   1.0000   1.0000   1.0000   1.0000   1.0000   1.0000   1.0000
     1.0000   1.0000   1.0000   1.0000   1.0000   1.0000   1.0000   1.0000
     1.0000   1.0000   1.0000   1.0000   1.0000   1.0000   1.0000   1.0000
     1.0000   1.0000   1.0000   1.0000   1.0000   1.0000   1.0000   1.0000
     1.0000   1.0000   1.0000   1.0000   1.0000   1.0000   1.0000   1.0000
     1.0000   1.0000   1.0000   1.0000   1.0000   1.0000   1.0000   1.0000
     1.0000   1.0000   1.0000   1.0000   1.0000   1.0000   1.0000   1.0000
     1.0000   1.0000   1.0000   1.0000   1.0000   1.0000   1.0000   1.0000
     1.0000   1.0000   1.0000   1.0000   1.0000   1.0000   1.0000   1.0000
     1.0000   1.0000   1.0000   1.0000   1.0000   1.0000   1.0000   1.0000
     1.0000   1.0000   1.0000   1.0000   1.0000   1.0000   1.0000   1.0000
     1.0000   1.0000   1.0000   1.0000   1.0000   1.0000   1.0000   1.0000
     1.0000   1.0000   1.0000   1.0000   1.0000   1.0000   1.0000   1.0000
     1.0000   1.0000   1.0000   1.0000   1.0000   1.0000   1.0000   1.0000
     1.0000   1.0000   1.0000   1.0000   1.0000   1.0000   1.0000   1.0000
     1.0000   1.0000   1.0000   1.0000   1.0000   1.0000   1.0000   1.0000
     1.0000   1.0000   1.0000   1.0000   1.0000   1.0000   1.0000   1.0000
     1.0000   1.0000   1.0000   1.0000   1.0000   1.0000   1.0000   1.0000
     1.0000   1.0000   1.0000   1.0000   1.0000   1.0000   1.0000   1.0000
     1.0000   1.0000   1.0000   1.0000   1.0000   1.0000   1.0000   1.0000
     1.0000   1.0000   1.0000   1.0000   1.0000   1.0000   1.0000   1.0000
     1.0000   1.0000   1.0000   1.0000   1.0000   1.0000   1.0000   1.0000
     1.0000   1.0000   1.0000   1.0000   1.0000   1.0000   1.0000   1.0000
     1.0000   1.0000   1.0000   1.0000   1.0000   1.0000   1.0000   1.0000
     1.0000   1.0000   1.0000   1.0000   1.0000   1.0000   1.0000   1.0000
     1.0000   1.0000   1.0000   1.0000   1.0000   1.0000   1.0000   1.0000
     1.0000   1.0000   1.0000   1.0000   1.0000   1.0000   1.0000   1.0000
     1.0000   1.0000   1.0000   1.0000   1.0000   1.0000   1.0000   1.0000
     1.0000   1.0000   1.0000   1.0000   1.0000   1.0000   1.0000   1.0000
     1.0000   1.0000   1.0000   1.0000   1.0000   1.0000   1.0000   1.0000
     1.0000   1.0000   1.0000   1.0000   1.0000   1.0000   1.0000   1.0000
     1.0000   1.0000   1.0000   1.0000   1.0000   1.0000   1.0000   1.0000
     1.0000   1.0000   1.0000   1.0000   1.0000   1.0000   1.0000   1.0000
     1.0000   1.0000   1.0000   1.0000   1.0000   1.0000   1.0000   1.0000
     1.0000   1.0000   1.0000   1.0000   1.0000   1.0000   1.0000   1.0000
     1.0000   1.0000   1.0000   1.0000   1.0000   1.0000   1.0000   1.0000
     1.0000   1.0000   1.0000   1.0000   1.0000   1.0000   1.0000   1.0000
     1.0000   1.0000   1.0000   1.0000   1.0000   1.0000   1.0000   1.0000
     1.0000   1.0000   1.0000   1.0000   1.0000   1.0000   1.0000   1.0000
     1.0000   1.0000   1.0000   1.0000   1.0000   1.0000   1.0000   1.0000
     1.0000   1.0000   1.0000   1.0000   1.0000   1.0000   1.0000   1.0000
     1.0000   1.0000   1.0000   1.0000   1.0000   1.0000   1.0000   1.0000
     1.0000   1.0000   1.0000   1.0000   1.0000   1.0000   1.0000   1.0000
     1.0000   1.0000   1.0000   1.0000   1.0000   1.0000   1.0000   1.0000
     1.0000   1.0000   1.0000   1.0000   1.0000   1.0000   1.0000   1.0000
     1.0000   1.0000   1.0000   1.0000   1.0000   1.0000   1.0000   1.0000
     1.0000   1.0000   1.0000   1.0000   1.0000   1.0000   1.0000   1.0000
     1.0000   1.0000   1.0000   1.0000   1.0000   1.0000   1.0000   1.0000
     1.0000   1.0000   1.0000   1.0000   1.0000   1.0000   1.0000   1.0000
     1.0000   1.0000   1.0000   1.0000   1.0000   1.0000   1.0000   1.0000
     1.0000   1.0000   1.0000   1.0000   1.0000   1.0000   1.0000   1.0000
     1.0000   1.0000   1.0000   1.0000   1.0000   1.0000   1.0000   1.0000
     1.0000   1.0000   1.0000   1.0000   1.0000   1.0000   1.0000   1.0000
     1.0000   1.0000   1.0000   1.0000   1.0000   1.0000   1.0000   1.0000
     1.0000   1.0000   1.0000   1.0000   1.0000   1.0000   1.0000   1.0000
     1.0000   1.0000   1.0000   1.0000   1.0000   1.0000   1.0000   1.0000
     1.0000   1.0000   1.0000   1.0000   1.0000   1.0000   1.0000   1.0000
     1.0000   1.0000   1.0000   1.0000   1.0000   1.0000   1.0000   1.0000
     1.0000   1.0000   1.0000   1.0000   1.0000   1.0000   1.0000   1.0000
     1.0000   1.0000   1.0000   1.0000   1.0000   1.0000   1.0000   1.0000
     1.0000   1.0000   1.0000   1.0000   1.0000   1.0000   1.0000   1.0000
     1.0000   1.0000   1.0000   1.0000   1.0000   1.0000   1.0000   1.0000
     1.0000   1.0000   1.0000   1.0000   1.0000   1.0000   1.0000   1.0000
     1.0000   1.0000   1.0000   1.0000   1.0000   1.0000   1.0000   1.0000
     1.0000   1.0000   1.0000   1.0000   1.0000   1.0000   1.0000   1.0000
     1.0000   1.0000   1.0000   1.0000   1.0000   1.0000   1.0000   1.0000
     1.0000   1.0000   0.9883   0.9880   0.9863   0.9858   0.0483   0.0398
     0.0000   0.0000   0.0000   0.0000   0.0000   0.0000   0.0000   0.0000
     0.0000   0.0000   0.0000   0.0000   0.0000   0.0000   0.0000   0.0000
     0.0000   0.0000   0.0000   0.0000   0.0000   0.0000   0.0000   0.0000
     0.0000   0.0000   0.0000   0.0000   0.0000   0.0000   0.0000   0.0000
     0.0000   0.0000   0.0000   0.0000   0.0000   0.0000   0.0000   0.0000
     0.0000   0.0000   0.0000   0.0000   0.0000   0.0000   0.0000   0.0000
     0.0000   0.0000   0.0000   0.0000   0.0000   0.0000   0.0000   0.0000
     0.0000   0.0000   0.0000   0.0000   0.0000   0.0000   0.0000   0.0000
     0.0000   0.0000   0.0000   0.0000   0.0000   0.0000   0.0000   0.0000
     0.0000   0.0000   0.0000   0.0000   0.0000   0.0000   0.0000   0.0000
     0.0000   0.0000   0.0000   0.0000   0.0000   0.0000   0.0000   0.0000
     0.0000   0.0000   0.0000   0.0000   0.0000   0.0000   0.0000   0.0000
     0.0000   0.0000   0.0000   0.0000   0.0000   0.0000   0.0000   0.0000
     0.0000   0.0000   0.0000   0.0000   0.0000   0.0000   0.0000   0.0000
     0.0000   0.0000   0.0000   0.0000   0.0000   0.0000   0.0000   0.0000
     0.0000   0.0000   0.0000   0.0000   0.0000   0.0000   0.0000   0.0000
     0.0000   0.0000   0.0000   0.0000   0.0000   0.0000   0.0000   0.0000
     0.0000   0.0000   0.0000   0.0000   0.0000   0.0000   0.0000   0.0000
     0.0000   0.0000   0.0000   0.0000   0.0000   0.0000   0.0000   0.0000
     0.0000   0.0000   0.0000   0.0000   0.0000   0.0000   0.0000   0.0000
     0.0000   0.0000   0.0000   0.0000   0.0000   0.0000   0.0000   0.0000
     0.0000   0.0000   0.0000   0.0000   0.0000   0.0000   0.0000

          k =-0.7071 0.0000 0.0000 ( 68952 PWs)   bands (ev):

   -16.6880 -16.6874 -16.6873 -16.6868 -16.6859 -16.6854 -16.6853 -16.6850
   -16.6849 -16.6848 -16.6846 -16.6842 -16.6820 -16.6819 -16.6818 -16.6816
   -16.6814 -16.6811 -16.6808 -16.6801 -16.6793 -16.6790 -16.6785 -16.6782
   -16.6780 -16.6778 -16.6774 -16.6772 -16.6768 -16.6767 -16.6763 -16.6762
   -16.6760 -16.6759 -16.6758 -16.6757 -16.6755 -16.6753 -16.6753 -16.6752
   -16.6748 -16.6745 -16.6744 -16.6743 -16.6739 -16.6736 -16.6735 -16.6734
   -16.6728 -16.6726 -16.6725 -16.6722 -16.6721 -16.6720 -16.6719 -16.6716
   -16.6715 -16.6714 -16.6713 -16.6712 -16.6710 -16.6709 -16.6707 -16.6706
   -16.6705 -16.6704 -16.6700 -16.6699 -16.6693 -16.6693 -16.6690 -16.6688
   -16.6684 -16.6682 -16.6680 -16.6678 -16.6676 -16.6674 -16.6674 -16.6672
   -16.6667 -16.6664 -16.6664 -16.6662 -16.6660 -16.6657 -16.6652 -16.6652
   -16.6648 -16.6644 -16.6642 -16.6642 -16.6639 -16.6634 -16.6633 -16.6629
   -16.6628 -16.6627 -16.6620 -16.6620 -16.6615 -16.6611 -16.6603 -16.6602
   -16.6600 -16.6597 -16.6596 -16.6586 -16.6585 -16.6576 -16.6562 -16.6554
   -16.6549 -16.6542 -16.6521 -16.6511 -16.6494 -16.6491 -16.6483 -16.6455
   -16.6440 -16.6434 -16.6433 -16.6429 -16.6417 -16.6355 -16.6344 -16.6330
   -16.6309 -16.6301 -16.6288 -16.6275 -16.6242 -16.6233 -16.6231 -16.6229
   -16.6214 -16.6211 -16.6209 -16.6207 -16.6203 -16.6198 -16.6195 -16.6194
   -16.6191 -16.6182 -16.6156 -16.6113 -16.6106 -16.6102 -16.6069 -16.6064
   -16.6052 -16.6051 -16.6041 -16.6037 -16.6032 -16.6029 -16.6020 -16.6017
   -16.6008 -16.6005 -16.5982 -16.5954 -16.5943 -16.5929 -16.5915 -16.5914
   -16.5904 -16.5893 -16.5887 -16.5886 -16.5867 -16.5863 -16.5849 -16.5848
   -16.5846 -16.5841 -16.5839 -16.5831 -16.5818 -16.5817 -16.5811 -16.5791
   -16.5788 -16.5788 -16.5785 -16.5772 -16.5767 -16.5766 -16.5740 -16.5734
   -16.5731 -16.5727 -16.5712 -16.5700 -16.5698 -16.5691 -16.5688 -16.5687
   -16.5683 -16.5679 -16.5677 -16.5676 -16.5674 -16.5671 -16.5670 -16.5667
   -16.5661 -16.5658 -16.5657 -16.5655 -16.5652 -16.5650 -16.5641 -16.5634
   -16.5615 -16.5612 -16.5610 -16.5609 -16.5604 -16.5596 -16.5590 -16.5589
   -16.5574 -16.5560 -16.5551 -16.5512 -16.5502 -16.5494 -16.5493 -16.5483
   -16.5478 -16.5476 -16.5475 -16.5474 -16.5469 -16.5466 -16.5460 -16.5458
   -16.5456 -16.5450 -16.5439 -16.5425 -16.5422 -16.5413 -16.5411 -16.5410
   -16.5407 -16.5402 -16.5397 -16.5396 -16.5393 -16.5391 -16.5384 -16.5379
   -16.5371 -16.5363 -16.5359 -16.5356 -16.5352 -16.5350 -16.5345 -16.5344
   -16.5337 -16.5334 -16.5332 -16.5323 -16.5322 -16.5314 -16.5313 -16.5309
   -16.5301 -16.5298 -16.5295 -16.5292 -16.5290 -16.5289 -16.5285 -16.5278
   -16.5277 -16.5276 -16.5273 -16.5272 -16.5265 -16.5264 -16.5261 -16.5245
   -16.5228 -16.5225 -16.5221 -16.5219 -16.5209 -16.5203 -16.5188 -16.5166
   -16.5148 -16.5100 -16.5093 -16.5082 -16.5074 -16.5049 -16.5037 -16.5034
   -16.5029 -16.5025 -16.5025 -16.5020 -16.5017 -16.5016 -16.5014 -16.5012
   -16.5007 -16.5000 -16.4989 -16.4984 -16.4981 -16.4973 -16.4965 -16.4957
   -16.4956 -16.4947 -16.4944 -16.4940 -16.4934 -16.4930 -16.4923 -16.4921
   -16.4919 -16.4908 -16.4900 -16.4884 -16.4882 -16.4880 -16.4871 -16.4867
   -16.4850 -16.4846 -16.4840 -16.4832 -16.4822 -16.4813 -16.4806 -16.4803
   -16.4780 -16.4775 -16.4758 -16.4753 -16.4741 -16.4739 -16.4738 -16.4732
   -16.4727 -16.4719 -16.4716 -16.4713 -16.4710 -16.4705 -16.4701 -16.4694
   -16.4681 -16.4681 -16.4677 -16.4674 -16.4670 -16.4657 -16.4649 -16.4615
   -16.4598 -16.4595 -16.4587 -16.4580 -16.4577 -16.4569 -16.4567 -16.4561
[...]
     atom   77 type  1   force =   0.00000000E+00  0.00000000E+00  0.00000000E+00
     atom   78 type  1   force =   0.00000000E+00  0.00000000E+00  0.00000000E+00
     atom   79 type  1   force =   0.00000000E+00  0.00000000E+00  0.00000000E+00
     atom   80 type  1   force =   0.00000000E+00  0.00000000E+00  0.00000000E+00
     atom   81 type  1   force =   0.00000000E+00  0.00000000E+00  0.00000000E+00
     atom   82 type  1   force =   0.00000000E+00  0.00000000E+00  0.00000000E+00
     atom   83 type  1   force =   0.00000000E+00  0.00000000E+00  0.00000000E+00
     atom   84 type  1   force =   0.00000000E+00  0.00000000E+00  0.00000000E+00
     atom   85 type  1   force =   0.00000000E+00  0.00000000E+00  0.00000000E+00
     atom   86 type  1   force =   0.00000000E+00  0.00000000E+00  0.00000000E+00
     atom   87 type  1   force =   0.00000000E+00  0.00000000E+00  0.00000000E+00
     atom   88 type  1   force =   0.00000000E+00  0.00000000E+00  0.00000000E+00
     atom   89 type  1   force =   0.00000000E+00  0.00000000E+00  0.00000000E+00
     atom   90 type  1   force =   0.00000000E+00  0.00000000E+00  0.00000000E+00
     atom   91 type  1   force =   0.00000000E+00  0.00000000E+00  0.00000000E+00
     atom   92 type  1   force =   0.00000000E+00  0.00000000E+00  0.00000000E+00
     atom   93 type  1   force =   0.00000000E+00  0.00000000E+00  0.00000000E+00
     atom   94 type  1   force =   0.00000000E+00  0.00000000E+00  0.00000000E+00
     atom   95 type  1   force =   0.00000000E+00  0.00000000E+00  0.00000000E+00
     atom   96 type  1   force =   0.00000000E+00  0.00000000E+00  0.00000000E+00
     atom   97 type  1   force =   0.00000000E+00  0.00000000E+00  0.00000000E+00
     atom   98 type  1   force =   0.00000000E+00  0.00000000E+00  0.00000000E+00
     atom   99 type  1   force =   0.00000000E+00  0.00000000E+00  0.00000000E+00
     atom  100 type  1   force =   0.00000000E+00  0.00000000E+00  0.00000000E+00
     atom  101 type  1   force =   0.00000000E+00  0.00000000E+00  0.00000000E+00
     atom  102 type  1   force =   0.00000000E+00  0.00000000E+00  0.00000000E+00
     atom  103 type  1   force =   0.00000000E+00  0.00000000E+00  0.00000000E+00
     atom  104 type  1   force =   0.00000000E+00  0.00000000E+00  0.00000000E+00
     atom  105 type  1   force =   0.00000000E+00  0.00000000E+00  0.00000000E+00
     atom  106 type  1   force =   0.00000000E+00  0.00000000E+00  0.00000000E+00
     atom  107 type  1   force =   0.00000000E+00  0.00000000E+00  0.00000000E+00
     atom  108 type  1   force =   0.00000000E+00  0.00000000E+00  0.00000000E+00
     atom  109 type  1   force =   0.00000000E+00  0.00000000E+00  0.00000000E+00
     atom  110 type  1   force =   0.00000000E+00  0.00000000E+00  0.00000000E+00
     atom  111 type  1   force =   0.00000000E+00  0.00000000E+00  0.00000000E+00
     atom  112 type  1   force =   0.00000000E+00  0.00000000E+00  0.00000000E+00
     atom  113 type  1   force =   0.00000000E+00  0.00000000E+00  0.00000000E+00
     atom  114 type  1   force =   0.00000000E+00  0.00000000E+00  0.00000000E+00
     atom  115 type  1   force =   0.00000000E+00  0.00000000E+00  0.00000000E+00
     atom  116 type  1   force =   0.00000000E+00  0.00000000E+00  0.00000000E+00
     atom  117 type  1   force =   0.00000000E+00  0.00000000E+00  0.00000000E+00
     atom  118 type  1   force =   0.00000000E+00  0.00000000E+00  0.00000000E+00
     atom  119 type  1   force =   0.00000000E+00  0.00000000E+00  0.00000000E+00
     atom  120 type  1   force =   0.00000000E+00  0.00000000E+00  0.00000000E+00
     atom  121 type  1   force =   0.00000000E+00  0.00000000E+00  0.00000000E+00
     atom  122 type  1   force =   0.00000000E+00  0.00000000E+00  0.00000000E+00
     atom  123 type  1   force =   0.00000000E+00  0.00000000E+00  0.00000000E+00
     atom  124 type  1   force =   0.00000000E+00  0.00000000E+00  0.00000000E+00
     atom  125 type  1   force =   0.00000000E+00  0.00000000E+00  0.00000000E+00
     atom  126 type  1   force =   0.00000000E+00  0.00000000E+00  0.00000000E+00
     atom  127 type  1   force =   0.00000000E+00  0.00000000E+00  0.00000000E+00
     atom  128 type  1   force =   0.00000000E+00  0.00000000E+00  0.00000000E+00
     The SCF correction term to forces
     atom    1 type  2   force =  -0.11316852E-05 -0.10188237E-05 -0.12432535E-05
     atom    2 type  2   force =   0.12921529E-05  0.12668880E-05  0.11305918E-05
     atom    3 type  1   force =   0.62166718E-05  0.66888488E-05 -0.96221561E-05
     atom    4 type  1   force =   0.18101266E-05  0.19937809E-05  0.65768068E-05
     atom    5 type  1   force =  -0.22607530E-05 -0.15442647E-05  0.30661852E-05
     atom    6 type  1   force =   0.17526698E-05  0.10369696E-05 -0.35358504E-05
     atom    7 type  1   force =  -0.27986478E-05 -0.20707541E-05 -0.66133954E-05
     atom    8 type  1   force =  -0.57482002E-05 -0.65538247E-05  0.97361729E-05
     atom    9 type  1   force =   0.63924104E-05 -0.95438882E-05  0.62538399E-05
     atom   10 type  1   force =   0.23060933E-05  0.68577511E-05  0.20290062E-05
     atom   11 type  1   force =  -0.16745484E-05 -0.31363101E-05 -0.32132388E-05
     atom   12 type  1   force =   0.23602391E-05 -0.89555819E-05 -0.91453342E-05
     atom   13 type  1   force =   0.33542668E-05 -0.10223558E-05 -0.23382784E-05
     atom   14 type  1   force =   0.80294657E-05  0.27803308E-05 -0.70717378E-05
     atom   15 type  1   force =   0.10627904E-04 -0.45260114E-05  0.35447140E-05
     atom   16 type  1   force =  -0.10610818E-04 -0.30759711E-05  0.39836454E-05
     atom   17 type  1   force =  -0.19952118E-05  0.37166155E-05 -0.16245997E-05
     atom   18 type  1   force =   0.22730663E-05 -0.35071032E-05  0.22750626E-05
     atom   19 type  1   force =   0.24473977E-05 -0.24051188E-05 -0.37729160E-06
     atom   20 type  1   force =   0.84036387E-05 -0.76388904E-05  0.29167144E-05
     atom   21 type  1   force =   0.10906116E-06 -0.11374683E-05 -0.16796042E-05
     atom   22 type  1   force =   0.58114314E-07  0.75028210E-06  0.12995218E-05
     atom   23 type  1   force =  -0.78996100E-05  0.71687226E-05 -0.27565844E-05
     atom   24 type  1   force =  -0.29381644E-05  0.26582237E-05  0.63670641E-06
     atom   25 type  1   force =  -0.22009476E-05 -0.59160384E-05 -0.21667957E-05
     atom   26 type  1   force =  -0.62790706E-05  0.98123348E-05 -0.70465415E-05
     atom   27 type  1   force =   0.10245173E-04  0.31761690E-05 -0.34221729E-05
     atom   28 type  1   force =  -0.10320450E-04  0.40543204E-05 -0.34160971E-05
     atom   29 type  1   force =  -0.77704321E-05 -0.30673269E-05  0.74996122E-05
     atom   30 type  1   force =  -0.30979894E-05  0.26995214E-06  0.25440777E-05
     atom   31 type  1   force =  -0.22962913E-05  0.85018390E-05  0.91152784E-05
     atom   32 type  1   force =   0.13692151E-05  0.34513086E-05  0.24995139E-05
     atom   33 type  1   force =  -0.89460416E-05  0.68597000E-05  0.61034477E-05
     atom   34 type  1   force =   0.66464847E-05  0.22145193E-05  0.18636135E-05
     atom   35 type  1   force =  -0.32668771E-05 -0.23782392E-05 -0.36900086E-05
     atom   36 type  1   force =  -0.88559176E-05  0.14034627E-05 -0.86198135E-05
     atom   37 type  1   force =  -0.77276426E-06  0.27343839E-05 -0.33443508E-05
     atom   38 type  1   force =   0.32768398E-05  0.74808830E-05 -0.65788214E-05
     atom   39 type  1   force =  -0.39404331E-05  0.10161938E-04  0.29432337E-05
     atom   40 type  1   force =  -0.22381037E-05 -0.10498283E-04  0.47610341E-05
     atom   41 type  1   force =  -0.29908004E-05 -0.33827074E-05 -0.15424806E-05
     atom   42 type  1   force =  -0.87779469E-05 -0.89008778E-05  0.13116504E-05
     atom   43 type  1   force =  -0.37752158E-05 -0.43602928E-05 -0.41033771E-05
     atom   44 type  1   force =   0.29789605E-05  0.36726909E-05  0.27726467E-05
     atom   45 type  1   force =   0.63573818E-05  0.51163976E-05 -0.49256641E-05
     atom   46 type  1   force =   0.84711849E-05  0.92230920E-05 -0.14727014E-05
     atom   47 type  1   force =   0.14079978E-05  0.12003655E-05 -0.36074661E-05
     atom   48 type  1   force =  -0.31173300E-05 -0.31452691E-05 -0.41010340E-05
     atom   49 type  1   force =   0.12650222E-07 -0.34526771E-05  0.24987213E-05
     atom   50 type  1   force =   0.35221491E-05 -0.79974798E-05  0.78938702E-05
     atom   51 type  1   force =   0.58325417E-05 -0.54663958E-05  0.50090151E-05
     atom   52 type  1   force =   0.93233699E-05 -0.16574742E-05  0.89762849E-05
     atom   53 type  1   force =   0.15588129E-05  0.42116537E-05  0.34029862E-05
     atom   54 type  1   force =  -0.24566908E-05  0.48563741E-05  0.50753461E-05
     atom   55 type  1   force =  -0.57769049E-05  0.29023998E-05  0.15867964E-05
     atom   56 type  1   force =  -0.17305500E-05 -0.34595464E-05  0.49739509E-05
     atom   57 type  1   force =  -0.34980130E-05  0.28182077E-05  0.95814852E-05
     atom   58 type  1   force =  -0.26630563E-05  0.45821185E-05 -0.10525137E-04
     atom   59 type  1   force =   0.20709137E-05 -0.44726553E-05  0.15519965E-05
     atom   60 type  1   force =  -0.29016459E-05 -0.43473854E-05 -0.35968378E-05
     atom   61 type  1   force =  -0.55209026E-05  0.15134428E-05  0.27531070E-05
     atom   62 type  1   force =  -0.22990876E-05  0.52405809E-05 -0.34368232E-05
     atom   63 type  1   force =   0.44106152E-05  0.25865665E-05  0.25081352E-05
     atom   64 type  1   force =   0.38371730E-05 -0.12018234E-05 -0.20274931E-05
     atom   65 type  1   force =   0.32798252E-05 -0.17341488E-05 -0.22961693E-05
     atom   66 type  1   force =  -0.32370469E-05  0.15518070E-05  0.16316808E-05
     atom   67 type  1   force =  -0.25611891E-05  0.31290563E-05 -0.19352974E-06
     atom   68 type  1   force =  -0.70422964E-05  0.79520603E-05  0.28295194E-05
     atom   69 type  1   force =  -0.19596534E-05  0.35569266E-06 -0.87953522E-06
     atom   70 type  1   force =   0.20308086E-05 -0.28408339E-06  0.20644854E-05
     atom   71 type  1   force =   0.72476357E-05 -0.79497360E-05 -0.20359879E-05
     atom   72 type  1   force =   0.30341715E-05 -0.37335735E-05  0.31907676E-06
     atom   73 type  1   force =  -0.28830360E-05 -0.37501676E-06  0.28478813E-05
     atom   74 type  1   force =  -0.71057784E-05  0.34297762E-05  0.77794156E-05
     atom   75 type  1   force =  -0.46884395E-05  0.56469387E-05  0.58275905E-05
     atom   76 type  1   force =  -0.13450818E-05  0.91267518E-05  0.84211308E-05
     atom   77 type  1   force =   0.42090232E-05  0.15055166E-05  0.41883755E-05
     atom   78 type  1   force =   0.44826779E-05 -0.31389867E-05  0.45704330E-05
     atom   79 type  1   force =   0.28089053E-05 -0.61027074E-05  0.20132057E-05
     atom   80 type  1   force =  -0.34277155E-05 -0.21630241E-05  0.51408783E-05
     atom   81 type  1   force =  -0.15905101E-05 -0.78212597E-06  0.60030560E-06
     atom   82 type  1   force =   0.13881960E-05  0.16027634E-05  0.12487173E-06
     atom   83 type  1   force =   0.30292731E-05  0.42753837E-05  0.12504938E-05
     atom   84 type  1   force =   0.52468154E-05  0.50156535E-05 -0.25912223E-05
     atom   85 type  1   force =   0.21387200E-05  0.27700234E-05  0.21281261E-05
     atom   86 type  1   force =  -0.28093672E-05 -0.31947852E-05 -0.26510430E-05
     atom   87 type  1   force =  -0.52071221E-05 -0.51148687E-05  0.24369548E-05
     atom   88 type  1   force =  -0.35712775E-05 -0.31692290E-05 -0.63350380E-06
     atom   89 type  1   force =   0.76466842E-05 -0.26303027E-05 -0.77073486E-05
     atom   90 type  1   force =   0.27485992E-05  0.36842631E-06 -0.34441028E-05
     atom   91 type  1   force =   0.27993920E-05  0.16733483E-05 -0.54666499E-05
     atom   92 type  1   force =  -0.29639604E-05  0.58290034E-05 -0.24407204E-05
     atom   93 type  1   force =  -0.52537090E-05  0.24232350E-05 -0.47092658E-05
     atom   94 type  1   force =  -0.43687479E-05 -0.83180339E-06 -0.30552975E-05
     atom   95 type  1   force =   0.14887678E-05 -0.84141060E-05 -0.81998953E-05
     atom   96 type  1   force =   0.43839776E-05 -0.50282193E-05 -0.56676400E-05
     atom   97 type  1   force =  -0.64067860E-05 -0.17882936E-05 -0.25480460E-05
     atom   98 type  1   force =   0.97322094E-05 -0.57915436E-05 -0.59797469E-05
     atom   99 type  1   force =   0.28512755E-05  0.10807451E-04 -0.40881747E-05
     atom  100 type  1   force =   0.39053869E-05 -0.10134882E-04 -0.24039948E-05
     atom  101 type  1   force =  -0.30974254E-05 -0.77503956E-05  0.70504234E-05
     atom  102 type  1   force =   0.28747145E-06 -0.31536906E-05  0.31419317E-05
     atom  103 type  1   force =   0.82089577E-05 -0.22537492E-05  0.87276184E-05
     atom  104 type  1   force =   0.32199926E-05  0.13982562E-05  0.34892488E-05
     atom  105 type  1   force =   0.31114132E-05 -0.39879406E-05  0.10747266E-04
     atom  106 type  1   force =   0.39206596E-05 -0.26544022E-05 -0.10568423E-04
     atom  107 type  1   force =  -0.40698119E-05  0.15945422E-05  0.16313327E-05
     atom  108 type  1   force =  -0.45256943E-05 -0.25178227E-05 -0.34468697E-05
     atom  109 type  1   force =   0.20546060E-05 -0.58717121E-05  0.30751853E-05
     atom  110 type  1   force =   0.47763765E-05 -0.17850844E-05 -0.27515271E-05
     atom  111 type  1   force =   0.30110921E-05  0.38838003E-05  0.36309278E-05
     atom  112 type  1   force =  -0.12587555E-05  0.42363616E-05 -0.89731503E-06
     atom  113 type  1   force =  -0.29346543E-05  0.70937827E-05 -0.80741427E-05
     atom  114 type  1   force =   0.45214532E-06  0.24541124E-05 -0.26449746E-05
     atom  115 type  1   force =   0.18176384E-05  0.30848740E-05 -0.58300774E-05
     atom  116 type  1   force =   0.53854044E-05 -0.23873119E-05 -0.19883905E-05
     atom  117 type  1   force =   0.23535504E-05 -0.43797019E-05 -0.45941032E-05
     atom  118 type  1   force =  -0.13144233E-05 -0.34812958E-05 -0.33168502E-05
     atom  119 type  1   force =  -0.90380419E-05  0.20420763E-05 -0.84703525E-05
     atom  120 type  1   force =  -0.55283471E-05  0.44352894E-05 -0.52171919E-05
     atom  121 type  1   force =   0.89769281E-05  0.89086100E-05 -0.21399832E-05
     atom  122 type  1   force =   0.24506529E-05  0.34677326E-05  0.18467080E-05
     atom  123 type  1   force =   0.32295467E-05  0.29778082E-05  0.45388142E-05
     atom  124 type  1   force =  -0.11344496E-05 -0.90363029E-06  0.41762927E-05
     atom  125 type  1   force =  -0.85906309E-05 -0.89218764E-05  0.16597989E-05
     atom  126 type  1   force =  -0.59327213E-05 -0.51241737E-05  0.51814613E-05
     atom  127 type  1   force =  -0.36690647E-05 -0.32679668E-05 -0.30826946E-05
     atom  128 type  1   force =   0.30166521E-05  0.42549403E-05  0.40181391E-05

     Total force =     0.044359     Total SCF correction =     0.000094


     entering subroutine stress ...

          total   stress  (Ry/bohr**3)                   (kbar)     P=   -1.40
  -0.0000094945   0.0000000950   0.0000001210         -1.40      0.01      0.02
   0.0000000950  -0.0000095012  -0.0000004124          0.01     -1.40     -0.06
   0.0000001210  -0.0000004124  -0.0000094865          0.02     -0.06     -1.40

     kinetic stress (kbar)   9868.93      0.00     -0.00
                                0.00   9868.93      0.08
                               -0.00      0.08   9868.93

     local   stress (kbar)   1251.10   -204.97   -203.52
                             -204.97   1252.30   -192.86
                             -203.52   -192.86   1249.59

     nonloc. stress (kbar)   2917.22     -0.05     -0.04
                               -0.05   2917.22     -0.11
                               -0.04     -0.11   2917.22

     hartree stress (kbar)  26139.57     98.74     97.96
                               98.74  26139.02     94.03
                               97.96     94.03  26140.27

     exc-cor stress (kbar)  19183.85     -0.00     -0.00
                               -0.00  19183.85     -0.00
                               -0.00     -0.00  19183.85

     corecor stress (kbar) -28713.90     -0.00     -0.00
                               -0.00 -28713.90      0.00
                               -0.00      0.00 -28713.90

     ewald   stress (kbar) -30648.17    106.30    105.63
                              106.30 -30648.81     98.80
                              105.63     98.80 -30647.36

     hubbard stress (kbar)      0.00      0.00      0.00
                                0.00      0.00      0.00
                                0.00      0.00      0.00

     london  stress (kbar)      0.00      0.00      0.00
                                0.00      0.00      0.00
                                0.00      0.00      0.00

     XDM     stress (kbar)      0.00      0.00      0.00
                                0.00      0.00      0.00
                                0.00      0.00      0.00

     dft-nl  stress (kbar)      0.00      0.00      0.00
                                0.00      0.00      0.00
                                0.00      0.00      0.00



     Writing output data file Ge_diamond.scf.in.super.444.SiSi.011.save

     init_run     :   1633.24s CPU   1511.31s WALL (       1 calls)
     electrons    :  93669.95s CPU  86368.56s WALL (       1 calls)
     forces       :   1085.27s CPU    834.35s WALL (       1 calls)
     stress       :   5899.39s CPU   5876.45s WALL (       1 calls)

     Called by init_run:
     wfcinit      :   1585.49s CPU   1462.31s WALL (       1 calls)
     potinit      :      0.92s CPU      1.00s WALL (       1 calls)

     Called by electrons:
     c_bands      :  86926.34s CPU  79662.47s WALL (      13 calls)
     sum_band     :   6292.92s CPU   6198.50s WALL (      13 calls)
     v_of_rho     :      9.14s CPU     10.40s WALL (      13 calls)
     v_h          :      0.93s CPU      1.15s WALL (      13 calls)
     v_xc         :      9.58s CPU     10.89s WALL (      15 calls)
     newd         :    454.75s CPU    503.07s WALL (      13 calls)
     mix_rho      :     29.18s CPU     36.34s WALL (      13 calls)

     Called by c_bands:
     init_us_2    :     45.86s CPU     49.63s WALL (     232 calls)
     cegterg      :  86596.76s CPU  79279.78s WALL (     104 calls)

     Called by sum_band:
     sum_band:bec :     21.60s CPU     22.36s WALL (     104 calls)
     addusdens    :    416.00s CPU    439.40s WALL (      13 calls)

     Called by *egterg:
     h_psi        :  23772.99s CPU  22641.76s WALL (     443 calls)
     s_psi        :   5324.38s CPU   3617.17s WALL (     443 calls)
     g_psi        :      9.23s CPU     11.62s WALL (     331 calls)
     cdiaghg      :  42065.98s CPU  41770.17s WALL (     427 calls)
     cegterg:over :   7601.36s CPU   5669.86s WALL (     331 calls)
     cegterg:upda :   3328.77s CPU   2312.90s WALL (     331 calls)
     cegterg:last :   2411.79s CPU   1630.07s WALL (     104 calls)

     Called by h_psi:
     h_psi:vloc   :  12534.58s CPU  14800.22s WALL (     443 calls)
     h_psi:vnl    :  11215.72s CPU   7816.97s WALL (     443 calls)
     add_vuspsi   :   5316.85s CPU   3610.07s WALL (     443 calls)

     General routines
     calbec       :  10509.90s CPU   7968.44s WALL (     563 calls)
     fft          :    258.37s CPU    267.01s WALL (     233 calls)
     ffts         :     19.97s CPU     24.72s WALL (     379 calls)
     fftw         :  14455.38s CPU  17238.71s WALL (  632248 calls)
     interpolate  :      3.35s CPU      3.94s WALL (      26 calls)

     Parallel routines
     fft_scatter  :  10959.04s CPU  13043.86s WALL (  632860 calls)

     PWSCF        :     1d    4h26m CPU        1d    2h18m WALL


   This run was terminated on:  12:43:13  19Jan2017            

=------------------------------------------------------------------------------=
   JOB DONE.
=------------------------------------------------------------------------------=
