
     Program PWSCF v.5.1 starts on 18Jan2017 at 15:16: 8 

     This program is part of the open-source Quantum ESPRESSO suite
     for quantum simulation of materials; please cite
         "P. Giannozzi et al., J. Phys.:Condens. Matter 21 395502 (2009);
          URL http://www.quantum-espresso.org", 
     in publications or presentations arising from this work. More details at
     http://www.quantum-espresso.org/quote

     Parallel version (MPI), running on    16 processors
     R & G space division:  proc/nbgrp/npool/nimage =      16
     Reading input from /tmp/Si_diamond.scf.in.super.444.Ge.02.12090/Si_diamond.scf.in.super.444.Ge.02.t
Warning: card &IONS ignored
Warning: card   ION_DYNAMICS='BFGS', ignored
Warning: card / ignored
Warning: card &CELL ignored
Warning: card  CELL_DYNAMICS = 'BFGS' ignored
Warning: card / ignored
     Message from routine read_cards :
     DEPRECATED: no units specified in CELL_PARAMETERS card

     Current dimensions of program PWSCF are:
     Max number of different atomic species (ntypx) = 10
     Max number of k-points (npk) =  40000
     Max angular momentum in pseudopotentials (lmaxx) =  3

     Subspace diagonalization in iterative solution of the eigenvalue problem:
     a serial algorithm will be used


     Parallelization info
     --------------------
     sticks:   dense  smooth     PW     G-vecs:    dense   smooth      PW
     Min         726     508    134                51681    30247    4089
     Max         727     509    135                51684    30277    4090
     Sum       11629    8137   2149               826925   484169   65427



     bravais-lattice index     =            0
     lattice parameter (alat)  =    29.031211967  a.u.
     unit-cell volume          =   17301.3703 (a.u.)^3
     number of atoms/cell      =          128
     number of atomic types    =            2
     number of electrons       =       522.00
     number of Kohn-Sham states=          313
     kinetic-energy cutoff     =      35.0000  Ry
     charge density cutoff     =     200.0000  Ry
     convergence threshold     =      1.0E-09
     mixing beta               =       0.3000
     number of iterations used =            8  local-TF  mixing
     Exchange-correlation      = SLA  PW   PSX  PSC ( 1  4 10  8 0)
     A smooth kinetic-energy cutoff is imposed at      34.5000 Ry
     height of the smooth step-function =             800.0000 Ry
     width of the smooth step-function  =               1.0000 Ry


     celldm(1)=  29.031212  celldm(2)=   0.000000  celldm(3)=   0.000000
     celldm(4)=   0.000000  celldm(5)=   0.000000  celldm(6)=   0.000000

     crystal axes: (cart. coord. in units of alat)
               a(1) = (  -0.000000000000   0.707106781187   0.707106781187 )  
               a(2) = (   0.707106781187   0.000000000000   0.707106781187 )  
               a(3) = (   0.707106781187   0.707106781187   0.000000000000 )  

     reciprocal axes: (cart. coord. in units 2 pi/alat)
               b(1) = ( -0.707107  0.707107  0.707107 )  
               b(2) = (  0.707107 -0.707107  0.707107 )  
               b(3) = (  0.707107  0.707107 -0.707107 )  


     PseudoPot. # 1 for Si read from file:
     /users/kfg/psuedo/gbrv_1.5/si.pbesol.UPF
     MD5 check sum: ef58ba74faed4df802eb8a9742fc00a8
     Pseudo is Ultrasoft + core correction, Zval =  4.0
     Generated by new atomic code, or converted to UPF format
     Using radial grid of  899 points,  6 beta functions with: 
                l(1) =   0
                l(2) =   0
                l(3) =   1
                l(4) =   1
                l(5) =   2
                l(6) =   2
     Q(r) pseudized with  8 coefficients,  rinner =    0.900   0.900   0.900
                                                       0.900   0.900

     PseudoPot. # 2 for Ge read from file:
     /users/kfg/psuedo/gbrv_1.5/ge.pbesol.UPF
     MD5 check sum: 7bed0412183f5e553a4d27ec7023354d
     Pseudo is Ultrasoft + core correction, Zval = 14.0
     Generated by new atomic code, or converted to UPF format
     Using radial grid of  873 points,  6 beta functions with: 
                l(1) =   0
                l(2) =   0
                l(3) =   1
                l(4) =   1
                l(5) =   2
                l(6) =   2
     Q(r) pseudized with  8 coefficients,  rinner =    1.400   1.400   1.400
                                                       1.400   1.400

     atomic species   valence    mass     pseudopotential
        Si             4.00    28.08550     Si( 1.00)
        Ge            14.00    69.00000     Ge( 1.00)

     No symmetry found


                                    s                        frac. trans.

      isym =  1     identity                                     

 cryst.   s( 1) = (     1          0          0      )
                  (     0          1          0      )
                  (     0          0          1      )

 cart.    s( 1) = (  1.0000000  0.0000000  0.0000000 )
                  (  0.0000000  1.0000000  0.0000000 )
                  (  0.0000000  0.0000000  1.0000000 )


     point group C_1 (1)    
     there are  1 classes
     the character table:

       E    
A      1.00

     the symmetry operations in each class:
     E        1

   Cartesian axes

     site n.     atom                  positions (alat units)
         1           Ge  tau(   1) = (    0.00016641174    0.00015738176   -0.00004360240  )
         2           Si  tau(   2) = (    0.08845701657    0.08828494245    0.08822952983  )
         3           Si  tau(   3) = (    0.17680292533    0.17667701261    0.00012284975  )
         4           Si  tau(   4) = (    0.26500134134    0.26515139878    0.08826162257  )
         5           Si  tau(   5) = (    0.35368816969    0.35358621239   -0.00002561793  )
         6           Si  tau(   6) = (    0.44200822973    0.44205500176    0.08832573048  )
         7           Si  tau(   7) = (    0.53042347824    0.53039491535    0.00013133589  )
         8           Si  tau(   8) = (    0.61887358880    0.61872592168    0.08839535710  )
         9           Si  tau(   9) = (    0.17676946149    0.00009356225    0.17668156583  )
        10           Si  tau(  10) = (    0.26518893397    0.08842424417    0.26500172704  )
        11           Si  tau(  11) = (    0.35342075796    0.17691391717    0.17677697157  )
        12           Si  tau(  12) = (    0.44193313288    0.26524756254    0.26499546328  )
        13           Si  tau(  13) = (    0.53033854196    0.35364319413    0.17691672392  )
        14           Si  tau(  14) = (    0.61866091232    0.44190832048    0.26504889079  )
        15           Si  tau(  15) = (    0.70713173457    0.53035712955    0.17689753546  )
        16           Si  tau(  16) = (    0.79543973761    0.61868136617    0.26521075289  )
        17           Si  tau(  17) = (    0.35363250768    0.00007510135    0.35358545808  )
        18           Si  tau(  18) = (    0.44206716083    0.08826850274    0.44192056469  )
        19           Si  tau(  19) = (    0.53024762798    0.17665229710    0.35346906839  )
        20           Si  tau(  20) = (    0.61882550647    0.26504785831    0.44188130669  )
        21           Si  tau(  21) = (    0.70719689795    0.35353549324    0.35352273171  )
        22           Si  tau(  22) = (    0.79552459199    0.44201321595    0.44198212473  )
        23           Si  tau(  23) = (    0.88372244927    0.53029115465    0.35360003369  )
        24           Si  tau(  24) = (    0.97214920084    0.61860087174    0.44197712162  )
        25           Si  tau(  25) = (    0.53047589164   -0.00005601032    0.53049018090  )
        26           Si  tau(  26) = (    0.61888567321    0.08831143808    0.61881958756  )
        27           Si  tau(  27) = (    0.70701005055    0.17675644651    0.53025788493  )
        28           Si  tau(  28) = (    0.79550466582    0.26527044944    0.61873233276  )
        29           Si  tau(  29) = (    0.88371785565    0.35362334050    0.53048240563  )
        30           Si  tau(  30) = (    0.97241893700    0.44187726953    0.61874188225  )
        31           Si  tau(  31) = (    1.06074719146    0.53025015626    0.53023095380  )
        32           Si  tau(  32) = (    1.14919311499    0.61886097322    0.61884931414  )
        33           Si  tau(  33) = (   -0.00004836911    0.17680491031    0.17689319550  )
        34           Si  tau(  34) = (    0.08847596055    0.26529361423    0.26524126798  )
        35           Si  tau(  35) = (    0.17691514989    0.35371991583    0.17679026355  )
        36           Si  tau(  36) = (    0.26504073779    0.44190696938    0.26512669383  )
        37           Si  tau(  37) = (    0.35340023013    0.53048892564    0.17687317642  )
        38           Si  tau(  38) = (    0.44190854692    0.61877686875    0.26502275941  )
        39           Si  tau(  39) = (    0.53042140514    0.70724275683    0.17664435061  )
        40           Si  tau(  40) = (    0.61858689234    0.79554970874    0.26511592559  )
        41           Si  tau(  41) = (    0.17667555911    0.17671934433    0.35346941672  )
        42           Si  tau(  42) = (    0.26506231600    0.26517373267    0.44179451240  )
        43           Si  tau(  43) = (    0.35351549308    0.35370771063    0.35360320346  )
        44           Si  tau(  44) = (    0.44197150007    0.44196184462    0.44202549364  )
        45           Si  tau(  45) = (    0.53047632182    0.53024932504    0.35348727263  )
        46           Si  tau(  46) = (    0.61863687870    0.61885217507    0.44184992269  )
        47           Si  tau(  47) = (    0.70702897045    0.70710193455    0.35364745464  )
        48           Si  tau(  48) = (    0.79544299067    0.79548294433    0.44211145767  )
        49           Si  tau(  49) = (    0.35361736869    0.17691969619    0.53042058726  )
        50           Si  tau(  50) = (    0.44196404293    0.26500080117    0.61874946139  )
        51           Si  tau(  51) = (    0.53028793925    0.35339441457    0.53028565992  )
        52           Si  tau(  52) = (    0.61869465906    0.44201310111    0.61878464697  )
        53           Si  tau(  53) = (    0.70711426816    0.53041581797    0.53046392099  )
        54           Si  tau(  54) = (    0.79533208514    0.61872136305    0.61864166982  )
        55           Si  tau(  55) = (    0.88394452142    0.70721365184    0.53026091732  )
        56           Si  tau(  56) = (    0.97217099486    0.79549878821    0.61872265133  )
        57           Si  tau(  57) = (    0.53042240844    0.17667538980    0.70711863440  )
        58           Si  tau(  58) = (    0.61861898397    0.26530386416    0.79544413031  )
        59           Si  tau(  59) = (    0.70719900968    0.35340807186    0.70699107091  )
        60           Si  tau(  60) = (    0.79535638289    0.44210878952    0.79562043515  )
        61           Si  tau(  61) = (    0.88381454453    0.53032161741    0.70701782887  )
        62           Si  tau(  62) = (    0.97228293178    0.61875485931    0.79563361293  )
        63           Si  tau(  63) = (    1.06075497884    0.70694038418    0.70693852536  )
        64           Si  tau(  64) = (    1.14907840135    0.79565634839    0.79535312610  )
        65           Si  tau(  65) = (    0.00001246169    0.35360060189    0.35345581971  )
        66           Si  tau(  66) = (    0.08826921957    0.44187187956    0.44199944471  )
        67           Si  tau(  67) = (    0.17674937142    0.53049409446    0.35350226429  )
        68           Si  tau(  68) = (    0.26508916631    0.61887038387    0.44201944223  )
        69           Si  tau(  69) = (    0.35351243036    0.70701450661    0.35355393439  )
        70           Si  tau(  70) = (    0.44187042261    0.79560711400    0.44188830947  )
        71           Si  tau(  71) = (    0.53020282493    0.88387664346    0.35370638693  )
        72           Si  tau(  72) = (    0.61880701186    0.97222328251    0.44181506560  )
        73           Si  tau(  73) = (    0.17694736876    0.35355580233    0.53025248061  )
        74           Si  tau(  74) = (    0.26523246583    0.44183257294    0.61886249526  )
        75           Si  tau(  75) = (    0.35368974043    0.53044655534    0.53028809539  )
        76           Si  tau(  76) = (    0.44185923463    0.61874168081    0.61887310373  )
        77           Si  tau(  77) = (    0.53035148875    0.70705319546    0.53021830206  )
        78           Si  tau(  78) = (    0.61860352187    0.79548946515    0.61869502603  )
        79           Si  tau(  79) = (    0.70726031080    0.88394436832    0.53044592156  )
        80           Si  tau(  80) = (    0.79566656718    0.97224637805    0.61862077836  )
        81           Si  tau(  81) = (    0.35355869123    0.35368803208    0.70710301951  )
        82           Si  tau(  82) = (    0.44197835620    0.44181657470    0.79538165169  )
        83           Si  tau(  83) = (    0.53035975151    0.53021061475    0.70719005094  )
        84           Si  tau(  84) = (    0.61888838993    0.61885961723    0.79542166473  )
        85           Si  tau(  85) = (    0.70724947472    0.70719540101    0.70724733535  )
        86           Si  tau(  86) = (    0.79566262683    0.79536412144    0.79557662587  )
        87           Si  tau(  87) = (    0.88383170101    0.88381528701    0.70719823833  )
        88           Si  tau(  88) = (    0.97241521985    0.97212697725    0.79553853509  )
        89           Si  tau(  89) = (    0.53049488075    0.35353753228    0.88400042390  )
        90           Si  tau(  90) = (    0.61861267689    0.44177808552    0.97225494779  )
        91           Si  tau(  91) = (    0.70714946197    0.53043353038    0.88376139073  )
        92           Si  tau(  92) = (    0.79556824021    0.61870509206    0.97239862655  )
        93           Si  tau(  93) = (    0.88381655645    0.70720460875    0.88399505420  )
        94           Si  tau(  94) = (    0.97228222937    0.79555042139    0.97222011011  )
        95           Si  tau(  95) = (    1.06075572976    0.88396527688    0.88385044576  )
        96           Si  tau(  96) = (    1.14895900706    0.97244222058    0.97239932734  )
        97           Si  tau(  97) = (   -0.00010011582    0.53048960065    0.53049004508  )
        98           Si  tau(  98) = (    0.08839772258    0.61870688482    0.61863070619  )
        99           Si  tau(  99) = (    0.17675571225    0.70727797686    0.53021116774  )
       100           Si  tau( 100) = (    0.26511959522    0.79550016353    0.61880000804  )
       101           Si  tau( 101) = (    0.35349701273    0.88400947233    0.53030737893  )
       102           Si  tau( 102) = (    0.44203364967    0.97241850119    0.61872900300  )
       103           Si  tau( 103) = (    0.53030999653    1.06050572155    0.53036789154  )
       104           Si  tau( 104) = (    0.61886513923    1.14913300171    0.61880551194  )
       105           Si  tau( 105) = (    0.17664367182    0.53027844569    0.70697844869  )
       106           Si  tau( 106) = (    0.26525271416    0.61878756314    0.79549156181  )
       107           Si  tau( 107) = (    0.35339819072    0.70698973017    0.70699272524  )
       108           Si  tau( 108) = (    0.44200395599    0.79555296916    0.79561043342  )
       109           Si  tau( 109) = (    0.53021714938    0.88387355522    0.70712617260  )
       110           Si  tau( 110) = (    0.61881707851    0.97230103868    0.79537882281  )
       111           Si  tau( 111) = (    0.70709996898    1.06050231369    0.70710923894  )
       112           Si  tau( 112) = (    0.79532611245    1.14892058746    0.79534750232  )
       113           Si  tau( 113) = (    0.35343922725    0.53033214307    0.88380562157  )
       114           Si  tau( 114) = (    0.44207287273    0.61868340463    0.97210956672  )
       115           Si  tau( 115) = (    0.53046974209    0.70702243097    0.88385930463  )
       116           Si  tau( 116) = (    0.61877175323    0.79546900886    0.97220992012  )
       117           Si  tau( 117) = (    0.70701449656    0.88388219277    0.88399113547  )
       118           Si  tau( 118) = (    0.79535609478    0.97214286342    0.97242458807  )
       119           Si  tau( 119) = (    0.88378993997    1.06062031618    0.88398922724  )
       120           Si  tau( 120) = (    0.97225131344    1.14896449564    0.97219737762  )
       121           Si  tau( 121) = (    0.53026121484    0.53049700444    1.06073660711  )
       122           Si  tau( 122) = (    0.61865689117    0.61860884023    1.14898119968  )
       123           Si  tau( 123) = (    0.70726496884    0.70726794809    1.06049470534  )
       124           Si  tau( 124) = (    0.79546629992    0.79564440095    1.14913088871  )
       125           Si  tau( 125) = (    0.88394306463    0.88385619423    1.06079663460  )
       126           Si  tau( 126) = (    0.97219638426    0.97227782406    1.14888562409  )
       127           Si  tau( 127) = (    1.06050829665    1.06064370180    1.06067590216  )
       128           Si  tau( 128) = (    1.14915599362    1.14913562937    1.14916574052  )

   Crystallographic axes

     site n.     atom                  positions (cryst. coord.)
         1           Ge  tau(   1) = (   -0.00003721671   -0.00002444640    0.00025978813  )
         2           Si  tau(   2) = (    0.06226602406    0.06250937362    0.06258773890  )
         3           Si  tau(   3) = (   -0.00000216584    0.00017590163    0.24986119324  )
         4           Si  tau(   4) = (    0.06251649847    0.06230428521    0.31246420577  )
         5           Si  tau(   5) = (   -0.00009020932    0.00005398009    0.50013662634  )
         6           Si  tau(   6) = (    0.06248879579    0.06242265016    0.56267138301  )
         7           Si  tau(   7) = (    0.00007267148    0.00011306552    0.75001901122  )
         8           Si  tau(   8) = (    0.06240054000    0.06260937286    0.81261004982  )
         9           Si  tau(   9) = (    0.00000400689    0.24986145973    0.00012831012  )
        10           Si  tau(  10) = (    0.06239300738    0.31237602905    0.06265775796  )
        11           Si  tau(  11) = (    0.00019101131    0.24980937940    0.25000304973  )
        12           Si  tau(  12) = (    0.06244452414    0.31231565400    0.31267217619  )
        13           Si  tau(  13) = (    0.00015653654    0.25004149384    0.49997046485  )
        14           Si  tau(  14) = (    0.06243491174    0.31240082431    0.56251782840  )
        15           Si  tau(  15) = (    0.00008692495    0.25008396885    0.74995132056  )
        16           Si  tau(  16) = (    0.06254527873    0.31251936488    0.81240230009  )
        17           Si  tau(  17) = (    0.00001983558    0.50002551469    0.00008637377  )
        18           Si  tau(  18) = (    0.06231159773    0.56265845835    0.06251891598  )
        19           Si  tau(  19) = (   -0.00008928107    0.49997003146    0.24991335545  )
        20           Si  tau(  20) = (    0.06229869439    0.56261584249    0.31253558151  )
        21           Si  tau(  21) = (   -0.00009805662    0.50005469841    0.50007274594  )
        22           Si  tau(  22) = (    0.06255826634    0.56249884878    0.56254281841  )
        23           Si  tau(  23) = (    0.00011931654    0.49994664676    0.74982562638  )
        24           Si  tau(  24) = (    0.06252859885    0.56252144081    0.81230514367  )
        25           Si  tau(  25) = (   -0.00002950125    0.75025590978   -0.00004970931  )
        26           Si  tau(  26) = (    0.06239888711    0.81274416628    0.06249234634  )
        27           Si  tau(  27) = (    0.00000302704    0.74989486538    0.24996833684  )
        28           Si  tau(  28) = (    0.06257761821    0.81244203826    0.31257144908  )
        29           Si  tau(  29) = (    0.00027427998    0.74994113266    0.49982464412  )
        30           Si  tau(  30) = (    0.06236696997    0.81266619151    0.56254185750  )
        31           Si  tau(  31) = (   -0.00018814796    0.75004795401    0.75007511039  )
        32           Si  tau(  32) = (    0.06259109283    0.81259400029    0.81261048872  )
        33           Si  tau(  33) = (    0.25013653123    0.00002822493   -0.00009662918  )
        34           Si  tau(  34) = (    0.31258286119    0.06252493729    0.06259896607  )
        35           Si  tau(  35) = (    0.25002944314   -0.00001025474    0.25020605911  )
        36           Si  tau(  36) = (    0.31253619480    0.06240957136    0.31241463460  )
        37           Si  tau(  37) = (    0.25028883992   -0.00015239501    0.49993579341  )
        38           Si  tau(  38) = (    0.31246418010    0.06233460060    0.56261845977  )
        39           Si  tau(  39) = (    0.24993799501   -0.00012515866    0.75025430358  )
        40           Si  tau(  40) = (    0.31259687628    0.06233366130    0.81248031136  )
        41           Si  tau(  41) = (    0.24997158233    0.24990966068   -0.00005268885  )
        42           Si  tau(  42) = (    0.31247467909    0.31231711213    0.06253761004  )
        43           Si  tau(  43) = (    0.25017114135    0.24989930469    0.25004710013  )
        44           Si  tau(  44) = (    0.31255239658    0.31256605144    0.31247603814  )
        45           Si  tau(  45) = (    0.24979273658    0.25011375850    0.50009305034  )
        46           Si  tau(  46) = (    0.31258731412    0.31228283908    0.56260182497  )
        47           Si  tau(  47) = (    0.25011810673    0.25001491991    0.74987503909  )
        48           Si  tau(  48) = (    0.31264826126    0.31259175826    0.81233450724  )
        49           Si  tau(  49) = (    0.25011987168    0.50000811658    0.00008236212  )
        50           Si  tau(  50) = (    0.31239003174    0.56265384827    0.06237769532  )
        51           Si  tau(  51) = (    0.24988597525    0.50005119695    0.24988919870  )
        52           Si  tau(  52) = (    0.31261409223    0.56247954771    0.31248683011  )
        53           Si  tau(  53) = (    0.25014996335    0.50003930806    0.49997128012  )
        54           Si  tau(  54) = (    0.31256308064    0.56232835907    0.56244106233  )
        55           Si  tau(  55) = (    0.24998349412    0.49991868676    0.75016764382  )
        56           Si  tau(  56) = (    0.31257686707    0.56242909780    0.81242830807  )
        57           Si  tau(  57) = (    0.24987146578    0.75014529720   -0.00001473339  )
        58           Si  tau(  58) = (    0.31263242149    0.81229545571    0.06256390136  )
        59           Si  tau(  59) = (    0.24975020922    0.75008615174    0.25004427905  )
        60           Si  tau(  60) = (    0.31280483624    0.81237237365    0.31243140995  )
        61           Si  tau(  61) = (    0.24997985535    0.74989434708    0.50000816842  )
        62           Si  tau(  62) = (    0.31261582566    0.81258002043    0.56243568816  )
        63           Si  tau(  63) = (    0.24969632600    0.75006572433    0.75006835310  )
        64           Si  tau(  64) = (    0.31249245863    0.81230671917    0.81273554024  )
        65           Si  tau(  65) = (    0.49995557865   -0.00009356472    0.00011118821  )
        66           Si  tau(  66) = (    0.56257564337    0.06250596591    0.06232556155  )
        67           Si  tau(  67) = (    0.50009914071   -0.00017144423    0.25013280244  )
        68           Si  tau(  68) = (    0.56271604301    0.06239384702    0.31249884721  )
        69           Si  tau(  69) = (    0.49996409981    0.00003666925    0.49990540423  )
        70           Si  tau(  70) = (    0.56259183340    0.06233260691    0.56256653755  )
        71           Si  tau(  71) = (    0.50019334016    0.00002302934    0.74979699649  )
        72           Si  tau(  72) = (    0.56231347048    0.06250738736    0.81261788130  )
        73           Si  tau(  73) = (    0.49982614578    0.25006410379    0.00017726493  )
        74           Si  tau(  74) = (    0.56247700032    0.31272673373    0.06236861664  )
        75           Si  tau(  75) = (    0.49995625068    0.24998436578    0.25020846200  )
        76           Si  tau(  76) = (    0.56268414551    0.31253459118    0.31234873110  )
        77           Si  tau(  77) = (    0.49986793196    0.24997398183    0.50005628638  )
        78           Si  tau(  78) = (    0.56256069839    0.31240619840    0.56243129196  )
        79           Si  tau(  79) = (    0.50001640338    0.25014741299    0.75006971067  )
        80           Si  tau(  80) = (    0.56229172905    0.31257016568    0.81267228475  )
        81           Si  tau(  81) = (    0.50008879788    0.49990588230    0.00010161393  )
        82           Si  tau(  82) = (    0.56230536275    0.56253415634    0.06251762927  )
        83           Si  tau(  83) = (    0.49995342499    0.50016433622    0.24987761730  )
        84           Si  tau(  84) = (    0.56242770766    0.56246839840    0.31277195624  )
        85           Si  tau(  85) = (    0.50006115092    0.50013762268    0.50006417644  )
        86           Si  tau(  86) = (    0.56234655192    0.56276870229    0.56246817564  )
        87           Si  tau(  87) = (    0.50005306352    0.50007627641    0.74985050201  )
        88           Si  tau(  88) = (    0.56232687456    0.56273451115    0.81246828101  )
        89           Si  tau(  89) = (    0.49995495323    0.75021043539    0.00002261973  )
        90           Si  tau(  90) = (    0.56244712792    0.81252900533    0.06232143218  )
        91           Si  tau(  91) = (    0.49995663877    0.74987070590    0.25018965383  )
        92           Si  tau(  92) = (    0.56252853145    0.81265079424    0.31245260085  )
        93           Si  tau(  93) = (    0.50019539151    0.74996240321    0.49994295757  )
        94           Si  tau(  94) = (    0.56249517279    0.81243169254    0.56258302269  )
        95           Si  tau(  95) = (    0.49996691567    0.74998637184    0.75014876755  )
        96           Si  tau(  96) = (    0.56277394167    0.81240637510    0.81246703530  )
        97           Si  tau(  97) = (    0.75029669477   -0.00007047832   -0.00007110683  )
        98           Si  tau(  98) = (    0.81242317214    0.06245276265    0.06256049550  )
        99           Si  tau(  99) = (    0.75005180304   -0.00021997870    0.25019030420  )
       100           Si  tau( 100) = (    0.81259337834    0.06252198542    0.31241374179  )
       101           Si  tau( 101) = (    0.75011290144   -0.00014501394    0.50006528359  )
       102           Si  tau( 102) = (    0.81254619889    0.06246874858    0.56266123380  )
       103           Si  tau( 103) = (    0.74993172515    0.00012174011    0.74984984923  )
       104           Si  tau( 104) = (    0.81251757513    0.06260557233    0.81260190086  )
       105           Si  tau( 105) = (    0.74996680189    0.24985170855   -0.00003983216  )
       106           Si  tau( 106) = (    0.81248436683    0.31251058864    0.06261339719  )
       107           Si  tau( 107) = (    0.74994632558    0.24989237495    0.24988813929  )
       108           Si  tau( 108) = (    0.81257843735    0.31258462797    0.31250336122  )
       109           Si  tau( 109) = (    0.75008655458    0.24994086902    0.49989941464  )
       110           Si  tau( 110) = (    0.81236866450    0.31246685394    0.56267265112  )
       111           Si  tau( 111) = (    0.74989493233    0.25010854346    0.74988182262  )
       112           Si  tau( 112) = (    0.81242466336    0.31236656122    0.81239441351  )
       113           Si  tau( 113) = (    0.75002712859    0.49986276794   -0.00002421929  )
       114           Si  tau( 114) = (    0.81226777142    0.56250276195    0.06268269022  )
       115           Si  tau( 115) = (    0.74982451146    0.50014130438    0.25005619932  )
       116           Si  tau( 116) = (    0.81240005492    0.56251239958    0.31256300586  )
       117           Si  tau( 117) = (    0.75014047376    0.50001177904    0.49985771079  )
       118           Si  tau( 118) = (    0.81261514334    0.56260089748    0.56220247866  )
       119           Si  tau( 119) = (    0.75011273521    0.50003681893    0.74983090046  )
       120           Si  tau( 120) = (    0.81240244783    0.56249226891    0.81247872459  )
       121           Si  tau( 121) = (    0.75022077636    0.74988731952    0.00001528211  )
       122           Si  tau( 122) = (    0.81241842061    0.81248637490    0.06242659105  )
       123           Si  tau( 123) = (    0.74988510420    0.74988089091    0.25034282022  )
       124           Si  tau( 124) = (    0.81268418032    0.81243230743    0.31252692233  )
       125           Si  tau( 125) = (    0.75003506713    0.75015792044    0.49992634993  )
       126           Si  tau( 126) = (    0.81244240223    0.81232722897    0.56256608294  )
       127           Si  tau( 127) = (    0.75010686895    0.74991537716    0.74986983898  )
       128           Si  tau( 128) = (    0.81256848813    0.81259728752    0.81255470393  )

     number of k points=     8  gaussian smearing, width (Ry)=  0.0150
                       cart. coord. in units 2pi/alat
        k(    1) = (   0.0000000   0.0000000   0.0000000), wk =   0.2500000
        k(    2) = (  -0.3535534  -0.3535534   0.3535534), wk =   0.2500000
        k(    3) = (  -0.7071068   0.0000000   0.0000000), wk =   0.2500000
        k(    4) = (   0.3535534   0.3535534   0.3535534), wk =   0.2500000
        k(    5) = (   0.3535534  -0.3535534  -0.3535534), wk =   0.2500000
        k(    6) = (  -0.3535534   0.3535534  -0.3535534), wk =   0.2500000
        k(    7) = (   0.0000000  -0.7071068   0.0000000), wk =   0.2500000
        k(    8) = (   0.0000000   0.0000000  -0.7071068), wk =   0.2500000

                       cryst. coord.
        k(    1) = (   0.0000000   0.0000000   0.0000000), wk =   0.2500000
        k(    2) = (   0.0000000   0.0000000  -0.5000000), wk =   0.2500000
        k(    3) = (   0.0000000  -0.5000000  -0.5000000), wk =   0.2500000
        k(    4) = (   0.5000000   0.5000000   0.5000000), wk =   0.2500000
        k(    5) = (  -0.5000000   0.0000000   0.0000000), wk =   0.2500000
        k(    6) = (   0.0000000  -0.5000000   0.0000000), wk =   0.2500000
        k(    7) = (  -0.5000000   0.0000000  -0.5000000), wk =   0.2500000
        k(    8) = (  -0.5000000  -0.5000000   0.0000000), wk =   0.2500000

     Dense  grid:   826925 G-vectors     FFT dimensions: ( 135, 135, 135)

     Smooth grid:   484169 G-vectors     FFT dimensions: ( 120, 120, 120)

     Largest allocated arrays     est. size (Mb)     dimensions
        Kohn-Sham Wavefunctions        18.07 Mb     (    3784,  313)
        NL pseudopotentials           133.03 Mb     (    3784, 2304)
        Each V/rho on FFT grid          2.50 Mb     (  164025)
        Each G-vector array             0.39 Mb     (   51681)
        G-vector shells                 0.02 Mb     (    2817)
     Largest temporary arrays     est. size (Mb)     dimensions
        Auxiliary wavefunctions        72.29 Mb     (    3784, 1252)
        Each subspace H/S matrix       23.92 Mb     (    1252, 1252)
        Each <psi_i|beta_j> matrix     11.00 Mb     (    2304,  313)
        Arrays for rho mixing          20.02 Mb     (  164025,    8)

     Initial potential from superposition of free atoms

     starting charge  521.91688, renormalised to  522.00000
     Starting wfc are  517 randomized atomic wfcs

     total cpu time spent up to now is      542.7 secs

     Self-consistent Calculation

     iteration #  1     ecut=    35.00 Ry     beta=0.30
     Davidson diagonalization with overlap
     ethr =  1.00E-02,  avg # of iterations =  3.0

     Threshold (ethr) on eigenvalues was too large:
     Diagonalizing with lowered threshold

     Davidson diagonalization with overlap
     ethr =  6.76E-04,  avg # of iterations =  1.6

     total cpu time spent up to now is     2713.8 secs

     total energy              =   -1427.85001216 Ry
     Harris-Foulkes estimate   =   -1428.21856530 Ry
     estimated scf accuracy    <       3.47756305 Ry

     iteration #  2     ecut=    35.00 Ry     beta=0.30
     Davidson diagonalization with overlap
     ethr =  6.66E-04,  avg # of iterations =  1.0

     total cpu time spent up to now is     3556.5 secs

     total energy              =   -1427.12202966 Ry
     Harris-Foulkes estimate   =   -1427.86682929 Ry
     estimated scf accuracy    <       2.16060466 Ry

     iteration #  3     ecut=    35.00 Ry     beta=0.30
     Davidson diagonalization with overlap
     ethr =  4.14E-04,  avg # of iterations =  8.3

     total cpu time spent up to now is     4756.2 secs

     total energy              =   -1427.26221082 Ry
     Harris-Foulkes estimate   =   -1427.25651717 Ry
     estimated scf accuracy    <       0.02488722 Ry

     iteration #  4     ecut=    35.00 Ry     beta=0.30
     Davidson diagonalization with overlap
     ethr =  4.77E-06,  avg # of iterations = 12.4

     total cpu time spent up to now is     7436.9 secs

     total energy              =   -1427.27760908 Ry
     Harris-Foulkes estimate   =   -1427.27716171 Ry
     estimated scf accuracy    <       0.01042151 Ry

     iteration #  5     ecut=    35.00 Ry     beta=0.30
     Davidson diagonalization with overlap
     ethr =  2.00E-06,  avg # of iterations =  2.0

     total cpu time spent up to now is     8400.7 secs

     total energy              =   -1427.27832854 Ry
     Harris-Foulkes estimate   =   -1427.27831701 Ry
     estimated scf accuracy    <       0.00029483 Ry

     iteration #  6     ecut=    35.00 Ry     beta=0.30
     Davidson diagonalization with overlap
     ethr =  5.65E-08,  avg # of iterations =  3.0

     total cpu time spent up to now is     9868.3 secs

     total energy              =   -1427.27843119 Ry
     Harris-Foulkes estimate   =   -1427.27847215 Ry
     estimated scf accuracy    <       0.00019559 Ry

     iteration #  7     ecut=    35.00 Ry     beta=0.30
     Davidson diagonalization with overlap
     ethr =  3.75E-08,  avg # of iterations =  1.3

     total cpu time spent up to now is    10805.5 secs

     total energy              =   -1427.27844329 Ry
     Harris-Foulkes estimate   =   -1427.27844318 Ry
     estimated scf accuracy    <       0.00001078 Ry

     iteration #  8     ecut=    35.00 Ry     beta=0.30
     Davidson diagonalization with overlap
     ethr =  2.07E-09,  avg # of iterations =  2.9

     total cpu time spent up to now is    11942.6 secs

     total energy              =   -1427.27844522 Ry
     Harris-Foulkes estimate   =   -1427.27844516 Ry
     estimated scf accuracy    <       0.00000149 Ry

     iteration #  9     ecut=    35.00 Ry     beta=0.30
     Davidson diagonalization with overlap
     ethr =  2.86E-10,  avg # of iterations =  3.0

     total cpu time spent up to now is    12685.7 secs

     total energy              =   -1427.27844519 Ry
     Harris-Foulkes estimate   =   -1427.27844531 Ry
     estimated scf accuracy    <       0.00000071 Ry

     iteration # 10     ecut=    35.00 Ry     beta=0.30
     Davidson diagonalization with overlap
     ethr =  1.35E-10,  avg # of iterations =  2.4

     total cpu time spent up to now is    13494.0 secs

     total energy              =   -1427.27844534 Ry
     Harris-Foulkes estimate   =   -1427.27844529 Ry
     estimated scf accuracy    <       0.00000013 Ry

     iteration # 11     ecut=    35.00 Ry     beta=0.30
     Davidson diagonalization with overlap
     ethr =  2.58E-11,  avg # of iterations =  2.3

     total cpu time spent up to now is    14264.2 secs

     total energy              =   -1427.27844534 Ry
     Harris-Foulkes estimate   =   -1427.27844535 Ry
     estimated scf accuracy    <       0.00000010 Ry

     iteration # 12     ecut=    35.00 Ry     beta=0.30
     Davidson diagonalization with overlap
     ethr =  1.93E-11,  avg # of iterations =  2.0

     total cpu time spent up to now is    15147.2 secs

     total energy              =   -1427.27844536 Ry
     Harris-Foulkes estimate   =   -1427.27844535 Ry
     estimated scf accuracy    <       0.00000001 Ry

     iteration # 13     ecut=    35.00 Ry     beta=0.30
     Davidson diagonalization with overlap
     ethr =  2.70E-12,  avg # of iterations =  3.0

     total cpu time spent up to now is    16160.5 secs

     total energy              =   -1427.27844536 Ry
     Harris-Foulkes estimate   =   -1427.27844536 Ry
     estimated scf accuracy    <          3.5E-09 Ry

     iteration # 14     ecut=    35.00 Ry     beta=0.30
     Davidson diagonalization with overlap
     ethr =  6.74E-13,  avg # of iterations =  3.0

     total cpu time spent up to now is    17313.1 secs

     End of self-consistent calculation

          k = 0.0000 0.0000 0.0000 ( 60495 PWs)   bands (ev):

   -18.0321 -18.0316 -18.0311 -18.0015 -18.0015  -5.8304  -5.1432  -5.0149
    -5.0135  -5.0131  -5.0122  -5.0109  -5.0105  -5.0097  -4.7857  -4.7316
    -4.7304  -4.7296  -4.7289  -4.7282  -3.9200  -3.7672  -3.7667  -3.7652
    -3.7647  -3.7642  -3.7628  -3.7623  -3.7611  -3.7601  -3.7597  -3.7589
    -3.5104  -3.4687  -3.4680  -3.4665  -3.2466  -3.0939  -3.0916  -3.0909
    -3.0901  -3.0885  -3.0880  -3.0878  -3.0870  -3.0864  -3.0861  -3.0855
    -3.0851  -3.0848  -3.0842  -3.0837  -3.0831  -3.0824  -3.0819  -3.0809
    -3.0800  -3.0794  -3.0786  -3.0782  -1.7242  -1.6607  -1.6606  -1.6592
    -1.6569  -1.6560  -1.5525  -1.4935  -1.4924  -1.4908  -1.4900  -1.4893
    -1.4892  -1.4877  -1.4871  -1.4869  -1.4864  -1.4842  -0.8544  -0.8446
    -0.8432  -0.8424  -0.3490  -0.2400  -0.2391  -0.2376  -0.2362  -0.2351
    -0.2333  -0.2328  -0.2323  -0.2322  -0.2317  -0.2308  -0.2303  -0.2300
    -0.2289  -0.2286  -0.2274  -0.2268  -0.2262  -0.2259  -0.2257  -0.2247
    -0.2243  -0.2220   0.6232   0.6726   0.6737   0.6749   0.6759   0.6769
     0.6774   0.6779   0.6781   0.6790   0.6803   0.6818   2.1920   2.2152
     2.2165   2.2173   2.2187   2.2205   2.2221   2.2225   2.2603   2.2618
     2.2625   2.2656   2.2661   2.2668   2.2672   2.2674   2.2681   2.2682
     2.2684   2.2696   2.3622   2.3635   2.3646   2.3657   2.3684   2.3686
     2.3695   2.3695   2.3699   2.3714   2.3723   2.3726   2.5665   2.5855
     2.5860   2.5872   2.5914   2.5916   2.5921   2.5922   2.5929   2.5933
     2.5936   2.5947   2.5950   2.5952   2.5956   2.5962   2.5968   2.5971
     2.5972   2.5972   2.5982   2.5983   2.5989   2.6004   2.6311   2.6474
     2.6493   2.6503   2.6513   2.6526   3.2955   3.2960   3.2965   3.2967
     3.2970   3.2973   3.9418   3.9436   3.9440   3.9450   3.9454   3.9458
     3.9466   3.9469   3.9474   3.9477   3.9479   3.9484   3.9488   3.9493
     3.9496   3.9498   3.9505   3.9517   3.9517   3.9521   3.9528   3.9534
     3.9538   3.9540   4.2596   4.2609   4.2611   4.2618   4.2620   4.2626
     4.2638   4.2649   4.2664   4.2669   4.2681   4.2697   4.8308   4.8318
     4.8321   4.8331   4.8334   4.8341   4.8350   4.8361   4.8366   4.8375
     4.8386   4.8395   4.9636   4.9648   4.9664   4.9674   4.9683   4.9690
     4.9700   4.9704   5.3985   5.4012   5.4017   5.4024   5.4030   5.4043
     5.4048   5.4054   5.4066   5.4074   5.4091   5.4097   5.4101   5.4146
     5.4170   5.4194   6.1730   6.1745   6.1759   6.7581   6.7734   6.7740
     6.7744   6.7753   6.7755   7.1986   7.2119   7.2120   7.2157   7.2160
     7.2168   7.5356   7.5872   7.5875   7.5887   7.5892   7.5897   7.5906
     7.5909   7.5915   7.5919   7.5922   7.5925   7.5928   7.5937   7.5942
     7.5950   7.5957   7.5964   7.5966   7.6087   7.6104   7.6114   7.6149
     7.6155   7.6232   7.6413   7.6415   7.6418   8.0913   8.1266   8.1288
     8.1293   8.1300   8.1365   8.1376   8.1380   8.5183   8.5393   8.5395
     8.5408

     occupation numbers 
     1.0000   1.0000   1.0000   1.0000   1.0000   1.0000   1.0000   1.0000
     1.0000   1.0000   1.0000   1.0000   1.0000   1.0000   1.0000   1.0000
     1.0000   1.0000   1.0000   1.0000   1.0000   1.0000   1.0000   1.0000
     1.0000   1.0000   1.0000   1.0000   1.0000   1.0000   1.0000   1.0000
     1.0000   1.0000   1.0000   1.0000   1.0000   1.0000   1.0000   1.0000
     1.0000   1.0000   1.0000   1.0000   1.0000   1.0000   1.0000   1.0000
     1.0000   1.0000   1.0000   1.0000   1.0000   1.0000   1.0000   1.0000
     1.0000   1.0000   1.0000   1.0000   1.0000   1.0000   1.0000   1.0000
     1.0000   1.0000   1.0000   1.0000   1.0000   1.0000   1.0000   1.0000
     1.0000   1.0000   1.0000   1.0000   1.0000   1.0000   1.0000   1.0000
     1.0000   1.0000   1.0000   1.0000   1.0000   1.0000   1.0000   1.0000
     1.0000   1.0000   1.0000   1.0000   1.0000   1.0000   1.0000   1.0000
     1.0000   1.0000   1.0000   1.0000   1.0000   1.0000   1.0000   1.0000
     1.0000   1.0000   1.0000   1.0000   1.0000   1.0000   1.0000   1.0000
     1.0000   1.0000   1.0000   1.0000   1.0000   1.0000   1.0000   1.0000
     1.0000   1.0000   1.0000   1.0000   1.0000   1.0000   1.0000   1.0000
     1.0000   1.0000   1.0000   1.0000   1.0000   1.0000   1.0000   1.0000
     1.0000   1.0000   1.0000   1.0000   1.0000   1.0000   1.0000   1.0000
     1.0000   1.0000   1.0000   1.0000   1.0000   1.0000   1.0000   1.0000
     1.0000   1.0000   1.0000   1.0000   1.0000   1.0000   1.0000   1.0000
     1.0000   1.0000   1.0000   1.0000   1.0000   1.0000   1.0000   1.0000
     1.0000   1.0000   1.0000   1.0000   1.0000   1.0000   1.0000   1.0000
     1.0000   1.0000   1.0000   1.0000   1.0000   1.0000   1.0000   1.0000
     1.0000   1.0000   1.0000   1.0000   1.0000   1.0000   1.0000   1.0000
     1.0000   1.0000   1.0000   1.0000   1.0000   1.0000   1.0000   1.0000
     1.0000   1.0000   1.0000   1.0000   1.0000   1.0000   1.0000   1.0000
     1.0000   1.0000   1.0000   1.0000   1.0000   1.0000   1.0000   1.0000
     1.0000   1.0000   1.0000   1.0000   1.0000   1.0000   1.0000   1.0000
     1.0000   1.0000   1.0000   1.0000   1.0000   1.0000   1.0000   1.0000
     1.0000   1.0000   1.0000   1.0000   1.0000   1.0000   1.0000   1.0000
     1.0000   1.0000   1.0000   1.0000   1.0000   1.0000   1.0000   1.0000
     1.0000   1.0000   1.0000   1.0000   1.0000   1.0000   1.0000   1.0000
     1.0000   1.0000   0.9426   0.9413   0.9402   0.0066   0.0049   0.0048
     0.0048   0.0047   0.0047   0.0000   0.0000   0.0000   0.0000   0.0000
     0.0000   0.0000   0.0000   0.0000   0.0000   0.0000   0.0000   0.0000
     0.0000   0.0000   0.0000   0.0000   0.0000   0.0000   0.0000   0.0000
     0.0000   0.0000   0.0000   0.0000   0.0000   0.0000   0.0000   0.0000
     0.0000   0.0000   0.0000   0.0000   0.0000   0.0000   0.0000   0.0000
     0.0000   0.0000   0.0000   0.0000   0.0000   0.0000   0.0000   0.0000
     0.0000

          k =-0.3536-0.3536 0.3536 ( 60452 PWs)   bands (ev):

   -18.0320 -18.0316 -18.0311 -18.0015 -18.0014  -5.6428  -5.6100  -5.1605
    -5.0726  -5.0716  -5.0703  -5.0697  -5.0686  -4.6383  -4.5623  -4.5618
    -4.5604  -4.5585  -4.5572  -4.1631  -4.1128  -4.0675  -4.0202  -4.0188
    -4.0165  -4.0160  -4.0153  -3.7059  -3.5936  -3.5931  -3.5907  -3.5896
    -3.5881  -3.5876  -3.5869  -3.5864  -3.5860  -3.5851  -3.5847  -3.4184
    -3.3845  -3.3831  -3.3830  -3.3825  -3.3809  -2.9323  -2.8792  -2.8781
    -2.8766  -2.8762  -2.8750  -2.5685  -2.5142  -2.5136  -2.5124  -2.5122
    -2.5107  -2.3945  -2.3358  -2.3348  -2.3339  -2.3329  -2.3325  -2.3318
    -2.3309  -2.3308  -2.3284  -2.3275  -2.3266  -0.8865  -0.7770  -0.7752
    -0.7739  -0.7734  -0.7728  -0.7722  -0.7713  -0.7708  -0.7702  -0.7696
    -0.7679  -0.6935  -0.6707  -0.6694  -0.6687  -0.6670  -0.6661  -0.6240
    -0.6188  -0.6171  -0.6142  -0.6129  -0.6116  -0.5182  -0.4942  -0.4928
    -0.4915  -0.4904  -0.4888   0.1801   0.1888   0.2590   0.3037   0.3064
     0.3079   0.3095   0.3097   0.3106   0.3109   0.3124   0.3132   0.3139
     0.3150   1.1886   1.2179   1.2214   1.2224   1.2235   1.2238   1.5046
     1.5199   1.5216   1.5235   1.5239   1.5251   2.0516   2.0521   2.0536
     2.0553   2.0562   2.0573   2.0590   2.0595   2.0595   2.0604   2.0607
     2.0616   2.1231   2.1287   2.1300   2.1307   2.1308   2.1320   2.6912
     2.6919   2.6927   2.6940   2.6950   2.6963   2.7960   2.8057   2.8064
     2.8086   2.8104   2.8108   2.8119   2.8124   2.8127   2.8130   2.8154
     2.8156   2.9120   2.9298   2.9306   2.9316   2.9333   2.9348   3.1703
     3.1709   3.1723   3.1738   3.1744   3.1750   3.1751   3.1761   3.1765
     3.1766   3.1774   3.1780   3.4621   3.4645   3.4661   3.4662   3.4672
     3.4676   3.4682   3.4688   3.4693   3.4698   3.4704   3.4718   3.8240
     3.8293   3.8312   3.8322   3.8330   3.8333   3.8596   3.8660   3.8666
     3.8676   3.8681   3.8712   3.9414   3.9431   3.9442   3.9450   3.9462
     3.9472   4.2158   4.2168   4.2177   4.2192   4.2199   4.2201   4.2210
     4.2217   4.2225   4.2232   4.2242   4.2264   4.2686   4.2698   4.2702
     4.2705   4.2720   4.2732   4.5520   4.5619   4.5947   4.5968   4.5979
     4.5985   4.6010   4.6017   4.8364   4.8378   4.8380   4.8403   4.8421
     4.8457   4.9078   4.9106   4.9123   4.9136   4.9152   4.9203   5.0773
     5.0789   5.0796   5.0819   5.3912   5.3935   5.3949   5.3954   5.3973
     5.4002   5.8780   5.8792   5.8822   5.8863   6.9511   6.9579   6.9588
     6.9590   6.9679   6.9687   7.4228   7.4297   7.4326   7.4346   7.4366
     7.4386   7.7530   7.7623   7.9126   7.9195   7.9197   7.9216   7.9305
     7.9331   8.0396   8.0422   8.0433   8.0489   8.0524   8.0538   8.2405
     8.2498   8.2504   8.2544   8.2546   8.2554   8.2736   8.2889   8.2903
     8.2912   8.3020   8.3034   8.4636   8.4677   8.4688   8.4696   8.4702
     8.4712   8.4721   8.4732   8.4742   8.4780   8.4932   8.4934   8.6126
     8.6158

     occupation numbers 
     1.0000   1.0000   1.0000   1.0000   1.0000   1.0000   1.0000   1.0000
     1.0000   1.0000   1.0000   1.0000   1.0000   1.0000   1.0000   1.0000
     1.0000   1.0000   1.0000   1.0000   1.0000   1.0000   1.0000   1.0000
     1.0000   1.0000   1.0000   1.0000   1.0000   1.0000   1.0000   1.0000
     1.0000   1.0000   1.0000   1.0000   1.0000   1.0000   1.0000   1.0000
     1.0000   1.0000   1.0000   1.0000   1.0000   1.0000   1.0000   1.0000
     1.0000   1.0000   1.0000   1.0000   1.0000   1.0000   1.0000   1.0000
     1.0000   1.0000   1.0000   1.0000   1.0000   1.0000   1.0000   1.0000
     1.0000   1.0000   1.0000   1.0000   1.0000   1.0000   1.0000   1.0000
     1.0000   1.0000   1.0000   1.0000   1.0000   1.0000   1.0000   1.0000
     1.0000   1.0000   1.0000   1.0000   1.0000   1.0000   1.0000   1.0000
     1.0000   1.0000   1.0000   1.0000   1.0000   1.0000   1.0000   1.0000
     1.0000   1.0000   1.0000   1.0000   1.0000   1.0000   1.0000   1.0000
     1.0000   1.0000   1.0000   1.0000   1.0000   1.0000   1.0000   1.0000
     1.0000   1.0000   1.0000   1.0000   1.0000   1.0000   1.0000   1.0000
     1.0000   1.0000   1.0000   1.0000   1.0000   1.0000   1.0000   1.0000
     1.0000   1.0000   1.0000   1.0000   1.0000   1.0000   1.0000   1.0000
     1.0000   1.0000   1.0000   1.0000   1.0000   1.0000   1.0000   1.0000
     1.0000   1.0000   1.0000   1.0000   1.0000   1.0000   1.0000   1.0000
     1.0000   1.0000   1.0000   1.0000   1.0000   1.0000   1.0000   1.0000
     1.0000   1.0000   1.0000   1.0000   1.0000   1.0000   1.0000   1.0000
     1.0000   1.0000   1.0000   1.0000   1.0000   1.0000   1.0000   1.0000
     1.0000   1.0000   1.0000   1.0000   1.0000   1.0000   1.0000   1.0000
     1.0000   1.0000   1.0000   1.0000   1.0000   1.0000   1.0000   1.0000
     1.0000   1.0000   1.0000   1.0000   1.0000   1.0000   1.0000   1.0000
     1.0000   1.0000   1.0000   1.0000   1.0000   1.0000   1.0000   1.0000
     1.0000   1.0000   1.0000   1.0000   1.0000   1.0000   1.0000   1.0000
     1.0000   1.0000   1.0000   1.0000   1.0000   1.0000   1.0000   1.0000
     1.0000   1.0000   1.0000   1.0000   1.0000   1.0000   1.0000   1.0000
     1.0000   1.0000   1.0000   1.0000   1.0000   1.0000   1.0000   1.0000
     1.0000   1.0000   1.0000   1.0000   1.0000   1.0000   1.0000   1.0000
     1.0000   1.0000   1.0000   1.0000   1.0000   1.0000   1.0000   1.0000
     1.0000   0.9999   0.9998   0.9998   0.9998   0.0001   0.0001   0.0001
     0.0001   0.0000   0.0000   0.0000   0.0000   0.0000   0.0000   0.0000
     0.0000   0.0000   0.0000   0.0000   0.0000   0.0000   0.0000   0.0000
     0.0000   0.0000   0.0000   0.0000   0.0000   0.0000   0.0000   0.0000
     0.0000   0.0000   0.0000   0.0000   0.0000   0.0000   0.0000   0.0000
     0.0000   0.0000   0.0000   0.0000   0.0000   0.0000   0.0000   0.0000
     0.0000   0.0000   0.0000   0.0000   0.0000   0.0000   0.0000   0.0000
     0.0000

          k =-0.7071 0.0000 0.0000 ( 60622 PWs)   bands (ev):

   -18.0320 -18.0315 -18.0311 -18.0015 -18.0015  -5.5781  -5.5400  -5.3274
    -5.2729  -5.2727  -5.2717  -4.6119  -4.4843  -4.4825  -4.4818  -4.4810
    -4.4799  -4.4795  -4.4784  -4.3183  -4.2568  -4.2538  -4.2531  -4.2524
    -4.2512  -4.2505  -4.2490  -3.7234  -3.6328  -3.6324  -3.6308  -3.6304
    -3.6293  -3.6284  -3.6269  -3.4324  -3.4144  -3.2800  -3.2164  -3.2156
    -3.2144  -3.2131  -3.2123  -3.2107  -3.2098  -2.9899  -2.9305  -2.9301
    -2.9291  -2.9286  -2.9282  -2.9278  -2.9256  -2.7294  -2.6867  -2.6846
    -2.6835  -2.6834  -2.6829  -2.6820  -2.6810  -2.0964  -2.0681  -2.0668
    -2.0640  -1.6336  -1.5821  -1.5807  -1.5796  -1.5788  -1.5765  -1.5743
    -1.5735  -1.0952  -1.0716  -1.0679  -1.0678  -0.6873  -0.6489  -0.6482
    -0.6478  -0.6449  -0.6436  -0.6427  -0.6422  -0.4554  -0.4120  -0.4104
    -0.4096  -0.4082  -0.4077  -0.4068  -0.4061  -0.2624  -0.2457  -0.2440
    -0.2428  -0.2391  -0.2383  -0.2381  -0.2377   0.1574   0.1962   0.1985
     0.1989   0.2000   0.2010   0.2018   0.2033   0.4100   0.4185   0.8339
     0.8562   0.8570   0.8586   0.8590   0.8604   0.8630   0.8639   1.8093
     1.8103   1.8110   1.8132   1.8353   1.8672   1.8692   1.8699   1.8707
     1.8717   1.8731   1.8736   1.8853   1.8858   1.8871   1.8878   1.8884
     1.8888   1.8897   1.8907   2.6735   2.6807   2.6817   2.6819   2.6829
     2.6839   2.6850   2.6850   2.7100   2.7104   2.7115   2.7134   2.7139
     2.7145   2.7149   2.7159   2.7654   2.7658   2.7666   2.7668   2.7678
     2.7683   2.7693   2.7696   3.3766   3.3777   3.3780   3.3789   3.3791
     3.3800   3.3804   3.3811   3.4171   3.4186   3.4201   3.4205   3.4211
     3.4229   3.4240   3.4248   3.4610   3.4732   3.4765   3.4768   3.5407
     3.5409   3.5455   3.5455   3.5531   3.5548   3.5550   3.5555   3.5560
     3.5565   3.5574   3.5575   3.6740   3.6808   3.6810   3.6824   3.6833
     3.6840   3.6846   3.6853   3.7255   3.7264   3.7284   3.7286   3.9851
     3.9860   3.9871   3.9878   3.9885   3.9891   3.9901   3.9908   4.3054
     4.3139   4.3145   4.3164   4.3170   4.3172   4.3184   4.3212   4.5149
     4.5155   4.5160   4.5207   4.5668   4.5681   4.5712   4.5715   4.5721
     4.5730   4.5751   4.5765   4.7261   4.7274   4.7284   4.7295   4.7301
     4.7310   4.7322   4.7353   4.8251   4.8362   4.8949   4.8976   4.8980
     4.8984   4.8991   4.8995   4.9013   4.9018   5.3526   5.3538   5.3571
     5.3584   5.8771   5.8780   5.8841   5.8849   6.6806   6.6875   7.2681
     7.2695   7.2702   7.2798   7.6000   7.6024   8.0177   8.0318   8.0332
     8.0346   8.0369   8.0388   8.0390   8.0401   8.0455   8.0484   8.0490
     8.0493   8.0506   8.0615   8.0654   8.0662   8.1157   8.1215   8.3310
     8.3399   8.3405   8.3426   8.3438   8.3457   8.3460   8.3611   8.4359
     8.4604   8.4607   8.4633   8.4638   8.4638   8.4647   8.4850   8.5451
     8.5467   8.5480   8.5487   8.5493   8.5521   8.5612   8.5617   8.7168
     8.7266

     occupation numbers 
     1.0000   1.0000   1.0000   1.0000   1.0000   1.0000   1.0000   1.0000
     1.0000   1.0000   1.0000   1.0000   1.0000   1.0000   1.0000   1.0000
     1.0000   1.0000   1.0000   1.0000   1.0000   1.0000   1.0000   1.0000
     1.0000   1.0000   1.0000   1.0000   1.0000   1.0000   1.0000   1.0000
     1.0000   1.0000   1.0000   1.0000   1.0000   1.0000   1.0000   1.0000
     1.0000   1.0000   1.0000   1.0000   1.0000   1.0000   1.0000   1.0000
     1.0000   1.0000   1.0000   1.0000   1.0000   1.0000   1.0000   1.0000
     1.0000   1.0000   1.0000   1.0000   1.0000   1.0000   1.0000   1.0000
     1.0000   1.0000   1.0000   1.0000   1.0000   1.0000   1.0000   1.0000
     1.0000   1.0000   1.0000   1.0000   1.0000   1.0000   1.0000   1.0000
     1.0000   1.0000   1.0000   1.0000   1.0000   1.0000   1.0000   1.0000
     1.0000   1.0000   1.0000   1.0000   1.0000   1.0000   1.0000   1.0000
     1.0000   1.0000   1.0000   1.0000   1.0000   1.0000   1.0000   1.0000
     1.0000   1.0000   1.0000   1.0000   1.0000   1.0000   1.0000   1.0000
     1.0000   1.0000   1.0000   1.0000   1.0000   1.0000   1.0000   1.0000
     1.0000   1.0000   1.0000   1.0000   1.0000   1.0000   1.0000   1.0000
     1.0000   1.0000   1.0000   1.0000   1.0000   1.0000   1.0000   1.0000
     1.0000   1.0000   1.0000   1.0000   1.0000   1.0000   1.0000   1.0000
     1.0000   1.0000   1.0000   1.0000   1.0000   1.0000   1.0000   1.0000
     1.0000   1.0000   1.0000   1.0000   1.0000   1.0000   1.0000   1.0000
     1.0000   1.0000   1.0000   1.0000   1.0000   1.0000   1.0000   1.0000
     1.0000   1.0000   1.0000   1.0000   1.0000   1.0000   1.0000   1.0000
     1.0000   1.0000   1.0000   1.0000   1.0000   1.0000   1.0000   1.0000
     1.0000   1.0000   1.0000   1.0000   1.0000   1.0000   1.0000   1.0000
     1.0000   1.0000   1.0000   1.0000   1.0000   1.0000   1.0000   1.0000
     1.0000   1.0000   1.0000   1.0000   1.0000   1.0000   1.0000   1.0000
     1.0000   1.0000   1.0000   1.0000   1.0000   1.0000   1.0000   1.0000
     1.0000   1.0000   1.0000   1.0000   1.0000   1.0000   1.0000   1.0000
     1.0000   1.0000   1.0000   1.0000   1.0000   1.0000   1.0000   1.0000
     1.0000   1.0000   1.0000   1.0000   1.0000   1.0000   1.0000   1.0000
     1.0000   1.0000   1.0000   1.0000   1.0000   1.0000   1.0000   1.0000
     1.0000   1.0000   1.0000   1.0000   1.0000   1.0000   1.0000   1.0000
     1.0000   0.9999   0.9999   0.9998   0.9998   0.0262   0.0234   0.0000
     0.0000   0.0000   0.0000   0.0000   0.0000   0.0000   0.0000   0.0000
     0.0000   0.0000   0.0000   0.0000   0.0000   0.0000   0.0000   0.0000
     0.0000   0.0000   0.0000   0.0000   0.0000   0.0000   0.0000   0.0000
     0.0000   0.0000   0.0000   0.0000   0.0000   0.0000   0.0000   0.0000
     0.0000   0.0000   0.0000   0.0000   0.0000   0.0000   0.0000   0.0000
     0.0000   0.0000   0.0000   0.0000   0.0000   0.0000   0.0000   0.0000
     0.0000

          k = 0.3536 0.3536 0.3536 ( 60452 PWs)   bands (ev):

   -18.0320 -18.0316 -18.0311 -18.0015 -18.0015  -5.6433  -5.6094  -5.1604
    -5.0736  -5.0710  -5.0708  -5.0693  -5.0689  -4.6374  -4.5622  -4.5618
    -4.5603  -4.5596  -4.5574  -4.1600  -4.1145  -4.0676  -4.0191  -4.0185
    -4.0171  -4.0167  -4.0149  -3.7098  -3.5930  -3.5913  -3.5903  -3.5899
    -3.5887  -3.5882  -3.5874  -3.5862  -3.5857  -3.5849  -3.5839  -3.4202
    -3.3847  -3.3832  -3.3823  -3.3819  -3.3808  -2.9315  -2.8796  -2.8780
    -2.8763  -2.8753  -2.8744  -2.5672  -2.5161  -2.5143  -2.5129  -2.5116
    -2.5112  -2.3925  -2.3368  -2.3353  -2.3333  -2.3329  -2.3320  -2.3319
    -2.3314  -2.3300  -2.3289  -2.3284  -2.3265  -0.8865  -0.7773  -0.7764
    -0.7741  -0.7735  -0.7727  -0.7717  -0.7710  -0.7704  -0.7701  -0.7694
    -0.7675  -0.6937  -0.6702  -0.6693  -0.6683  -0.6666  -0.6647  -0.6249
    -0.6181  -0.6178  -0.6135  -0.6127  -0.6116  -0.5172  -0.4960  -0.4942
    -0.4933  -0.4906  -0.4882   0.1779   0.1898   0.2626   0.3050   0.3064
     0.3082   0.3090   0.3102   0.3110   0.3113   0.3119   0.3124   0.3132
     0.3134   1.1891   1.2176   1.2197   1.2215   1.2229   1.2243   1.5032
     1.5196   1.5212   1.5245   1.5249   1.5253   2.0510   2.0524   2.0541
     2.0552   2.0573   2.0583   2.0585   2.0589   2.0593   2.0600   2.0602
     2.0617   2.1232   2.1271   2.1291   2.1313   2.1325   2.1331   2.6908
     2.6917   2.6925   2.6940   2.6944   2.6955   2.7985   2.8046   2.8063
     2.8094   2.8104   2.8112   2.8116   2.8123   2.8130   2.8146   2.8147
     2.8155   2.9117   2.9298   2.9313   2.9329   2.9340   2.9352   3.1698
     3.1710   3.1724   3.1733   3.1744   3.1749   3.1750   3.1758   3.1762
     3.1765   3.1771   3.1793   3.4626   3.4646   3.4657   3.4659   3.4672
     3.4677   3.4687   3.4691   3.4695   3.4704   3.4714   3.4717   3.8237
     3.8296   3.8304   3.8315   3.8327   3.8335   3.8606   3.8650   3.8662
     3.8669   3.8673   3.8691   3.9425   3.9427   3.9433   3.9456   3.9463
     3.9478   4.2161   4.2171   4.2182   4.2186   4.2188   4.2199   4.2203
     4.2210   4.2214   4.2224   4.2239   4.2250   4.2689   4.2695   4.2707
     4.2712   4.2722   4.2731   4.5527   4.5600   4.5964   4.5975   4.5982
     4.5990   4.6003   4.6016   4.8365   4.8376   4.8384   4.8396   4.8448
     4.8455   4.9055   4.9101   4.9103   4.9132   4.9152   4.9204   5.0771
     5.0791   5.0799   5.0823   5.3919   5.3941   5.3948   5.3962   5.3985
     5.4000   5.8779   5.8793   5.8846   5.8856   6.9514   6.9583   6.9587
     6.9595   6.9683   6.9689   7.4225   7.4314   7.4325   7.4337   7.4372
     7.4386   7.7528   7.7628   7.9120   7.9196   7.9197   7.9220   7.9316
     7.9337   8.0392   8.0427   8.0431   8.0485   8.0526   8.0528   8.2405
     8.2491   8.2507   8.2539   8.2547   8.2563   8.2750   8.2881   8.2893
     8.2907   8.3028   8.3040   8.4645   8.4674   8.4688   8.4697   8.4701
     8.4709   8.4718   8.4720   8.4729   8.4773   8.4929   8.4938   8.6140
     8.6151

     occupation numbers 
     1.0000   1.0000   1.0000   1.0000   1.0000   1.0000   1.0000   1.0000
     1.0000   1.0000   1.0000   1.0000   1.0000   1.0000   1.0000   1.0000
     1.0000   1.0000   1.0000   1.0000   1.0000   1.0000   1.0000   1.0000
     1.0000   1.0000   1.0000   1.0000   1.0000   1.0000   1.0000   1.0000
     1.0000   1.0000   1.0000   1.0000   1.0000   1.0000   1.0000   1.0000
     1.0000   1.0000   1.0000   1.0000   1.0000   1.0000   1.0000   1.0000
     1.0000   1.0000   1.0000   1.0000   1.0000   1.0000   1.0000   1.0000
     1.0000   1.0000   1.0000   1.0000   1.0000   1.0000   1.0000   1.0000
     1.0000   1.0000   1.0000   1.0000   1.0000   1.0000   1.0000   1.0000
     1.0000   1.0000   1.0000   1.0000   1.0000   1.0000   1.0000   1.0000
     1.0000   1.0000   1.0000   1.0000   1.0000   1.0000   1.0000   1.0000
     1.0000   1.0000   1.0000   1.0000   1.0000   1.0000   1.0000   1.0000
     1.0000   1.0000   1.0000   1.0000   1.0000   1.0000   1.0000   1.0000
     1.0000   1.0000   1.0000   1.0000   1.0000   1.0000   1.0000   1.0000
     1.0000   1.0000   1.0000   1.0000   1.0000   1.0000   1.0000   1.0000
     1.0000   1.0000   1.0000   1.0000   1.0000   1.0000   1.0000   1.0000
     1.0000   1.0000   1.0000   1.0000   1.0000   1.0000   1.0000   1.0000
     1.0000   1.0000   1.0000   1.0000   1.0000   1.0000   1.0000   1.0000
     1.0000   1.0000   1.0000   1.0000   1.0000   1.0000   1.0000   1.0000
     1.0000   1.0000   1.0000   1.0000   1.0000   1.0000   1.0000   1.0000
     1.0000   1.0000   1.0000   1.0000   1.0000   1.0000   1.0000   1.0000
     1.0000   1.0000   1.0000   1.0000   1.0000   1.0000   1.0000   1.0000
     1.0000   1.0000   1.0000   1.0000   1.0000   1.0000   1.0000   1.0000
     1.0000   1.0000   1.0000   1.0000   1.0000   1.0000   1.0000   1.0000
     1.0000   1.0000   1.0000   1.0000   1.0000   1.0000   1.0000   1.0000
     1.0000   1.0000   1.0000   1.0000   1.0000   1.0000   1.0000   1.0000
     1.0000   1.0000   1.0000   1.0000   1.0000   1.0000   1.0000   1.0000
     1.0000   1.0000   1.0000   1.0000   1.0000   1.0000   1.0000   1.0000
     1.0000   1.0000   1.0000   1.0000   1.0000   1.0000   1.0000   1.0000
     1.0000   1.0000   1.0000   1.0000   1.0000   1.0000   1.0000   1.0000
     1.0000   1.0000   1.0000   1.0000   1.0000   1.0000   1.0000   1.0000
     1.0000   1.0000   1.0000   1.0000   1.0000   1.0000   1.0000   1.0000
     1.0000   0.9999   0.9998   0.9998   0.9998   0.0001   0.0001   0.0001
     0.0001   0.0000   0.0000   0.0000   0.0000   0.0000   0.0000   0.0000
     0.0000   0.0000   0.0000   0.0000   0.0000   0.0000   0.0000   0.0000
     0.0000   0.0000   0.0000   0.0000   0.0000   0.0000   0.0000   0.0000
     0.0000   0.0000   0.0000   0.0000   0.0000   0.0000   0.0000   0.0000
     0.0000   0.0000   0.0000   0.0000   0.0000   0.0000   0.0000   0.0000
     0.0000   0.0000   0.0000   0.0000   0.0000   0.0000   0.0000   0.0000
     0.0000

          k = 0.3536-0.3536-0.3536 ( 60452 PWs)   bands (ev):

   -18.0320 -18.0316 -18.0311 -18.0015 -18.0014  -5.6432  -5.6096  -5.1596
    -5.0727  -5.0719  -5.0703  -5.0699  -5.0693  -4.6377  -4.5617  -4.5610
    -4.5604  -4.5594  -4.5585  -4.1617  -4.1141  -4.0659  -4.0201  -4.0184
    -4.0179  -4.0164  -4.0157  -3.7080  -3.5926  -3.5917  -3.5909  -3.5897
    -3.5888  -3.5874  -3.5872  -3.5865  -3.5859  -3.5853  -3.5834  -3.4191
    -3.3840  -3.3830  -3.3828  -3.3818  -3.3804  -2.9322  -2.8796  -2.8788
    -2.8776  -2.8762  -2.8758  -2.5669  -2.5155  -2.5146  -2.5142  -2.5105
    -2.5092  -2.3943  -2.3362  -2.3358  -2.3336  -2.3330  -2.3325  -2.3317
    -2.3308  -2.3290  -2.3288  -2.3276  -2.3261  -0.8855  -0.7791  -0.7763
    -0.7746  -0.7740  -0.7733  -0.7726  -0.7719  -0.7706  -0.7696  -0.7689
    -0.7681  -0.6923  -0.6705  -0.6698  -0.6683  -0.6673  -0.6667  -0.6245
    -0.6202  -0.6182  -0.6146  -0.6119  -0.6117  -0.5157  -0.4941  -0.4932
    -0.4906  -0.4883  -0.4880   0.1800   0.1904   0.2599   0.3044   0.3063
     0.3068   0.3078   0.3085   0.3097   0.3105   0.3123   0.3130   0.3136
     0.3152   1.1895   1.2197   1.2216   1.2218   1.2225   1.2257   1.5039
     1.5205   1.5214   1.5232   1.5245   1.5253   2.0504   2.0515   2.0548
     2.0561   2.0574   2.0580   2.0585   2.0589   2.0595   2.0599   2.0603
     2.0612   2.1225   2.1278   2.1292   2.1299   2.1310   2.1329   2.6906
     2.6931   2.6935   2.6947   2.6956   2.6965   2.7988   2.8043   2.8057
     2.8091   2.8103   2.8105   2.8112   2.8115   2.8120   2.8129   2.8139
     2.8149   2.9108   2.9286   2.9302   2.9317   2.9333   2.9349   3.1705
     3.1715   3.1724   3.1739   3.1741   3.1748   3.1755   3.1759   3.1763
     3.1768   3.1774   3.1778   3.4621   3.4635   3.4645   3.4654   3.4671
     3.4679   3.4685   3.4689   3.4694   3.4697   3.4702   3.4712   3.8256
     3.8313   3.8316   3.8320   3.8323   3.8332   3.8601   3.8667   3.8682
     3.8685   3.8700   3.8701   3.9410   3.9421   3.9433   3.9453   3.9460
     3.9475   4.2159   4.2183   4.2187   4.2193   4.2206   4.2210   4.2215
     4.2221   4.2226   4.2238   4.2249   4.2273   4.2681   4.2690   4.2706
     4.2707   4.2717   4.2726   4.5531   4.5629   4.5923   4.5976   4.5984
     4.5989   4.5997   4.6006   4.8349   4.8369   4.8384   4.8394   4.8430
     4.8446   4.9102   4.9107   4.9123   4.9151   4.9159   4.9227   5.0763
     5.0770   5.0802   5.0831   5.3906   5.3912   5.3936   5.3945   5.3985
     5.4000   5.8775   5.8791   5.8822   5.8845   6.9491   6.9569   6.9576
     6.9610   6.9680   6.9685   7.4236   7.4297   7.4302   7.4344   7.4371
     7.4388   7.7519   7.7625   7.9128   7.9179   7.9200   7.9211   7.9311
     7.9323   8.0411   8.0423   8.0438   8.0491   8.0523   8.0536   8.2400
     8.2483   8.2505   8.2534   8.2551   8.2563   8.2728   8.2887   8.2889
     8.2911   8.3031   8.3034   8.4642   8.4687   8.4689   8.4702   8.4712
     8.4715   8.4722   8.4726   8.4733   8.4790   8.4935   8.4954   8.6120
     8.6157

     occupation numbers 
     1.0000   1.0000   1.0000   1.0000   1.0000   1.0000   1.0000   1.0000
     1.0000   1.0000   1.0000   1.0000   1.0000   1.0000   1.0000   1.0000
     1.0000   1.0000   1.0000   1.0000   1.0000   1.0000   1.0000   1.0000
     1.0000   1.0000   1.0000   1.0000   1.0000   1.0000   1.0000   1.0000
     1.0000   1.0000   1.0000   1.0000   1.0000   1.0000   1.0000   1.0000
     1.0000   1.0000   1.0000   1.0000   1.0000   1.0000   1.0000   1.0000
     1.0000   1.0000   1.0000   1.0000   1.0000   1.0000   1.0000   1.0000
     1.0000   1.0000   1.0000   1.0000   1.0000   1.0000   1.0000   1.0000
     1.0000   1.0000   1.0000   1.0000   1.0000   1.0000   1.0000   1.0000
     1.0000   1.0000   1.0000   1.0000   1.0000   1.0000   1.0000   1.0000
     1.0000   1.0000   1.0000   1.0000   1.0000   1.0000   1.0000   1.0000
     1.0000   1.0000   1.0000   1.0000   1.0000   1.0000   1.0000   1.0000
     1.0000   1.0000   1.0000   1.0000   1.0000   1.0000   1.0000   1.0000
     1.0000   1.0000   1.0000   1.0000   1.0000   1.0000   1.0000   1.0000
     1.0000   1.0000   1.0000   1.0000   1.0000   1.0000   1.0000   1.0000
     1.0000   1.0000   1.0000   1.0000   1.0000   1.0000   1.0000   1.0000
     1.0000   1.0000   1.0000   1.0000   1.0000   1.0000   1.0000   1.0000
     1.0000   1.0000   1.0000   1.0000   1.0000   1.0000   1.0000   1.0000
     1.0000   1.0000   1.0000   1.0000   1.0000   1.0000   1.0000   1.0000
     1.0000   1.0000   1.0000   1.0000   1.0000   1.0000   1.0000   1.0000
     1.0000   1.0000   1.0000   1.0000   1.0000   1.0000   1.0000   1.0000
     1.0000   1.0000   1.0000   1.0000   1.0000   1.0000   1.0000   1.0000
     1.0000   1.0000   1.0000   1.0000   1.0000   1.0000   1.0000   1.0000
     1.0000   1.0000   1.0000   1.0000   1.0000   1.0000   1.0000   1.0000
     1.0000   1.0000   1.0000   1.0000   1.0000   1.0000   1.0000   1.0000
     1.0000   1.0000   1.0000   1.0000   1.0000   1.0000   1.0000   1.0000
     1.0000   1.0000   1.0000   1.0000   1.0000   1.0000   1.0000   1.0000
     1.0000   1.0000   1.0000   1.0000   1.0000   1.0000   1.0000   1.0000
     1.0000   1.0000   1.0000   1.0000   1.0000   1.0000   1.0000   1.0000
     1.0000   1.0000   1.0000   1.0000   1.0000   1.0000   1.0000   1.0000
     1.0000   1.0000   1.0000   1.0000   1.0000   1.0000   1.0000   1.0000
     1.0000   1.0000   1.0000   1.0000   1.0000   1.0000   1.0000   1.0000
     1.0000   0.9999   0.9998   0.9998   0.9998   0.0001   0.0001   0.0001
     0.0001   0.0000   0.0000   0.0000   0.0000   0.0000   0.0000   0.0000
     0.0000   0.0000   0.0000   0.0000   0.0000   0.0000   0.0000   0.0000
     0.0000   0.0000   0.0000   0.0000   0.0000   0.0000   0.0000   0.0000
     0.0000   0.0000   0.0000   0.0000   0.0000   0.0000   0.0000   0.0000
     0.0000   0.0000   0.0000   0.0000   0.0000   0.0000   0.0000   0.0000
     0.0000   0.0000   0.0000   0.0000   0.0000   0.0000   0.0000   0.0000
     0.0000

          k =-0.3536 0.3536-0.3536 ( 60452 PWs)   bands (ev):

   -18.0320 -18.0316 -18.0311 -18.0015 -18.0015  -5.6435  -5.6092  -5.1597
    -5.0737  -5.0714  -5.0704  -5.0698  -5.0691  -4.6359  -4.5622  -4.5608
    -4.5602  -4.5600  -4.5589  -4.1623  -4.1138  -4.0655  -4.0200  -4.0185
    -4.0176  -4.0169  -4.0158  -3.7093  -3.5934  -3.5922  -3.5905  -3.5901
    -3.5890  -3.5880  -3.5867  -3.5854  -3.5847  -3.5844  -3.5836  -3.4204
    -3.3847  -3.3833  -3.3818  -3.3816  -3.3806  -2.9302  -2.8801  -2.8783
    -2.8774  -2.8766  -2.8758  -2.5683  -2.5147  -2.5138  -2.5121  -2.5114
    -2.5106  -2.3948  -2.3361  -2.3349  -2.3340  -2.3329  -2.3322  -2.3307
    -2.3304  -2.3301  -2.3288  -2.3285  -2.3270  -0.8849  -0.7783  -0.7759
    -0.7748  -0.7740  -0.7736  -0.7730  -0.7719  -0.7706  -0.7696  -0.7682
    -0.7673  -0.6929  -0.6711  -0.6707  -0.6681  -0.6674  -0.6656  -0.6250
    -0.6190  -0.6179  -0.6141  -0.6131  -0.6112  -0.5173  -0.4945  -0.4922
    -0.4914  -0.4900  -0.4869   0.1801   0.1895   0.2619   0.3048   0.3059
     0.3061   0.3082   0.3099   0.3104   0.3113   0.3120   0.3122   0.3130
     0.3144   1.1898   1.2196   1.2215   1.2217   1.2229   1.2236   1.5051
     1.5204   1.5217   1.5220   1.5242   1.5251   2.0511   2.0519   2.0546
     2.0556   2.0570   2.0577   2.0584   2.0589   2.0594   2.0597   2.0608
     2.0615   2.1239   2.1273   2.1292   2.1307   2.1318   2.1319   2.6911
     2.6926   2.6930   2.6944   2.6953   2.6960   2.7987   2.8046   2.8058
     2.8100   2.8101   2.8107   2.8113   2.8121   2.8122   2.8127   2.8142
     2.8148   2.9113   2.9294   2.9298   2.9322   2.9335   2.9347   3.1709
     3.1721   3.1732   3.1733   3.1737   3.1749   3.1752   3.1754   3.1762
     3.1765   3.1773   3.1776   3.4637   3.4641   3.4650   3.4656   3.4671
     3.4678   3.4683   3.4686   3.4694   3.4695   3.4699   3.4712   3.8254
     3.8295   3.8314   3.8321   3.8327   3.8330   3.8613   3.8667   3.8671
     3.8675   3.8690   3.8695   3.9417   3.9428   3.9431   3.9444   3.9466
     3.9477   4.2167   4.2181   4.2188   4.2197   4.2201   4.2203   4.2214
     4.2219   4.2226   4.2229   4.2237   4.2256   4.2683   4.2693   4.2704
     4.2710   4.2717   4.2730   4.5532   4.5613   4.5946   4.5968   4.5976
     4.5987   4.6000   4.6018   4.8359   4.8365   4.8379   4.8397   4.8437
     4.8451   4.9077   4.9112   4.9123   4.9143   4.9168   4.9205   5.0775
     5.0778   5.0793   5.0827   5.3910   5.3921   5.3931   5.3961   5.3984
     5.4002   5.8767   5.8801   5.8835   5.8845   6.9497   6.9576   6.9586
     6.9606   6.9674   6.9684   7.4216   7.4306   7.4318   7.4342   7.4376
     7.4387   7.7524   7.7626   7.9110   7.9191   7.9203   7.9212   7.9315
     7.9327   8.0399   8.0423   8.0439   8.0489   8.0524   8.0538   8.2398
     8.2490   8.2501   8.2542   8.2556   8.2564   8.2740   8.2884   8.2896
     8.2908   8.3022   8.3033   8.4653   8.4685   8.4689   8.4696   8.4707
     8.4710   8.4722   8.4728   8.4733   8.4783   8.4928   8.4945   8.6134
     8.6146

     occupation numbers 
     1.0000   1.0000   1.0000   1.0000   1.0000   1.0000   1.0000   1.0000
     1.0000   1.0000   1.0000   1.0000   1.0000   1.0000   1.0000   1.0000
     1.0000   1.0000   1.0000   1.0000   1.0000   1.0000   1.0000   1.0000
     1.0000   1.0000   1.0000   1.0000   1.0000   1.0000   1.0000   1.0000
     1.0000   1.0000   1.0000   1.0000   1.0000   1.0000   1.0000   1.0000
     1.0000   1.0000   1.0000   1.0000   1.0000   1.0000   1.0000   1.0000
     1.0000   1.0000   1.0000   1.0000   1.0000   1.0000   1.0000   1.0000
     1.0000   1.0000   1.0000   1.0000   1.0000   1.0000   1.0000   1.0000
     1.0000   1.0000   1.0000   1.0000   1.0000   1.0000   1.0000   1.0000
     1.0000   1.0000   1.0000   1.0000   1.0000   1.0000   1.0000   1.0000
     1.0000   1.0000   1.0000   1.0000   1.0000   1.0000   1.0000   1.0000
     1.0000   1.0000   1.0000   1.0000   1.0000   1.0000   1.0000   1.0000
     1.0000   1.0000   1.0000   1.0000   1.0000   1.0000   1.0000   1.0000
     1.0000   1.0000   1.0000   1.0000   1.0000   1.0000   1.0000   1.0000
     1.0000   1.0000   1.0000   1.0000   1.0000   1.0000   1.0000   1.0000
     1.0000   1.0000   1.0000   1.0000   1.0000   1.0000   1.0000   1.0000
     1.0000   1.0000   1.0000   1.0000   1.0000   1.0000   1.0000   1.0000
     1.0000   1.0000   1.0000   1.0000   1.0000   1.0000   1.0000   1.0000
     1.0000   1.0000   1.0000   1.0000   1.0000   1.0000   1.0000   1.0000
     1.0000   1.0000   1.0000   1.0000   1.0000   1.0000   1.0000   1.0000
     1.0000   1.0000   1.0000   1.0000   1.0000   1.0000   1.0000   1.0000
     1.0000   1.0000   1.0000   1.0000   1.0000   1.0000   1.0000   1.0000
     1.0000   1.0000   1.0000   1.0000   1.0000   1.0000   1.0000   1.0000
     1.0000   1.0000   1.0000   1.0000   1.0000   1.0000   1.0000   1.0000
     1.0000   1.0000   1.0000   1.0000   1.0000   1.0000   1.0000   1.0000
     1.0000   1.0000   1.0000   1.0000   1.0000   1.0000   1.0000   1.0000
     1.0000   1.0000   1.0000   1.0000   1.0000   1.0000   1.0000   1.0000
     1.0000   1.0000   1.0000   1.0000   1.0000   1.0000   1.0000   1.0000
     1.0000   1.0000   1.0000   1.0000   1.0000   1.0000   1.0000   1.0000
     1.0000   1.0000   1.0000   1.0000   1.0000   1.0000   1.0000   1.0000
     1.0000   1.0000   1.0000   1.0000   1.0000   1.0000   1.0000   1.0000
     1.0000   1.0000   1.0000   1.0000   1.0000   1.0000   1.0000   1.0000
     1.0000   0.9999   0.9998   0.9998   0.9998   0.0001   0.0001   0.0001
     0.0001   0.0000   0.0000   0.0000   0.0000   0.0000   0.0000   0.0000
     0.0000   0.0000   0.0000   0.0000   0.0000   0.0000   0.0000   0.0000
     0.0000   0.0000   0.0000   0.0000   0.0000   0.0000   0.0000   0.0000
     0.0000   0.0000   0.0000   0.0000   0.0000   0.0000   0.0000   0.0000
     0.0000   0.0000   0.0000   0.0000   0.0000   0.0000   0.0000   0.0000
     0.0000   0.0000   0.0000   0.0000   0.0000   0.0000   0.0000   0.0000
     0.0000

          k = 0.0000-0.7071 0.0000 ( 60622 PWs)   bands (ev):

   -18.0320 -18.0316 -18.0311 -18.0015 -18.0015  -5.5775  -5.5407  -5.3275
    -5.2738  -5.2726  -5.2707  -4.6107  -4.4841  -4.4832  -4.4825  -4.4812
    -4.4809  -4.4804  -4.4776  -4.3181  -4.2559  -4.2540  -4.2523  -4.2521
    -4.2513  -4.2504  -4.2494  -3.7215  -3.6333  -3.6318  -3.6316  -3.6308
    -3.6301  -3.6282  -3.6276  -3.4318  -3.4151  -3.2808  -3.2169  -3.2149
    -3.2145  -3.2126  -3.2115  -3.2112  -3.2092  -2.9912  -2.9315  -2.9304
    -2.9289  -2.9283  -2.9281  -2.9262  -2.9254  -2.7277  -2.6870  -2.6858
    -2.6849  -2.6842  -2.6823  -2.6812  -2.6803  -2.0969  -2.0677  -2.0657
    -2.0654  -1.6329  -1.5820  -1.5801  -1.5789  -1.5773  -1.5765  -1.5759
    -1.5754  -1.0952  -1.0710  -1.0688  -1.0679  -0.6858  -0.6495  -0.6484
    -0.6465  -0.6453  -0.6444  -0.6431  -0.6430  -0.4539  -0.4110  -0.4108
    -0.4102  -0.4093  -0.4075  -0.4069  -0.4059  -0.2625  -0.2444  -0.2431
    -0.2425  -0.2406  -0.2389  -0.2386  -0.2375   0.1578   0.1978   0.1984
     0.1993   0.1996   0.2000   0.2008   0.2031   0.4095   0.4189   0.8333
     0.8556   0.8577   0.8586   0.8604   0.8612   0.8622   0.8631   1.8097
     1.8102   1.8107   1.8132   1.8346   1.8677   1.8684   1.8703   1.8711
     1.8719   1.8728   1.8741   1.8854   1.8855   1.8863   1.8881   1.8884
     1.8892   1.8896   1.8905   2.6731   2.6806   2.6807   2.6817   2.6827
     2.6848   2.6852   2.6861   2.7105   2.7111   2.7112   2.7129   2.7136
     2.7146   2.7149   2.7156   2.7649   2.7657   2.7669   2.7677   2.7680
     2.7684   2.7687   2.7693   3.3762   3.3781   3.3785   3.3791   3.3792
     3.3799   3.3803   3.3808   3.4172   3.4189   3.4196   3.4203   3.4209
     3.4222   3.4246   3.4253   3.4610   3.4733   3.4762   3.4771   3.5412
     3.5414   3.5444   3.5456   3.5531   3.5533   3.5540   3.5553   3.5566
     3.5572   3.5575   3.5585   3.6741   3.6807   3.6815   3.6825   3.6830
     3.6834   3.6846   3.6860   3.7263   3.7268   3.7269   3.7286   3.9851
     3.9853   3.9876   3.9878   3.9887   3.9893   3.9899   3.9906   4.3057
     4.3141   4.3150   4.3158   4.3163   4.3173   4.3189   4.3211   4.5153
     4.5156   4.5158   4.5207   4.5689   4.5694   4.5699   4.5701   4.5710
     4.5726   4.5756   4.5763   4.7258   4.7267   4.7282   4.7289   4.7302
     4.7314   4.7317   4.7374   4.8253   4.8362   4.8954   4.8967   4.8979
     4.8980   4.8988   4.9007   4.9012   4.9016   5.3528   5.3536   5.3571
     5.3583   5.8768   5.8791   5.8837   5.8845   6.6802   6.6879   7.2680
     7.2692   7.2700   7.2802   7.6004   7.6020   8.0179   8.0321   8.0337
     8.0350   8.0367   8.0384   8.0399   8.0400   8.0453   8.0468   8.0488
     8.0496   8.0518   8.0610   8.0651   8.0661   8.1153   8.1217   8.3306
     8.3413   8.3422   8.3426   8.3427   8.3445   8.3454   8.3609   8.4366
     8.4608   8.4609   8.4615   8.4633   8.4639   8.4654   8.4859   8.5454
     8.5471   8.5476   8.5482   8.5506   8.5512   8.5596   8.5624   8.7177
     8.7301

     occupation numbers 
     1.0000   1.0000   1.0000   1.0000   1.0000   1.0000   1.0000   1.0000
     1.0000   1.0000   1.0000   1.0000   1.0000   1.0000   1.0000   1.0000
     1.0000   1.0000   1.0000   1.0000   1.0000   1.0000   1.0000   1.0000
     1.0000   1.0000   1.0000   1.0000   1.0000   1.0000   1.0000   1.0000
     1.0000   1.0000   1.0000   1.0000   1.0000   1.0000   1.0000   1.0000
     1.0000   1.0000   1.0000   1.0000   1.0000   1.0000   1.0000   1.0000
     1.0000   1.0000   1.0000   1.0000   1.0000   1.0000   1.0000   1.0000
     1.0000   1.0000   1.0000   1.0000   1.0000   1.0000   1.0000   1.0000
     1.0000   1.0000   1.0000   1.0000   1.0000   1.0000   1.0000   1.0000
     1.0000   1.0000   1.0000   1.0000   1.0000   1.0000   1.0000   1.0000
     1.0000   1.0000   1.0000   1.0000   1.0000   1.0000   1.0000   1.0000
     1.0000   1.0000   1.0000   1.0000   1.0000   1.0000   1.0000   1.0000
     1.0000   1.0000   1.0000   1.0000   1.0000   1.0000   1.0000   1.0000
     1.0000   1.0000   1.0000   1.0000   1.0000   1.0000   1.0000   1.0000
     1.0000   1.0000   1.0000   1.0000   1.0000   1.0000   1.0000   1.0000
     1.0000   1.0000   1.0000   1.0000   1.0000   1.0000   1.0000   1.0000
     1.0000   1.0000   1.0000   1.0000   1.0000   1.0000   1.0000   1.0000
     1.0000   1.0000   1.0000   1.0000   1.0000   1.0000   1.0000   1.0000
     1.0000   1.0000   1.0000   1.0000   1.0000   1.0000   1.0000   1.0000
     1.0000   1.0000   1.0000   1.0000   1.0000   1.0000   1.0000   1.0000
     1.0000   1.0000   1.0000   1.0000   1.0000   1.0000   1.0000   1.0000
     1.0000   1.0000   1.0000   1.0000   1.0000   1.0000   1.0000   1.0000
     1.0000   1.0000   1.0000   1.0000   1.0000   1.0000   1.0000   1.0000
     1.0000   1.0000   1.0000   1.0000   1.0000   1.0000   1.0000   1.0000
     1.0000   1.0000   1.0000   1.0000   1.0000   1.0000   1.0000   1.0000
     1.0000   1.0000   1.0000   1.0000   1.0000   1.0000   1.0000   1.0000
     1.0000   1.0000   1.0000   1.0000   1.0000   1.0000   1.0000   1.0000
     1.0000   1.0000   1.0000   1.0000   1.0000   1.0000   1.0000   1.0000
     1.0000   1.0000   1.0000   1.0000   1.0000   1.0000   1.0000   1.0000
     1.0000   1.0000   1.0000   1.0000   1.0000   1.0000   1.0000   1.0000
     1.0000   1.0000   1.0000   1.0000   1.0000   1.0000   1.0000   1.0000
     1.0000   1.0000   1.0000   1.0000   1.0000   1.0000   1.0000   1.0000
     1.0000   0.9999   0.9998   0.9998   0.9998   0.0263   0.0232   0.0000
     0.0000   0.0000   0.0000   0.0000   0.0000   0.0000   0.0000   0.0000
     0.0000   0.0000   0.0000   0.0000   0.0000   0.0000   0.0000   0.0000
     0.0000   0.0000   0.0000   0.0000   0.0000   0.0000   0.0000   0.0000
     0.0000   0.0000   0.0000   0.0000   0.0000   0.0000   0.0000   0.0000
     0.0000   0.0000   0.0000   0.0000   0.0000   0.0000   0.0000   0.0000
     0.0000   0.0000   0.0000   0.0000   0.0000   0.0000   0.0000   0.0000
     0.0000

          k = 0.0000 0.0000-0.7071 ( 60622 PWs)   bands (ev):

   -18.0320 -18.0315 -18.0311 -18.0015 -18.0015  -5.5776  -5.5406  -5.3279
    -5.2733  -5.2722  -5.2711  -4.6128  -4.4843  -4.4826  -4.4821  -4.4810
    -4.4800  -4.4792  -4.4782  -4.3181  -4.2570  -4.2543  -4.2527  -4.2515
    -4.2507  -4.2503  -4.2492  -3.7242  -3.6329  -3.6315  -3.6303  -3.6300
    -3.6297  -3.6285  -3.6281  -3.4332  -3.4134  -3.2797  -3.2178  -3.2165
    -3.2137  -3.2127  -3.2120  -3.2110  -3.2087  -2.9888  -2.9316  -2.9305
    -2.9299  -2.9286  -2.9276  -2.9270  -2.9255  -2.7317  -2.6870  -2.6859
    -2.6839  -2.6833  -2.6817  -2.6802  -2.6801  -2.0958  -2.0683  -2.0658
    -2.0652  -1.6349  -1.5814  -1.5804  -1.5786  -1.5772  -1.5765  -1.5760
    -1.5747  -1.0948  -1.0712  -1.0690  -1.0671  -0.6883  -0.6502  -0.6485
    -0.6462  -0.6446  -0.6442  -0.6424  -0.6417  -0.4548  -0.4133  -0.4107
    -0.4097  -0.4082  -0.4074  -0.4065  -0.4050  -0.2615  -0.2453  -0.2441
    -0.2430  -0.2405  -0.2390  -0.2385  -0.2366   0.1566   0.1971   0.1977
     0.1988   0.1998   0.2012   0.2026   0.2034   0.4104   0.4178   0.8335
     0.8565   0.8574   0.8592   0.8602   0.8610   0.8616   0.8626   1.8096
     1.8103   1.8108   1.8130   1.8337   1.8676   1.8685   1.8699   1.8713
[...]
     atom   77 type  1   force =   0.00000000E+00  0.00000000E+00  0.00000000E+00
     atom   78 type  1   force =   0.00000000E+00  0.00000000E+00  0.00000000E+00
     atom   79 type  1   force =   0.00000000E+00  0.00000000E+00  0.00000000E+00
     atom   80 type  1   force =   0.00000000E+00  0.00000000E+00  0.00000000E+00
     atom   81 type  1   force =   0.00000000E+00  0.00000000E+00  0.00000000E+00
     atom   82 type  1   force =   0.00000000E+00  0.00000000E+00  0.00000000E+00
     atom   83 type  1   force =   0.00000000E+00  0.00000000E+00  0.00000000E+00
     atom   84 type  1   force =   0.00000000E+00  0.00000000E+00  0.00000000E+00
     atom   85 type  1   force =   0.00000000E+00  0.00000000E+00  0.00000000E+00
     atom   86 type  1   force =   0.00000000E+00  0.00000000E+00  0.00000000E+00
     atom   87 type  1   force =   0.00000000E+00  0.00000000E+00  0.00000000E+00
     atom   88 type  1   force =   0.00000000E+00  0.00000000E+00  0.00000000E+00
     atom   89 type  1   force =   0.00000000E+00  0.00000000E+00  0.00000000E+00
     atom   90 type  1   force =   0.00000000E+00  0.00000000E+00  0.00000000E+00
     atom   91 type  1   force =   0.00000000E+00  0.00000000E+00  0.00000000E+00
     atom   92 type  1   force =   0.00000000E+00  0.00000000E+00  0.00000000E+00
     atom   93 type  1   force =   0.00000000E+00  0.00000000E+00  0.00000000E+00
     atom   94 type  1   force =   0.00000000E+00  0.00000000E+00  0.00000000E+00
     atom   95 type  1   force =   0.00000000E+00  0.00000000E+00  0.00000000E+00
     atom   96 type  1   force =   0.00000000E+00  0.00000000E+00  0.00000000E+00
     atom   97 type  1   force =   0.00000000E+00  0.00000000E+00  0.00000000E+00
     atom   98 type  1   force =   0.00000000E+00  0.00000000E+00  0.00000000E+00
     atom   99 type  1   force =   0.00000000E+00  0.00000000E+00  0.00000000E+00
     atom  100 type  1   force =   0.00000000E+00  0.00000000E+00  0.00000000E+00
     atom  101 type  1   force =   0.00000000E+00  0.00000000E+00  0.00000000E+00
     atom  102 type  1   force =   0.00000000E+00  0.00000000E+00  0.00000000E+00
     atom  103 type  1   force =   0.00000000E+00  0.00000000E+00  0.00000000E+00
     atom  104 type  1   force =   0.00000000E+00  0.00000000E+00  0.00000000E+00
     atom  105 type  1   force =   0.00000000E+00  0.00000000E+00  0.00000000E+00
     atom  106 type  1   force =   0.00000000E+00  0.00000000E+00  0.00000000E+00
     atom  107 type  1   force =   0.00000000E+00  0.00000000E+00  0.00000000E+00
     atom  108 type  1   force =   0.00000000E+00  0.00000000E+00  0.00000000E+00
     atom  109 type  1   force =   0.00000000E+00  0.00000000E+00  0.00000000E+00
     atom  110 type  1   force =   0.00000000E+00  0.00000000E+00  0.00000000E+00
     atom  111 type  1   force =   0.00000000E+00  0.00000000E+00  0.00000000E+00
     atom  112 type  1   force =   0.00000000E+00  0.00000000E+00  0.00000000E+00
     atom  113 type  1   force =   0.00000000E+00  0.00000000E+00  0.00000000E+00
     atom  114 type  1   force =   0.00000000E+00  0.00000000E+00  0.00000000E+00
     atom  115 type  1   force =   0.00000000E+00  0.00000000E+00  0.00000000E+00
     atom  116 type  1   force =   0.00000000E+00  0.00000000E+00  0.00000000E+00
     atom  117 type  1   force =   0.00000000E+00  0.00000000E+00  0.00000000E+00
     atom  118 type  1   force =   0.00000000E+00  0.00000000E+00  0.00000000E+00
     atom  119 type  1   force =   0.00000000E+00  0.00000000E+00  0.00000000E+00
     atom  120 type  1   force =   0.00000000E+00  0.00000000E+00  0.00000000E+00
     atom  121 type  1   force =   0.00000000E+00  0.00000000E+00  0.00000000E+00
     atom  122 type  1   force =   0.00000000E+00  0.00000000E+00  0.00000000E+00
     atom  123 type  1   force =   0.00000000E+00  0.00000000E+00  0.00000000E+00
     atom  124 type  1   force =   0.00000000E+00  0.00000000E+00  0.00000000E+00
     atom  125 type  1   force =   0.00000000E+00  0.00000000E+00  0.00000000E+00
     atom  126 type  1   force =   0.00000000E+00  0.00000000E+00  0.00000000E+00
     atom  127 type  1   force =   0.00000000E+00  0.00000000E+00  0.00000000E+00
     atom  128 type  1   force =   0.00000000E+00  0.00000000E+00  0.00000000E+00
     The SCF correction term to forces
     atom    1 type  2   force =   0.72821935E-06  0.33475265E-06 -0.52862481E-06
     atom    2 type  1   force =  -0.30100753E-05 -0.32706381E-05 -0.31840793E-05
     atom    3 type  1   force =  -0.19663315E-05 -0.23085983E-05  0.47501588E-06
     atom    4 type  1   force =  -0.54956417E-06 -0.84559654E-06 -0.47638970E-06
     atom    5 type  1   force =   0.38441933E-07 -0.24215437E-06  0.28093433E-06
     atom    6 type  1   force =   0.62231609E-06  0.50384840E-06 -0.56833298E-06
     atom    7 type  1   force =   0.21195141E-05  0.20135009E-05  0.38062407E-06
     atom    8 type  1   force =   0.33363273E-05  0.32242011E-05 -0.32778041E-05
     atom    9 type  1   force =  -0.19409960E-05  0.62892162E-06 -0.20430274E-05
     atom   10 type  1   force =  -0.56475318E-06 -0.53309061E-06 -0.47126752E-06
     atom   11 type  1   force =  -0.22938518E-06 -0.40415243E-06 -0.82433051E-07
     atom   12 type  1   force =   0.46415078E-07 -0.36296596E-06  0.79979560E-07
     atom   13 type  1   force =   0.92627544E-07  0.54147415E-07 -0.51498865E-07
     atom   14 type  1   force =   0.52694814E-06  0.57916572E-06 -0.53315171E-06
     atom   15 type  1   force =  -0.37205512E-06  0.21309850E-05 -0.20088966E-05
     atom   16 type  1   force =  -0.18360579E-06  0.51949030E-06 -0.16900522E-05
     atom   17 type  1   force =   0.55490594E-08  0.51131115E-06 -0.38414929E-07
     atom   18 type  1   force =   0.47201965E-06 -0.45567113E-06  0.48915211E-06
     atom   19 type  1   force =   0.27621207E-07 -0.29712933E-06  0.24076965E-06
     atom   20 type  1   force =   0.39893392E-06 -0.77397832E-06  0.52224943E-06
     atom   21 type  1   force =  -0.38965419E-06 -0.11621630E-06  0.76468289E-07
     atom   22 type  1   force =   0.17586489E-06  0.12566169E-06  0.55080600E-07
     atom   23 type  1   force =  -0.12270466E-06  0.34485466E-06 -0.35409256E-06
     atom   24 type  1   force =   0.33793723E-07  0.66886481E-07 -0.17505036E-07
     atom   25 type  1   force =   0.20837303E-05  0.65451380E-06  0.18173239E-05
     atom   26 type  1   force =   0.32755798E-05 -0.32771395E-05  0.29960847E-05
     atom   27 type  1   force =  -0.45976288E-06 -0.22212337E-05  0.19628998E-05
     atom   28 type  1   force =  -0.21792756E-06 -0.19627445E-05  0.21897798E-06
     atom   29 type  1   force =  -0.11871554E-06 -0.53981623E-06  0.72602245E-07
     atom   30 type  1   force =   0.37407088E-07  0.43136816E-07 -0.31057847E-06
     atom   31 type  1   force =   0.35601525E-06  0.26413157E-06 -0.78012543E-08
     atom   32 type  1   force =   0.17474968E-05  0.33995363E-06  0.53832005E-07
     atom   33 type  1   force =   0.76107425E-06 -0.22561629E-05 -0.20334083E-05
     atom   34 type  1   force =  -0.31430155E-06 -0.85593703E-06 -0.46555256E-06
     atom   35 type  1   force =   0.13314272E-07 -0.55769453E-06 -0.50902833E-07
     atom   36 type  1   force =  -0.11045352E-07 -0.63030360E-07  0.95011068E-07
     atom   37 type  1   force =   0.40297157E-06  0.23188043E-07  0.51225923E-07
     atom   38 type  1   force =   0.61956354E-06  0.53485891E-06 -0.41441325E-06
     atom   39 type  1   force =   0.21383288E-05 -0.54049263E-06 -0.19142809E-05
     atom   40 type  1   force =   0.41905911E-06 -0.30738269E-06 -0.15322199E-05
     atom   41 type  1   force =   0.80417547E-07 -0.31583213E-06 -0.32719842E-06
     atom   42 type  1   force =   0.56860704E-07 -0.32439570E-06 -0.15100583E-07
     atom   43 type  1   force =   0.55825658E-07 -0.21679645E-06  0.11440230E-06
     atom   44 type  1   force =   0.54380003E-07 -0.16161395E-07  0.32242178E-07
     atom   45 type  1   force =   0.58822233E-07  0.13959382E-06 -0.15649150E-06
     atom   46 type  1   force =   0.52002502E-07  0.24659752E-06  0.19847374E-06
     atom   47 type  1   force =   0.14182173E-06  0.37774698E-07 -0.79145461E-06
     atom   48 type  1   force =   0.20638694E-07 -0.32531707E-07  0.41159144E-07
     atom   49 type  1   force =   0.40081741E-06 -0.16730982E-06 -0.23442147E-06
     atom   50 type  1   force =   0.53360568E-06 -0.71623063E-06  0.17572182E-06
     atom   51 type  1   force =   0.51863029E-07 -0.37571709E-06 -0.11122493E-07
     atom   52 type  1   force =  -0.27466331E-07  0.23754759E-06  0.30741929E-08
     atom   53 type  1   force =   0.95679451E-08  0.32772743E-06  0.18784078E-06
     atom   54 type  1   force =  -0.28046275E-06  0.33746266E-06  0.22769390E-07
     atom   55 type  1   force =  -0.19815276E-06 -0.15682206E-08 -0.26828665E-07
     atom   56 type  1   force =  -0.57295301E-07 -0.53598334E-07 -0.34121047E-06
     atom   57 type  1   force =   0.21507075E-05 -0.20975323E-05 -0.79926527E-06
     atom   58 type  1   force =   0.37493752E-06 -0.18365444E-05 -0.33523316E-06
     atom   59 type  1   force =  -0.48533462E-08 -0.91967447E-06 -0.17515678E-06
     atom   60 type  1   force =  -0.10195267E-06  0.11886847E-06 -0.23435652E-07
     atom   61 type  1   force =  -0.29562879E-06  0.23132309E-06 -0.25638050E-06
     atom   62 type  1   force =  -0.73378461E-07  0.78178131E-07 -0.12371839E-06
     atom   63 type  1   force =   0.91468248E-06  0.91714145E-08 -0.26141038E-06
     atom   64 type  1   force =   0.17841390E-05 -0.35791358E-06 -0.34127976E-06
     atom   65 type  1   force =   0.37942332E-06 -0.10720658E-06  0.13065734E-06
     atom   66 type  1   force =  -0.53409880E-06  0.64324325E-06  0.71621197E-06
     atom   67 type  1   force =  -0.93189982E-07  0.12398404E-06  0.44019347E-06
     atom   68 type  1   force =  -0.68691505E-06  0.63086931E-06  0.71512484E-06
     atom   69 type  1   force =   0.99859204E-07 -0.30303670E-06  0.16074650E-06
     atom   70 type  1   force =   0.13087139E-06  0.24420684E-06  0.31306505E-06
     atom   71 type  1   force =   0.16128357E-06 -0.26832655E-06 -0.12744496E-06
     atom   72 type  1   force =  -0.22598969E-06 -0.18317913E-06  0.29580254E-06
     atom   73 type  1   force =  -0.44478647E-07  0.24174775E-06 -0.52927866E-07
     atom   74 type  1   force =  -0.72990498E-06  0.68986533E-06  0.39079236E-06
     atom   75 type  1   force =  -0.20678496E-06  0.19138263E-06  0.47108181E-07
     atom   76 type  1   force =   0.18796398E-06  0.42841904E-06  0.24605248E-06
     atom   77 type  1   force =   0.21747848E-06  0.20039108E-06  0.37580284E-06
     atom   78 type  1   force =  -0.28632228E-07 -0.11870987E-06  0.25298400E-06
     atom   79 type  1   force =  -0.19505552E-06 -0.37693791E-06  0.19411800E-06
     atom   80 type  1   force =  -0.27940207E-06 -0.16789580E-06 -0.80176487E-07
     atom   81 type  1   force =   0.12733075E-06 -0.10031956E-07 -0.58145307E-06
     atom   82 type  1   force =   0.13550621E-06  0.37734928E-06  0.15516503E-06
     atom   83 type  1   force =   0.28141822E-06  0.56065291E-06  0.67955942E-07
     atom   84 type  1   force =  -0.90602573E-07  0.52502536E-06 -0.64531014E-07
     atom   85 type  1   force =  -0.33571992E-06  0.95246391E-07  0.28446126E-07
     atom   86 type  1   force =  -0.60731271E-06 -0.17400465E-06 -0.15884598E-06
     atom   87 type  1   force =  -0.37479865E-06 -0.32932567E-06 -0.12424421E-06
     atom   88 type  1   force =  -0.16231576E-06 -0.39256553E-07  0.15086966E-06
     atom   89 type  1   force =   0.17876102E-06 -0.29424885E-06 -0.12954484E-06
     atom   90 type  1   force =  -0.21057594E-06  0.33020497E-06  0.68699900E-07
     atom   91 type  1   force =  -0.29838741E-06  0.50394721E-06 -0.23407726E-06
     atom   92 type  1   force =  -0.38279805E-06  0.23967098E-06  0.77924297E-07
     atom   93 type  1   force =  -0.44094364E-06  0.14426263E-06 -0.95873222E-07
     atom   94 type  1   force =  -0.11548228E-06  0.20219709E-06  0.20186422E-06
     atom   95 type  1   force =   0.41162986E-06 -0.24636892E-06  0.33065826E-07
     atom   96 type  1   force =  -0.94441110E-07  0.63508722E-07  0.42974353E-06
     atom   97 type  1   force =   0.54109321E-06  0.22538769E-05  0.20665277E-05
     atom   98 type  1   force =  -0.31163787E-05  0.33177188E-05  0.31487299E-05
     atom   99 type  1   force =  -0.21372471E-05 -0.35594940E-06  0.22128808E-05
     atom  100 type  1   force =  -0.16318360E-05 -0.37645029E-06  0.35321686E-06
     atom  101 type  1   force =  -0.37712491E-06 -0.27150434E-06  0.26612935E-06
     atom  102 type  1   force =   0.22101805E-06 -0.34859762E-06 -0.21103177E-06
     atom  103 type  1   force =   0.13918938E-06  0.21814646E-06  0.21465422E-06
     atom  104 type  1   force =   0.30735376E-06  0.16158453E-05  0.18717896E-06
     atom  105 type  1   force =  -0.21187429E-05  0.24025812E-05 -0.52401172E-06
     atom  106 type  1   force =  -0.16610486E-05  0.60469749E-06 -0.35114772E-06
     atom  107 type  1   force =  -0.78705577E-06  0.20080538E-06  0.11526192E-06
     atom  108 type  1   force =   0.28504748E-06 -0.25428090E-06 -0.71775272E-07
     atom  109 type  1   force =   0.14091500E-06 -0.49977241E-06 -0.11352525E-07
     atom  110 type  1   force =  -0.49599902E-09 -0.46152422E-06 -0.18919039E-06
     atom  111 type  1   force =  -0.16330195E-06  0.79697210E-06 -0.36638981E-07
     atom  112 type  1   force =  -0.34657816E-06  0.18389480E-05 -0.36916465E-06
     atom  113 type  1   force =  -0.36511689E-06  0.54876090E-06 -0.11033013E-06
     atom  114 type  1   force =   0.17824091E-06  0.19821593E-06 -0.13088173E-06
     atom  115 type  1   force =   0.17920643E-06  0.15815771E-06 -0.28078898E-06
     atom  116 type  1   force =  -0.93924383E-07 -0.21879490E-06 -0.25266370E-06
     atom  117 type  1   force =  -0.27707928E-06 -0.43420660E-06 -0.11613116E-06
     atom  118 type  1   force =   0.50392818E-07 -0.24307982E-06 -0.29288681E-07
     atom  119 type  1   force =  -0.30293563E-06  0.46986868E-06  0.10969581E-07
     atom  120 type  1   force =   0.12221919E-06  0.23746539E-07  0.20298675E-06
     atom  121 type  1   force =   0.13252617E-06  0.45845163E-06  0.36989198E-06
     atom  122 type  1   force =   0.33325306E-06  0.47593279E-06  0.16050003E-05
     atom  123 type  1   force =  -0.20999043E-06  0.16206009E-06  0.90373153E-06
     atom  124 type  1   force =  -0.37074121E-06 -0.41174312E-06  0.17615381E-05
     atom  125 type  1   force =  -0.26383433E-06 -0.20398550E-06  0.61124555E-06
     atom  126 type  1   force =   0.20061445E-06 -0.54374887E-07 -0.95984978E-08
     atom  127 type  1   force =  -0.52614181E-07 -0.30541318E-07  0.20451119E-06
     atom  128 type  1   force =  -0.60155398E-07 -0.10617919E-06 -0.53333303E-07

     Total force =     0.039081     Total SCF correction =     0.000017


     entering subroutine stress ...

          total   stress  (Ry/bohr**3)                   (kbar)     P=    1.24
   0.0000084124   0.0000007039   0.0000004568          1.24      0.10      0.07
   0.0000007039   0.0000084076   0.0000000685          0.10      1.24      0.01
   0.0000004568   0.0000000685   0.0000084126          0.07      0.01      1.24

     kinetic stress (kbar)   2262.88     -0.07     -0.05
                               -0.07   2262.88     -0.00
                               -0.05     -0.00   2262.88

     local   stress (kbar)   -477.68     -1.10     -0.76
                               -1.10   -477.56     -0.13
                               -0.76     -0.13   -477.40

     nonloc. stress (kbar)   1951.28      0.10      0.06
                                0.10   1951.28      0.01
                                0.06      0.01   1951.28

     hartree stress (kbar)    534.23      0.22      0.06
                                0.22    534.19      0.01
                                0.06      0.01    534.11

     exc-cor stress (kbar)   1159.19      0.00      0.00
                                0.00   1159.19      0.00
                                0.00      0.00   1159.19

     corecor stress (kbar)  -2232.05     -0.01     -0.01
                               -0.01  -2232.05     -0.00
                               -0.01     -0.00  -2232.05

     ewald   stress (kbar)  -3196.60      0.96      0.77
                                0.96  -3196.68      0.13
                                0.77      0.13  -3196.77

     hubbard stress (kbar)      0.00      0.00      0.00
                                0.00      0.00      0.00
                                0.00      0.00      0.00

     london  stress (kbar)      0.00      0.00      0.00
                                0.00      0.00      0.00
                                0.00      0.00      0.00

     XDM     stress (kbar)      0.00      0.00      0.00
                                0.00      0.00      0.00
                                0.00      0.00      0.00

     dft-nl  stress (kbar)      0.00      0.00      0.00
                                0.00      0.00      0.00
                                0.00      0.00      0.00



     Writing output data file Si_diamond.scf.in.super.444.Ge.022.save

     init_run     :    561.48s CPU    542.09s WALL (       1 calls)
     electrons    :  17186.56s CPU  16771.23s WALL (       1 calls)
     forces       :    405.90s CPU    348.05s WALL (       1 calls)
     stress       :   1625.56s CPU   1633.79s WALL (       1 calls)

     Called by init_run:
     wfcinit      :    529.25s CPU    506.71s WALL (       1 calls)
     potinit      :      0.90s CPU      1.04s WALL (       1 calls)

     Called by electrons:
     c_bands      :  14211.50s CPU  13709.30s WALL (      15 calls)
     sum_band     :   2426.92s CPU   2473.10s WALL (      15 calls)
     v_of_rho     :     10.92s CPU     12.62s WALL (      15 calls)
     v_h          :      1.13s CPU      1.40s WALL (      15 calls)
     v_xc         :     11.42s CPU     12.93s WALL (      17 calls)
     newd         :    543.89s CPU    582.42s WALL (      15 calls)
     mix_rho      :     20.12s CPU     23.11s WALL (      15 calls)

     Called by c_bands:
     init_us_2    :     49.76s CPU     53.04s WALL (     264 calls)
     cegterg      :  14005.93s CPU  13482.33s WALL (     120 calls)

     Called by sum_band:
     sum_band:bec :      7.07s CPU      7.28s WALL (     120 calls)
     addusdens    :    367.31s CPU    390.42s WALL (      15 calls)

     Called by *egterg:
     h_psi        :   8747.05s CPU   8665.31s WALL (     536 calls)
     s_psi        :   1799.60s CPU   1295.72s WALL (     536 calls)
     g_psi        :      3.20s CPU      3.46s WALL (     408 calls)
     cdiaghg      :   1839.26s CPU   2162.59s WALL (     520 calls)
     cegterg:over :    943.98s CPU    815.26s WALL (     408 calls)
     cegterg:upda :    411.47s CPU    314.95s WALL (     408 calls)
     cegterg:last :    260.98s CPU    195.63s WALL (     125 calls)

     Called by h_psi:
     h_psi:vloc   :   4926.84s CPU   5820.70s WALL (     536 calls)
     h_psi:vnl    :   3812.07s CPU   2835.95s WALL (     536 calls)
     add_vuspsi   :   1789.52s CPU   1292.24s WALL (     536 calls)

     General routines
     calbec       :   3263.44s CPU   2565.56s WALL (     672 calls)
     fft          :    118.12s CPU    126.10s WALL (     265 calls)
     ffts         :     13.36s CPU     15.20s WALL (     367 calls)
     fftw         :   5643.44s CPU   6719.20s WALL (  227660 calls)
     interpolate  :      2.88s CPU      3.58s WALL (      30 calls)

     Parallel routines
     fft_scatter  :   4330.76s CPU   5137.13s WALL (  228292 calls)

     PWSCF        :     5h30m CPU        5h22m WALL


   This run was terminated on:  20:38:24  18Jan2017            

=------------------------------------------------------------------------------=
   JOB DONE.
=------------------------------------------------------------------------------=
