
     Program PWSCF v.5.1 starts on 27Oct2017 at 11:13:31 

     This program is part of the open-source Quantum ESPRESSO suite
     for quantum simulation of materials; please cite
         "P. Giannozzi et al., J. Phys.:Condens. Matter 21 395502 (2009);
          URL http://www.quantum-espresso.org", 
     in publications or presentations arising from this work. More details at
     http://www.quantum-espresso.org/quote

     Parallel version (MPI), running on     4 processors
     R & G space division:  proc/nbgrp/npool/nimage =       4
     Reading input from /tmp/Si_diamond.scf.in.sx.14954/Si_diamond.scf.in.sx.t
Warning: card &IONS ignored
Warning: card   ION_DYNAMICS='BFGS', ignored
Warning: card / ignored
Warning: card &CELL ignored
Warning: card  CELL_DYNAMICS = 'BFGS' ignored
Warning: card / ignored
     Message from routine read_cards :
     DEPRECATED: no units specified in CELL_PARAMETERS card

     Current dimensions of program PWSCF are:
     Max number of different atomic species (ntypx) = 10
     Max number of k-points (npk) =  40000
     Max angular momentum in pseudopotentials (lmaxx) =  3
 kfg - two_fermi_energies  F

     Subspace diagonalization in iterative solution of the eigenvalue problem:
     a serial algorithm will be used


     Parallelization info
     --------------------
     sticks:   dense  smooth     PW     G-vecs:    dense   smooth      PW
     Min         185     127     40                 3274     1923     344
     Max         186     128     41                 3275     1930     346
     Sum         741     511    163                13099     7703    1379



     bravais-lattice index     =            0
     lattice parameter (alat)  =     7.257802992  a.u.
     unit-cell volume          =     273.0373 (a.u.)^3
     number of atoms/cell      =            2
     number of atomic types    =            1
     number of electrons       =         8.00
     number of Kohn-Sham states=            8
     kinetic-energy cutoff     =      35.0000  Ry
     charge density cutoff     =     200.0000  Ry
     convergence threshold     =      1.0E-09
     mixing beta               =       0.3000
     number of iterations used =            8  local-TF  mixing
     Exchange-correlation      = SLA  PW   PSX  PSC ( 1  4 10  8 0)
     A smooth kinetic-energy cutoff is imposed at      34.5000 Ry
     height of the smooth step-function =             800.0000 Ry
     width of the smooth step-function  =               1.0000 Ry


     celldm(1)=   7.257803  celldm(2)=   0.000000  celldm(3)=   0.000000
     celldm(4)=   0.000000  celldm(5)=   0.000000  celldm(6)=   0.000000

     crystal axes: (cart. coord. in units of alat)
               a(1) = (   0.000000000000   0.707106781187   0.707106781187 )  
               a(2) = (   0.714177848998   0.000000000000   0.707106781187 )  
               a(3) = (   0.714177848998   0.707106781187   0.000000000000 )  

     reciprocal axes: (cart. coord. in units 2 pi/alat)
               b(1) = ( -0.700106  0.707107  0.707107 )  
               b(2) = (  0.700106 -0.707107  0.707107 )  
               b(3) = (  0.700106  0.707107 -0.707107 )  


     PseudoPot. # 1 for Si read from file:
     /users/kfg/psuedo/gbrv_1.5/si.pbesol.UPF
     MD5 check sum: ef58ba74faed4df802eb8a9742fc00a8
     Pseudo is Ultrasoft + core correction, Zval =  4.0
     Generated by new atomic code, or converted to UPF format
     Using radial grid of  899 points,  6 beta functions with: 
                l(1) =   0
                l(2) =   0
                l(3) =   1
                l(4) =   1
                l(5) =   2
                l(6) =   2
     Q(r) pseudized with  8 coefficients,  rinner =    0.900   0.900   0.900
                                                       0.900   0.900

     atomic species   valence    mass     pseudopotential
        Si             4.00    28.08550     Si( 1.00)

     16 Sym. Ops., with inversion, found ( 8 have fractional translation)


                                    s                        frac. trans.

      isym =  1     identity                                     

 cryst.   s( 1) = (     1          0          0      )
                  (     0          1          0      )
                  (     0          0          1      )

 cart.    s( 1) = (  1.0000000  0.0000000  0.0000000 )
                  (  0.0000000  1.0000000  0.0000000 )
                  (  0.0000000  0.0000000  1.0000000 )


      isym =  2     180 deg rotation - cart. axis [0,0,1]        

 cryst.   s( 2) = (     0          1         -1      )
                  (     1          0         -1      )
                  (     0          0         -1      )

 cart.    s( 2) = ( -1.0000000  0.0000000  0.0000000 )
                  (  0.0000000 -1.0000000  0.0000000 )
                  (  0.0000000  0.0000000  1.0000000 )


      isym =  3     180 deg rotation - cart. axis [0,1,0]        

 cryst.   s( 3) = (     0         -1          1      )
                  (     0         -1          0      )
                  (     1         -1          0      )

 cart.    s( 3) = ( -1.0000000  0.0000000  0.0000000 )
                  (  0.0000000  1.0000000  0.0000000 )
                  (  0.0000000  0.0000000 -1.0000000 )


      isym =  4     180 deg rotation - cart. axis [1,0,0]        

 cryst.   s( 4) = (    -1          0          0      )
                  (    -1          0          1      )
                  (    -1          1          0      )

 cart.    s( 4) = (  1.0000000  0.0000000  0.0000000 )
                  (  0.0000000 -1.0000000  0.0000000 )
                  (  0.0000000  0.0000000 -1.0000000 )


      isym =  5     180 deg rotation - cart. axis [0,1,1]        

 cryst.   s( 5) = (     1          0          0      )    f =( -0.2500000 )
                  (     1         -1          0      )       ( -0.2500000 )
                  (     1          0         -1      )       ( -0.2500000 )

 cart.    s( 5) = ( -1.0000000  0.0000000  0.0000000 )    f =( -0.3570889 )
                  (  0.0000000  0.0000000  1.0000000 )       ( -0.3535534 )
                  (  0.0000000  1.0000000  0.0000000 )       ( -0.3535534 )


      isym =  6     180 deg rotation - cart. axis [0,1,-1]       

 cryst.   s( 6) = (    -1          0          0      )    f =( -0.2500000 )
                  (     0          0         -1      )       ( -0.2500000 )
                  (     0         -1          0      )       ( -0.2500000 )

 cart.    s( 6) = ( -1.0000000  0.0000000  0.0000000 )    f =( -0.3570889 )
                  (  0.0000000  0.0000000 -1.0000000 )       ( -0.3535534 )
                  (  0.0000000 -1.0000000  0.0000000 )       ( -0.3535534 )


      isym =  7      90 deg rotation - cart. axis [-1,0,0]       

 cryst.   s( 7) = (     0         -1          1      )    f =( -0.2500000 )
                  (     0          0          1      )       ( -0.2500000 )
                  (    -1          0          1      )       ( -0.2500000 )

 cart.    s( 7) = (  1.0000000  0.0000000  0.0000000 )    f =( -0.3570889 )
                  (  0.0000000  0.0000000  1.0000000 )       ( -0.3535534 )
                  (  0.0000000 -1.0000000  0.0000000 )       ( -0.3535534 )


      isym =  8      90 deg rotation - cart. axis [1,0,0]        

 cryst.   s( 8) = (     0          1         -1      )    f =( -0.2500000 )
                  (    -1          1          0      )       ( -0.2500000 )
                  (     0          1          0      )       ( -0.2500000 )

 cart.    s( 8) = (  1.0000000  0.0000000  0.0000000 )    f =( -0.3570889 )
                  (  0.0000000  0.0000000 -1.0000000 )       ( -0.3535534 )
                  (  0.0000000  1.0000000  0.0000000 )       ( -0.3535534 )


      isym =  9     inversion                                    

 cryst.   s( 9) = (    -1          0          0      )    f =( -0.2500000 )
                  (     0         -1          0      )       ( -0.2500000 )
                  (     0          0         -1      )       ( -0.2500000 )

 cart.    s( 9) = ( -1.0000000  0.0000000  0.0000000 )    f =( -0.3570889 )
                  (  0.0000000 -1.0000000  0.0000000 )       ( -0.3535534 )
                  (  0.0000000  0.0000000 -1.0000000 )       ( -0.3535534 )


      isym = 10     inv. 180 deg rotation - cart. axis [0,0,1]   

 cryst.   s(10) = (     0         -1          1      )    f =( -0.2500000 )
                  (    -1          0          1      )       ( -0.2500000 )
                  (     0          0          1      )       ( -0.2500000 )

 cart.    s(10) = (  1.0000000  0.0000000  0.0000000 )    f =( -0.3570889 )
                  (  0.0000000  1.0000000  0.0000000 )       ( -0.3535534 )
                  (  0.0000000  0.0000000 -1.0000000 )       ( -0.3535534 )


      isym = 11     inv. 180 deg rotation - cart. axis [0,1,0]   

 cryst.   s(11) = (     0          1         -1      )    f =( -0.2500000 )
                  (     0          1          0      )       ( -0.2500000 )
                  (    -1          1          0      )       ( -0.2500000 )

 cart.    s(11) = (  1.0000000  0.0000000  0.0000000 )    f =( -0.3570889 )
                  (  0.0000000 -1.0000000  0.0000000 )       ( -0.3535534 )
                  (  0.0000000  0.0000000  1.0000000 )       ( -0.3535534 )


      isym = 12     inv. 180 deg rotation - cart. axis [1,0,0]   

 cryst.   s(12) = (     1          0          0      )    f =( -0.2500000 )
                  (     1          0         -1      )       ( -0.2500000 )
                  (     1         -1          0      )       ( -0.2500000 )

 cart.    s(12) = ( -1.0000000  0.0000000  0.0000000 )    f =( -0.3570889 )
                  (  0.0000000  1.0000000  0.0000000 )       ( -0.3535534 )
                  (  0.0000000  0.0000000  1.0000000 )       ( -0.3535534 )


      isym = 13     inv. 180 deg rotation - cart. axis [0,1,1]   

 cryst.   s(13) = (    -1          0          0      )
                  (    -1          1          0      )
                  (    -1          0          1      )

 cart.    s(13) = (  1.0000000  0.0000000  0.0000000 )
                  (  0.0000000  0.0000000 -1.0000000 )
                  (  0.0000000 -1.0000000  0.0000000 )


      isym = 14     inv. 180 deg rotation - cart. axis [0,1,-1]  

 cryst.   s(14) = (     1          0          0      )
                  (     0          0          1      )
                  (     0          1          0      )

 cart.    s(14) = (  1.0000000  0.0000000  0.0000000 )
                  (  0.0000000  0.0000000  1.0000000 )
                  (  0.0000000  1.0000000  0.0000000 )


      isym = 15     inv.  90 deg rotation - cart. axis [-1,0,0]  

 cryst.   s(15) = (     0          1         -1      )
                  (     0          0         -1      )
                  (     1          0         -1      )

 cart.    s(15) = ( -1.0000000  0.0000000  0.0000000 )
                  (  0.0000000  0.0000000 -1.0000000 )
                  (  0.0000000  1.0000000  0.0000000 )


      isym = 16     inv.  90 deg rotation - cart. axis [1,0,0]   

 cryst.   s(16) = (     0         -1          1      )
                  (     1         -1          0      )
                  (     0         -1          0      )

 cart.    s(16) = ( -1.0000000  0.0000000  0.0000000 )
                  (  0.0000000  0.0000000  1.0000000 )
                  (  0.0000000 -1.0000000  0.0000000 )


     point group D_4h(4/mmm)
     there are 10 classes
     the character table:

       E     2C4   C2    2C2'  2C2'' i     2S4   s_h   2s_v  2s_d 
A_1g   1.00  1.00  1.00  1.00  1.00  1.00  1.00  1.00  1.00  1.00
A_2g   1.00  1.00  1.00 -1.00 -1.00  1.00  1.00  1.00 -1.00 -1.00
B_1g   1.00 -1.00  1.00  1.00 -1.00  1.00 -1.00  1.00  1.00 -1.00
B_2g   1.00 -1.00  1.00 -1.00  1.00  1.00 -1.00  1.00 -1.00  1.00
E_g    2.00  0.00 -2.00  0.00  0.00  2.00  0.00 -2.00  0.00  0.00
A_1u   1.00  1.00  1.00  1.00  1.00 -1.00 -1.00 -1.00 -1.00 -1.00
A_2u   1.00  1.00  1.00 -1.00 -1.00 -1.00 -1.00 -1.00  1.00  1.00
B_1u   1.00 -1.00  1.00  1.00 -1.00 -1.00  1.00 -1.00 -1.00  1.00
B_2u   1.00 -1.00  1.00 -1.00  1.00 -1.00  1.00 -1.00  1.00 -1.00
E_u    2.00  0.00 -2.00  0.00  0.00 -2.00  0.00  2.00  0.00  0.00

     the symmetry operations in each class:
     E        1
     2C2'     2    3
     C2       4
     2C2''    5    6
     2C4      7    8
     i        9
     2s_v    10   11
     s_h     12
     2s_d    13   14
     2S4     15   16

   Cartesian axes

     site n.     atom                  positions (alat units)
         1           Si  tau(   1) = (    0.00000000000    0.00000000000    0.00000000000  )
         2           Si  tau(   2) = (    0.35708892450    0.35355339059    0.35355339059  )

   Crystallographic axes

     site n.     atom                  positions (cryst. coord.)
         1           Si  tau(   1) = (    0.00000000000    0.00000000000    0.00000000000  )
         2           Si  tau(   2) = (    0.25000000000    0.25000000000    0.25000000000  )

     number of k points=    59  gaussian smearing, width (Ry)=  0.0150
                       cart. coord. in units 2pi/alat
        k(    1) = (   0.0000000   0.0000000   0.0000000), wk =   0.0039063
        k(    2) = (   0.0875132   0.0883883  -0.0883883), wk =   0.0312500
        k(    3) = (   0.1750264   0.1767767  -0.1767767), wk =   0.0312500
        k(    4) = (   0.2625396   0.2651650  -0.2651650), wk =   0.0312500
        k(    5) = (  -0.3500529  -0.3535534   0.3535534), wk =   0.0156250
        k(    6) = (   0.1750264   0.0000000   0.0000000), wk =   0.0078125
        k(    7) = (   0.2625396   0.0883883  -0.0883883), wk =   0.0312500
        k(    8) = (   0.3500529   0.1767767  -0.1767767), wk =   0.0312500
        k(    9) = (  -0.2625396  -0.4419417   0.4419417), wk =   0.0312500
        k(   10) = (  -0.1750264  -0.3535534   0.3535534), wk =   0.0312500
        k(   11) = (  -0.0875132  -0.2651650   0.2651650), wk =   0.0312500
        k(   12) = (   0.0000000  -0.1767767   0.1767767), wk =   0.0156250
        k(   13) = (   0.3500529   0.0000000   0.0000000), wk =   0.0078125
        k(   14) = (   0.4375661   0.0883883  -0.0883883), wk =   0.0312500
        k(   15) = (  -0.1750264  -0.5303301   0.5303301), wk =   0.0312500
        k(   16) = (  -0.0875132  -0.4419417   0.4419417), wk =   0.0312500
        k(   17) = (   0.0000000  -0.3535534   0.3535534), wk =   0.0156250
        k(   18) = (   0.5250793   0.0000000   0.0000000), wk =   0.0078125
        k(   19) = (  -0.0875132  -0.6187184   0.6187184), wk =   0.0312500
        k(   20) = (   0.0000000  -0.5303301   0.5303301), wk =   0.0156250
        k(   21) = (  -0.7001057   0.0000000   0.0000000), wk =   0.0039063
        k(   22) = (   0.0000000   0.1767767   0.0000000), wk =   0.0156250
        k(   23) = (   0.0875132   0.2651650  -0.0883883), wk =   0.0625000
        k(   24) = (   0.1750264   0.3535534  -0.1767767), wk =   0.0625000
        k(   25) = (  -0.4375661  -0.2651650   0.4419417), wk =   0.0625000
        k(   26) = (  -0.3500529  -0.1767767   0.3535534), wk =   0.0625000
        k(   27) = (  -0.2625396  -0.0883883   0.2651650), wk =   0.0625000
        k(   28) = (  -0.1750264   0.0000000   0.1767767), wk =   0.0312500
        k(   29) = (   0.3500529   0.1767767   0.0000000), wk =   0.0312500
        k(   30) = (  -0.2625396  -0.4419417   0.6187184), wk =   0.0625000
        k(   31) = (  -0.1750264  -0.3535534   0.5303301), wk =   0.0625000
        k(   32) = (  -0.0875132  -0.2651650   0.4419417), wk =   0.0625000
        k(   33) = (   0.0000000  -0.1767767   0.3535534), wk =   0.0312500
        k(   34) = (  -0.1750264  -0.5303301   0.7071068), wk =   0.0312500
        k(   35) = (  -0.0875132  -0.4419417   0.6187184), wk =   0.0625000
        k(   36) = (  -0.0000000  -0.3535534   0.5303301), wk =   0.0312500
        k(   37) = (  -0.7001057   0.1767767   0.0000000), wk =   0.0156250
        k(   38) = (   0.0000000   0.3535534   0.0000000), wk =   0.0156250
        k(   39) = (   0.0875132   0.4419417  -0.0883883), wk =   0.0625000
        k(   40) = (  -0.5250793  -0.1767767   0.5303301), wk =   0.0625000
        k(   41) = (  -0.4375661  -0.0883883   0.4419417), wk =   0.0625000
        k(   42) = (  -0.3500529   0.0000000   0.3535534), wk =   0.0312500
        k(   43) = (   0.1750264   0.3535534   0.0000000), wk =   0.0312500
        k(   44) = (  -0.4375661  -0.2651650   0.6187184), wk =   0.0625000
        k(   45) = (  -0.3500529  -0.1767767   0.5303301), wk =   0.0312500
        k(   46) = (  -0.1750264  -0.3535534   0.7071068), wk =   0.0312500
        k(   47) = (  -0.0875132  -0.2651650   0.6187184), wk =   0.0625000
        k(   48) = (  -0.0000000  -0.1767767   0.5303301), wk =   0.0312500
        k(   49) = (  -0.7001057   0.3535534   0.0000000), wk =   0.0156250
        k(   50) = (   0.0000000   0.5303301   0.0000000), wk =   0.0156250
        k(   51) = (  -0.6125925  -0.0883883   0.6187184), wk =   0.0625000
        k(   52) = (  -0.5250793   0.0000000   0.5303301), wk =   0.0312500
        k(   53) = (  -0.5250793  -0.1767767   0.7071068), wk =   0.0312500
        k(   54) = (  -0.4375661  -0.0883883   0.6187184), wk =   0.0625000
        k(   55) = (  -0.3500529   0.0000000   0.5303301), wk =   0.0312500
        k(   56) = (  -0.7001057   0.5303301   0.0000000), wk =   0.0156250
        k(   57) = (   0.0000000  -0.7071068   0.0000000), wk =   0.0078125
        k(   58) = (   0.1750264  -0.7071068   0.0000000), wk =   0.0156250
        k(   59) = (   0.3500529  -0.7071068   0.0000000), wk =   0.0078125

                       cryst. coord.
        k(    1) = (   0.0000000   0.0000000   0.0000000), wk =   0.0039063
        k(    2) = (   0.0000000  -0.0000000   0.1250000), wk =   0.0312500
        k(    3) = (   0.0000000  -0.0000000   0.2500000), wk =   0.0312500
        k(    4) = (   0.0000000  -0.0000000   0.3750000), wk =   0.0312500
        k(    5) = (   0.0000000   0.0000000  -0.5000000), wk =   0.0156250
        k(    6) = (   0.0000000   0.1250000   0.1250000), wk =   0.0078125
        k(    7) = (   0.0000000   0.1250000   0.2500000), wk =   0.0312500
        k(    8) = (   0.0000000   0.1250000   0.3750000), wk =   0.0312500
        k(    9) = (   0.0000000   0.1250000  -0.5000000), wk =   0.0312500
        k(   10) = (   0.0000000   0.1250000  -0.3750000), wk =   0.0312500
        k(   11) = (   0.0000000   0.1250000  -0.2500000), wk =   0.0312500
        k(   12) = (   0.0000000   0.1250000  -0.1250000), wk =   0.0156250
        k(   13) = (   0.0000000   0.2500000   0.2500000), wk =   0.0078125
        k(   14) = (   0.0000000   0.2500000   0.3750000), wk =   0.0312500
        k(   15) = (   0.0000000   0.2500000  -0.5000000), wk =   0.0312500
        k(   16) = (   0.0000000   0.2500000  -0.3750000), wk =   0.0312500
        k(   17) = (   0.0000000   0.2500000  -0.2500000), wk =   0.0156250
        k(   18) = (   0.0000000   0.3750000   0.3750000), wk =   0.0078125
        k(   19) = (   0.0000000   0.3750000  -0.5000000), wk =   0.0312500
        k(   20) = (   0.0000000   0.3750000  -0.3750000), wk =   0.0156250
        k(   21) = (   0.0000000  -0.5000000  -0.5000000), wk =   0.0039063
        k(   22) = (   0.1250000   0.0000000   0.1250000), wk =   0.0156250
        k(   23) = (   0.1250000  -0.0000000   0.2500000), wk =   0.0625000
        k(   24) = (   0.1250000  -0.0000000   0.3750000), wk =   0.0625000
        k(   25) = (   0.1250000   0.0000000  -0.5000000), wk =   0.0625000
        k(   26) = (   0.1250000   0.0000000  -0.3750000), wk =   0.0625000
        k(   27) = (   0.1250000   0.0000000  -0.2500000), wk =   0.0625000
        k(   28) = (   0.1250000   0.0000000  -0.1250000), wk =   0.0312500
        k(   29) = (   0.1250000   0.2500000   0.3750000), wk =   0.0312500
        k(   30) = (   0.1250000   0.2500000  -0.5000000), wk =   0.0625000
        k(   31) = (   0.1250000   0.2500000  -0.3750000), wk =   0.0625000
        k(   32) = (   0.1250000   0.2500000  -0.2500000), wk =   0.0625000
        k(   33) = (   0.1250000   0.2500000  -0.1250000), wk =   0.0312500
        k(   34) = (   0.1250000   0.3750000  -0.5000000), wk =   0.0312500
        k(   35) = (   0.1250000   0.3750000  -0.3750000), wk =   0.0625000
        k(   36) = (   0.1250000   0.3750000  -0.2500000), wk =   0.0312500
        k(   37) = (   0.1250000  -0.5000000  -0.3750000), wk =   0.0156250
        k(   38) = (   0.2500000   0.0000000   0.2500000), wk =   0.0156250
        k(   39) = (   0.2500000  -0.0000000   0.3750000), wk =   0.0625000
        k(   40) = (   0.2500000   0.0000000  -0.5000000), wk =   0.0625000
        k(   41) = (   0.2500000   0.0000000  -0.3750000), wk =   0.0625000
        k(   42) = (   0.2500000   0.0000000  -0.2500000), wk =   0.0312500
        k(   43) = (   0.2500000   0.1250000   0.3750000), wk =   0.0312500
        k(   44) = (   0.2500000   0.1250000  -0.5000000), wk =   0.0625000
        k(   45) = (   0.2500000   0.1250000  -0.3750000), wk =   0.0312500
        k(   46) = (   0.2500000   0.3750000  -0.3750000), wk =   0.0312500
        k(   47) = (   0.2500000   0.3750000  -0.2500000), wk =   0.0625000
        k(   48) = (   0.2500000   0.3750000  -0.1250000), wk =   0.0312500
        k(   49) = (   0.2500000  -0.5000000  -0.2500000), wk =   0.0156250
        k(   50) = (   0.3750000   0.0000000   0.3750000), wk =   0.0156250
        k(   51) = (   0.3750000   0.0000000  -0.5000000), wk =   0.0625000
        k(   52) = (   0.3750000   0.0000000  -0.3750000), wk =   0.0312500
        k(   53) = (   0.3750000   0.1250000  -0.5000000), wk =   0.0312500
        k(   54) = (   0.3750000   0.1250000  -0.3750000), wk =   0.0625000
        k(   55) = (   0.3750000   0.1250000  -0.2500000), wk =   0.0312500
        k(   56) = (   0.3750000  -0.5000000  -0.1250000), wk =   0.0156250
        k(   57) = (  -0.5000000   0.0000000  -0.5000000), wk =   0.0078125
        k(   58) = (  -0.5000000   0.1250000  -0.3750000), wk =   0.0156250
        k(   59) = (  -0.5000000   0.2500000  -0.2500000), wk =   0.0078125

     Dense  grid:    13099 G-vectors     FFT dimensions: (  36,  36,  36)

     Smooth grid:     7703 G-vectors     FFT dimensions: (  27,  27,  27)

     Largest allocated arrays     est. size (Mb)     dimensions
        Kohn-Sham Wavefunctions         0.03 Mb     (     256,    8)
        NL pseudopotentials             0.14 Mb     (     256,   36)
        Each V/rho on FFT grid          0.18 Mb     (   11664)
        Each G-vector array             0.02 Mb     (    3275)
        G-vector shells                 0.01 Mb     (     838)
     Largest temporary arrays     est. size (Mb)     dimensions
        Auxiliary wavefunctions         0.13 Mb     (     256,   32)
        Each subspace H/S matrix        0.02 Mb     (      32,   32)
        Each <psi_i|beta_j> matrix      0.00 Mb     (      36,    8)
        Arrays for rho mixing           1.42 Mb     (   11664,    8)

     Initial potential from superposition of free atoms

     starting charge    7.99870, renormalised to    8.00000
     Starting wfc are    8 randomized atomic wfcs

     total cpu time spent up to now is        1.4 secs

     per-process dynamical memory:     7.9 Mb

     Self-consistent Calculation

     iteration #  1     ecut=    35.00 Ry     beta=0.30
     Davidson diagonalization with overlap
     ethr =  1.00E-02,  avg # of iterations =  3.6

     Threshold (ethr) on eigenvalues was too large:
     Diagonalizing with lowered threshold

     Davidson diagonalization with overlap
     ethr =  6.88E-04,  avg # of iterations =  1.1

     total cpu time spent up to now is        8.4 secs

     total energy              =     -19.12820750 Ry
     Harris-Foulkes estimate   =     -19.13391146 Ry
     estimated scf accuracy    <       0.05418251 Ry

     iteration #  2     ecut=    35.00 Ry     beta=0.30
     Davidson diagonalization with overlap
     ethr =  6.77E-04,  avg # of iterations =  1.0

     total cpu time spent up to now is       10.9 secs

     total energy              =     -19.11734415 Ry
     Harris-Foulkes estimate   =     -19.12846960 Ry
     estimated scf accuracy    <       0.03300692 Ry

     iteration #  3     ecut=    35.00 Ry     beta=0.30
     Davidson diagonalization with overlap
     ethr =  4.13E-04,  avg # of iterations =  1.0

     total cpu time spent up to now is       13.5 secs

     total energy              =     -19.11940978 Ry
     Harris-Foulkes estimate   =     -19.11928575 Ry
     estimated scf accuracy    <       0.00032260 Ry

     iteration #  4     ecut=    35.00 Ry     beta=0.30
     Davidson diagonalization with overlap
     ethr =  4.03E-06,  avg # of iterations =  3.7

     total cpu time spent up to now is       17.8 secs

     total energy              =     -19.11949425 Ry
     Harris-Foulkes estimate   =     -19.11952329 Ry
     estimated scf accuracy    <       0.00011185 Ry

     iteration #  5     ecut=    35.00 Ry     beta=0.30
     Davidson diagonalization with overlap
     ethr =  1.40E-06,  avg # of iterations =  1.1

     total cpu time spent up to now is       20.5 secs

     total energy              =     -19.11950408 Ry
     Harris-Foulkes estimate   =     -19.11950309 Ry
     estimated scf accuracy    <       0.00000143 Ry

     iteration #  6     ecut=    35.00 Ry     beta=0.30
     Davidson diagonalization with overlap
     ethr =  1.79E-08,  avg # of iterations =  2.5

     total cpu time spent up to now is       23.7 secs

     total energy              =     -19.11950444 Ry
     Harris-Foulkes estimate   =     -19.11950451 Ry
     estimated scf accuracy    <       0.00000038 Ry

     iteration #  7     ecut=    35.00 Ry     beta=0.30
     Davidson diagonalization with overlap
     ethr =  4.80E-09,  avg # of iterations =  1.1

     total cpu time spent up to now is       26.3 secs

     total energy              =     -19.11950447 Ry
     Harris-Foulkes estimate   =     -19.11950446 Ry
     estimated scf accuracy    <          2.2E-09 Ry

     iteration #  8     ecut=    35.00 Ry     beta=0.30
     Davidson diagonalization with overlap
     ethr =  2.75E-11,  avg # of iterations =  3.0

     total cpu time spent up to now is       29.9 secs

     End of self-consistent calculation

          k = 0.0000 0.0000 0.0000 (   941 PWs)   bands (ev):

    -5.8757   5.9940   6.0646   6.0646   8.5457   8.5457   8.5810   9.2301

     occupation numbers 
     1.0000   0.9739   0.9269   0.9269   0.0000   0.0000   0.0000   0.0000

          k = 0.0875 0.0884-0.0884 (   938 PWs)   bands (ev):

    -5.6727   4.4306   5.7241   5.7794   8.4541   8.9720   8.9909  10.6070

     occupation numbers 
     1.0000   1.0000   0.9999   0.9997   0.0000   0.0000   0.0000   0.0000

          k = 0.1750 0.1768-0.1768 (   948 PWs)   bands (ev):

    -5.0803   2.1080   5.2454   5.3188   7.9629   9.4826   9.5085  12.7917

     occupation numbers 
     1.0000   1.0000   1.0000   1.0000   0.0000   0.0000   0.0000   0.0000

          k = 0.2625 0.2652-0.2652 (   943 PWs)   bands (ev):

    -4.1906   0.0960   4.9125   5.0013   7.5942   9.4064   9.4724  13.7127

     occupation numbers 
     1.0000   1.0000   1.0000   1.0000   0.0000   0.0000   0.0000   0.0000

          k =-0.3501-0.3536 0.3536 (   966 PWs)   bands (ev):

    -3.5539  -0.9236   4.7984   4.8932   7.4651   9.2918   9.3648  13.5491

     occupation numbers 
     1.0000   1.0000   1.0000   1.0000   0.0000   0.0000   0.0000   0.0000

          k = 0.1750 0.0000 0.0000 (   942 PWs)   bands (ev):

    -5.6074   4.6497   5.2614   5.2614   8.0239   9.6826   9.6826  10.2917

     occupation numbers 
     1.0000   1.0000   1.0000   1.0000   0.0000   0.0000   0.0000   0.0000

          k = 0.2625 0.0884-0.0884 (   948 PWs)   bands (ev):

    -5.1443   2.8037   4.7577   4.7733   8.1637   9.6524  10.4563  10.6750

     occupation numbers 
     1.0000   1.0000   1.0000   1.0000   0.0000   0.0000   0.0000   0.0000

          k = 0.3501 0.1768-0.1768 (   960 PWs)   bands (ev):

    -4.3354   0.7620   4.1577   4.4988   8.2470   9.5467  10.4803  11.4602

     occupation numbers 
     1.0000   1.0000   1.0000   1.0000   0.0000   0.0000   0.0000   0.0000

          k =-0.2625-0.4419 0.4419 (   956 PWs)   bands (ev):

    -3.4737  -0.6993   3.7054   4.5299   8.1955   9.4095  10.1202  13.3602

     occupation numbers 
     1.0000   1.0000   1.0000   1.0000   0.0000   0.0000   0.0000   0.0000

          k =-0.1750-0.3536 0.3536 (   952 PWs)   bands (ev):

    -3.7077  -0.3418   3.5264   4.8284   8.3581   9.5300   9.8794  13.7745

     occupation numbers 
     1.0000   1.0000   1.0000   1.0000   0.0000   0.0000   0.0000   0.0000

          k =-0.0875-0.2652 0.2652 (   950 PWs)   bands (ev):

    -4.6269   1.4022   3.6843   5.3156   8.7036   9.6696   9.7858  12.1817

     occupation numbers 
     1.0000   1.0000   1.0000   1.0000   0.0000   0.0000   0.0000   0.0000

          k = 0.0000-0.1768 0.1768 (   943 PWs)   bands (ev):

    -5.3354   3.3454   4.3702   5.7868   9.0366   9.1056   9.2811  11.4432

     occupation numbers 
     1.0000   1.0000   1.0000   0.9996   0.0000   0.0000   0.0000   0.0000

          k = 0.3501 0.0000 0.0000 (   954 PWs)   bands (ev):

    -4.8119   2.4706   4.1919   4.1919   7.1428   9.0666  11.7213  11.7213

     occupation numbers 
     1.0000   1.0000   1.0000   1.0000   0.0000   0.0000   0.0000   0.0000

          k = 0.4376 0.0884-0.0884 (   966 PWs)   bands (ev):

    -4.1107   1.0771   3.3722   3.8805   7.3622   8.8741  11.9248  12.2555

     occupation numbers 
     1.0000   1.0000   1.0000   1.0000   0.0000   0.0000   0.0000   0.0000

          k =-0.1750-0.5303 0.5303 (   957 PWs)   bands (ev):

    -3.1885  -0.3397   2.4735   3.8891   7.5215  10.4738  11.6524  11.9207

     occupation numbers 
     1.0000   1.0000   1.0000   1.0000   0.0000   0.0000   0.0000   0.0000

          k =-0.0875-0.4419 0.4419 (   960 PWs)   bands (ev):

    -2.9650  -0.6110   2.0042   4.2104   7.8538  11.3691  11.4718  12.9825

     occupation numbers 
     1.0000   1.0000   1.0000   1.0000   0.0000   0.0000   0.0000   0.0000

          k = 0.0000-0.3536 0.3536 (   955 PWs)   bands (ev):

    -3.8342   0.5432   2.2419   4.7681   8.4662  10.7668  11.0272  12.0341

     occupation numbers 
     1.0000   1.0000   1.0000   1.0000   0.0000   0.0000   0.0000   0.0000

          k = 0.5251 0.0000 0.0000 (   970 PWs)   bands (ev):

    -3.5200   0.2560   3.4864   3.4864   6.6277   7.5138  13.9858  13.9858

     occupation numbers 
     1.0000   1.0000   1.0000   1.0000   0.0072   0.0000   0.0000   0.0000

          k =-0.0875-0.6187 0.6187 (   963 PWs)   bands (ev):

    -2.6318  -0.8113   2.6287   3.4134   6.8985   7.9846  14.2315  14.2658

     occupation numbers 
     1.0000   1.0000   1.0000   1.0000   0.0000   0.0000   0.0000   0.0000

          k = 0.0000-0.5303 0.5303 (   959 PWs)   bands (ev):

    -2.1751  -1.2041   1.7262   3.6724   7.2093  10.1664  13.4317  13.8971

     occupation numbers 
     1.0000   1.0000   1.0000   1.0000   0.0000   0.0000   0.0000   0.0000

          k =-0.7001 0.0000 0.0000 (   966 PWs)   bands (ev):

    -1.7941  -1.7941   3.2447   3.2447   6.7113   6.7113  16.0159  16.0159

     occupation numbers 
     1.0000   1.0000   1.0000   1.0000   0.0012   0.0012   0.0000   0.0000

          k = 0.0000 0.1768 0.0000 (   941 PWs)   bands (ev):

    -5.6028   4.7132   5.1968   5.2405   7.9694   9.6615   9.7399  10.2891

     occupation numbers 
     1.0000   1.0000   1.0000   1.0000   0.0000   0.0000   0.0000   0.0000

          k = 0.0875 0.2652-0.0884 (   949 PWs)   bands (ev):

    -5.1352   2.8116   4.7007   4.8035   8.0945   9.6647  10.4538  10.7172

     occupation numbers 
     1.0000   1.0000   1.0000   1.0000   0.0000   0.0000   0.0000   0.0000

          k = 0.1750 0.3536-0.1768 (   958 PWs)   bands (ev):

    -4.3233   0.7544   4.2134   4.4384   8.1813   9.6293  10.4355  11.3876

     occupation numbers 
     1.0000   1.0000   1.0000   1.0000   0.0000   0.0000   0.0000   0.0000

          k =-0.4376-0.2652 0.4419 (   956 PWs)   bands (ev):

    -3.4659  -0.7026   3.7745   4.4590   8.1178   9.5057  10.0714  13.2539

     occupation numbers 
     1.0000   1.0000   1.0000   1.0000   0.0000   0.0000   0.0000   0.0000

          k =-0.3501-0.1768 0.3536 (   951 PWs)   bands (ev):

    -3.7150  -0.3268   3.5929   4.7538   8.2811   9.6099   9.8448  13.8012

     occupation numbers 
     1.0000   1.0000   1.0000   1.0000   0.0000   0.0000   0.0000   0.0000

          k =-0.2625-0.0884 0.2652 (   951 PWs)   bands (ev):

    -4.6348   1.4193   3.7401   5.2461   8.6468   9.6589   9.8451  12.2192

     occupation numbers 
     1.0000   1.0000   1.0000   1.0000   0.0000   0.0000   0.0000   0.0000

          k =-0.1750 0.0000 0.1768 (   948 PWs)   bands (ev):

    -5.3399   3.3490   4.4218   5.7312   8.9804   9.1121   9.3576  11.4735

     occupation numbers 
     1.0000   1.0000   1.0000   0.9999   0.0000   0.0000   0.0000   0.0000

          k = 0.3501 0.1768 0.0000 (   951 PWs)   bands (ev):

    -4.5636   1.7426   3.3499   4.5949   8.4799   9.8782  10.1364  11.4420

     occupation numbers 
     1.0000   1.0000   1.0000   1.0000   0.0000   0.0000   0.0000   0.0000

          k =-0.2625-0.4419 0.6187 (   952 PWs)   bands (ev):

    -3.6813   0.2090   2.7247   4.0921   8.9007   9.5102  11.0317  11.8697

     occupation numbers 
     1.0000   1.0000   1.0000   1.0000   0.0000   0.0000   0.0000   0.0000

          k =-0.1750-0.3536 0.5303 (   956 PWs)   bands (ev):

    -3.0208  -0.7404   2.5692   3.8875   9.0474   9.1325  11.8312  13.0804

     occupation numbers 
     1.0000   1.0000   1.0000   1.0000   0.0000   0.0000   0.0000   0.0000

          k =-0.0875-0.2652 0.4419 (   949 PWs)   bands (ev):

    -3.6612   0.1925   2.6803   4.1381   8.8281   9.5847  10.9480  11.8512

     occupation numbers 
     1.0000   1.0000   1.0000   1.0000   0.0000   0.0000   0.0000   0.0000

          k = 0.0000-0.1768 0.3536 (   959 PWs)   bands (ev):

    -4.5468   1.7446   3.2854   4.6403   8.3935   9.8715  10.2004  11.4190

     occupation numbers 
     1.0000   1.0000   1.0000   1.0000   0.0000   0.0000   0.0000   0.0000

          k =-0.1750-0.5303 0.7071 (   957 PWs)   bands (ev):

    -3.3186   0.0613   2.7089   3.2882   7.9798   8.6448  11.7168  13.9165

     occupation numbers 
     1.0000   1.0000   1.0000   1.0000   0.0000   0.0000   0.0000   0.0000

          k =-0.0875-0.4419 0.6187 (   951 PWs)   bands (ev):

    -2.4415  -0.8920   1.9696   3.1021   8.4126  10.3102  11.2396  13.3626

     occupation numbers 
     1.0000   1.0000   1.0000   1.0000   0.0000   0.0000   0.0000   0.0000

          k =-0.0000-0.3536 0.5303 (   958 PWs)   bands (ev):

    -2.7681  -0.5372   1.7763   3.4873   8.8957  10.4915  11.1577  13.0698

     occupation numbers 
     1.0000   1.0000   1.0000   1.0000   0.0000   0.0000   0.0000   0.0000

          k =-0.7001 0.1768 0.0000 (   960 PWs)   bands (ev):

    -1.7074  -1.7074   2.6510   2.6510   7.9940   7.9940  13.7836  13.7836

     occupation numbers 
     1.0000   1.0000   1.0000   1.0000   0.0000   0.0000   0.0000   0.0000

          k = 0.0000 0.3536 0.0000 (   960 PWs)   bands (ev):

    -4.7939   2.5404   4.1220   4.1446   7.0639   9.0798  11.6640  11.8069

     occupation numbers 
     1.0000   1.0000   1.0000   1.0000   0.0000   0.0000   0.0000   0.0000

          k = 0.0875 0.4419-0.0884 (   959 PWs)   bands (ev):

    -4.0852   1.1151   3.3607   3.8143   7.2833   8.8265  11.9340  12.2552

     occupation numbers 
     1.0000   1.0000   1.0000   1.0000   0.0000   0.0000   0.0000   0.0000

          k =-0.5251-0.1768 0.5303 (   956 PWs)   bands (ev):

    -3.1631  -0.3288   2.5098   3.8153   7.4485  10.3594  11.6613  11.9135

     occupation numbers 
     1.0000   1.0000   1.0000   1.0000   0.0000   0.0000   0.0000   0.0000

          k =-0.4376-0.0884 0.4419 (   957 PWs)   bands (ev):

    -2.9686  -0.5798   2.0561   4.1316   7.7681  11.3499  11.5121  12.8470

     occupation numbers 
     1.0000   1.0000   1.0000   1.0000   0.0000   0.0000   0.0000   0.0000

          k =-0.3501 0.0000 0.3536 (   959 PWs)   bands (ev):

    -3.8467   0.5774   2.2963   4.6893   8.3742  10.7515  11.1204  12.0496

     occupation numbers 
     1.0000   1.0000   1.0000   1.0000   0.0000   0.0000   0.0000   0.0000

          k = 0.1750 0.3536 0.0000 (   951 PWs)   bands (ev):

    -4.5504   1.7625   3.3248   4.6008   8.3738   9.7838  10.1356  11.5494

     occupation numbers 
     1.0000   1.0000   1.0000   1.0000   0.0000   0.0000   0.0000   0.0000

          k =-0.4376-0.2652 0.6187 (   952 PWs)   bands (ev):

    -3.6659   0.2144   2.7272   4.1008   8.7810   9.4457  10.9111  11.9786

     occupation numbers 
     1.0000   1.0000   1.0000   1.0000   0.0000   0.0000   0.0000   0.0000

          k =-0.3501-0.1768 0.5303 (   956 PWs)   bands (ev):

    -3.0149  -0.7300   2.6058   3.8688   8.9321   9.0512  11.9548  12.9813

     occupation numbers 
     1.0000   1.0000   1.0000   1.0000   0.0000   0.0000   0.0000   0.0000

          k =-0.1750-0.3536 0.7071 (   952 PWs)   bands (ev):

    -2.7852  -0.5087   1.8231   3.4204   8.8265  10.5889  11.2395  12.9323

     occupation numbers 
     1.0000   1.0000   1.0000   1.0000   0.0000   0.0000   0.0000   0.0000

          k =-0.0875-0.2652 0.6187 (   958 PWs)   bands (ev):

    -2.4195  -0.8746   1.9672   3.0571   8.3381  10.2161  11.3118  13.4713

     occupation numbers 
     1.0000   1.0000   1.0000   1.0000   0.0000   0.0000   0.0000   0.0000

          k =-0.0000-0.1768 0.5303 (   954 PWs)   bands (ev):

    -3.2851   0.0928   2.6405   3.2799   7.8867   8.5849  11.7991  13.8536

     occupation numbers 
     1.0000   1.0000   1.0000   1.0000   0.0000   0.0000   0.0000   0.0000

          k =-0.7001 0.3536 0.0000 (   952 PWs)   bands (ev):

    -1.5973  -1.5973   2.1787   2.1787  10.2571  10.2571  10.9989  10.9989

     occupation numbers 
     1.0000   1.0000   1.0000   1.0000   0.0000   0.0000   0.0000   0.0000

          k = 0.0000 0.5303 0.0000 (   950 PWs)   bands (ev):

    -3.4822   0.3275   3.4106   3.4204   6.5388   7.4717  13.8872  14.0916

     occupation numbers 
     1.0000   1.0000   1.0000   1.0000   0.0334   0.0000   0.0000   0.0000

          k =-0.6126-0.0884 0.6187 (   961 PWs)   bands (ev):

    -2.5875  -0.7556   2.5871   3.3385   6.8186   7.8905  14.1297  14.3593

     occupation numbers 
     1.0000   1.0000   1.0000   1.0000   0.0001   0.0000   0.0000   0.0000

          k =-0.5251 0.0000 0.5303 (   959 PWs)   bands (ev):

    -2.1582  -1.1517   1.7318   3.5944   7.1263  10.0368  13.3960  14.0950

     occupation numbers 
     1.0000   1.0000   1.0000   1.0000   0.0000   0.0000   0.0000   0.0000

          k =-0.5251-0.1768 0.7071 (   952 PWs)   bands (ev):

    -3.2867   0.1053   2.6691   3.2700   7.8587   8.5580  11.6018  14.0413

     occupation numbers 
     1.0000   1.0000   1.0000   1.0000   0.0000   0.0000   0.0000   0.0000

          k =-0.4376-0.0884 0.6187 (   954 PWs)   bands (ev):

    -2.4157  -0.8611   1.9778   3.0727   8.2830  10.1697  11.1295  13.2806

     occupation numbers 
     1.0000   1.0000   1.0000   1.0000   0.0000   0.0000   0.0000   0.0000

          k =-0.3501 0.0000 0.5303 (   953 PWs)   bands (ev):

    -2.7693  -0.4989   1.8127   3.4519   8.7516  10.4240  11.0766  12.8999

     occupation numbers 
     1.0000   1.0000   1.0000   1.0000   0.0000   0.0000   0.0000   0.0000

          k =-0.7001 0.5303 0.0000 (   964 PWs)   bands (ev):

    -1.6630  -1.6630   2.5978   2.5978   7.9076   7.9076  13.8878  13.8878

     occupation numbers 
     1.0000   1.0000   1.0000   1.0000   0.0000   0.0000   0.0000   0.0000

          k = 0.0000-0.7071 0.0000 (   966 PWs)   bands (ev):

    -1.7356  -1.7356   3.1694   3.1694   6.6329   6.6329  15.9856  15.9856

     occupation numbers 
     1.0000   1.0000   1.0000   1.0000   0.0065   0.0065   0.0000   0.0000

          k = 0.1750-0.7071 0.0000 (   962 PWs)   bands (ev):

    -1.6599  -1.6599   2.6117   2.6117   7.8773   7.8773  13.6700  13.6700

     occupation numbers 
     1.0000   1.0000   1.0000   1.0000   0.0000   0.0000   0.0000   0.0000

          k = 0.3501-0.7071 0.0000 (   952 PWs)   bands (ev):

    -1.5766  -1.5766   2.1828   2.1828  10.1460  10.1460  10.8602  10.8602

     occupation numbers 
     1.0000   1.0000   1.0000   1.0000   0.0000   0.0000   0.0000   0.0000

     the Fermi energy is     6.2742 ev

!    total energy              =     -19.11950448 Ry
     Harris-Foulkes estimate   =     -19.11950448 Ry
     estimated scf accuracy    <          7.8E-10 Ry

     The total energy is the sum of the following terms:

     one-electron contribution =       5.03038428 Ry
     hartree contribution      =       1.10393556 Ry
     xc contribution           =      -8.51490363 Ry
     ewald contribution        =     -16.73888834 Ry
     smearing contrib. (-TS)   =      -0.00003234 Ry

     convergence has been achieved in   8 iterations

     Forces acting on atoms (Ry/au):

     atom    1 type  1   force =   0.00000000E+00  0.00000000E+00  0.00000000E+00
     atom    2 type  1   force =   0.00000000E+00  0.00000000E+00  0.00000000E+00
     The non-local contrib.  to forces
     atom    1 type  1   force =  -0.15181123E-18  0.15332934E-18 -0.15332934E-18
     atom    2 type  1   force =   0.00000000E+00  0.00000000E+00  0.00000000E+00
     The ionic contribution  to forces
     atom    1 type  1   force =  -0.17763568E-14  0.33306691E-15  0.17763568E-14
     atom    2 type  1   force =   0.13322676E-14 -0.55511151E-16 -0.13322676E-14
     The local contribution  to forces
     atom    1 type  1   force =   0.21649349E-14  0.33306691E-15 -0.99920072E-15
     atom    2 type  1   force =  -0.25535130E-14 -0.36082248E-15  0.11657342E-14
     The core correction contribution to forces
     atom    1 type  1   force =  -0.20816682E-15 -0.20816682E-16 -0.27755576E-16
     atom    2 type  1   force =   0.40245585E-15  0.90205621E-16 -0.19428903E-15
     The Hubbard contrib.    to forces
     atom    1 type  1   force =   0.00000000E+00  0.00000000E+00  0.00000000E+00
     atom    2 type  1   force =   0.00000000E+00  0.00000000E+00  0.00000000E+00
     The SCF correction term to forces
     atom    1 type  1   force =  -0.30157549E-17  0.71007301E-17  0.84617533E-16
     atom    2 type  1   force =  -0.70780191E-18  0.32403245E-17 -0.26890279E-16

     Total force =     0.000000     Total SCF correction =     0.000000


     entering subroutine stress ...

          total   stress  (Ry/bohr**3)                   (kbar)     P=   -8.81
  -0.0001025452  -0.0000000000  -0.0000000000        -15.08     -0.00     -0.00
   0.0000000000  -0.0000385396   0.0000000000          0.00     -5.67      0.00
  -0.0000000000   0.0000000000  -0.0000385396         -0.00      0.00     -5.67

     kinetic stress (kbar)   2152.15      0.00     -0.00
                                0.00   2163.41      0.00
                               -0.00      0.00   2163.41

     local   stress (kbar)   -326.90     -0.00      0.00
                               -0.00   -277.38     -0.00
                                0.00     -0.00   -277.38

     nonloc. stress (kbar)   1917.64     -0.00     -0.00
                               -0.00   1914.43     -0.00
                                0.00     -0.00   1914.43

     hartree stress (kbar)    203.15      0.00      0.00
                                0.00    195.81     -0.00
                                0.00     -0.00    195.81

     exc-cor stress (kbar)    985.57      0.00      0.00
                                0.00    985.48      0.00
                                0.00      0.00    985.48

     corecor stress (kbar)  -1967.96     -0.00     -0.00
                               -0.00  -1967.56      0.00
                               -0.00      0.00  -1967.56

     ewald   stress (kbar)  -2978.73      0.00      0.00
                                0.00  -3019.86     -0.00
                                0.00     -0.00  -3019.86

     hubbard stress (kbar)      0.00      0.00      0.00
                                0.00      0.00      0.00
                                0.00      0.00      0.00

     london  stress (kbar)      0.00      0.00      0.00
                                0.00      0.00      0.00
                                0.00      0.00      0.00

     XDM     stress (kbar)      0.00      0.00      0.00
                                0.00      0.00      0.00
                                0.00      0.00      0.00

     dft-nl  stress (kbar)      0.00      0.00      0.00
                                0.00      0.00      0.00
                                0.00      0.00      0.00



     Writing output data file Si_diamond.scf.in.sx.save

     init_run     :      1.37s CPU      1.34s WALL (       1 calls)
     electrons    :     29.16s CPU     28.51s WALL (       1 calls)
     forces       :      0.53s CPU      0.50s WALL (       1 calls)
     stress       :      0.86s CPU      0.85s WALL (       1 calls)

     Called by init_run:
     wfcinit      :      1.02s CPU      0.98s WALL (       1 calls)
     potinit      :      0.05s CPU      0.05s WALL (       1 calls)

     Called by electrons:
     c_bands      :     24.34s CPU     23.73s WALL (       9 calls)
     sum_band     :      4.28s CPU      4.25s WALL (       9 calls)
     v_of_rho     :      0.16s CPU      0.15s WALL (       9 calls)
     v_h          :      0.01s CPU      0.01s WALL (       9 calls)
     v_xc         :      0.18s CPU      0.18s WALL (      11 calls)
     newd         :      0.32s CPU      0.32s WALL (       9 calls)
     mix_rho      :      0.08s CPU      0.08s WALL (       9 calls)

     Called by c_bands:
     init_us_2    :      0.84s CPU      0.87s WALL (    1239 calls)
     cegterg      :     22.64s CPU     21.82s WALL (     531 calls)

     Called by sum_band:
     sum_band:bec :      0.06s CPU      0.03s WALL (     531 calls)
     addusdens    :      0.41s CPU      0.42s WALL (       9 calls)

     Called by *egterg:
     h_psi        :     16.87s CPU     16.55s WALL (    1663 calls)
     s_psi        :      2.17s CPU      1.82s WALL (    1663 calls)
     g_psi        :      0.08s CPU      0.07s WALL (    1073 calls)
     cdiaghg      :      1.04s CPU      1.17s WALL (    1545 calls)
     cegterg:over :      1.24s CPU      1.16s WALL (    1073 calls)
     cegterg:upda :      0.88s CPU      0.70s WALL (    1073 calls)
     cegterg:last :      0.38s CPU      0.34s WALL (     533 calls)

     Called by h_psi:
     h_psi:vloc   :     12.55s CPU     13.09s WALL (    1663 calls)
     h_psi:vnl    :      4.29s CPU      3.41s WALL (    1663 calls)
     add_vuspsi   :      2.40s CPU      1.89s WALL (    1663 calls)

     General routines
     calbec       :      2.80s CPU      2.23s WALL (    2312 calls)
     fft          :      0.14s CPU      0.15s WALL (     169 calls)
     ffts         :      0.04s CPU      0.05s WALL (     141 calls)
     fftw         :     13.74s CPU     14.47s WALL (   25968 calls)
     interpolate  :      0.04s CPU      0.03s WALL (      18 calls)

     Parallel routines
     fft_scatter  :      4.55s CPU      4.75s WALL (   26278 calls)

     PWSCF        :    32.40s CPU        31.73s WALL


   This run was terminated on:  11:14: 2  27Oct2017            

=------------------------------------------------------------------------------=
   JOB DONE.
=------------------------------------------------------------------------------=
