
     Program PWSCF v.5.1 starts on 31Oct2017 at 15:49:57 

     This program is part of the open-source Quantum ESPRESSO suite
     for quantum simulation of materials; please cite
         "P. Giannozzi et al., J. Phys.:Condens. Matter 21 395502 (2009);
          URL http://www.quantum-espresso.org", 
     in publications or presentations arising from this work. More details at
     http://www.quantum-espresso.org/quote

     Parallel version (MPI), running on     4 processors
     R & G space division:  proc/nbgrp/npool/nimage =       4
     Reading input from /tmp/Si_diamond.scf.in.sx.x.10789/Si_diamond.scf.in.sx.x.t
Warning: card &IONS ignored
Warning: card   ION_DYNAMICS='BFGS', ignored
Warning: card / ignored
Warning: card &CELL ignored
Warning: card  CELL_DYNAMICS = 'BFGS' ignored
Warning: card / ignored
     Message from routine read_cards :
     DEPRECATED: no units specified in CELL_PARAMETERS card

     Current dimensions of program PWSCF are:
     Max number of different atomic species (ntypx) = 10
     Max number of k-points (npk) =  40000
     Max angular momentum in pseudopotentials (lmaxx) =  3
 kfg - two_fermi_energies  F

     Subspace diagonalization in iterative solution of the eigenvalue problem:
     a serial algorithm will be used


     Parallelization info
     --------------------
     sticks:   dense  smooth     PW     G-vecs:    dense   smooth      PW
     Min         185     127     40                 3274     1923     344
     Max         186     128     41                 3275     1930     346
     Sum         741     511    163                13099     7703    1379



     bravais-lattice index     =            0
     lattice parameter (alat)  =     7.257802992  a.u.
     unit-cell volume          =     273.0373 (a.u.)^3
     number of atoms/cell      =            2
     number of atomic types    =            1
     number of electrons       =         8.00
     number of Kohn-Sham states=            8
     kinetic-energy cutoff     =      35.0000  Ry
     charge density cutoff     =     200.0000  Ry
     convergence threshold     =      1.0E-09
     mixing beta               =       0.3000
     number of iterations used =            8  local-TF  mixing
     Exchange-correlation      = SLA  PW   PSX  PSC ( 1  4 10  8 0)
     A smooth kinetic-energy cutoff is imposed at      34.5000 Ry
     height of the smooth step-function =             800.0000 Ry
     width of the smooth step-function  =               1.0000 Ry


     celldm(1)=   7.257803  celldm(2)=   0.000000  celldm(3)=   0.000000
     celldm(4)=   0.000000  celldm(5)=   0.000000  celldm(6)=   0.000000

     crystal axes: (cart. coord. in units of alat)
               a(1) = (   0.000000000000   0.707106781187   0.707106781187 )  
               a(2) = (   0.714177848998   0.000000000000   0.707106781187 )  
               a(3) = (   0.714177848998   0.707106781187   0.000000000000 )  

     reciprocal axes: (cart. coord. in units 2 pi/alat)
               b(1) = ( -0.700106  0.707107  0.707107 )  
               b(2) = (  0.700106 -0.707107  0.707107 )  
               b(3) = (  0.700106  0.707107 -0.707107 )  


     PseudoPot. # 1 for Si read from file:
     /users/kfg/psuedo/gbrv_1.5/si.pbesol.UPF
     MD5 check sum: ef58ba74faed4df802eb8a9742fc00a8
     Pseudo is Ultrasoft + core correction, Zval =  4.0
     Generated by new atomic code, or converted to UPF format
     Using radial grid of  899 points,  6 beta functions with: 
                l(1) =   0
                l(2) =   0
                l(3) =   1
                l(4) =   1
                l(5) =   2
                l(6) =   2
     Q(r) pseudized with  8 coefficients,  rinner =    0.900   0.900   0.900
                                                       0.900   0.900

     atomic species   valence    mass     pseudopotential
        Si             4.00    28.08550     Si( 1.00)

     No symmetry found
          (note:  1 additional sym.ops. were found but ignored
           their fractional translations are incommensurate with FFT grid)

                                    s                        frac. trans.

      isym =  1     identity                                     

 cryst.   s( 1) = (     1          0          0      )
                  (     0          1          0      )
                  (     0          0          1      )

 cart.    s( 1) = (  1.0000000  0.0000000  0.0000000 )
                  (  0.0000000  1.0000000  0.0000000 )
                  (  0.0000000  0.0000000  1.0000000 )


     point group C_1 (1)    
     there are  1 classes
     the character table:

       E    
A      1.00

     the symmetry operations in each class:
     E        1

   Cartesian axes

     site n.     atom                  positions (alat units)
         1           Si  tau(   1) = (    0.00142835570    0.00141421356    0.00000000000  )
         2           Si  tau(   2) = (    0.35708892450    0.35355339059    0.35355339059  )

   Crystallographic axes

     site n.     atom                  positions (cryst. coord.)
         1           Si  tau(   1) = (    0.00000000000    0.00000000000    0.00200000000  )
         2           Si  tau(   2) = (    0.25000000000    0.25000000000    0.25000000000  )

     number of k points=   260  gaussian smearing, width (Ry)=  0.0150
                       cart. coord. in units 2pi/alat
        k(    1) = (   0.0000000   0.0000000   0.0000000), wk =   0.0039063
        k(    2) = (   0.0875132   0.0883883  -0.0883883), wk =   0.0078125
        k(    3) = (   0.1750264   0.1767767  -0.1767767), wk =   0.0078125
        k(    4) = (   0.2625396   0.2651650  -0.2651650), wk =   0.0078125
        k(    5) = (  -0.3500529  -0.3535534   0.3535534), wk =   0.0039063
        k(    6) = (   0.1750264   0.0000000   0.0000000), wk =   0.0078125
        k(    7) = (   0.2625396   0.0883883  -0.0883883), wk =   0.0078125
        k(    8) = (   0.3500529   0.1767767  -0.1767767), wk =   0.0078125
        k(    9) = (  -0.2625396  -0.4419417   0.4419417), wk =   0.0078125
        k(   10) = (  -0.1750264  -0.3535534   0.3535534), wk =   0.0078125
        k(   11) = (  -0.0875132  -0.2651650   0.2651650), wk =   0.0078125
        k(   12) = (   0.0000000  -0.1767767   0.1767767), wk =   0.0078125
        k(   13) = (   0.3500529   0.0000000   0.0000000), wk =   0.0078125
        k(   14) = (   0.4375661   0.0883883  -0.0883883), wk =   0.0078125
        k(   15) = (  -0.1750264  -0.5303301   0.5303301), wk =   0.0078125
        k(   16) = (  -0.0875132  -0.4419417   0.4419417), wk =   0.0078125
        k(   17) = (   0.0000000  -0.3535534   0.3535534), wk =   0.0078125
        k(   18) = (   0.5250793   0.0000000   0.0000000), wk =   0.0078125
        k(   19) = (  -0.0875132  -0.6187184   0.6187184), wk =   0.0078125
        k(   20) = (   0.0000000  -0.5303301   0.5303301), wk =   0.0078125
        k(   21) = (  -0.7001057   0.0000000   0.0000000), wk =   0.0039063
        k(   22) = (   0.0000000   0.1767767   0.0000000), wk =   0.0078125
        k(   23) = (   0.0875132   0.2651650  -0.0883883), wk =   0.0078125
        k(   24) = (   0.1750264   0.3535534  -0.1767767), wk =   0.0078125
        k(   25) = (  -0.4375661  -0.2651650   0.4419417), wk =   0.0078125
        k(   26) = (  -0.3500529  -0.1767767   0.3535534), wk =   0.0078125
        k(   27) = (  -0.2625396  -0.0883883   0.2651650), wk =   0.0078125
        k(   28) = (  -0.1750264   0.0000000   0.1767767), wk =   0.0078125
        k(   29) = (   0.3500529   0.1767767   0.0000000), wk =   0.0078125
        k(   30) = (  -0.2625396  -0.4419417   0.6187184), wk =   0.0078125
        k(   31) = (  -0.1750264  -0.3535534   0.5303301), wk =   0.0078125
        k(   32) = (  -0.0875132  -0.2651650   0.4419417), wk =   0.0078125
        k(   33) = (   0.0000000  -0.1767767   0.3535534), wk =   0.0078125
        k(   34) = (  -0.1750264  -0.5303301   0.7071068), wk =   0.0078125
        k(   35) = (  -0.0875132  -0.4419417   0.6187184), wk =   0.0078125
        k(   36) = (  -0.0000000  -0.3535534   0.5303301), wk =   0.0078125
        k(   37) = (  -0.7001057   0.1767767   0.0000000), wk =   0.0078125
        k(   38) = (   0.0000000   0.3535534   0.0000000), wk =   0.0078125
        k(   39) = (   0.0875132   0.4419417  -0.0883883), wk =   0.0078125
        k(   40) = (  -0.5250793  -0.1767767   0.5303301), wk =   0.0078125
        k(   41) = (  -0.4375661  -0.0883883   0.4419417), wk =   0.0078125
        k(   42) = (  -0.3500529   0.0000000   0.3535534), wk =   0.0078125
        k(   43) = (   0.1750264   0.3535534   0.0000000), wk =   0.0078125
        k(   44) = (  -0.4375661  -0.2651650   0.6187184), wk =   0.0078125
        k(   45) = (  -0.3500529  -0.1767767   0.5303301), wk =   0.0078125
        k(   46) = (  -0.1750264  -0.3535534   0.7071068), wk =   0.0078125
        k(   47) = (  -0.0875132  -0.2651650   0.6187184), wk =   0.0078125
        k(   48) = (  -0.0000000  -0.1767767   0.5303301), wk =   0.0078125
        k(   49) = (  -0.7001057   0.3535534   0.0000000), wk =   0.0078125
        k(   50) = (   0.0000000   0.5303301   0.0000000), wk =   0.0078125
        k(   51) = (  -0.6125925  -0.0883883   0.6187184), wk =   0.0078125
        k(   52) = (  -0.5250793   0.0000000   0.5303301), wk =   0.0078125
        k(   53) = (  -0.5250793  -0.1767767   0.7071068), wk =   0.0078125
        k(   54) = (  -0.4375661  -0.0883883   0.6187184), wk =   0.0078125
        k(   55) = (  -0.3500529   0.0000000   0.5303301), wk =   0.0078125
        k(   56) = (  -0.7001057   0.5303301   0.0000000), wk =   0.0078125
        k(   57) = (   0.0000000  -0.7071068   0.0000000), wk =   0.0039063
        k(   58) = (   0.1750264  -0.7071068   0.0000000), wk =   0.0078125
        k(   59) = (   0.3500529  -0.7071068   0.0000000), wk =   0.0078125
        k(   60) = (  -0.0875132  -0.0883883  -0.0883883), wk =   0.0078125
        k(   61) = (  -0.0875132   0.0883883   0.0883883), wk =   0.0078125
        k(   62) = (   0.0875132  -0.0883883   0.0883883), wk =   0.0078125
        k(   63) = (  -0.1750264  -0.1767767  -0.1767767), wk =   0.0078125
        k(   64) = (  -0.1750264   0.1767767   0.1767767), wk =   0.0078125
        k(   65) = (   0.1750264  -0.1767767   0.1767767), wk =   0.0078125
        k(   66) = (  -0.2625396  -0.2651650  -0.2651650), wk =   0.0078125
        k(   67) = (  -0.2625396   0.2651650   0.2651650), wk =   0.0078125
        k(   68) = (   0.2625396  -0.2651650   0.2651650), wk =   0.0078125
        k(   69) = (   0.3500529   0.3535534   0.3535534), wk =   0.0039063
        k(   70) = (   0.3500529  -0.3535534  -0.3535534), wk =   0.0039063
        k(   71) = (  -0.3500529   0.3535534  -0.3535534), wk =   0.0039063
        k(   72) = (  -0.2625396  -0.0883883  -0.0883883), wk =   0.0078125
        k(   73) = (  -0.2625396   0.0883883   0.0883883), wk =   0.0078125
        k(   74) = (   0.2625396  -0.0883883   0.0883883), wk =   0.0078125
        k(   75) = (  -0.3500529  -0.1767767  -0.1767767), wk =   0.0078125
        k(   76) = (  -0.3500529   0.1767767   0.1767767), wk =   0.0078125
        k(   77) = (   0.3500529  -0.1767767   0.1767767), wk =   0.0078125
        k(   78) = (   0.2625396   0.4419417   0.4419417), wk =   0.0078125
        k(   79) = (   0.2625396  -0.4419417  -0.4419417), wk =   0.0078125
        k(   80) = (  -0.2625396   0.4419417  -0.4419417), wk =   0.0078125
        k(   81) = (   0.1750264   0.3535534   0.3535534), wk =   0.0078125
        k(   82) = (   0.1750264  -0.3535534  -0.3535534), wk =   0.0078125
        k(   83) = (  -0.1750264   0.3535534  -0.3535534), wk =   0.0078125
        k(   84) = (   0.0875132   0.2651650   0.2651650), wk =   0.0078125
        k(   85) = (   0.0875132  -0.2651650  -0.2651650), wk =   0.0078125
        k(   86) = (  -0.0875132   0.2651650  -0.2651650), wk =   0.0078125
        k(   87) = (   0.0000000   0.1767767   0.1767767), wk =   0.0078125
        k(   88) = (  -0.4375661  -0.0883883  -0.0883883), wk =   0.0078125
        k(   89) = (  -0.4375661   0.0883883   0.0883883), wk =   0.0078125
        k(   90) = (   0.4375661  -0.0883883   0.0883883), wk =   0.0078125
        k(   91) = (   0.1750264   0.5303301   0.5303301), wk =   0.0078125
        k(   92) = (   0.1750264  -0.5303301  -0.5303301), wk =   0.0078125
        k(   93) = (  -0.1750264   0.5303301  -0.5303301), wk =   0.0078125
        k(   94) = (   0.0875132   0.4419417   0.4419417), wk =   0.0078125
        k(   95) = (   0.0875132  -0.4419417  -0.4419417), wk =   0.0078125
        k(   96) = (  -0.0875132   0.4419417  -0.4419417), wk =   0.0078125
        k(   97) = (   0.0000000   0.3535534   0.3535534), wk =   0.0078125
        k(   98) = (   0.0875132   0.6187184   0.6187184), wk =   0.0078125
        k(   99) = (   0.0875132  -0.6187184  -0.6187184), wk =   0.0078125
        k(  100) = (  -0.0875132   0.6187184  -0.6187184), wk =   0.0078125
        k(  101) = (   0.0000000   0.5303301   0.5303301), wk =   0.0078125
        k(  102) = (   0.0000000   0.0000000   0.1767767), wk =   0.0078125
        k(  103) = (  -0.0875132  -0.2651650  -0.0883883), wk =   0.0078125
        k(  104) = (  -0.0875132   0.2651650   0.0883883), wk =   0.0078125
        k(  105) = (   0.0875132  -0.2651650   0.0883883), wk =   0.0078125
        k(  106) = (  -0.0875132  -0.0883883   0.2651650), wk =   0.0078125
        k(  107) = (  -0.0875132   0.0883883  -0.2651650), wk =   0.0078125
        k(  108) = (   0.0875132  -0.0883883  -0.2651650), wk =   0.0078125
        k(  109) = (   0.0875132   0.0883883   0.2651650), wk =   0.0078125
        k(  110) = (  -0.1750264  -0.3535534  -0.1767767), wk =   0.0078125
        k(  111) = (  -0.1750264   0.3535534   0.1767767), wk =   0.0078125
        k(  112) = (   0.1750264  -0.3535534   0.1767767), wk =   0.0078125
        k(  113) = (  -0.1750264  -0.1767767   0.3535534), wk =   0.0078125
        k(  114) = (  -0.1750264   0.1767767  -0.3535534), wk =   0.0078125
        k(  115) = (   0.1750264  -0.1767767  -0.3535534), wk =   0.0078125
        k(  116) = (   0.1750264   0.1767767   0.3535534), wk =   0.0078125
        k(  117) = (   0.4375661   0.2651650   0.4419417), wk =   0.0078125
        k(  118) = (   0.4375661  -0.2651650  -0.4419417), wk =   0.0078125
        k(  119) = (  -0.4375661   0.2651650  -0.4419417), wk =   0.0078125
        k(  120) = (   0.4375661   0.4419417  -0.2651650), wk =   0.0078125
        k(  121) = (   0.4375661  -0.4419417   0.2651650), wk =   0.0078125
        k(  122) = (  -0.4375661   0.4419417   0.2651650), wk =   0.0078125
        k(  123) = (  -0.4375661  -0.4419417  -0.2651650), wk =   0.0078125
        k(  124) = (   0.3500529   0.1767767   0.3535534), wk =   0.0078125
        k(  125) = (   0.3500529  -0.1767767  -0.3535534), wk =   0.0078125
        k(  126) = (  -0.3500529   0.1767767  -0.3535534), wk =   0.0078125
        k(  127) = (   0.3500529   0.3535534  -0.1767767), wk =   0.0078125
        k(  128) = (   0.3500529  -0.3535534   0.1767767), wk =   0.0078125
        k(  129) = (  -0.3500529   0.3535534   0.1767767), wk =   0.0078125
        k(  130) = (  -0.3500529  -0.3535534  -0.1767767), wk =   0.0078125
        k(  131) = (   0.2625396   0.0883883   0.2651650), wk =   0.0078125
        k(  132) = (   0.2625396  -0.0883883  -0.2651650), wk =   0.0078125
        k(  133) = (  -0.2625396   0.0883883  -0.2651650), wk =   0.0078125
        k(  134) = (   0.2625396   0.2651650  -0.0883883), wk =   0.0078125
        k(  135) = (   0.2625396  -0.2651650   0.0883883), wk =   0.0078125
        k(  136) = (  -0.2625396   0.2651650   0.0883883), wk =   0.0078125
        k(  137) = (  -0.2625396  -0.2651650  -0.0883883), wk =   0.0078125
        k(  138) = (   0.1750264  -0.0000000   0.1767767), wk =   0.0078125
        k(  139) = (   0.1750264   0.1767767  -0.0000000), wk =   0.0078125
        k(  140) = (   0.1750264  -0.1767767  -0.0000000), wk =   0.0078125
        k(  141) = (  -0.3500529   0.1767767   0.0000000), wk =   0.0078125
        k(  142) = (  -0.3500529   0.0000000   0.1767767), wk =   0.0078125
        k(  143) = (  -0.3500529   0.0000000  -0.1767767), wk =   0.0078125
        k(  144) = (   0.2625396   0.4419417   0.6187184), wk =   0.0078125
        k(  145) = (   0.2625396  -0.4419417  -0.6187184), wk =   0.0078125
        k(  146) = (  -0.2625396   0.4419417  -0.6187184), wk =   0.0078125
        k(  147) = (   0.2625396   0.6187184  -0.4419417), wk =   0.0078125
        k(  148) = (   0.2625396  -0.6187184   0.4419417), wk =   0.0078125
        k(  149) = (  -0.2625396   0.6187184   0.4419417), wk =   0.0078125
        k(  150) = (  -0.2625396  -0.6187184  -0.4419417), wk =   0.0078125
        k(  151) = (   0.1750264   0.3535534   0.5303301), wk =   0.0078125
        k(  152) = (   0.1750264  -0.3535534  -0.5303301), wk =   0.0078125
        k(  153) = (  -0.1750264   0.3535534  -0.5303301), wk =   0.0078125
        k(  154) = (   0.1750264   0.5303301  -0.3535534), wk =   0.0078125
        k(  155) = (   0.1750264  -0.5303301   0.3535534), wk =   0.0078125
        k(  156) = (  -0.1750264   0.5303301   0.3535534), wk =   0.0078125
        k(  157) = (  -0.1750264  -0.5303301  -0.3535534), wk =   0.0078125
        k(  158) = (   0.0875132   0.2651650   0.4419417), wk =   0.0078125
        k(  159) = (   0.0875132  -0.2651650  -0.4419417), wk =   0.0078125
        k(  160) = (  -0.0875132   0.2651650  -0.4419417), wk =   0.0078125
        k(  161) = (   0.0875132   0.4419417  -0.2651650), wk =   0.0078125
        k(  162) = (   0.0875132  -0.4419417   0.2651650), wk =   0.0078125
        k(  163) = (  -0.0875132   0.4419417   0.2651650), wk =   0.0078125
        k(  164) = (  -0.0875132  -0.4419417  -0.2651650), wk =   0.0078125
        k(  165) = (   0.0000000   0.1767767   0.3535534), wk =   0.0078125
        k(  166) = (   0.0000000   0.3535534  -0.1767767), wk =   0.0078125
        k(  167) = (   0.0000000   0.3535534   0.1767767), wk =   0.0078125
        k(  168) = (   0.1750264  -0.5303301  -0.7071068), wk =   0.0078125
        k(  169) = (   0.1750264   0.7071068  -0.5303301), wk =   0.0078125
        k(  170) = (   0.1750264  -0.7071068   0.5303301), wk =   0.0078125
        k(  171) = (   0.0875132   0.4419417   0.6187184), wk =   0.0078125
        k(  172) = (   0.0875132  -0.4419417  -0.6187184), wk =   0.0078125
        k(  173) = (  -0.0875132   0.4419417  -0.6187184), wk =   0.0078125
        k(  174) = (   0.0875132   0.6187184  -0.4419417), wk =   0.0078125
        k(  175) = (   0.0875132  -0.6187184   0.4419417), wk =   0.0078125
        k(  176) = (  -0.0875132   0.6187184   0.4419417), wk =   0.0078125
        k(  177) = (  -0.0875132  -0.6187184  -0.4419417), wk =   0.0078125
        k(  178) = (   0.0000000   0.3535534   0.5303301), wk =   0.0078125
        k(  179) = (   0.0000000   0.5303301  -0.3535534), wk =   0.0078125
        k(  180) = (   0.0000000   0.5303301   0.3535534), wk =   0.0078125
        k(  181) = (   0.7001057   0.0000000   0.1767767), wk =   0.0078125
        k(  182) = (   0.0000000   0.0000000   0.3535534), wk =   0.0078125
        k(  183) = (  -0.0875132  -0.4419417  -0.0883883), wk =   0.0078125
        k(  184) = (  -0.0875132   0.4419417   0.0883883), wk =   0.0078125
        k(  185) = (   0.0875132  -0.4419417   0.0883883), wk =   0.0078125
        k(  186) = (  -0.0875132  -0.0883883   0.4419417), wk =   0.0078125
        k(  187) = (  -0.0875132   0.0883883  -0.4419417), wk =   0.0078125
        k(  188) = (   0.0875132  -0.0883883  -0.4419417), wk =   0.0078125
        k(  189) = (   0.0875132   0.0883883   0.4419417), wk =   0.0078125
        k(  190) = (   0.5250793   0.1767767   0.5303301), wk =   0.0078125
        k(  191) = (   0.5250793  -0.1767767  -0.5303301), wk =   0.0078125
        k(  192) = (  -0.5250793   0.1767767  -0.5303301), wk =   0.0078125
        k(  193) = (   0.5250793   0.5303301  -0.1767767), wk =   0.0078125
        k(  194) = (   0.5250793  -0.5303301   0.1767767), wk =   0.0078125
        k(  195) = (  -0.5250793   0.5303301   0.1767767), wk =   0.0078125
        k(  196) = (  -0.5250793  -0.5303301  -0.1767767), wk =   0.0078125
        k(  197) = (   0.4375661   0.0883883   0.4419417), wk =   0.0078125
        k(  198) = (   0.4375661  -0.0883883  -0.4419417), wk =   0.0078125
        k(  199) = (  -0.4375661   0.0883883  -0.4419417), wk =   0.0078125
        k(  200) = (   0.4375661   0.4419417  -0.0883883), wk =   0.0078125
        k(  201) = (   0.4375661  -0.4419417   0.0883883), wk =   0.0078125
        k(  202) = (  -0.4375661   0.4419417   0.0883883), wk =   0.0078125
        k(  203) = (  -0.4375661  -0.4419417  -0.0883883), wk =   0.0078125
        k(  204) = (   0.3500529  -0.0000000   0.3535534), wk =   0.0078125
        k(  205) = (   0.3500529   0.3535534  -0.0000000), wk =   0.0078125
        k(  206) = (   0.3500529  -0.3535534  -0.0000000), wk =   0.0078125
        k(  207) = (  -0.1750264   0.3535534   0.0000000), wk =   0.0078125
        k(  208) = (  -0.1750264  -0.0000000   0.3535534), wk =   0.0078125
        k(  209) = (  -0.1750264   0.0000000  -0.3535534), wk =   0.0078125
        k(  210) = (   0.4375661   0.2651650   0.6187184), wk =   0.0078125
        k(  211) = (   0.4375661  -0.2651650  -0.6187184), wk =   0.0078125
        k(  212) = (  -0.4375661   0.2651650  -0.6187184), wk =   0.0078125
        k(  213) = (   0.4375661   0.6187184  -0.2651650), wk =   0.0078125
        k(  214) = (   0.4375661  -0.6187184   0.2651650), wk =   0.0078125
        k(  215) = (  -0.4375661   0.6187184   0.2651650), wk =   0.0078125
        k(  216) = (  -0.4375661  -0.6187184  -0.2651650), wk =   0.0078125
        k(  217) = (   0.3500529   0.1767767   0.5303301), wk =   0.0078125
        k(  218) = (   0.3500529  -0.1767767  -0.5303301), wk =   0.0078125
        k(  219) = (  -0.3500529   0.1767767  -0.5303301), wk =   0.0078125
        k(  220) = (   0.1750264  -0.3535534  -0.7071068), wk =   0.0078125
        k(  221) = (   0.1750264   0.7071068  -0.3535534), wk =   0.0078125
        k(  222) = (   0.1750264  -0.7071068   0.3535534), wk =   0.0078125
        k(  223) = (   0.0875132   0.2651650   0.6187184), wk =   0.0078125
        k(  224) = (   0.0875132  -0.2651650  -0.6187184), wk =   0.0078125
        k(  225) = (  -0.0875132   0.2651650  -0.6187184), wk =   0.0078125
        k(  226) = (   0.0875132   0.6187184  -0.2651650), wk =   0.0078125
        k(  227) = (   0.0875132  -0.6187184   0.2651650), wk =   0.0078125
        k(  228) = (  -0.0875132   0.6187184   0.2651650), wk =   0.0078125
        k(  229) = (  -0.0875132  -0.6187184  -0.2651650), wk =   0.0078125
        k(  230) = (   0.0000000   0.1767767   0.5303301), wk =   0.0078125
        k(  231) = (   0.0000000   0.5303301  -0.1767767), wk =   0.0078125
        k(  232) = (   0.0000000   0.5303301   0.1767767), wk =   0.0078125
        k(  233) = (   0.7001057  -0.0000000   0.3535534), wk =   0.0078125
        k(  234) = (   0.0000000   0.0000000   0.5303301), wk =   0.0078125
        k(  235) = (   0.6125925   0.0883883   0.6187184), wk =   0.0078125
        k(  236) = (   0.6125925  -0.0883883  -0.6187184), wk =   0.0078125
        k(  237) = (  -0.6125925   0.0883883  -0.6187184), wk =   0.0078125
        k(  238) = (   0.6125925   0.6187184  -0.0883883), wk =   0.0078125
        k(  239) = (   0.6125925  -0.6187184   0.0883883), wk =   0.0078125
        k(  240) = (  -0.6125925   0.6187184   0.0883883), wk =   0.0078125
        k(  241) = (  -0.6125925  -0.6187184  -0.0883883), wk =   0.0078125
        k(  242) = (   0.5250793  -0.0000000   0.5303301), wk =   0.0078125
        k(  243) = (   0.5250793   0.5303301   0.0000000), wk =   0.0078125
        k(  244) = (   0.5250793  -0.5303301  -0.0000000), wk =   0.0078125
        k(  245) = (   0.5250793  -0.1767767  -0.7071068), wk =   0.0078125
        k(  246) = (   0.5250793   0.7071068  -0.1767767), wk =   0.0078125
        k(  247) = (   0.5250793  -0.7071068   0.1767767), wk =   0.0078125
        k(  248) = (   0.4375661   0.0883883   0.6187184), wk =   0.0078125
        k(  249) = (   0.4375661  -0.0883883  -0.6187184), wk =   0.0078125
        k(  250) = (  -0.4375661   0.0883883  -0.6187184), wk =   0.0078125
        k(  251) = (   0.4375661   0.6187184  -0.0883883), wk =   0.0078125
        k(  252) = (   0.4375661  -0.6187184   0.0883883), wk =   0.0078125
        k(  253) = (  -0.4375661   0.6187184   0.0883883), wk =   0.0078125
        k(  254) = (  -0.4375661  -0.6187184  -0.0883883), wk =   0.0078125
        k(  255) = (   0.3500529   0.0000000   0.5303301), wk =   0.0078125
        k(  256) = (   0.3500529   0.5303301   0.0000000), wk =   0.0078125
        k(  257) = (   0.3500529  -0.5303301  -0.0000000), wk =   0.0078125
        k(  258) = (   0.7001057   0.0000000   0.5303301), wk =   0.0078125
        k(  259) = (   0.0000000   0.0000000  -0.7071068), wk =   0.0039063
        k(  260) = (  -0.1750264  -0.0000000  -0.7071068), wk =   0.0078125

                       cryst. coord.
        k(    1) = (   0.0000000   0.0000000   0.0000000), wk =   0.0039063
        k(    2) = (   0.0000000  -0.0000000   0.1250000), wk =   0.0078125
        k(    3) = (   0.0000000  -0.0000000   0.2500000), wk =   0.0078125
        k(    4) = (   0.0000000  -0.0000000   0.3750000), wk =   0.0078125
        k(    5) = (   0.0000000   0.0000000  -0.5000000), wk =   0.0039063
        k(    6) = (   0.0000000   0.1250000   0.1250000), wk =   0.0078125
        k(    7) = (   0.0000000   0.1250000   0.2500000), wk =   0.0078125
        k(    8) = (   0.0000000   0.1250000   0.3750000), wk =   0.0078125
        k(    9) = (   0.0000000   0.1250000  -0.5000000), wk =   0.0078125
        k(   10) = (   0.0000000   0.1250000  -0.3750000), wk =   0.0078125
        k(   11) = (   0.0000000   0.1250000  -0.2500000), wk =   0.0078125
        k(   12) = (   0.0000000   0.1250000  -0.1250000), wk =   0.0078125
        k(   13) = (   0.0000000   0.2500000   0.2500000), wk =   0.0078125
        k(   14) = (   0.0000000   0.2500000   0.3750000), wk =   0.0078125
        k(   15) = (   0.0000000   0.2500000  -0.5000000), wk =   0.0078125
        k(   16) = (   0.0000000   0.2500000  -0.3750000), wk =   0.0078125
        k(   17) = (   0.0000000   0.2500000  -0.2500000), wk =   0.0078125
        k(   18) = (   0.0000000   0.3750000   0.3750000), wk =   0.0078125
        k(   19) = (   0.0000000   0.3750000  -0.5000000), wk =   0.0078125
        k(   20) = (   0.0000000   0.3750000  -0.3750000), wk =   0.0078125
        k(   21) = (   0.0000000  -0.5000000  -0.5000000), wk =   0.0039063
        k(   22) = (   0.1250000   0.0000000   0.1250000), wk =   0.0078125
        k(   23) = (   0.1250000  -0.0000000   0.2500000), wk =   0.0078125
        k(   24) = (   0.1250000  -0.0000000   0.3750000), wk =   0.0078125
        k(   25) = (   0.1250000   0.0000000  -0.5000000), wk =   0.0078125
        k(   26) = (   0.1250000   0.0000000  -0.3750000), wk =   0.0078125
        k(   27) = (   0.1250000   0.0000000  -0.2500000), wk =   0.0078125
        k(   28) = (   0.1250000   0.0000000  -0.1250000), wk =   0.0078125
        k(   29) = (   0.1250000   0.2500000   0.3750000), wk =   0.0078125
        k(   30) = (   0.1250000   0.2500000  -0.5000000), wk =   0.0078125
        k(   31) = (   0.1250000   0.2500000  -0.3750000), wk =   0.0078125
        k(   32) = (   0.1250000   0.2500000  -0.2500000), wk =   0.0078125
        k(   33) = (   0.1250000   0.2500000  -0.1250000), wk =   0.0078125
        k(   34) = (   0.1250000   0.3750000  -0.5000000), wk =   0.0078125
        k(   35) = (   0.1250000   0.3750000  -0.3750000), wk =   0.0078125
        k(   36) = (   0.1250000   0.3750000  -0.2500000), wk =   0.0078125
        k(   37) = (   0.1250000  -0.5000000  -0.3750000), wk =   0.0078125
        k(   38) = (   0.2500000   0.0000000   0.2500000), wk =   0.0078125
        k(   39) = (   0.2500000  -0.0000000   0.3750000), wk =   0.0078125
        k(   40) = (   0.2500000   0.0000000  -0.5000000), wk =   0.0078125
        k(   41) = (   0.2500000   0.0000000  -0.3750000), wk =   0.0078125
        k(   42) = (   0.2500000   0.0000000  -0.2500000), wk =   0.0078125
        k(   43) = (   0.2500000   0.1250000   0.3750000), wk =   0.0078125
        k(   44) = (   0.2500000   0.1250000  -0.5000000), wk =   0.0078125
        k(   45) = (   0.2500000   0.1250000  -0.3750000), wk =   0.0078125
        k(   46) = (   0.2500000   0.3750000  -0.3750000), wk =   0.0078125
        k(   47) = (   0.2500000   0.3750000  -0.2500000), wk =   0.0078125
        k(   48) = (   0.2500000   0.3750000  -0.1250000), wk =   0.0078125
        k(   49) = (   0.2500000  -0.5000000  -0.2500000), wk =   0.0078125
        k(   50) = (   0.3750000   0.0000000   0.3750000), wk =   0.0078125
        k(   51) = (   0.3750000   0.0000000  -0.5000000), wk =   0.0078125
        k(   52) = (   0.3750000   0.0000000  -0.3750000), wk =   0.0078125
        k(   53) = (   0.3750000   0.1250000  -0.5000000), wk =   0.0078125
        k(   54) = (   0.3750000   0.1250000  -0.3750000), wk =   0.0078125
        k(   55) = (   0.3750000   0.1250000  -0.2500000), wk =   0.0078125
        k(   56) = (   0.3750000  -0.5000000  -0.1250000), wk =   0.0078125
        k(   57) = (  -0.5000000   0.0000000  -0.5000000), wk =   0.0039063
        k(   58) = (  -0.5000000   0.1250000  -0.3750000), wk =   0.0078125
        k(   59) = (  -0.5000000   0.2500000  -0.2500000), wk =   0.0078125
        k(   60) = (  -0.1250000  -0.1250000  -0.1250000), wk =   0.0078125
        k(   61) = (   0.1250000   0.0000000   0.0000000), wk =   0.0078125
        k(   62) = (   0.0000000   0.1250000  -0.0000000), wk =   0.0078125
        k(   63) = (  -0.2500000  -0.2500000  -0.2500000), wk =   0.0078125
        k(   64) = (   0.2500000   0.0000000   0.0000000), wk =   0.0078125
        k(   65) = (   0.0000000   0.2500000  -0.0000000), wk =   0.0078125
        k(   66) = (  -0.3750000  -0.3750000  -0.3750000), wk =   0.0078125
        k(   67) = (   0.3750000   0.0000000   0.0000000), wk =   0.0078125
        k(   68) = (   0.0000000   0.3750000  -0.0000000), wk =   0.0078125
        k(   69) = (   0.5000000   0.5000000   0.5000000), wk =   0.0039063
        k(   70) = (  -0.5000000  -0.0000000  -0.0000000), wk =   0.0039063
        k(   71) = (   0.0000000  -0.5000000   0.0000000), wk =   0.0039063
        k(   72) = (  -0.1250000  -0.2500000  -0.2500000), wk =   0.0078125
        k(   73) = (   0.1250000  -0.1250000  -0.1250000), wk =   0.0078125
        k(   74) = (   0.0000000   0.2500000   0.1250000), wk =   0.0078125
        k(   75) = (  -0.2500000  -0.3750000  -0.3750000), wk =   0.0078125
        k(   76) = (   0.2500000  -0.1250000  -0.1250000), wk =   0.0078125
        k(   77) = (   0.0000000   0.3750000   0.1250000), wk =   0.0078125
        k(   78) = (   0.6250000   0.5000000   0.5000000), wk =   0.0078125
        k(   79) = (  -0.6250000  -0.1250000  -0.1250000), wk =   0.0078125
        k(   80) = (   0.0000000  -0.5000000   0.1250000), wk =   0.0078125
        k(   81) = (   0.5000000   0.3750000   0.3750000), wk =   0.0078125
        k(   82) = (  -0.5000000  -0.1250000  -0.1250000), wk =   0.0078125
        k(   83) = (   0.0000000  -0.3750000   0.1250000), wk =   0.0078125
        k(   84) = (   0.3750000   0.2500000   0.2500000), wk =   0.0078125
        k(   85) = (  -0.3750000  -0.1250000  -0.1250000), wk =   0.0078125
        k(   86) = (   0.0000000  -0.2500000   0.1250000), wk =   0.0078125
        k(   87) = (   0.2500000   0.1250000   0.1250000), wk =   0.0078125
        k(   88) = (  -0.1250000  -0.3750000  -0.3750000), wk =   0.0078125
        k(   89) = (   0.1250000  -0.2500000  -0.2500000), wk =   0.0078125
        k(   90) = (   0.0000000   0.3750000   0.2500000), wk =   0.0078125
        k(   91) = (   0.7500000   0.5000000   0.5000000), wk =   0.0078125
        k(   92) = (  -0.7500000  -0.2500000  -0.2500000), wk =   0.0078125
        k(   93) = (   0.0000000  -0.5000000   0.2500000), wk =   0.0078125
        k(   94) = (   0.6250000   0.3750000   0.3750000), wk =   0.0078125
        k(   95) = (  -0.6250000  -0.2500000  -0.2500000), wk =   0.0078125
        k(   96) = (   0.0000000  -0.3750000   0.2500000), wk =   0.0078125
        k(   97) = (   0.5000000   0.2500000   0.2500000), wk =   0.0078125
        k(   98) = (   0.8750000   0.5000000   0.5000000), wk =   0.0078125
        k(   99) = (  -0.8750000  -0.3750000  -0.3750000), wk =   0.0078125
        k(  100) = (   0.0000000  -0.5000000   0.3750000), wk =   0.0078125
        k(  101) = (   0.7500000   0.3750000   0.3750000), wk =   0.0078125
        k(  102) = (   0.1250000   0.1250000   0.0000000), wk =   0.0078125
        k(  103) = (  -0.2500000  -0.1250000  -0.2500000), wk =   0.0078125
        k(  104) = (   0.2500000   0.0000000   0.1250000), wk =   0.0078125
        k(  105) = (  -0.1250000   0.1250000  -0.1250000), wk =   0.0078125
        k(  106) = (   0.1250000   0.1250000  -0.1250000), wk =   0.0078125
        k(  107) = (  -0.1250000  -0.2500000   0.0000000), wk =   0.0078125
        k(  108) = (  -0.2500000  -0.1250000  -0.0000000), wk =   0.0078125
        k(  109) = (   0.2500000   0.2500000   0.1250000), wk =   0.0078125
        k(  110) = (  -0.3750000  -0.2500000  -0.3750000), wk =   0.0078125
        k(  111) = (   0.3750000   0.0000000   0.1250000), wk =   0.0078125
        k(  112) = (  -0.1250000   0.2500000  -0.1250000), wk =   0.0078125
        k(  113) = (   0.1250000   0.1250000  -0.2500000), wk =   0.0078125
        k(  114) = (  -0.1250000  -0.3750000   0.0000000), wk =   0.0078125
        k(  115) = (  -0.3750000  -0.1250000  -0.0000000), wk =   0.0078125
        k(  116) = (   0.3750000   0.3750000   0.2500000), wk =   0.0078125
        k(  117) = (   0.5000000   0.6250000   0.5000000), wk =   0.0078125
        k(  118) = (  -0.5000000   0.0000000   0.1250000), wk =   0.0078125
        k(  119) = (  -0.1250000  -0.6250000  -0.1250000), wk =   0.0078125
        k(  120) = (   0.1250000   0.1250000   0.6250000), wk =   0.0078125
        k(  121) = (  -0.1250000   0.5000000   0.0000000), wk =   0.0078125
        k(  122) = (   0.5000000  -0.1250000   0.0000000), wk =   0.0078125
        k(  123) = (  -0.5000000  -0.5000000  -0.6250000), wk =   0.0078125
        k(  124) = (   0.3750000   0.5000000   0.3750000), wk =   0.0078125
        k(  125) = (  -0.3750000   0.0000000   0.1250000), wk =   0.0078125
        k(  126) = (  -0.1250000  -0.5000000  -0.1250000), wk =   0.0078125
        k(  127) = (   0.1250000   0.1250000   0.5000000), wk =   0.0078125
        k(  128) = (  -0.1250000   0.3750000  -0.0000000), wk =   0.0078125
        k(  129) = (   0.3750000  -0.1250000   0.0000000), wk =   0.0078125
        k(  130) = (  -0.3750000  -0.3750000  -0.5000000), wk =   0.0078125
        k(  131) = (   0.2500000   0.3750000   0.2500000), wk =   0.0078125
        k(  132) = (  -0.2500000  -0.0000000   0.1250000), wk =   0.0078125
        k(  133) = (  -0.1250000  -0.3750000  -0.1250000), wk =   0.0078125
        k(  134) = (   0.1250000   0.1250000   0.3750000), wk =   0.0078125
        k(  135) = (  -0.1250000   0.2500000   0.0000000), wk =   0.0078125
        k(  136) = (   0.2500000  -0.1250000   0.0000000), wk =   0.0078125
        k(  137) = (  -0.2500000  -0.2500000  -0.3750000), wk =   0.0078125
        k(  138) = (   0.1250000   0.2500000   0.1250000), wk =   0.0078125
        k(  139) = (   0.1250000   0.1250000   0.2500000), wk =   0.0078125
        k(  140) = (  -0.1250000   0.1250000   0.0000000), wk =   0.0078125
        k(  141) = (   0.1250000  -0.2500000  -0.1250000), wk =   0.0078125
        k(  142) = (   0.1250000  -0.1250000  -0.2500000), wk =   0.0078125
        k(  143) = (  -0.1250000  -0.3750000  -0.2500000), wk =   0.0078125
        k(  144) = (   0.7500000   0.6250000   0.5000000), wk =   0.0078125
        k(  145) = (  -0.7500000  -0.2500000  -0.1250000), wk =   0.0078125
        k(  146) = (  -0.1250000  -0.6250000   0.1250000), wk =   0.0078125
        k(  147) = (   0.1250000  -0.1250000   0.6250000), wk =   0.0078125
        k(  148) = (  -0.1250000   0.5000000  -0.2500000), wk =   0.0078125
        k(  149) = (   0.7500000   0.1250000   0.2500000), wk =   0.0078125
        k(  150) = (  -0.7500000  -0.5000000  -0.6250000), wk =   0.0078125
        k(  151) = (   0.6250000   0.5000000   0.3750000), wk =   0.0078125
        k(  152) = (  -0.6250000  -0.2500000  -0.1250000), wk =   0.0078125
        k(  153) = (  -0.1250000  -0.5000000   0.1250000), wk =   0.0078125
        k(  154) = (   0.1250000  -0.1250000   0.5000000), wk =   0.0078125
        k(  155) = (  -0.1250000   0.3750000  -0.2500000), wk =   0.0078125
        k(  156) = (   0.6250000   0.1250000   0.2500000), wk =   0.0078125
        k(  157) = (  -0.6250000  -0.3750000  -0.5000000), wk =   0.0078125
        k(  158) = (   0.5000000   0.3750000   0.2500000), wk =   0.0078125
        k(  159) = (  -0.5000000  -0.2500000  -0.1250000), wk =   0.0078125
        k(  160) = (  -0.1250000  -0.3750000   0.1250000), wk =   0.0078125
        k(  161) = (   0.1250000  -0.1250000   0.3750000), wk =   0.0078125
        k(  162) = (  -0.1250000   0.2500000  -0.2500000), wk =   0.0078125
        k(  163) = (   0.5000000   0.1250000   0.2500000), wk =   0.0078125
        k(  164) = (  -0.5000000  -0.2500000  -0.3750000), wk =   0.0078125
        k(  165) = (   0.3750000   0.2500000   0.1250000), wk =   0.0078125
        k(  166) = (   0.1250000  -0.1250000   0.2500000), wk =   0.0078125
        k(  167) = (   0.3750000   0.1250000   0.2500000), wk =   0.0078125
        k(  168) = (  -0.8750000  -0.3750000  -0.2500000), wk =   0.0078125
        k(  169) = (   0.1250000  -0.2500000   0.6250000), wk =   0.0078125
        k(  170) = (  -0.1250000   0.5000000  -0.3750000), wk =   0.0078125
        k(  171) = (   0.7500000   0.5000000   0.3750000), wk =   0.0078125
        k(  172) = (  -0.7500000  -0.3750000  -0.2500000), wk =   0.0078125
        k(  173) = (  -0.1250000  -0.5000000   0.2500000), wk =   0.0078125
        k(  174) = (   0.1250000  -0.2500000   0.5000000), wk =   0.0078125
        k(  175) = (  -0.1250000   0.3750000  -0.3750000), wk =   0.0078125
        k(  176) = (   0.7500000   0.2500000   0.3750000), wk =   0.0078125
        k(  177) = (  -0.7500000  -0.3750000  -0.5000000), wk =   0.0078125
        k(  178) = (   0.6250000   0.3750000   0.2500000), wk =   0.0078125
        k(  179) = (   0.1250000  -0.2500000   0.3750000), wk =   0.0078125
        k(  180) = (   0.6250000   0.2500000   0.3750000), wk =   0.0078125
        k(  181) = (   0.1250000   0.6250000   0.5000000), wk =   0.0078125
        k(  182) = (   0.2500000   0.2500000   0.0000000), wk =   0.0078125
        k(  183) = (  -0.3750000  -0.1250000  -0.3750000), wk =   0.0078125
        k(  184) = (   0.3750000   0.0000000   0.2500000), wk =   0.0078125
        k(  185) = (  -0.2500000   0.1250000  -0.2500000), wk =   0.0078125
        k(  186) = (   0.2500000   0.2500000  -0.1250000), wk =   0.0078125
        k(  187) = (  -0.2500000  -0.3750000   0.0000000), wk =   0.0078125
        k(  188) = (  -0.3750000  -0.2500000  -0.0000000), wk =   0.0078125
        k(  189) = (   0.3750000   0.3750000   0.1250000), wk =   0.0078125
        k(  190) = (   0.5000000   0.7500000   0.5000000), wk =   0.0078125
        k(  191) = (  -0.5000000  -0.0000000   0.2500000), wk =   0.0078125
        k(  192) = (  -0.2500000  -0.7500000  -0.2500000), wk =   0.0078125
        k(  193) = (   0.2500000   0.2500000   0.7500000), wk =   0.0078125
        k(  194) = (  -0.2500000   0.5000000   0.0000000), wk =   0.0078125
        k(  195) = (   0.5000000  -0.2500000   0.0000000), wk =   0.0078125
        k(  196) = (  -0.5000000  -0.5000000  -0.7500000), wk =   0.0078125
        k(  197) = (   0.3750000   0.6250000   0.3750000), wk =   0.0078125
        k(  198) = (  -0.3750000   0.0000000   0.2500000), wk =   0.0078125
        k(  199) = (  -0.2500000  -0.6250000  -0.2500000), wk =   0.0078125
        k(  200) = (   0.2500000   0.2500000   0.6250000), wk =   0.0078125
        k(  201) = (  -0.2500000   0.3750000   0.0000000), wk =   0.0078125
        k(  202) = (   0.3750000  -0.2500000   0.0000000), wk =   0.0078125
        k(  203) = (  -0.3750000  -0.3750000  -0.6250000), wk =   0.0078125
        k(  204) = (   0.2500000   0.5000000   0.2500000), wk =   0.0078125
        k(  205) = (   0.2500000   0.2500000   0.5000000), wk =   0.0078125
        k(  206) = (  -0.2500000   0.2500000   0.0000000), wk =   0.0078125
        k(  207) = (   0.2500000  -0.1250000   0.1250000), wk =   0.0078125
        k(  208) = (   0.2500000   0.1250000  -0.1250000), wk =   0.0078125
        k(  209) = (  -0.2500000  -0.3750000  -0.1250000), wk =   0.0078125
        k(  210) = (   0.6250000   0.7500000   0.5000000), wk =   0.0078125
        k(  211) = (  -0.6250000  -0.1250000   0.1250000), wk =   0.0078125
        k(  212) = (  -0.2500000  -0.7500000  -0.1250000), wk =   0.0078125
        k(  213) = (   0.2500000   0.1250000   0.7500000), wk =   0.0078125
        k(  214) = (  -0.2500000   0.5000000  -0.1250000), wk =   0.0078125
        k(  215) = (   0.6250000  -0.1250000   0.1250000), wk =   0.0078125
        k(  216) = (  -0.6250000  -0.5000000  -0.7500000), wk =   0.0078125
        k(  217) = (   0.5000000   0.6250000   0.3750000), wk =   0.0078125
        k(  218) = (  -0.5000000  -0.1250000   0.1250000), wk =   0.0078125
        k(  219) = (  -0.2500000  -0.6250000  -0.1250000), wk =   0.0078125
        k(  220) = (  -0.7500000  -0.3750000  -0.1250000), wk =   0.0078125
        k(  221) = (   0.2500000  -0.1250000   0.6250000), wk =   0.0078125
        k(  222) = (  -0.2500000   0.3750000  -0.3750000), wk =   0.0078125
        k(  223) = (   0.6250000   0.5000000   0.2500000), wk =   0.0078125
        k(  224) = (  -0.6250000  -0.3750000  -0.1250000), wk =   0.0078125
        k(  225) = (  -0.2500000  -0.5000000   0.1250000), wk =   0.0078125
        k(  226) = (   0.2500000  -0.1250000   0.5000000), wk =   0.0078125
        k(  227) = (  -0.2500000   0.2500000  -0.3750000), wk =   0.0078125
        k(  228) = (   0.6250000   0.1250000   0.3750000), wk =   0.0078125
        k(  229) = (  -0.6250000  -0.2500000  -0.5000000), wk =   0.0078125
        k(  230) = (   0.5000000   0.3750000   0.1250000), wk =   0.0078125
        k(  231) = (   0.2500000  -0.1250000   0.3750000), wk =   0.0078125
        k(  232) = (   0.5000000   0.1250000   0.3750000), wk =   0.0078125
        k(  233) = (   0.2500000   0.7500000   0.5000000), wk =   0.0078125
        k(  234) = (   0.3750000   0.3750000   0.0000000), wk =   0.0078125
        k(  235) = (   0.5000000   0.8750000   0.5000000), wk =   0.0078125
        k(  236) = (  -0.5000000  -0.0000000   0.3750000), wk =   0.0078125
        k(  237) = (  -0.3750000  -0.8750000  -0.3750000), wk =   0.0078125
        k(  238) = (   0.3750000   0.3750000   0.8750000), wk =   0.0078125
        k(  239) = (  -0.3750000   0.5000000  -0.0000000), wk =   0.0078125
        k(  240) = (   0.5000000  -0.3750000   0.0000000), wk =   0.0078125
        k(  241) = (  -0.5000000  -0.5000000  -0.8750000), wk =   0.0078125
        k(  242) = (   0.3750000   0.7500000   0.3750000), wk =   0.0078125
        k(  243) = (   0.3750000   0.3750000   0.7500000), wk =   0.0078125
        k(  244) = (  -0.3750000   0.3750000  -0.0000000), wk =   0.0078125
        k(  245) = (  -0.6250000  -0.1250000   0.2500000), wk =   0.0078125
        k(  246) = (   0.3750000   0.2500000   0.8750000), wk =   0.0078125
        k(  247) = (  -0.3750000   0.5000000  -0.1250000), wk =   0.0078125
        k(  248) = (   0.5000000   0.7500000   0.3750000), wk =   0.0078125
        k(  249) = (  -0.5000000  -0.1250000   0.2500000), wk =   0.0078125
        k(  250) = (  -0.3750000  -0.7500000  -0.2500000), wk =   0.0078125
        k(  251) = (   0.3750000   0.2500000   0.7500000), wk =   0.0078125
        k(  252) = (  -0.3750000   0.3750000  -0.1250000), wk =   0.0078125
        k(  253) = (   0.5000000  -0.2500000   0.1250000), wk =   0.0078125
        k(  254) = (  -0.5000000  -0.3750000  -0.7500000), wk =   0.0078125
        k(  255) = (   0.3750000   0.6250000   0.2500000), wk =   0.0078125
        k(  256) = (   0.3750000   0.2500000   0.6250000), wk =   0.0078125
        k(  257) = (  -0.3750000   0.2500000  -0.1250000), wk =   0.0078125
        k(  258) = (   0.3750000   0.8750000   0.5000000), wk =   0.0078125
        k(  259) = (  -0.5000000  -0.5000000   0.0000000), wk =   0.0039063
        k(  260) = (  -0.5000000  -0.6250000  -0.1250000), wk =   0.0078125

     Dense  grid:    13099 G-vectors     FFT dimensions: (  36,  36,  36)

     Smooth grid:     7703 G-vectors     FFT dimensions: (  27,  27,  27)

     Largest allocated arrays     est. size (Mb)     dimensions
        Kohn-Sham Wavefunctions         0.03 Mb     (     267,    8)
        NL pseudopotentials             0.15 Mb     (     267,   36)
        Each V/rho on FFT grid          0.18 Mb     (   11664)
        Each G-vector array             0.02 Mb     (    3275)
        G-vector shells                 0.01 Mb     (     838)
     Largest temporary arrays     est. size (Mb)     dimensions
        Auxiliary wavefunctions         0.13 Mb     (     267,   32)
        Each subspace H/S matrix        0.02 Mb     (      32,   32)
        Each <psi_i|beta_j> matrix      0.00 Mb     (      36,    8)
        Arrays for rho mixing           1.42 Mb     (   11664,    8)

     Initial potential from superposition of free atoms

     starting charge    7.99870, renormalised to    8.00000
     Starting wfc are    8 randomized atomic wfcs

     total cpu time spent up to now is        4.1 secs

     per-process dynamical memory:    14.6 Mb

     Self-consistent Calculation

     iteration #  1     ecut=    35.00 Ry     beta=0.30
     Davidson diagonalization with overlap
     ethr =  1.00E-02,  avg # of iterations =  3.8

     Threshold (ethr) on eigenvalues was too large:
     Diagonalizing with lowered threshold

     Davidson diagonalization with overlap
     ethr =  6.88E-04,  avg # of iterations =  1.1

     total cpu time spent up to now is       24.8 secs

     total energy              =     -19.12817674 Ry
     Harris-Foulkes estimate   =     -19.13388102 Ry
     estimated scf accuracy    <       0.05418120 Ry

     iteration #  2     ecut=    35.00 Ry     beta=0.30
     Davidson diagonalization with overlap
     ethr =  6.77E-04,  avg # of iterations =  1.0

     total cpu time spent up to now is       32.2 secs

     total energy              =     -19.11731553 Ry
     Harris-Foulkes estimate   =     -19.12844015 Ry
     estimated scf accuracy    <       0.03300602 Ry

     iteration #  3     ecut=    35.00 Ry     beta=0.30
     Davidson diagonalization with overlap
     ethr =  4.13E-04,  avg # of iterations =  1.0

     total cpu time spent up to now is       39.3 secs

     total energy              =     -19.11938223 Ry
     Harris-Foulkes estimate   =     -19.11925705 Ry
     estimated scf accuracy    <       0.00032233 Ry

     iteration #  4     ecut=    35.00 Ry     beta=0.30
     Davidson diagonalization with overlap
     ethr =  4.03E-06,  avg # of iterations =  3.9

     total cpu time spent up to now is       52.2 secs

     total energy              =     -19.11946567 Ry
     Harris-Foulkes estimate   =     -19.11949646 Ry
     estimated scf accuracy    <       0.00011445 Ry

     iteration #  5     ecut=    35.00 Ry     beta=0.30
     Davidson diagonalization with overlap
     ethr =  1.43E-06,  avg # of iterations =  1.0

     total cpu time spent up to now is       59.5 secs

     total energy              =     -19.11947557 Ry
     Harris-Foulkes estimate   =     -19.11947460 Ry
     estimated scf accuracy    <       0.00000149 Ry

     iteration #  6     ecut=    35.00 Ry     beta=0.30
     Davidson diagonalization with overlap
     ethr =  1.87E-08,  avg # of iterations =  2.5

     total cpu time spent up to now is       68.8 secs

     total energy              =     -19.11947593 Ry
     Harris-Foulkes estimate   =     -19.11947601 Ry
     estimated scf accuracy    <       0.00000036 Ry

     iteration #  7     ecut=    35.00 Ry     beta=0.30
     Davidson diagonalization with overlap
     ethr =  4.55E-09,  avg # of iterations =  1.2

     total cpu time spent up to now is       76.2 secs

     total energy              =     -19.11947597 Ry
     Harris-Foulkes estimate   =     -19.11947596 Ry
     estimated scf accuracy    <          2.3E-09 Ry

     iteration #  8     ecut=    35.00 Ry     beta=0.30
     Davidson diagonalization with overlap
     ethr =  2.83E-11,  avg # of iterations =  3.0

     total cpu time spent up to now is       86.7 secs

     End of self-consistent calculation

          k = 0.0000 0.0000 0.0000 (   941 PWs)   bands (ev):

    -5.8758   5.9846   6.0442   6.0945   8.5279   8.5570   8.5873   9.2300

     occupation numbers 
     1.0000   0.9784   0.9462   0.8963   0.0000   0.0000   0.0000   0.0000

          k = 0.0875 0.0884-0.0884 (   938 PWs)   bands (ev):

    -5.6732   4.4524   5.7151   5.7624   8.4417   8.9747   8.9948  10.6131

     occupation numbers 
     1.0000   1.0000   0.9999   0.9998   0.0000   0.0000   0.0000   0.0000

          k = 0.1750 0.1768-0.1768 (   948 PWs)   bands (ev):

    -5.0822   2.1259   5.2415   5.3052   7.9538   9.4645   9.5120  12.7986

     occupation numbers 
     1.0000   1.0000   1.0000   1.0000   0.0000   0.0000   0.0000   0.0000

          k = 0.2625 0.2652-0.2652 (   943 PWs)   bands (ev):

    -4.1964   0.1160   4.9109   4.9893   7.5866   9.3860   9.4729  13.7045

     occupation numbers 
     1.0000   1.0000   1.0000   1.0000   0.0000   0.0000   0.0000   0.0000

          k =-0.3501-0.3536 0.3536 (   966 PWs)   bands (ev):

    -3.5664  -0.8975   4.7975   4.8817   7.4580   9.2716   9.3653  13.5399

     occupation numbers 
     1.0000   1.0000   1.0000   1.0000   0.0000   0.0000   0.0000   0.0000

          k = 0.1750 0.0000 0.0000 (   942 PWs)   bands (ev):

    -5.6075   4.6489   5.2449   5.2784   8.0236   9.6767   9.6885  10.2917

     occupation numbers 
     1.0000   1.0000   1.0000   1.0000   0.0000   0.0000   0.0000   0.0000

          k = 0.2625 0.0884-0.0884 (   948 PWs)   bands (ev):

    -5.1452   2.8192   4.7422   4.7720   8.1584   9.6509  10.4530  10.6770

     occupation numbers 
     1.0000   1.0000   1.0000   1.0000   0.0000   0.0000   0.0000   0.0000

          k = 0.3501 0.1768-0.1768 (   960 PWs)   bands (ev):

    -4.3390   0.7796   4.1547   4.4874   8.2356   9.5382  10.4751  11.4737

     occupation numbers 
     1.0000   1.0000   1.0000   1.0000   0.0000   0.0000   0.0000   0.0000

          k =-0.2625-0.4419 0.4419 (   956 PWs)   bands (ev):

    -3.4846  -0.6745   3.7032   4.5181   8.1847   9.3992  10.1174  13.3685

     occupation numbers 
     1.0000   1.0000   1.0000   1.0000   0.0000   0.0000   0.0000   0.0000

          k =-0.1750-0.3536 0.3536 (   952 PWs)   bands (ev):

    -3.7163  -0.3184   3.5237   4.8147   8.3483   9.5173   9.8794  13.7717

     occupation numbers 
     1.0000   1.0000   1.0000   1.0000   0.0000   0.0000   0.0000   0.0000

          k =-0.0875-0.2652 0.2652 (   950 PWs)   bands (ev):

    -4.6298   1.4226   3.6795   5.2982   8.6942   9.6741   9.7727  12.1889

     occupation numbers 
     1.0000   1.0000   1.0000   1.0000   0.0000   0.0000   0.0000   0.0000

          k = 0.0000-0.1768 0.1768 (   943 PWs)   bands (ev):

    -5.3362   3.3643   4.3668   5.7635   9.0298   9.1221   9.2716  11.4407

     occupation numbers 
     1.0000   1.0000   1.0000   0.9998   0.0000   0.0000   0.0000   0.0000

          k = 0.3501 0.0000 0.0000 (   954 PWs)   bands (ev):

    -4.8120   2.4704   4.1803   4.2036   7.1426   9.0666  11.7203  11.7223

     occupation numbers 
     1.0000   1.0000   1.0000   1.0000   0.0000   0.0000   0.0000   0.0000

          k = 0.4376 0.0884-0.0884 (   966 PWs)   bands (ev):

    -4.1125   1.0874   3.3725   3.8703   7.3542   8.8834  11.9203  12.2487

     occupation numbers 
     1.0000   1.0000   1.0000   1.0000   0.0000   0.0000   0.0000   0.0000

          k =-0.1750-0.5303 0.5303 (   957 PWs)   bands (ev):

    -3.1962  -0.3203   2.4717   3.8788   7.5086  10.4855  11.6489  11.9162

     occupation numbers 
     1.0000   1.0000   1.0000   1.0000   0.0000   0.0000   0.0000   0.0000

          k =-0.0875-0.4419 0.4419 (   960 PWs)   bands (ev):

    -2.9768  -0.5854   2.0013   4.1985   7.8402  11.3629  11.4730  13.0007

     occupation numbers 
     1.0000   1.0000   1.0000   1.0000   0.0000   0.0000   0.0000   0.0000

          k = 0.0000-0.3536 0.3536 (   955 PWs)   bands (ev):

    -3.8385   0.5608   2.2405   4.7526   8.4518  10.7819  11.0208  12.0413

     occupation numbers 
     1.0000   1.0000   1.0000   1.0000   0.0000   0.0000   0.0000   0.0000

          k = 0.5251 0.0000 0.0000 (   970 PWs)   bands (ev):

    -3.5201   0.2560   3.4766   3.4961   6.6274   7.5139  13.9856  13.9860

     occupation numbers 
     1.0000   1.0000   1.0000   1.0000   0.0075   0.0000   0.0000   0.0000

          k =-0.0875-0.6187 0.6187 (   963 PWs)   bands (ev):

    -2.6360  -0.8044   2.6353   3.4039   6.8867   7.9962  14.2262  14.2633

     occupation numbers 
     1.0000   1.0000   1.0000   1.0000   0.0000   0.0000   0.0000   0.0000

          k = 0.0000-0.5303 0.5303 (   959 PWs)   bands (ev):

    -2.1890  -1.1868   1.7335   3.6618   7.1958  10.1790  13.4449  13.8871

     occupation numbers 
     1.0000   1.0000   1.0000   1.0000   0.0000   0.0000   0.0000   0.0000

          k =-0.7001 0.0000 0.0000 (   966 PWs)   bands (ev):

    -1.8115  -1.7769   3.2354   3.2539   6.6984   6.7241  16.0120  16.0199

     occupation numbers 
     1.0000   1.0000   1.0000   1.0000   0.0017   0.0010   0.0000   0.0000

          k = 0.0000 0.1768 0.0000 (   941 PWs)   bands (ev):

    -5.6029   4.7123   5.1913   5.2468   7.9692   9.6613   9.7402  10.2891

     occupation numbers 
     1.0000   1.0000   1.0000   1.0000   0.0000   0.0000   0.0000   0.0000

          k = 0.0875 0.2652-0.0884 (   949 PWs)   bands (ev):

    -5.1362   2.8275   4.6909   4.7958   8.0892   9.6650  10.4502  10.7176

     occupation numbers 
     1.0000   1.0000   1.0000   1.0000   0.0000   0.0000   0.0000   0.0000

          k = 0.1750 0.3536-0.1768 (   958 PWs)   bands (ev):

    -4.3270   0.7721   4.2122   4.4251   8.1696   9.6225  10.4292  11.4010

     occupation numbers 
     1.0000   1.0000   1.0000   1.0000   0.0000   0.0000   0.0000   0.0000

          k =-0.4376-0.2652 0.4419 (   956 PWs)   bands (ev):

    -3.4769  -0.6777   3.7730   4.4465   8.1064   9.4972  10.0673  13.2634

     occupation numbers 
     1.0000   1.0000   1.0000   1.0000   0.0000   0.0000   0.0000   0.0000

          k =-0.3501-0.1768 0.3536 (   951 PWs)   bands (ev):

    -3.7235  -0.3035   3.5905   4.7400   8.2703   9.5999   9.8430  13.7961

     occupation numbers 
     1.0000   1.0000   1.0000   1.0000   0.0000   0.0000   0.0000   0.0000

          k =-0.2625-0.0884 0.2652 (   951 PWs)   bands (ev):

    -4.6377   1.4396   3.7355   5.2287   8.6363   9.6666   9.8293  12.2246

     occupation numbers 
     1.0000   1.0000   1.0000   1.0000   0.0000   0.0000   0.0000   0.0000

          k =-0.1750 0.0000 0.1768 (   948 PWs)   bands (ev):

    -5.3407   3.3676   4.4184   5.7083   8.9735   9.1273   9.3488  11.4715

     occupation numbers 
     1.0000   1.0000   1.0000   1.0000   0.0000   0.0000   0.0000   0.0000

          k = 0.3501 0.1768 0.0000 (   951 PWs)   bands (ev):

    -4.5638   1.7424   3.3500   4.5949   8.4796   9.8783  10.1365  11.4419

     occupation numbers 
     1.0000   1.0000   1.0000   1.0000   0.0000   0.0000   0.0000   0.0000

          k =-0.2625-0.4419 0.6187 (   952 PWs)   bands (ev):

    -3.6849   0.2233   2.7136   4.0933   8.8861   9.5118  11.0452  11.8561

     occupation numbers 
     1.0000   1.0000   1.0000   1.0000   0.0000   0.0000   0.0000   0.0000

          k =-0.1750-0.3536 0.5303 (   956 PWs)   bands (ev):

    -3.0329  -0.7139   2.5569   3.8856   9.0440   9.1229  11.8172  13.1006

     occupation numbers 
     1.0000   1.0000   1.0000   1.0000   0.0000   0.0000   0.0000   0.0000

          k =-0.0875-0.2652 0.4419 (   949 PWs)   bands (ev):

    -3.6673   0.2158   2.6700   4.1290   8.8293   9.5707  10.9553  11.8364

     occupation numbers 
     1.0000   1.0000   1.0000   1.0000   0.0000   0.0000   0.0000   0.0000

          k = 0.0000-0.1768 0.3536 (   959 PWs)   bands (ev):

    -4.5486   1.7614   3.2824   4.6229   8.3980   9.8757  10.1837  11.4207

     occupation numbers 
     1.0000   1.0000   1.0000   1.0000   0.0000   0.0000   0.0000   0.0000

          k =-0.1750-0.5303 0.7071 (   957 PWs)   bands (ev):

    -3.3187   0.0612   2.7089   3.2882   7.9795   8.6450  11.7169  13.9163

     occupation numbers 
     1.0000   1.0000   1.0000   1.0000   0.0000   0.0000   0.0000   0.0000

          k =-0.0875-0.4419 0.6187 (   951 PWs)   bands (ev):

    -2.4510  -0.8760   1.9693   3.0959   8.3994  10.3206  11.2437  13.3643

     occupation numbers 
     1.0000   1.0000   1.0000   1.0000   0.0000   0.0000   0.0000   0.0000

          k =-0.0000-0.3536 0.5303 (   958 PWs)   bands (ev):

    -2.7763  -0.5205   1.7786   3.4750   8.8812  10.4981  11.1578  13.0817

     occupation numbers 
     1.0000   1.0000   1.0000   1.0000   0.0000   0.0000   0.0000   0.0000

          k =-0.7001 0.1768 0.0000 (   960 PWs)   bands (ev):

    -1.7243  -1.6907   2.6411   2.6608   7.9814   8.0064  13.7806  13.7865

     occupation numbers 
     1.0000   1.0000   1.0000   1.0000   0.0000   0.0000   0.0000   0.0000

          k = 0.0000 0.3536 0.0000 (   960 PWs)   bands (ev):

    -4.7940   2.5402   4.1171   4.1495   7.0637   9.0798  11.6641  11.8068

     occupation numbers 
     1.0000   1.0000   1.0000   1.0000   0.0000   0.0000   0.0000   0.0000

          k = 0.0875 0.4419-0.0884 (   959 PWs)   bands (ev):

    -4.0870   1.1262   3.3605   3.8039   7.2758   8.8355  11.9333  12.2446

     occupation numbers 
     1.0000   1.0000   1.0000   1.0000   0.0000   0.0000   0.0000   0.0000

          k =-0.5251-0.1768 0.5303 (   956 PWs)   bands (ev):

    -3.1710  -0.3088   2.5078   3.8050   7.4354  10.3713  11.6632  11.9036

     occupation numbers 
     1.0000   1.0000   1.0000   1.0000   0.0000   0.0000   0.0000   0.0000

          k =-0.4376-0.0884 0.4419 (   957 PWs)   bands (ev):

    -2.9802  -0.5542   2.0532   4.1198   7.7543  11.3523  11.5050  12.8648

     occupation numbers 
     1.0000   1.0000   1.0000   1.0000   0.0000   0.0000   0.0000   0.0000

          k =-0.3501 0.0000 0.3536 (   959 PWs)   bands (ev):

    -3.8508   0.5947   2.2949   4.6740   8.3598  10.7655  11.1149  12.0561

     occupation numbers 
     1.0000   1.0000   1.0000   1.0000   0.0000   0.0000   0.0000   0.0000

          k = 0.1750 0.3536 0.0000 (   951 PWs)   bands (ev):

    -4.5505   1.7622   3.3249   4.6008   8.3735   9.7839  10.1356  11.5492

     occupation numbers 
     1.0000   1.0000   1.0000   1.0000   0.0000   0.0000   0.0000   0.0000

          k =-0.4376-0.2652 0.6187 (   952 PWs)   bands (ev):

    -3.6696   0.2289   2.7155   4.1025   8.7659   9.4477  10.9248  11.9649

     occupation numbers 
     1.0000   1.0000   1.0000   1.0000   0.0000   0.0000   0.0000   0.0000

          k =-0.3501-0.1768 0.5303 (   956 PWs)   bands (ev):

    -3.0270  -0.7035   2.5927   3.8676   8.9196   9.0505  11.9411  13.0055

     occupation numbers 
     1.0000   1.0000   1.0000   1.0000   0.0000   0.0000   0.0000   0.0000

          k =-0.1750-0.3536 0.7071 (   952 PWs)   bands (ev):

    -2.7854  -0.5089   1.8232   3.4204   8.8265  10.5884  11.2396  12.9321

     occupation numbers 
     1.0000   1.0000   1.0000   1.0000   0.0000   0.0000   0.0000   0.0000

          k =-0.0875-0.2652 0.6187 (   958 PWs)   bands (ev):

    -2.4299  -0.8553   1.9584   3.0562   8.3394  10.2111  11.3062  13.4798

     occupation numbers 
     1.0000   1.0000   1.0000   1.0000   0.0000   0.0000   0.0000   0.0000

          k =-0.0000-0.1768 0.5303 (   954 PWs)   bands (ev):

    -3.2886   0.1047   2.6396   3.2699   7.8908   8.5835  11.7862  13.8541

     occupation numbers 
     1.0000   1.0000   1.0000   1.0000   0.0000   0.0000   0.0000   0.0000

          k =-0.7001 0.3536 0.0000 (   952 PWs)   bands (ev):

    -1.6108  -1.5839   2.1707   2.1867  10.2433  10.2702  10.9977  11.0006

     occupation numbers 
     1.0000   1.0000   1.0000   1.0000   0.0000   0.0000   0.0000   0.0000

          k = 0.0000 0.5303 0.0000 (   950 PWs)   bands (ev):

    -3.4824   0.3274   3.4046   3.4263   6.5386   7.4718  13.8872  14.0915

     occupation numbers 
     1.0000   1.0000   1.0000   1.0000   0.0346   0.0000   0.0000   0.0000

          k =-0.6126-0.0884 0.6187 (   961 PWs)   bands (ev):

    -2.5918  -0.7483   2.5934   3.3290   6.8068   7.9022  14.1307  14.3509

     occupation numbers 
     1.0000   1.0000   1.0000   1.0000   0.0001   0.0000   0.0000   0.0000

          k =-0.5251 0.0000 0.5303 (   959 PWs)   bands (ev):

    -2.1716  -1.1346   1.7388   3.5839   7.1127  10.0493  13.4083  13.9736

     occupation numbers 
     1.0000   1.0000   1.0000   1.0000   0.0000   0.0000   0.0000   0.0000

          k =-0.5251-0.1768 0.7071 (   952 PWs)   bands (ev):

    -3.2869   0.1052   2.6691   3.2700   7.8583   8.5582  11.6018  14.0411

     occupation numbers 
     1.0000   1.0000   1.0000   1.0000   0.0000   0.0000   0.0000   0.0000

          k =-0.4376-0.0884 0.6187 (   954 PWs)   bands (ev):

    -2.4252  -0.8447   1.9768   3.0669   8.2696  10.1803  11.1334  13.2821

     occupation numbers 
     1.0000   1.0000   1.0000   1.0000   0.0000   0.0000   0.0000   0.0000

          k =-0.3501 0.0000 0.5303 (   953 PWs)   bands (ev):

    -2.7772  -0.4824   1.8149   3.4398   8.7373  10.4306  11.0766  12.9111

     occupation numbers 
     1.0000   1.0000   1.0000   1.0000   0.0000   0.0000   0.0000   0.0000

          k =-0.7001 0.5303 0.0000 (   964 PWs)   bands (ev):

    -1.6697  -1.6565   2.5947   2.6009   7.9043   7.9106  13.8777  13.8978

     occupation numbers 
     1.0000   1.0000   1.0000   1.0000   0.0000   0.0000   0.0000   0.0000

          k = 0.0000-0.7071 0.0000 (   966 PWs)   bands (ev):

    -1.7528  -1.7186   3.1602   3.1785   6.6198   6.6458  15.9815  15.9897

     occupation numbers 
     1.0000   1.0000   1.0000   1.0000   0.0087   0.0052   0.0000   0.0000

          k = 0.1750-0.7071 0.0000 (   962 PWs)   bands (ev):

    -1.6765  -1.6435   2.6019   2.6214   7.8647   7.8897  13.6668  13.6730

     occupation numbers 
     1.0000   1.0000   1.0000   1.0000   0.0000   0.0000   0.0000   0.0000

          k = 0.3501-0.7071 0.0000 (   952 PWs)   bands (ev):

    -1.5898  -1.5636   2.1750   2.1907  10.1318  10.1596  10.8595  10.8613

     occupation numbers 
     1.0000   1.0000   1.0000   1.0000   0.0000   0.0000   0.0000   0.0000

          k =-0.0875-0.0884-0.0884 (   938 PWs)   bands (ev):

    -5.6725   4.4086   5.7268   5.8028   8.4665   8.9609   8.9951  10.6007

     occupation numbers 
     1.0000   1.0000   0.9999   0.9995   0.0000   0.0000   0.0000   0.0000

          k =-0.0875 0.0884 0.0884 (   938 PWs)   bands (ev):

    -5.6728   4.4309   5.6988   5.8045   8.4546   8.9550   9.0073  10.6070

     occupation numbers 
     1.0000   1.0000   1.0000   0.9995   0.0000   0.0000   0.0000   0.0000

          k = 0.0875-0.0884 0.0884 (   938 PWs)   bands (ev):

    -5.6728   4.4299   5.7384   5.7657   8.4530   8.9711   8.9925  10.6068

     occupation numbers 
     1.0000   1.0000   0.9999   0.9998   0.0000   0.0000   0.0000   0.0000

          k =-0.1750-0.1768-0.1768 (   948 PWs)   bands (ev):

    -5.0787   2.0900   5.2453   5.3363   7.9718   9.4893   9.5161  12.7845

     occupation numbers 
     1.0000   1.0000   1.0000   1.0000   0.0000   0.0000   0.0000   0.0000

          k =-0.1750 0.1768 0.1768 (   948 PWs)   bands (ev):

    -5.0804   2.1080   5.2230   5.3413   7.9629   9.4808   9.5102  12.7930

     occupation numbers 
     1.0000   1.0000   1.0000   1.0000   0.0000   0.0000   0.0000   0.0000

          k = 0.1750-0.1768 0.1768 (   948 PWs)   bands (ev):

    -5.0805   2.1079   5.2626   5.3017   7.9625   9.4592   9.5316  12.7900

     occupation numbers 
     1.0000   1.0000   1.0000   1.0000   0.0000   0.0000   0.0000   0.0000

          k =-0.2625-0.2652-0.2652 (   943 PWs)   bands (ev):

    -4.1850   0.0759   4.9108   5.0163   7.6017   9.4209   9.4779  13.7206

     occupation numbers 
     1.0000   1.0000   1.0000   1.0000   0.0000   0.0000   0.0000   0.0000

          k =-0.2625 0.2652 0.2652 (   943 PWs)   bands (ev):

    -4.1907   0.0959   4.8907   5.0232   7.5941   9.4229   9.4557  13.7122

     occupation numbers 
     1.0000   1.0000   1.0000   1.0000   0.0000   0.0000   0.0000   0.0000

          k = 0.2625-0.2652 0.2652 (   943 PWs)   bands (ev):

    -4.1908   0.0960   4.9305   4.9833   7.5940   9.3806   9.4982  13.7126

     occupation numbers 
     1.0000   1.0000   1.0000   1.0000   0.0000   0.0000   0.0000   0.0000

          k = 0.3501 0.3536 0.3536 (   966 PWs)   bands (ev):

    -3.5415  -0.9499   4.7961   4.9076   7.4722   9.3066   9.3697  13.5580

     occupation numbers 
     1.0000   1.0000   1.0000   1.0000   0.0000   0.0000   0.0000   0.0000

          k = 0.3501-0.3536-0.3536 (   966 PWs)   bands (ev):

    -3.5540  -0.9237   4.7766   4.9151   7.4650   9.3098   9.3466  13.5487

     occupation numbers 
     1.0000   1.0000   1.0000   1.0000   0.0000   0.0000   0.0000   0.0000

          k =-0.3501 0.3536-0.3536 (   966 PWs)   bands (ev):

    -3.5542  -0.9235   4.8166   4.8749   7.4650   9.2659   9.3908  13.5490

     occupation numbers 
     1.0000   1.0000   1.0000   1.0000   0.0000   0.0000   0.0000   0.0000

          k =-0.2625-0.0884-0.0884 (   948 PWs)   bands (ev):

    -5.1436   2.7879   4.7650   4.7829   8.1688   9.6536  10.4595  10.6735

     occupation numbers 
     1.0000   1.0000   1.0000   1.0000   0.0000   0.0000   0.0000   0.0000

          k =-0.2625 0.0884 0.0884 (   948 PWs)   bands (ev):

    -5.1447   2.8108   4.7456   4.7756   8.1681   9.6613  10.4444  10.6662

     occupation numbers 
     1.0000   1.0000   1.0000   1.0000   0.0000   0.0000   0.0000   0.0000

          k = 0.2625-0.0884 0.0884 (   948 PWs)   bands (ev):

    -5.1441   2.7965   4.7412   4.7997   8.1589   9.6435  10.4680  10.6842

     occupation numbers 
     1.0000   1.0000   1.0000   1.0000   0.0000   0.0000   0.0000   0.0000

          k =-0.3501-0.1768-0.1768 (   960 PWs)   bands (ev):

    -4.3320   0.7444   4.1601   4.5106   8.2582   9.5549  10.4858  11.4464

     occupation numbers 
     1.0000   1.0000   1.0000   1.0000   0.0000   0.0000   0.0000   0.0000

          k =-0.3501 0.1768 0.1768 (   960 PWs)   bands (ev):

    -4.3361   0.7660   4.1370   4.5145   8.2546   9.5564  10.4625  11.4473

     occupation numbers 
     1.0000   1.0000   1.0000   1.0000   0.0000   0.0000   0.0000   0.0000

          k = 0.3501-0.1768 0.1768 (   960 PWs)   bands (ev):

    -4.3349   0.7580   4.1779   4.4835   8.2389   9.5368  10.4983  11.4731

     occupation numbers 
     1.0000   1.0000   1.0000   1.0000   0.0000   0.0000   0.0000   0.0000

          k = 0.2625 0.4419 0.4419 (   956 PWs)   bands (ev):

    -3.4629  -0.7242   3.7073   4.5419   8.2061   9.4194  10.1235  13.3513

     occupation numbers 
     1.0000   1.0000   1.0000   1.0000   0.0000   0.0000   0.0000   0.0000

          k = 0.2625-0.4419-0.4419 (   956 PWs)   bands (ev):

    -3.4740  -0.6982   3.6885   4.5468   8.2034   9.4169  10.0999  13.3507

     occupation numbers 
     1.0000   1.0000   1.0000   1.0000   0.0000   0.0000   0.0000   0.0000

          k =-0.2625 0.4419-0.4419 (   956 PWs)   bands (ev):

    -3.4738  -0.7004   3.7221   4.5133   8.1871   9.4017  10.1408  13.3696

     occupation numbers 
     1.0000   1.0000   1.0000   1.0000   0.0000   0.0000   0.0000   0.0000

          k = 0.1750 0.3536 0.3536 (   952 PWs)   bands (ev):

    -3.6993  -0.3653   3.5290   4.8421   8.3677   9.5418   9.8800  13.7764

     occupation numbers 
     1.0000   1.0000   1.0000   1.0000   0.0000   0.0000   0.0000   0.0000

          k = 0.1750-0.3536-0.3536 (   952 PWs)   bands (ev):

    -3.7065  -0.3446   3.5129   4.8472   8.3643   9.5387   9.8568  13.7799

     occupation numbers 
     1.0000   1.0000   1.0000   1.0000   0.0000   0.0000   0.0000   0.0000

          k =-0.1750 0.3536-0.3536 (   952 PWs)   bands (ev):

    -3.7093  -0.3391   3.5398   4.8097   8.3516   9.5205   9.9026  13.7686

     occupation numbers 
     1.0000   1.0000   1.0000   1.0000   0.0000   0.0000   0.0000   0.0000

          k = 0.0875 0.2652 0.2652 (   950 PWs)   bands (ev):

    -4.6242   1.3817   3.6890   5.3332   8.7127   9.6632   9.8007  12.1740

     occupation numbers 
     1.0000   1.0000   1.0000   1.0000   0.0000   0.0000   0.0000   0.0000

          k = 0.0875-0.2652-0.2652 (   950 PWs)   bands (ev):

    -4.6258   1.3956   3.6753   5.3369   8.7075   9.6459   9.7987  12.1838

     occupation numbers 
     1.0000   1.0000   1.0000   1.0000   0.0000   0.0000   0.0000   0.0000

          k =-0.0875 0.2652-0.2652 (   950 PWs)   bands (ev):

    -4.6282   1.4086   3.6933   5.2945   8.6992   9.6912   9.7749  12.1793

     occupation numbers 
     1.0000   1.0000   1.0000   1.0000   0.0000   0.0000   0.0000   0.0000

          k = 0.0000 0.1768 0.1768 (   943 PWs)   bands (ev):

    -5.3347   3.3263   4.3734   5.8103   9.0398   9.0922   9.2907  11.4457

     occupation numbers 
     1.0000   1.0000   1.0000   0.9994   0.0000   0.0000   0.0000   0.0000

          k =-0.4376-0.0884-0.0884 (   966 PWs)   bands (ev):

    -4.1092   1.0665   3.3718   3.8908   7.3697   8.8648  11.9290  12.2626

     occupation numbers 
     1.0000   1.0000   1.0000   1.0000   0.0000   0.0000   0.0000   0.0000

          k =-0.4376 0.0884 0.0884 (   966 PWs)   bands (ev):

    -4.1115   1.0841   3.3520   3.8921   7.3722   8.8668  11.9224  12.2443

     occupation numbers 
     1.0000   1.0000   1.0000   1.0000   0.0000   0.0000   0.0000   0.0000

          k = 0.4376-0.0884 0.0884 (   966 PWs)   bands (ev):

    -4.1101   1.0699   3.3921   3.8690   7.3518   8.8813  11.9270  12.2670

     occupation numbers 
     1.0000   1.0000   1.0000   1.0000   0.0000   0.0000   0.0000   0.0000

          k = 0.1750 0.5303 0.5303 (   957 PWs)   bands (ev):

    -3.1811  -0.3593   2.4751   3.8994   7.5342  10.4619  11.6554  11.9256

     occupation numbers 
     1.0000   1.0000   1.0000   1.0000   0.0000   0.0000   0.0000   0.0000

          k = 0.1750-0.5303-0.5303 (   957 PWs)   bands (ev):

    -3.1891  -0.3354   2.4565   3.9013   7.5357  10.4581  11.6552  11.9052

     occupation numbers 
     1.0000   1.0000   1.0000   1.0000   0.0000   0.0000   0.0000   0.0000

          k =-0.1750 0.5303-0.5303 (   957 PWs)   bands (ev):

    -3.1883  -0.3441   2.4903   3.8769   7.5071  10.4890  11.6495  11.9365

     occupation numbers 
     1.0000   1.0000   1.0000   1.0000   0.0000   0.0000   0.0000   0.0000

          k = 0.0875 0.4419 0.4419 (   960 PWs)   bands (ev):

    -2.9533  -0.6368   2.0070   4.2222   7.8673  11.3744  11.4710  12.9635

     occupation numbers 
     1.0000   1.0000   1.0000   1.0000   0.0000   0.0000   0.0000   0.0000

          k = 0.0875-0.4419-0.4419 (   960 PWs)   bands (ev):

    -2.9609  -0.6176   1.9941   4.2239   7.8681  11.3602  11.4532  12.9820

     occupation numbers 
     1.0000   1.0000   1.0000   1.0000   0.0000   0.0000   0.0000   0.0000

          k =-0.0875 0.4419-0.4419 (   960 PWs)   bands (ev):

    -2.9695  -0.6045   2.0142   4.1969   7.8394  11.3766  11.4909  12.9831

     occupation numbers 
     1.0000   1.0000   1.0000   1.0000   0.0000   0.0000   0.0000   0.0000

          k = 0.0000 0.3536 0.3536 (   955 PWs)   bands (ev):

    -3.8302   0.5255   2.2433   4.7836   8.4803  10.7517  11.0332  12.0266

     occupation numbers 
     1.0000   1.0000   1.0000   1.0000   0.0000   0.0000   0.0000   0.0000

          k = 0.0875 0.6187 0.6187 (   963 PWs)   bands (ev):

    -2.6280  -0.8182   2.6221   3.4229   6.9101   7.9728  14.2350  14.2698

     occupation numbers 
     1.0000   1.0000   1.0000   1.0000   0.0000   0.0000   0.0000   0.0000

          k = 0.0875-0.6187-0.6187 (   963 PWs)   bands (ev):

    -2.6326  -0.8089   2.6159   3.4233   6.9115   7.9728  14.2184  14.2646

     occupation numbers 
     1.0000   1.0000   1.0000   1.0000   0.0000   0.0000   0.0000   0.0000

          k =-0.0875 0.6187-0.6187 (   963 PWs)   bands (ev):

    -2.6315  -0.8136   2.6414   3.4035   6.8854   7.9961  14.2427  14.2686

     occupation numbers 
     1.0000   1.0000   1.0000   1.0000   0.0000   0.0000   0.0000   0.0000

          k = 0.0000 0.5303 0.5303 (   959 PWs)   bands (ev):

    -2.1615  -1.2215   1.7189   3.6829   7.2225  10.1535  13.4184  13.9062

     occupation numbers 
     1.0000   1.0000   1.0000   1.0000   0.0000   0.0000   0.0000   0.0000

          k = 0.0000 0.0000 0.1768 (   941 PWs)   bands (ev):

    -5.6029   4.7113   5.1977   5.2414   7.9692   9.6615   9.7399  10.2890

     occupation numbers 
     1.0000   1.0000   1.0000   1.0000   0.0000   0.0000   0.0000   0.0000

          k =-0.0875-0.2652-0.0884 (   949 PWs)   bands (ev):

    -5.1345   2.7954   4.7086   4.8130   8.0994   9.6642  10.4572  10.7173

     occupation numbers 
     1.0000   1.0000   1.0000   1.0000   0.0000   0.0000   0.0000   0.0000

          k =-0.0875 0.2652 0.0884 (   949 PWs)   bands (ev):

    -5.1350   2.8046   4.6837   4.8302   8.0902   9.6551  10.4656  10.7265

     occupation numbers 
     1.0000   1.0000   1.0000   1.0000   0.0000   0.0000   0.0000   0.0000

          k = 0.0875-0.2652 0.0884 (   949 PWs)   bands (ev):

    -5.1357   2.8184   4.7177   4.7767   8.0981   9.6744  10.4417  10.7083

     occupation numbers 
     1.0000   1.0000   1.0000   1.0000   0.0000   0.0000   0.0000   0.0000

          k =-0.0875-0.0884 0.2652 (   949 PWs)   bands (ev):

    -5.1365   2.8345   4.7012   4.7760   8.0934   9.6733  10.4383  10.7094

     occupation numbers 
     1.0000   1.0000   1.0000   1.0000   0.0000   0.0000   0.0000   0.0000

          k =-0.0875 0.0884-0.2652 (   949 PWs)   bands (ev):

    -5.1353   2.8113   4.7054   4.7989   8.0940   9.6659  10.4534  10.7165

     occupation numbers 
     1.0000   1.0000   1.0000   1.0000   0.0000   0.0000   0.0000   0.0000

          k = 0.0875-0.0884-0.2652 (   949 PWs)   bands (ev):

    -5.1353   2.8113   4.6917   4.8129   8.0945   9.6630  10.4536  10.7188

     occupation numbers 
     1.0000   1.0000   1.0000   1.0000   0.0000   0.0000   0.0000   0.0000

          k = 0.0875 0.0884 0.2652 (   949 PWs)   bands (ev):

    -5.1341   2.7885   4.6993   4.8318   8.0952   9.6561  10.4691  10.7250

     occupation numbers 
     1.0000   1.0000   1.0000   1.0000   0.0000   0.0000   0.0000   0.0000

          k =-0.1750-0.3536-0.1768 (   958 PWs)   bands (ev):

    -4.3199   0.7365   4.2140   4.4523   8.1928   9.6358  10.4421  11.3740

     occupation numbers 
     1.0000   1.0000   1.0000   1.0000   0.0000   0.0000   0.0000   0.0000

          k =-0.1750 0.3536 0.1768 (   958 PWs)   bands (ev):

    -4.3228   0.7503   4.2300   4.4268   8.1739   9.6174  10.4545  11.4007

     occupation numbers 
     1.0000   1.0000   1.0000   1.0000   0.0000   0.0000   0.0000   0.0000

          k = 0.1750-0.3536 0.1768 (   958 PWs)   bands (ev):

    -4.3241   0.7583   4.1952   4.4517   8.1882   9.6410  10.4167  11.3746

     occupation numbers 
     1.0000   1.0000   1.0000   1.0000   0.0000   0.0000   0.0000   0.0000

          k =-0.1750-0.1768 0.3536 (   958 PWs)   bands (ev):

    -4.3276   0.7760   4.1905   4.4420   8.1774   9.6317  10.4123  11.3880

     occupation numbers 
     1.0000   1.0000   1.0000   1.0000   0.0000   0.0000   0.0000   0.0000

          k =-0.1750 0.1768-0.3536 (   958 PWs)   bands (ev):

    -4.3235   0.7544   4.2163   4.4355   8.1803   9.6313  10.4341  11.3876

     occupation numbers 
     1.0000   1.0000   1.0000   1.0000   0.0000   0.0000   0.0000   0.0000

          k = 0.1750-0.1768-0.3536 (   958 PWs)   bands (ev):

    -4.3234   0.7542   4.2075   4.4446   8.1817   9.6260  10.4383  11.3874

     occupation numbers 
     1.0000   1.0000   1.0000   1.0000   0.0000   0.0000   0.0000   0.0000

          k = 0.1750 0.1768 0.3536 (   958 PWs)   bands (ev):

    -4.3192   0.7327   4.2362   4.4349   8.1851   9.6266  10.4586  11.3872

     occupation numbers 
     1.0000   1.0000   1.0000   1.0000   0.0000   0.0000   0.0000   0.0000

          k = 0.4376 0.2652 0.4419 (   956 PWs)   bands (ev):

    -3.4550  -0.7277   3.7756   4.4717   8.1290   9.5137  10.0760  13.2438

     occupation numbers 
     1.0000   1.0000   1.0000   1.0000   0.0000   0.0000   0.0000   0.0000

          k = 0.4376-0.2652-0.4419 (   956 PWs)   bands (ev):

    -3.4658  -0.7039   3.7902   4.4436   8.1097   9.4966  10.0928  13.2632

     occupation numbers 
     1.0000   1.0000   1.0000   1.0000   0.0000   0.0000   0.0000   0.0000

          k =-0.4376 0.2652-0.4419 (   956 PWs)   bands (ev):

    -3.4664  -0.7013   3.7584   4.4748   8.1255   9.5144  10.0503  13.2446

     occupation numbers 
     1.0000   1.0000   1.0000   1.0000   0.0000   0.0000   0.0000   0.0000

          k = 0.4376 0.4419-0.2652 (   956 PWs)   bands (ev):

    -3.4771  -0.6766   3.7555   4.4639   8.1152   9.5031  10.0481  13.2542

     occupation numbers 
     1.0000   1.0000   1.0000   1.0000   0.0000   0.0000   0.0000   0.0000

          k = 0.4376-0.4419 0.2652 (   956 PWs)   bands (ev):

    -3.4662  -0.7025   3.7756   4.4579   8.1166   9.5078  10.0701  13.2539

     occupation numbers 
     1.0000   1.0000   1.0000   1.0000   0.0000   0.0000   0.0000   0.0000

          k =-0.4376 0.4419 0.2652 (   956 PWs)   bands (ev):

    -3.4660  -0.7028   3.7721   4.4615   8.1184   9.5017  10.0747  13.2537

     occupation numbers 
     1.0000   1.0000   1.0000   1.0000   0.0000   0.0000   0.0000   0.0000

          k =-0.4376-0.4419-0.2652 (   956 PWs)   bands (ev):

    -3.4549  -0.7288   3.7933   4.4541   8.1203   9.5081  10.0947  13.2533

     occupation numbers 
     1.0000   1.0000   1.0000   1.0000   0.0000   0.0000   0.0000   0.0000

          k = 0.3501 0.1768 0.3536 (   951 PWs)   bands (ev):

    -3.7067  -0.3502   3.5949   4.7678   8.2916   9.6187   9.8478  13.8057

     occupation numbers 
     1.0000   1.0000   1.0000   1.0000   0.0000   0.0000   0.0000   0.0000

          k = 0.3501-0.1768-0.3536 (   951 PWs)   bands (ev):

    -3.7164  -0.3243   3.6058   4.7360   8.2743   9.5994   9.8691  13.7977

     occupation numbers 
     1.0000   1.0000   1.0000   1.0000   0.0000   0.0000   0.0000   0.0000

          k =-0.3501 0.1768-0.3536 (   951 PWs)   bands (ev):

    -3.7139  -0.3294   3.5798   4.7719   8.2874   9.6198   9.8211  13.8044

     occupation numbers 
     1.0000   1.0000   1.0000   1.0000   0.0000   0.0000   0.0000   0.0000

          k = 0.3501 0.3536-0.1768 (   951 PWs)   bands (ev):

    -3.7222  -0.3061   3.5765   4.7589   8.2780   9.6062   9.8218  13.8050

     occupation numbers 
     1.0000   1.0000   1.0000   1.0000   0.0000   0.0000   0.0000   0.0000

          k = 0.3501-0.3536 0.1768 (   951 PWs)   bands (ev):

    -3.7152  -0.3268   3.5934   4.7533   8.2797   9.6122   9.8436  13.7950

     occupation numbers 
     1.0000   1.0000   1.0000   1.0000   0.0000   0.0000   0.0000   0.0000

          k =-0.3501 0.3536 0.1768 (   951 PWs)   bands (ev):

    -3.7151  -0.3269   3.5914   4.7553   8.2818   9.6034   9.8504  13.8062

[...]

     occupation numbers 
     1.0000   1.0000   1.0000   1.0000   0.0000   0.0000   0.0000   0.0000

          k =-0.1750-0.0000 0.3536 (   951 PWs)   bands (ev):

    -4.5522   1.7790   3.3220   4.5836   8.3783   9.7855  10.1215  11.5509

     occupation numbers 
     1.0000   1.0000   1.0000   1.0000   0.0000   0.0000   0.0000   0.0000

          k =-0.1750 0.0000-0.3536 (   951 PWs)   bands (ev):

    -4.5488   1.7456   3.3274   4.6181   8.3689   9.7817  10.1499  11.5477

     occupation numbers 
     1.0000   1.0000   1.0000   1.0000   0.0000   0.0000   0.0000   0.0000

          k = 0.4376 0.2652 0.6187 (   952 PWs)   bands (ev):

    -3.6625   0.1997   2.7388   4.0992   8.7958   9.4438  10.8973  11.9921

     occupation numbers 
     1.0000   1.0000   1.0000   1.0000   0.0000   0.0000   0.0000   0.0000

          k = 0.4376-0.2652-0.6187 (   952 PWs)   bands (ev):

    -3.6659   0.2118   2.7373   4.0924   8.7738   9.4427  10.9176  11.9972

     occupation numbers 
     1.0000   1.0000   1.0000   1.0000   0.0000   0.0000   0.0000   0.0000

          k =-0.4376 0.2652-0.6187 (   952 PWs)   bands (ev):

    -3.6662   0.2170   2.7165   4.1098   8.7869   9.4493  10.9045  11.9603

     occupation numbers 
     1.0000   1.0000   1.0000   1.0000   0.0000   0.0000   0.0000   0.0000

          k = 0.4376 0.6187-0.2652 (   952 PWs)   bands (ev):

    -3.6719   0.2375   2.7166   4.0923   8.7810   9.4330  10.9177  11.9640

     occupation numbers 
     1.0000   1.0000   1.0000   1.0000   0.0000   0.0000   0.0000   0.0000

          k = 0.4376-0.6187 0.2652 (   952 PWs)   bands (ev):

    -3.6639   0.2083   2.7157   4.1198   8.7720   9.4638  10.9115  11.9612

     occupation numbers 
     1.0000   1.0000   1.0000   1.0000   0.0000   0.0000   0.0000   0.0000

          k =-0.4376 0.6187 0.2652 (   952 PWs)   bands (ev):

    -3.6682   0.2203   2.7388   4.0819   8.7890   9.4280  10.9107  11.9960

     occupation numbers 
     1.0000   1.0000   1.0000   1.0000   0.0000   0.0000   0.0000   0.0000

          k =-0.4376-0.6187-0.2652 (   952 PWs)   bands (ev):

    -3.6602   0.1911   2.7376   4.1095   8.7807   9.4583  10.9041  11.9934

     occupation numbers 
     1.0000   1.0000   1.0000   1.0000   0.0000   0.0000   0.0000   0.0000

          k = 0.3501 0.1768 0.5303 (   956 PWs)   bands (ev):

    -3.0030  -0.7568   2.6186   3.8700   8.9434   9.0530  11.9680  12.9570

     occupation numbers 
     1.0000   1.0000   1.0000   1.0000   0.0000   0.0000   0.0000   0.0000

          k = 0.3501-0.1768-0.5303 (   956 PWs)   bands (ev):

    -3.0164  -0.7292   2.6209   3.8521   8.9416   9.0316  11.9732  12.9776

     occupation numbers 
     1.0000   1.0000   1.0000   1.0000   0.0000   0.0000   0.0000   0.0000

          k =-0.3501 0.1768-0.5303 (   956 PWs)   bands (ev):

    -3.0138  -0.7309   2.5906   3.8856   8.9211   9.0718  11.9362  12.9849

     occupation numbers 
     1.0000   1.0000   1.0000   1.0000   0.0000   0.0000   0.0000   0.0000

          k = 0.1750-0.3536-0.7071 (   952 PWs)   bands (ev):

    -2.7854  -0.5087   1.8229   3.4206   8.8260  10.5890  11.2393  12.9323

     occupation numbers 
     1.0000   1.0000   1.0000   1.0000   0.0000   0.0000   0.0000   0.0000

          k = 0.1750 0.7071-0.3536 (   952 PWs)   bands (ev):

    -2.7931  -0.4923   1.8252   3.4085   8.8120  10.5954  11.2398  12.9442

     occupation numbers 
     1.0000   1.0000   1.0000   1.0000   0.0000   0.0000   0.0000   0.0000

          k = 0.1750-0.7071 0.3536 (   952 PWs)   bands (ev):

    -2.7777  -0.5252   1.8209   3.4323   8.8407  10.5817  11.2394  12.9199

     occupation numbers 
     1.0000   1.0000   1.0000   1.0000   0.0000   0.0000   0.0000   0.0000

          k = 0.0875 0.2652 0.6187 (   958 PWs)   bands (ev):

    -2.4092  -0.8942   1.9761   3.0579   8.3368  10.2201  11.3178  13.4627

     occupation numbers 
     1.0000   1.0000   1.0000   1.0000   0.0000   0.0000   0.0000   0.0000

          k = 0.0875-0.2652-0.6187 (   958 PWs)   bands (ev):

    -2.4160  -0.8802   1.9614   3.0660   8.3365  10.2157  11.3241  13.4645

     occupation numbers 
     1.0000   1.0000   1.0000   1.0000   0.0000   0.0000   0.0000   0.0000

          k =-0.0875 0.2652-0.6187 (   958 PWs)   bands (ev):

    -2.4234  -0.8690   1.9728   3.0484   8.3392  10.2165  11.2996  13.4776

     occupation numbers 
     1.0000   1.0000   1.0000   1.0000   0.0000   0.0000   0.0000   0.0000

          k = 0.0875 0.6187-0.2652 (   958 PWs)   bands (ev):

    -2.4327  -0.8526   1.9717   3.0427   8.3261  10.2276  11.3028  13.4810

     occupation numbers 
     1.0000   1.0000   1.0000   1.0000   0.0000   0.0000   0.0000   0.0000

          k = 0.0875-0.6187 0.2652 (   958 PWs)   bands (ev):

    -2.4208  -0.8713   1.9594   3.0618   8.3526  10.2001  11.3028  13.4761

     occupation numbers 
     1.0000   1.0000   1.0000   1.0000   0.0000   0.0000   0.0000   0.0000

          k =-0.0875 0.6187 0.2652 (   958 PWs)   bands (ev):

    -2.4188  -0.8775   1.9748   3.0524   8.3235  10.2317  11.3210  13.4655

     occupation numbers 
     1.0000   1.0000   1.0000   1.0000   0.0000   0.0000   0.0000   0.0000

          k =-0.0875-0.6187-0.2652 (   958 PWs)   bands (ev):

    -2.4066  -0.8966   1.9627   3.0713   8.3499  10.2043  11.3207  13.4614

     occupation numbers 
     1.0000   1.0000   1.0000   1.0000   0.0000   0.0000   0.0000   0.0000

          k = 0.0000 0.1768 0.5303 (   954 PWs)   bands (ev):

    -3.2818   0.0806   2.6415   3.2901   7.8824   8.5860  11.8120  13.8530

     occupation numbers 
     1.0000   1.0000   1.0000   1.0000   0.0000   0.0000   0.0000   0.0000

          k = 0.0000 0.5303-0.1768 (   954 PWs)   bands (ev):

    -3.2886   0.1049   2.6394   3.2699   7.8906   8.5838  11.7862  13.8542

     occupation numbers 
     1.0000   1.0000   1.0000   1.0000   0.0000   0.0000   0.0000   0.0000

          k = 0.0000 0.5303 0.1768 (   954 PWs)   bands (ev):

    -3.2818   0.0808   2.6413   3.2901   7.8822   8.5863  11.8119  13.8531

     occupation numbers 
     1.0000   1.0000   1.0000   1.0000   0.0000   0.0000   0.0000   0.0000

          k = 0.7001-0.0000 0.3536 (   952 PWs)   bands (ev):

    -1.6160  -1.5787   2.1676   2.1897  10.2371  10.2768  10.9975  11.0003

     occupation numbers 
     1.0000   1.0000   1.0000   1.0000   0.0000   0.0000   0.0000   0.0000

          k = 0.0000 0.0000 0.5303 (   950 PWs)   bands (ev):

    -3.4824   0.3272   3.4107   3.4205   6.5387   7.4716  13.8871  14.0915

     occupation numbers 
     1.0000   1.0000   1.0000   1.0000   0.0345   0.0000   0.0000   0.0000

          k = 0.6126 0.0884 0.6187 (   961 PWs)   bands (ev):

    -2.5836  -0.7628   2.5808   3.3479   6.8302   7.8788  14.1286  14.3675

     occupation numbers 
     1.0000   1.0000   1.0000   1.0000   0.0001   0.0000   0.0000   0.0000

          k = 0.6126-0.0884-0.6187 (   961 PWs)   bands (ev):

    -2.5871  -0.7581   2.6000   3.3287   6.8054   7.9020  14.1331  14.3696

     occupation numbers 
     1.0000   1.0000   1.0000   1.0000   0.0001   0.0000   0.0000   0.0000

          k =-0.6126 0.0884-0.6187 (   961 PWs)   bands (ev):

    -2.5884  -0.7529   2.5742   3.3482   6.8316   7.8788  14.1257  14.3493

     occupation numbers 
     1.0000   1.0000   1.0000   1.0000   0.0001   0.0000   0.0000   0.0000

          k = 0.6126 0.6187-0.0884 (   961 PWs)   bands (ev):

    -2.5923  -0.7460   2.5807   3.3388   6.8199   7.8904  14.1169  14.3507

     occupation numbers 
     1.0000   1.0000   1.0000   1.0000   0.0001   0.0000   0.0000   0.0000

          k = 0.6126-0.6187 0.0884 (   961 PWs)   bands (ev):

    -2.5877  -0.7556   2.5871   3.3386   6.8184   7.8905  14.1395  14.3496

     occupation numbers 
     1.0000   1.0000   1.0000   1.0000   0.0001   0.0000   0.0000   0.0000

          k =-0.6126 0.6187 0.0884 (   961 PWs)   bands (ev):

    -2.5876  -0.7559   2.5871   3.3388   6.8183   7.8905  14.1196  14.3689

     occupation numbers 
     1.0000   1.0000   1.0000   1.0000   0.0001   0.0000   0.0000   0.0000

          k =-0.6126-0.6187-0.0884 (   961 PWs)   bands (ev):

    -2.5829  -0.7655   2.5939   3.3380   6.8172   7.8902  14.1421  14.3683

     occupation numbers 
     1.0000   1.0000   1.0000   1.0000   0.0001   0.0000   0.0000   0.0000

          k = 0.5251-0.0000 0.5303 (   959 PWs)   bands (ev):

    -2.1451  -1.1689   1.7247   3.6048   7.1396  10.0239  13.3835  14.0911

     occupation numbers 
     1.0000   1.0000   1.0000   1.0000   0.0000   0.0000   0.0000   0.0000

          k = 0.5251 0.5303 0.0000 (   959 PWs)   bands (ev):

    -2.1584  -1.1518   1.7319   3.5943   7.1263  10.0365  13.3957  13.9827

     occupation numbers 
     1.0000   1.0000   1.0000   1.0000   0.0000   0.0000   0.0000   0.0000

          k = 0.5251-0.5303-0.0000 (   959 PWs)   bands (ev):

    -2.1585  -1.1517   1.7317   3.5946   7.1260  10.0368  13.3961  13.9806

     occupation numbers 
     1.0000   1.0000   1.0000   1.0000   0.0000   0.0000   0.0000   0.0000

          k = 0.5251-0.1768-0.7071 (   952 PWs)   bands (ev):

    -3.2869   0.1053   2.6686   3.2704   7.8583   8.5582  11.6018  14.0412

     occupation numbers 
     1.0000   1.0000   1.0000   1.0000   0.0000   0.0000   0.0000   0.0000

          k = 0.5251 0.7071-0.1768 (   952 PWs)   bands (ev):

    -3.2902   0.1169   2.6683   3.2601   7.8626   8.5568  11.5891  14.0416

     occupation numbers 
     1.0000   1.0000   1.0000   1.0000   0.0000   0.0000   0.0000   0.0000

          k = 0.5251-0.7071 0.1768 (   952 PWs)   bands (ev):

    -3.2836   0.0933   2.6700   3.2800   7.8545   8.5590  11.6145  14.0407

     occupation numbers 
     1.0000   1.0000   1.0000   1.0000   0.0000   0.0000   0.0000   0.0000

          k = 0.4376 0.0884 0.6187 (   954 PWs)   bands (ev):

    -2.4064  -0.8776   1.9787   3.0786   8.2961  10.1587  11.1258  13.2788

     occupation numbers 
     1.0000   1.0000   1.0000   1.0000   0.0000   0.0000   0.0000   0.0000

          k = 0.4376-0.0884-0.6187 (   954 PWs)   bands (ev):

    -2.4185  -0.8587   1.9914   3.0590   8.2698  10.1862  11.1256  13.2816

     occupation numbers 
     1.0000   1.0000   1.0000   1.0000   0.0000   0.0000   0.0000   0.0000

          k =-0.4376 0.0884-0.6187 (   954 PWs)   bands (ev):

    -2.4133  -0.8634   1.9641   3.0864   8.2958  10.1528  11.1334  13.2797

     occupation numbers 
     1.0000   1.0000   1.0000   1.0000   0.0000   0.0000   0.0000   0.0000

          k = 0.4376 0.6187-0.0884 (   954 PWs)   bands (ev):

    -2.4260  -0.8419   1.9687   3.0722   8.2842  10.1639  11.1250  13.2896

     occupation numbers 
     1.0000   1.0000   1.0000   1.0000   0.0000   0.0000   0.0000   0.0000

          k = 0.4376-0.6187 0.0884 (   954 PWs)   bands (ev):

    -2.4124  -0.8664   1.9721   3.0813   8.2812  10.1692  11.1419  13.2721

     occupation numbers 
     1.0000   1.0000   1.0000   1.0000   0.0000   0.0000   0.0000   0.0000

          k =-0.4376 0.6187 0.0884 (   954 PWs)   bands (ev):

    -2.4193  -0.8559   1.9832   3.0645   8.2841  10.1702  11.1171  13.2887

     occupation numbers 
     1.0000   1.0000   1.0000   1.0000   0.0000   0.0000   0.0000   0.0000

          k =-0.4376-0.6187-0.0884 (   954 PWs)   bands (ev):

    -2.4055  -0.8807   1.9869   3.0733   8.2817  10.1745  11.1344  13.2716

     occupation numbers 
     1.0000   1.0000   1.0000   1.0000   0.0000   0.0000   0.0000   0.0000

          k = 0.3501 0.0000 0.5303 (   953 PWs)   bands (ev):

    -2.7616  -0.5155   1.8104   3.4641   8.7655  10.4173  11.0763  12.8887

     occupation numbers 
     1.0000   1.0000   1.0000   1.0000   0.0000   0.0000   0.0000   0.0000

          k = 0.3501 0.5303 0.0000 (   953 PWs)   bands (ev):

    -2.7694  -0.4990   1.8128   3.4519   8.7516  10.4235  11.0768  12.8998

     occupation numbers 
     1.0000   1.0000   1.0000   1.0000   0.0000   0.0000   0.0000   0.0000

          k = 0.3501-0.5303-0.0000 (   953 PWs)   bands (ev):

    -2.7695  -0.4989   1.8124   3.4521   8.7512  10.4241  11.0765  12.9000

     occupation numbers 
     1.0000   1.0000   1.0000   1.0000   0.0000   0.0000   0.0000   0.0000

          k = 0.7001 0.0000 0.5303 (   964 PWs)   bands (ev):

    -1.6808  -1.6453   2.5875   2.6079   7.8945   7.9205  13.8771  13.8982

     occupation numbers 
     1.0000   1.0000   1.0000   1.0000   0.0000   0.0000   0.0000   0.0000

          k = 0.0000 0.0000-0.7071 (   966 PWs)   bands (ev):

    -1.7359  -1.7356   3.1694   3.1696   6.6326   6.6329  15.9856  15.9858

     occupation numbers 
     1.0000   1.0000   1.0000   1.0000   0.0068   0.0067   0.0000   0.0000

          k =-0.1750-0.0000-0.7071 (   962 PWs)   bands (ev):

    -1.6664  -1.6536   2.6087   2.6148   7.8742   7.8802  13.6596  13.6802

     occupation numbers 
     1.0000   1.0000   1.0000   1.0000   0.0000   0.0000   0.0000   0.0000

     the Fermi energy is     6.2764 ev

!    total energy              =     -19.11947597 Ry
     Harris-Foulkes estimate   =     -19.11947597 Ry
     estimated scf accuracy    <          5.1E-10 Ry

     The total energy is the sum of the following terms:

     one-electron contribution =       5.03036258 Ry
     hartree contribution      =       1.10393503 Ry
     xc contribution           =      -8.51490467 Ry
     ewald contribution        =     -16.73883573 Ry
     smearing contrib. (-TS)   =      -0.00003317 Ry

     convergence has been achieved in   8 iterations

     Forces acting on atoms (Ry/au):

     atom    1 type  1   force =  -0.27781620E-02 -0.27489844E-02 -0.44605353E-04
     atom    2 type  1   force =   0.27781620E-02  0.27489844E-02  0.44605353E-04
     The non-local contrib.  to forces
     atom    1 type  1   force =  -0.22071168E-02 -0.20953076E-02 -0.42681323E-04
     atom    2 type  1   force =   0.22071265E-02  0.20953641E-02  0.42674819E-04
     The ionic contribution  to forces
     atom    1 type  1   force =  -0.52321300E-02 -0.49683003E-02 -0.92998342E-04
     atom    2 type  1   force =   0.52321300E-02  0.49683003E-02  0.92998342E-04
     The local contribution  to forces
     atom    1 type  1   force =   0.44593301E-02  0.41234278E-02  0.87309091E-04
     atom    2 type  1   force =  -0.44593709E-02 -0.41235120E-02 -0.87318823E-04
     The core correction contribution to forces
     atom    1 type  1   force =   0.20172379E-03  0.19112605E-03  0.37731279E-05
     atom    2 type  1   force =  -0.20171852E-03 -0.19111693E-03 -0.38132300E-05
     The Hubbard contrib.    to forces
     atom    1 type  1   force =   0.00000000E+00  0.00000000E+00  0.00000000E+00
     atom    2 type  1   force =   0.00000000E+00  0.00000000E+00  0.00000000E+00
     The SCF correction term to forces
     atom    1 type  1   force =   0.20606429E-07  0.68053210E-07 -0.34580299E-07
     atom    2 type  1   force =  -0.15267786E-07 -0.52684385E-07  0.37573018E-07

     Total force =     0.005528     Total SCF correction =     0.000000


     entering subroutine stress ...

          total   stress  (Ry/bohr**3)                   (kbar)     P=   -8.79
  -0.0001024231   0.0000001665   0.0000139269        -15.07      0.02      2.05
   0.0000001665  -0.0000384470   0.0000139240          0.02     -5.66      2.05
   0.0000139269   0.0000139240  -0.0000383371          2.05      2.05     -5.64

     kinetic stress (kbar)   2152.16     -0.00     -1.47
                               -0.00   2163.42     -1.47
                               -1.47     -1.47   2163.41

     local   stress (kbar)   -326.87     -0.02    -17.00
                               -0.02   -277.37    -17.23
                              -17.00    -17.23   -277.45

     nonloc. stress (kbar)   1917.65      0.01      1.95
                                0.01   1914.44      1.98
                                1.95      1.98   1914.46

     hartree stress (kbar)    203.15      0.00      1.99
                                0.00    195.81      2.03
                                1.99      2.03    195.81

     exc-cor stress (kbar)    985.57      0.00      0.02
                                0.00    985.48      0.02
                                0.02      0.02    985.48

     corecor stress (kbar)  -1967.96     -0.00     -0.23
                               -0.00  -1967.56     -0.23
                               -0.23     -0.23  -1967.56

     ewald   stress (kbar)  -2978.75      0.04     16.78
                                0.04  -3019.88     16.95
                               16.78     16.95  -3019.80

     hubbard stress (kbar)      0.00      0.00      0.00
                                0.00      0.00      0.00
                                0.00      0.00      0.00

     london  stress (kbar)      0.00      0.00      0.00
                                0.00      0.00      0.00
                                0.00      0.00      0.00

     XDM     stress (kbar)      0.00      0.00      0.00
                                0.00      0.00      0.00
                                0.00      0.00      0.00

     dft-nl  stress (kbar)      0.00      0.00      0.00
                                0.00      0.00      0.00
                                0.00      0.00      0.00



     Writing output data file Si_diamond.scf.in.sx.x.save

     init_run     :      3.40s CPU      3.43s WALL (       1 calls)
     electrons    :     83.00s CPU     82.65s WALL (       1 calls)
     forces       :      1.48s CPU      1.47s WALL (       1 calls)
     stress       :      1.94s CPU      1.92s WALL (       1 calls)

     Called by init_run:
     wfcinit      :      3.06s CPU      3.07s WALL (       1 calls)
     potinit      :      0.05s CPU      0.05s WALL (       1 calls)

     Called by electrons:
     c_bands      :     71.36s CPU     71.13s WALL (       9 calls)
     sum_band     :     11.11s CPU     10.97s WALL (       9 calls)
     v_of_rho     :      0.14s CPU      0.15s WALL (       9 calls)
     v_h          :      0.00s CPU      0.01s WALL (       9 calls)
     v_xc         :      0.18s CPU      0.18s WALL (      11 calls)
     newd         :      0.32s CPU      0.33s WALL (       9 calls)
     mix_rho      :      0.08s CPU      0.08s WALL (       9 calls)

     Called by c_bands:
     init_us_2    :      2.04s CPU      2.17s WALL (    5460 calls)
     cegterg      :     66.53s CPU     65.80s WALL (    2340 calls)

     Called by sum_band:
     sum_band:bec :      0.08s CPU      0.06s WALL (    2340 calls)
     addusdens    :      0.41s CPU      0.41s WALL (       9 calls)

     Called by *egterg:
     h_psi        :     49.73s CPU     49.81s WALL (    7409 calls)
     s_psi        :      3.91s CPU      3.21s WALL (    7409 calls)
     g_psi        :      0.15s CPU      0.20s WALL (    4809 calls)
     cdiaghg      :      2.62s CPU      2.99s WALL (    6889 calls)
     cegterg:over :      5.52s CPU      5.15s WALL (    4809 calls)
     cegterg:upda :      2.41s CPU      2.12s WALL (    4809 calls)
     cegterg:last :      0.76s CPU      0.84s WALL (    2354 calls)

     Called by h_psi:
     h_psi:vloc   :     38.73s CPU     40.94s WALL (    7409 calls)
     h_psi:vnl    :     10.91s CPU      8.78s WALL (    7409 calls)
     add_vuspsi   :      4.26s CPU      3.49s WALL (    7409 calls)

     General routines
     calbec       :      9.75s CPU      7.71s WALL (   10269 calls)
     fft          :      0.18s CPU      0.17s WALL (     169 calls)
     ffts         :      0.05s CPU      0.05s WALL (     141 calls)
     fftw         :     42.68s CPU     45.27s WALL (  114954 calls)
     interpolate  :      0.03s CPU      0.03s WALL (      18 calls)

     Parallel routines
     fft_scatter  :     20.29s CPU     21.39s WALL (  115264 calls)

     PWSCF        :  1m31.38s CPU     1m31.70s WALL


   This run was terminated on:  15:51:29  31Oct2017            

=------------------------------------------------------------------------------=
   JOB DONE.
=------------------------------------------------------------------------------=
