
     Program PWSCF v.5.1 starts on 28Sep2017 at 12:10:37 

     This program is part of the open-source Quantum ESPRESSO suite
     for quantum simulation of materials; please cite
         "P. Giannozzi et al., J. Phys.:Condens. Matter 21 395502 (2009);
          URL http://www.quantum-espresso.org", 
     in publications or presentations arising from this work. More details at
     http://www.quantum-espresso.org/quote

     Parallel version (MPI), running on     8 processors
     R & G space division:  proc/nbgrp/npool/nimage =       8
     Reading input from /tmp/Si_diamond.scf.in.super.222.xy010.25659/Si_diamond.scf.in.super.222.xy010.t
Warning: card &IONS ignored
Warning: card   ION_DYNAMICS='BFGS', ignored
Warning: card / ignored
Warning: card &CELL ignored
Warning: card  CELL_DYNAMICS = 'BFGS' ignored
Warning: card / ignored
     Message from routine read_cards :
     DEPRECATED: no units specified in CELL_PARAMETERS card

     Current dimensions of program PWSCF are:
     Max number of different atomic species (ntypx) = 10
     Max number of k-points (npk) =  40000
     Max angular momentum in pseudopotentials (lmaxx) =  3
 kfg - two_fermi_energies  F

     Subspace diagonalization in iterative solution of the eigenvalue problem:
     a serial algorithm will be used


     Parallelization info
     --------------------
     sticks:   dense  smooth     PW     G-vecs:    dense   smooth      PW
     Min         363     256     71                12921     7555    1109
     Max         364     257     73                12925     7568    1110
     Sum        2905    2053    571               103379    60495    8873



     bravais-lattice index     =            0
     lattice parameter (alat)  =    14.515605984  a.u.
     unit-cell volume          =    2162.6713 (a.u.)^3
     number of atoms/cell      =           16
     number of atomic types    =            1
     number of electrons       =        64.00
     number of Kohn-Sham states=           38
     kinetic-energy cutoff     =      35.0000  Ry
     charge density cutoff     =     200.0000  Ry
     convergence threshold     =      1.0E-09
     mixing beta               =       0.3000
     number of iterations used =            8  local-TF  mixing
     Exchange-correlation      = SLA  PW   PSX  PSC ( 1  4 10  8 0)
     A smooth kinetic-energy cutoff is imposed at      34.5000 Ry
     height of the smooth step-function =             800.0000 Ry
     width of the smooth step-function  =               1.0000 Ry


     celldm(1)=  14.515606  celldm(2)=   0.000000  celldm(3)=   0.000000
     celldm(4)=   0.000000  celldm(5)=   0.000000  celldm(6)=   0.000000

     crystal axes: (cart. coord. in units of alat)
               a(1) = (  -0.000000000000   0.707106781187   0.707106781187 )  
               a(2) = (   0.707106781187  -0.000000000000   0.707106781187 )  
               a(3) = (   0.707106781187   0.707106781187  -0.000000000000 )  

     reciprocal axes: (cart. coord. in units 2 pi/alat)
               b(1) = ( -0.707107  0.707107  0.707107 )  
               b(2) = (  0.707107 -0.707107  0.707107 )  
               b(3) = (  0.707107  0.707107 -0.707107 )  


     PseudoPot. # 1 for Si read from file:
     /users/kfg/psuedo/gbrv_1.5/si.pbesol.UPF
     MD5 check sum: ef58ba74faed4df802eb8a9742fc00a8
     Pseudo is Ultrasoft + core correction, Zval =  4.0
     Generated by new atomic code, or converted to UPF format
     Using radial grid of  899 points,  6 beta functions with: 
                l(1) =   0
                l(2) =   0
                l(3) =   1
                l(4) =   1
                l(5) =   2
                l(6) =   2
     Q(r) pseudized with  8 coefficients,  rinner =    0.900   0.900   0.900
                                                       0.900   0.900

     atomic species   valence    mass     pseudopotential
        Si             4.00    28.08550     Si( 1.00)

      2 Sym. Ops. (no inversion) found


                                    s                        frac. trans.

      isym =  1     identity                                     

 cryst.   s( 1) = (     1          0          0      )
                  (     0          1          0      )
                  (     0          0          1      )

 cart.    s( 1) = (  1.0000000  0.0000000  0.0000000 )
                  (  0.0000000  1.0000000  0.0000000 )
                  (  0.0000000  0.0000000  1.0000000 )


      isym =  2     inv. 180 deg rotation - cart. axis [0,1,-1]  

 cryst.   s( 2) = (     1          0          0      )
                  (     0          0          1      )
                  (     0          1          0      )

 cart.    s( 2) = (  1.0000000  0.0000000  0.0000000 )
                  (  0.0000000  0.0000000  1.0000000 )
                  (  0.0000000  1.0000000  0.0000000 )


     point group C_s (m)    
     there are  2 classes
     the character table:

       E     s    
A'     1.00  1.00
A''    1.00 -1.00

     the symmetry operations in each class:
     E        1
     s        2

   Cartesian axes

     site n.     atom                  positions (alat units)
         1           Si  tau(   1) = (    0.01414213562    0.00707106781    0.00707106781  )
         2           Si  tau(   2) = (    0.17677669530    0.17677669530    0.17677669530  )
         3           Si  tau(   3) = (    0.35355339059    0.35355339059    0.00000000000  )
         4           Si  tau(   4) = (    0.53033008589    0.53033008589    0.17677669530  )
         5           Si  tau(   5) = (    0.35355339059    0.00000000000    0.35355339059  )
         6           Si  tau(   6) = (    0.53033008589    0.17677669530    0.53033008589  )
         7           Si  tau(   7) = (    0.70710678119    0.35355339059    0.35355339059  )
         8           Si  tau(   8) = (    0.88388347648    0.53033008589    0.53033008589  )
         9           Si  tau(   9) = (    0.00000000000    0.35355339059    0.35355339059  )
        10           Si  tau(  10) = (    0.17677669530    0.53033008589    0.53033008589  )
        11           Si  tau(  11) = (    0.35355339059    0.70710678119    0.35355339059  )
        12           Si  tau(  12) = (    0.53033008589    0.88388347648    0.53033008589  )
        13           Si  tau(  13) = (    0.35355339059    0.35355339059    0.70710678119  )
        14           Si  tau(  14) = (    0.53033008589    0.53033008589    0.88388347648  )
        15           Si  tau(  15) = (    0.70710678119    0.70710678119    0.70710678119  )
        16           Si  tau(  16) = (    0.88388347648    0.88388347648    0.88388347648  )

   Crystallographic axes

     site n.     atom                  positions (cryst. coord.)
         1           Si  tau(   1) = (    0.00000000000    0.01000000000    0.01000000000  )
         2           Si  tau(   2) = (    0.12500000000    0.12500000000    0.12500000000  )
         3           Si  tau(   3) = (    0.00000000000    0.00000000000    0.50000000000  )
         4           Si  tau(   4) = (    0.12500000000    0.12500000000    0.62500000000  )
         5           Si  tau(   5) = (    0.00000000000    0.50000000000    0.00000000000  )
         6           Si  tau(   6) = (    0.12500000000    0.62500000000    0.12500000000  )
         7           Si  tau(   7) = (    0.00000000000    0.50000000000    0.50000000000  )
         8           Si  tau(   8) = (    0.12500000000    0.62500000000    0.62500000000  )
         9           Si  tau(   9) = (    0.50000000000    0.00000000000    0.00000000000  )
        10           Si  tau(  10) = (    0.62500000000    0.12500000000    0.12500000000  )
        11           Si  tau(  11) = (    0.50000000000    0.00000000000    0.50000000000  )
        12           Si  tau(  12) = (    0.62500000000    0.12500000000    0.62500000000  )
        13           Si  tau(  13) = (    0.50000000000    0.50000000000    0.00000000000  )
        14           Si  tau(  14) = (    0.62500000000    0.62500000000    0.12500000000  )
        15           Si  tau(  15) = (    0.50000000000    0.50000000000    0.50000000000  )
        16           Si  tau(  16) = (    0.62500000000    0.62500000000    0.62500000000  )

     number of k points=    24  gaussian smearing, width (Ry)=  0.0150
                       cart. coord. in units 2pi/alat
        k(    1) = (   0.0000000   0.0000000   0.0000000), wk =   0.0312500
        k(    2) = (   0.1767767   0.1767767  -0.1767767), wk =   0.1250000
        k(    3) = (  -0.3535534  -0.3535534   0.3535534), wk =   0.0625000
        k(    4) = (   0.3535534   0.0000000   0.0000000), wk =   0.0625000
        k(    5) = (  -0.1767767  -0.5303301   0.5303301), wk =   0.1250000
        k(    6) = (   0.0000000  -0.3535534   0.3535534), wk =   0.0625000
        k(    7) = (  -0.7071068   0.0000000   0.0000000), wk =   0.0312500
        k(    8) = (  -0.7071068   0.3535534   0.0000000), wk =   0.1250000
        k(    9) = (  -0.1767767   0.1767767   0.1767767), wk =   0.0625000
        k(   10) = (   0.1767767   0.1767767   0.1767767), wk =   0.0625000
        k(   11) = (   0.3535534  -0.3535534  -0.3535534), wk =   0.0312500
        k(   12) = (  -0.3535534  -0.3535534  -0.3535534), wk =   0.0312500
        k(   13) = (   0.0000000   0.3535534   0.0000000), wk =   0.1250000
        k(   14) = (   0.1767767  -0.5303301  -0.5303301), wk =   0.0625000
        k(   15) = (  -0.5303301  -0.1767767  -0.5303301), wk =   0.1250000
        k(   16) = (   0.5303301   0.1767767  -0.5303301), wk =   0.1250000
        k(   17) = (  -0.5303301   0.1767767   0.5303301), wk =   0.1250000
        k(   18) = (   0.5303301  -0.1767767   0.5303301), wk =   0.1250000
        k(   19) = (  -0.1767767  -0.5303301  -0.5303301), wk =   0.0625000
        k(   20) = (   0.0000000  -0.3535534  -0.3535534), wk =   0.0625000
        k(   21) = (  -0.3535534   0.0000000  -0.3535534), wk =   0.1250000
        k(   22) = (   0.3535534   0.0000000  -0.3535534), wk =   0.1250000
        k(   23) = (   0.0000000  -0.7071068   0.0000000), wk =   0.0625000
        k(   24) = (   0.3535534  -0.7071068   0.0000000), wk =   0.0625000

                       cryst. coord.
        k(    1) = (   0.0000000   0.0000000   0.0000000), wk =   0.0312500
        k(    2) = (   0.0000000   0.0000000   0.2500000), wk =   0.1250000
        k(    3) = (   0.0000000   0.0000000  -0.5000000), wk =   0.0625000
        k(    4) = (   0.0000000   0.2500000   0.2500000), wk =   0.0625000
        k(    5) = (   0.0000000   0.2500000  -0.5000000), wk =   0.1250000
        k(    6) = (   0.0000000   0.2500000  -0.2500000), wk =   0.0625000
        k(    7) = (   0.0000000  -0.5000000  -0.5000000), wk =   0.0312500
        k(    8) = (   0.2500000  -0.5000000  -0.2500000), wk =   0.1250000
        k(    9) = (   0.2500000   0.0000000   0.0000000), wk =   0.0625000
        k(   10) = (   0.2500000   0.2500000   0.2500000), wk =   0.0625000
        k(   11) = (  -0.5000000   0.0000000   0.0000000), wk =   0.0312500
        k(   12) = (  -0.5000000  -0.5000000  -0.5000000), wk =   0.0312500
        k(   13) = (   0.2500000   0.0000000   0.2500000), wk =   0.1250000
        k(   14) = (  -0.7500000  -0.2500000  -0.2500000), wk =   0.0625000
        k(   15) = (  -0.5000000  -0.7500000  -0.5000000), wk =   0.1250000
        k(   16) = (  -0.2500000   0.0000000   0.5000000), wk =   0.1250000
        k(   17) = (   0.5000000   0.0000000  -0.2500000), wk =   0.1250000
        k(   18) = (   0.2500000   0.7500000   0.2500000), wk =   0.1250000
        k(   19) = (  -0.7500000  -0.5000000  -0.5000000), wk =   0.0625000
        k(   20) = (  -0.5000000  -0.2500000  -0.2500000), wk =   0.0625000
        k(   21) = (  -0.2500000  -0.5000000  -0.2500000), wk =   0.1250000
        k(   22) = (  -0.2500000   0.0000000   0.2500000), wk =   0.1250000
        k(   23) = (  -0.5000000   0.0000000  -0.5000000), wk =   0.0625000
        k(   24) = (  -0.5000000   0.2500000  -0.2500000), wk =   0.0625000

     Dense  grid:   103379 G-vectors     FFT dimensions: (  72,  72,  72)

     Smooth grid:    60495 G-vectors     FFT dimensions: (  60,  60,  60)

     Largest allocated arrays     est. size (Mb)     dimensions
        Kohn-Sham Wavefunctions         0.56 Mb     (     971,   38)
        NL pseudopotentials             4.27 Mb     (     971,  288)
        Each V/rho on FFT grid          0.71 Mb     (   46656)
        Each G-vector array             0.10 Mb     (   12923)
        G-vector shells                 0.01 Mb     (     706)
     Largest temporary arrays     est. size (Mb)     dimensions
        Auxiliary wavefunctions         2.25 Mb     (     971,  152)
        Each subspace H/S matrix        0.35 Mb     (     152,  152)
        Each <psi_i|beta_j> matrix      0.17 Mb     (     288,   38)
        Arrays for rho mixing           5.70 Mb     (   46656,    8)

     Initial potential from superposition of free atoms

     starting charge   63.98963, renormalised to   64.00000
     Starting wfc are   64 randomized atomic wfcs

     total cpu time spent up to now is       13.7 secs

     per-process dynamical memory:    31.2 Mb

     Self-consistent Calculation

     iteration #  1     ecut=    35.00 Ry     beta=0.30
     Davidson diagonalization with overlap
     ethr =  1.00E-02,  avg # of iterations =  3.2

     Threshold (ethr) on eigenvalues was too large:
     Diagonalizing with lowered threshold

     Davidson diagonalization with overlap
     ethr =  6.92E-04,  avg # of iterations =  1.3

     total cpu time spent up to now is       56.9 secs

     total energy              =    -153.01938726 Ry
     Harris-Foulkes estimate   =    -153.06572594 Ry
     estimated scf accuracy    <       0.43650052 Ry

     iteration #  2     ecut=    35.00 Ry     beta=0.30
     Davidson diagonalization with overlap
     ethr =  6.82E-04,  avg # of iterations =  1.0

     total cpu time spent up to now is       76.5 secs

     total energy              =    -152.92758629 Ry
     Harris-Foulkes estimate   =    -153.02146566 Ry
     estimated scf accuracy    <       0.27137936 Ry

     iteration #  3     ecut=    35.00 Ry     beta=0.30
     Davidson diagonalization with overlap
     ethr =  4.24E-04,  avg # of iterations =  3.1

     total cpu time spent up to now is       95.1 secs

     total energy              =    -152.94527644 Ry
     Harris-Foulkes estimate   =    -152.94466027 Ry
     estimated scf accuracy    <       0.00316291 Ry

     iteration #  4     ecut=    35.00 Ry     beta=0.30
     Davidson diagonalization with overlap
     ethr =  4.94E-06,  avg # of iterations = 10.1

     total cpu time spent up to now is      147.7 secs

     total energy              =    -152.94736476 Ry
     Harris-Foulkes estimate   =    -152.94721094 Ry
     estimated scf accuracy    <       0.00126653 Ry

     iteration #  5     ecut=    35.00 Ry     beta=0.30
     Davidson diagonalization with overlap
     ethr =  1.98E-06,  avg # of iterations =  2.1

     total cpu time spent up to now is      170.2 secs

     total energy              =    -152.94744687 Ry
     Harris-Foulkes estimate   =    -152.94744386 Ry
     estimated scf accuracy    <       0.00003947 Ry

     iteration #  6     ecut=    35.00 Ry     beta=0.30
     Davidson diagonalization with overlap
     ethr =  6.17E-08,  avg # of iterations =  3.0

     total cpu time spent up to now is      199.2 secs

     total energy              =    -152.94746014 Ry
     Harris-Foulkes estimate   =    -152.94746373 Ry
     estimated scf accuracy    <       0.00001741 Ry

     iteration #  7     ecut=    35.00 Ry     beta=0.30
     Davidson diagonalization with overlap
     ethr =  2.72E-08,  avg # of iterations =  2.0

     total cpu time spent up to now is      222.2 secs

     total energy              =    -152.94746248 Ry
     Harris-Foulkes estimate   =    -152.94746163 Ry
     estimated scf accuracy    <       0.00000141 Ry

     iteration #  8     ecut=    35.00 Ry     beta=0.30
     Davidson diagonalization with overlap
     ethr =  2.21E-09,  avg # of iterations =  2.3

     total cpu time spent up to now is      248.7 secs

     total energy              =    -152.94746267 Ry
     Harris-Foulkes estimate   =    -152.94746271 Ry
     estimated scf accuracy    <       0.00000029 Ry

     iteration #  9     ecut=    35.00 Ry     beta=0.30
     Davidson diagonalization with overlap
     ethr =  4.47E-10,  avg # of iterations =  1.9

     total cpu time spent up to now is      270.9 secs

     total energy              =    -152.94746267 Ry
     Harris-Foulkes estimate   =    -152.94746269 Ry
     estimated scf accuracy    <       0.00000009 Ry

     iteration # 10     ecut=    35.00 Ry     beta=0.30
     Davidson diagonalization with overlap
     ethr =  1.34E-10,  avg # of iterations =  2.1

     total cpu time spent up to now is      295.9 secs

     total energy              =    -152.94746269 Ry
     Harris-Foulkes estimate   =    -152.94746269 Ry
     estimated scf accuracy    <       0.00000002 Ry

     iteration # 11     ecut=    35.00 Ry     beta=0.30
     Davidson diagonalization with overlap
     ethr =  3.75E-11,  avg # of iterations =  1.3

     total cpu time spent up to now is      317.8 secs

     total energy              =    -152.94746269 Ry
     Harris-Foulkes estimate   =    -152.94746269 Ry
     estimated scf accuracy    <          7.5E-09 Ry

     iteration # 12     ecut=    35.00 Ry     beta=0.30
     Davidson diagonalization with overlap
     ethr =  1.17E-11,  avg # of iterations =  2.6

     total cpu time spent up to now is      344.7 secs

     End of self-consistent calculation

          k = 0.0000 0.0000 0.0000 (  7631 PWs)   bands (ev):

    -5.8472  -3.5909  -3.4949  -3.4767  -3.4422  -1.8330  -1.6939  -1.6870
    -1.6776  -1.6443  -1.5967  -0.9280  -0.8664  -0.8583  -0.7919   3.2144
     3.2621   3.2643   3.2752   3.2845   3.3067   4.7848   4.9199   4.9207
     4.9288   4.9441   4.9497   5.0057   5.0517   6.0700   6.1672   6.2153
     6.6721   6.6864   6.7422   6.7506   6.7698   6.8182

     occupation numbers 
     1.0000   1.0000   1.0000   1.0000   1.0000   1.0000   1.0000   1.0000
     1.0000   1.0000   1.0000   1.0000   1.0000   1.0000   1.0000   1.0000
     1.0000   1.0000   1.0000   1.0000   1.0000   1.0000   1.0000   1.0000
     1.0000   1.0000   1.0000   1.0000   1.0000   0.9832   0.9267   0.8683
     0.0203   0.0159   0.0057   0.0048   0.0032   0.0011

          k = 0.1768 0.1768-0.1768 (  7564 PWs)   bands (ev):

    -5.6434  -4.1573  -3.4694  -3.4052  -3.3572  -2.5955  -2.5344  -2.4806
    -0.8240  -0.7056  -0.6810  -0.6549  -0.6291  -0.5637   0.1917   2.6491
     2.6743   2.7086   3.3958   3.4346   3.4575   3.8162   3.8562   3.9071
     4.4861   4.5628   4.5661   4.6111   5.0038   5.0940   5.7977   5.8906
     6.8814   6.9005   6.9599   7.7169   7.9725   8.0241

     occupation numbers 
     1.0000   1.0000   1.0000   1.0000   1.0000   1.0000   1.0000   1.0000
     1.0000   1.0000   1.0000   1.0000   1.0000   1.0000   1.0000   1.0000
     1.0000   1.0000   1.0000   1.0000   1.0000   1.0000   1.0000   1.0000
     1.0000   1.0000   1.0000   1.0000   1.0000   1.0000   1.0000   0.9996
     0.0002   0.0001   0.0000   0.0000   0.0000   0.0000

          k =-0.3536-0.3536 0.3536 (  7570 PWs)   bands (ev):

    -5.0779  -5.0180  -3.2486  -3.1259  -3.1123  -3.1016  -3.0787  -2.9975
    -0.4285  -0.2875  -0.2627  -0.2488  -0.2327  -0.1639   2.1812   2.2214
     2.5238   2.5452   2.5739   2.5875   2.6151   2.7077   3.8159   3.9009
     3.9236   3.9299   3.9410   3.9540   5.2579   5.3909   5.3973   5.4460
     7.4487   7.5018   7.5711   7.5748   7.5750   7.6102

     occupation numbers 
     1.0000   1.0000   1.0000   1.0000   1.0000   1.0000   1.0000   1.0000
     1.0000   1.0000   1.0000   1.0000   1.0000   1.0000   1.0000   1.0000
     1.0000   1.0000   1.0000   1.0000   1.0000   1.0000   1.0000   1.0000
     1.0000   1.0000   1.0000   1.0000   1.0000   1.0000   1.0000   1.0000
     0.0000   0.0000   0.0000   0.0000   0.0000   0.0000

          k = 0.3536 0.0000 0.0000 (  7563 PWs)   bands (ev):

    -5.5745  -3.7584  -3.6531  -3.6410  -3.6161  -3.4213  -1.6927  -1.6061
    -1.5753  -1.5611  -0.3338  -0.2725  -0.2507  -0.2010   0.3988   2.6676
     2.6680   2.6991   2.7055   3.4749   3.5253   3.6186   3.6520   3.6672
     3.7121   4.7434   4.8403   4.8525   4.8779   4.9547   5.3015   5.3862
     6.6484   7.5577   7.9612   7.9830   8.0319   8.0662

     occupation numbers 
     1.0000   1.0000   1.0000   1.0000   1.0000   1.0000   1.0000   1.0000
     1.0000   1.0000   1.0000   1.0000   1.0000   1.0000   1.0000   1.0000
     1.0000   1.0000   1.0000   1.0000   1.0000   1.0000   1.0000   1.0000
     1.0000   1.0000   1.0000   1.0000   1.0000   1.0000   1.0000   1.0000
     0.0299   0.0000   0.0000   0.0000   0.0000   0.0000

          k =-0.1768-0.5303 0.5303 (  7554 PWs)   bands (ev):

    -5.1082  -4.5981  -4.0539  -3.6439  -3.5655  -2.9274  -2.3896  -2.3137
    -0.8570  -0.7869  -0.4757   0.2135   0.2849   1.2010   1.5224   2.0227
     2.0541   2.1390   2.7548   2.7976   2.9233   3.1217   3.1548   3.4638
     3.8059   3.8883   4.1794   4.2143   4.2789   4.7785   4.9220   5.3308
     7.3692   7.8490   8.2024   8.4073   8.4717   8.7807

     occupation numbers 
     1.0000   1.0000   1.0000   1.0000   1.0000   1.0000   1.0000   1.0000
     1.0000   1.0000   1.0000   1.0000   1.0000   1.0000   1.0000   1.0000
     1.0000   1.0000   1.0000   1.0000   1.0000   1.0000   1.0000   1.0000
     1.0000   1.0000   1.0000   1.0000   1.0000   1.0000   1.0000   1.0000
     0.0000   0.0000   0.0000   0.0000   0.0000   0.0000

          k = 0.0000-0.3536 0.3536 (  7592 PWs)   bands (ev):

    -5.3085  -4.3362  -4.2430  -3.2762  -3.1965  -2.9822  -2.9032  -2.1283
    -1.0502  -0.7497  -0.6638   0.1131   0.1787   0.8199   0.8835   1.7968
     2.6486   2.7070   2.7320   2.7722   3.3314   3.4120   3.5082   3.6660
     3.9203   3.9599   4.2990   4.3260   4.4432   4.5164   4.5665   5.8024
     7.1991   7.9555   8.0228   8.2399   8.3282   8.6498

     occupation numbers 
     1.0000   1.0000   1.0000   1.0000   1.0000   1.0000   1.0000   1.0000
     1.0000   1.0000   1.0000   1.0000   1.0000   1.0000   1.0000   1.0000
     1.0000   1.0000   1.0000   1.0000   1.0000   1.0000   1.0000   1.0000
     1.0000   1.0000   1.0000   1.0000   1.0000   1.0000   1.0000   1.0000
     0.0000   0.0000   0.0000   0.0000   0.0000   0.0000

          k =-0.7071 0.0000 0.0000 (  7528 PWs)   bands (ev):

    -4.8147  -4.7158  -3.8695  -3.7831  -3.7748  -3.7386  -1.6047  -1.5167
    -1.4862  -1.4690   0.5665   0.6453   0.6877   0.7008   2.2043   2.2230
     2.2395   2.2509   2.3293   2.3335   2.3576   2.3849   2.6174   2.6437
     4.1421   4.2043   4.2639   4.3034   4.7391   4.7919   4.8129   4.9203
     7.1506   7.2006   8.4237   8.5041   8.5161   8.5856

     occupation numbers 
     1.0000   1.0000   1.0000   1.0000   1.0000   1.0000   1.0000   1.0000
     1.0000   1.0000   1.0000   1.0000   1.0000   1.0000   1.0000   1.0000
     1.0000   1.0000   1.0000   1.0000   1.0000   1.0000   1.0000   1.0000
     1.0000   1.0000   1.0000   1.0000   1.0000   1.0000   1.0000   1.0000
     0.0000   0.0000   0.0000   0.0000   0.0000   0.0000

          k =-0.7071 0.3536 0.0000 (  7564 PWs)   bands (ev):

    -4.6112  -4.5104  -4.4935  -4.4379  -2.7963  -2.7143  -2.6848  -2.6546
    -0.5257  -0.4438  -0.4097  -0.3671   1.7166   1.8249   1.8326   1.8533
     1.8579   1.8797   1.9000   1.9557   3.3256   3.3804   3.3914   3.4277
     3.5026   3.5104   3.5643   3.5839   4.6249   4.6938   4.7163   4.7973
     8.4403   8.5138   8.5228   8.5562   8.8677   8.9253

     occupation numbers 
     1.0000   1.0000   1.0000   1.0000   1.0000   1.0000   1.0000   1.0000
     1.0000   1.0000   1.0000   1.0000   1.0000   1.0000   1.0000   1.0000
     1.0000   1.0000   1.0000   1.0000   1.0000   1.0000   1.0000   1.0000
     1.0000   1.0000   1.0000   1.0000   1.0000   1.0000   1.0000   1.0000
     0.0000   0.0000   0.0000   0.0000   0.0000   0.0000

          k =-0.1768 0.1768 0.1768 (  7564 PWs)   bands (ev):

    -5.6428  -4.1518  -3.4831  -3.3922  -3.3684  -2.6080  -2.5199  -2.4884
    -0.8329  -0.6918  -0.6806  -0.6543  -0.6114  -0.5359   0.1662   2.6284
     2.6718   2.6909   3.4102   3.4366   3.4695   3.7900   3.8566   3.8679
     4.4820   4.5655   4.5915   4.6031   5.0089   5.1073   5.8053   5.9182
     6.8832   6.9254   6.9656   7.7255   7.9653   8.0018

     occupation numbers 
     1.0000   1.0000   1.0000   1.0000   1.0000   1.0000   1.0000   1.0000
     1.0000   1.0000   1.0000   1.0000   1.0000   1.0000   1.0000   1.0000
     1.0000   1.0000   1.0000   1.0000   1.0000   1.0000   1.0000   1.0000
     1.0000   1.0000   1.0000   1.0000   1.0000   1.0000   1.0000   0.9993
     0.0002   0.0001   0.0000   0.0000   0.0000   0.0000

          k = 0.1768 0.1768 0.1768 (  7564 PWs)   bands (ev):

    -5.6425  -4.1326  -3.4856  -3.4017  -3.3924  -2.5852  -2.5279  -2.5218
    -0.7258  -0.6884  -0.6859  -0.6343  -0.6090  -0.5538   0.1217   2.6057
     2.6524   2.6561   3.4456   3.4467   3.4616   3.7273   3.8263   3.8364
     4.4870   4.5782   4.6082   4.6234   5.0508   5.0829   5.8679   5.9127
     6.9242   6.9498   6.9755   7.7450   7.9692   7.9696

     occupation numbers 
     1.0000   1.0000   1.0000   1.0000   1.0000   1.0000   1.0000   1.0000
     1.0000   1.0000   1.0000   1.0000   1.0000   1.0000   1.0000   1.0000
     1.0000   1.0000   1.0000   1.0000   1.0000   1.0000   1.0000   1.0000
     1.0000   1.0000   1.0000   1.0000   1.0000   1.0000   0.9998   0.9993
     0.0001   0.0000   0.0000   0.0000   0.0000   0.0000

          k = 0.3536-0.3536-0.3536 (  7570 PWs)   bands (ev):

    -5.0530  -5.0399  -3.2629  -3.1245  -3.1122  -3.1017  -3.0632  -3.0195
    -0.4257  -0.2764  -0.2635  -0.2483  -0.2021  -0.1305   2.1716   2.1904
     2.4860   2.5489   2.5653   2.5862   2.6004   2.6312   3.8699   3.9143
     3.9200   3.9201   3.9254   3.9819   5.2868   5.3742   5.3812   5.4979
     7.4672   7.5558   7.5616   7.5633   7.5679   7.6323

     occupation numbers 
     1.0000   1.0000   1.0000   1.0000   1.0000   1.0000   1.0000   1.0000
     1.0000   1.0000   1.0000   1.0000   1.0000   1.0000   1.0000   1.0000
     1.0000   1.0000   1.0000   1.0000   1.0000   1.0000   1.0000   1.0000
     1.0000   1.0000   1.0000   1.0000   1.0000   1.0000   1.0000   1.0000
     0.0000   0.0000   0.0000   0.0000   0.0000   0.0000

          k =-0.3536-0.3536-0.3536 (  7570 PWs)   bands (ev):

    -5.0957  -4.9847  -3.2722  -3.1263  -3.1178  -3.0987  -3.0725  -3.0524
    -0.2763  -0.2718  -0.2639  -0.2337  -0.1870  -0.1385   2.0590   2.1853
     2.4394   2.5026   2.5229   2.5726   2.5742   2.5829   3.8710   3.8740
     3.9030   3.9523   4.0105   4.0425   5.3396   5.3419   5.4257   5.4980
     7.5298   7.5357   7.5488   7.5981   7.6474   7.6643

     occupation numbers 
     1.0000   1.0000   1.0000   1.0000   1.0000   1.0000   1.0000   1.0000
     1.0000   1.0000   1.0000   1.0000   1.0000   1.0000   1.0000   1.0000
     1.0000   1.0000   1.0000   1.0000   1.0000   1.0000   1.0000   1.0000
     1.0000   1.0000   1.0000   1.0000   1.0000   1.0000   1.0000   1.0000
     0.0000   0.0000   0.0000   0.0000   0.0000   0.0000

          k = 0.0000 0.3536 0.0000 (  7563 PWs)   bands (ev):

    -5.5741  -3.7642  -3.6603  -3.6411  -3.5967  -3.4304  -1.6973  -1.6074
    -1.5860  -1.5335  -0.3466  -0.2655  -0.2602  -0.1942   0.3990   2.6457
     2.6646   2.7018   2.7168   3.4921   3.5232   3.5952   3.6484   3.6641
     3.7282   4.7519   4.8434   4.8687   4.8936   4.9397   5.3200   5.3574
     6.6500   7.5555   7.9551   7.9802   8.0403   8.0608

     occupation numbers 
     1.0000   1.0000   1.0000   1.0000   1.0000   1.0000   1.0000   1.0000
     1.0000   1.0000   1.0000   1.0000   1.0000   1.0000   1.0000   1.0000
     1.0000   1.0000   1.0000   1.0000   1.0000   1.0000   1.0000   1.0000
     1.0000   1.0000   1.0000   1.0000   1.0000   1.0000   1.0000   1.0000
     0.0291   0.0000   0.0000   0.0000   0.0000   0.0000

          k = 0.1768-0.5303-0.5303 (  7554 PWs)   bands (ev):

    -5.1069  -4.5960  -4.0408  -3.6565  -3.5995  -2.8752  -2.3973  -2.3367
    -0.8149  -0.7796  -0.5692   0.3086   0.3290   1.1656   1.4794   2.0129
     2.0298   2.1099   2.7805   2.8178   2.9264   3.1503   3.1538   3.4422
     3.7826   3.9335   4.1028   4.1961   4.2637   4.8374   4.8553   5.4293
     7.4141   7.9169   8.2165   8.3966   8.4471   8.8046

     occupation numbers 
     1.0000   1.0000   1.0000   1.0000   1.0000   1.0000   1.0000   1.0000
     1.0000   1.0000   1.0000   1.0000   1.0000   1.0000   1.0000   1.0000
     1.0000   1.0000   1.0000   1.0000   1.0000   1.0000   1.0000   1.0000
     1.0000   1.0000   1.0000   1.0000   1.0000   1.0000   1.0000   1.0000
     0.0000   0.0000   0.0000   0.0000   0.0000   0.0000

          k =-0.5303-0.1768-0.5303 (  7554 PWs)   bands (ev):

    -5.1065  -4.5834  -4.0555  -3.6470  -3.6041  -2.9107  -2.3797  -2.3466
    -0.8000  -0.7730  -0.5013   0.2878   0.3256   1.2205   1.4539   1.9768
     2.0161   2.0911   2.7383   2.7668   2.8775   3.1486   3.1704   3.4007
     3.8184   3.9233   4.1902   4.2052   4.2810   4.8211   4.9360   5.3918
     7.4135   7.9130   8.2211   8.4486   8.4742   8.8129

     occupation numbers 
     1.0000   1.0000   1.0000   1.0000   1.0000   1.0000   1.0000   1.0000
     1.0000   1.0000   1.0000   1.0000   1.0000   1.0000   1.0000   1.0000
     1.0000   1.0000   1.0000   1.0000   1.0000   1.0000   1.0000   1.0000
     1.0000   1.0000   1.0000   1.0000   1.0000   1.0000   1.0000   1.0000
     0.0000   0.0000   0.0000   0.0000   0.0000   0.0000

          k = 0.5303 0.1768-0.5303 (  7554 PWs)   bands (ev):

    -5.1075  -4.5968  -4.0558  -3.6473  -3.5700  -2.9164  -2.3892  -2.3157
    -0.8618  -0.7618  -0.5097   0.2084   0.3171   1.1871   1.5169   2.0135
     2.0517   2.1400   2.7473   2.8034   2.9441   3.1085   3.1617   3.4661
     3.7904   3.9164   4.1753   4.2248   4.2548   4.7922   4.8941   5.3566
     7.3805   7.8637   8.2056   8.3869   8.4689   8.7820

     occupation numbers 
     1.0000   1.0000   1.0000   1.0000   1.0000   1.0000   1.0000   1.0000
     1.0000   1.0000   1.0000   1.0000   1.0000   1.0000   1.0000   1.0000
     1.0000   1.0000   1.0000   1.0000   1.0000   1.0000   1.0000   1.0000
     1.0000   1.0000   1.0000   1.0000   1.0000   1.0000   1.0000   1.0000
     0.0000   0.0000   0.0000   0.0000   0.0000   0.0000

          k =-0.5303 0.1768 0.5303 (  7554 PWs)   bands (ev):

    -5.1049  -4.5983  -4.0559  -3.6485  -3.5699  -2.9245  -2.3893  -2.3175
    -0.8585  -0.7618  -0.4836   0.2116   0.3197   1.2087   1.5019   2.0015
     2.0438   2.1211   2.7359   2.7962   2.9146   3.1143   3.1681   3.4409
     3.8078   3.9184   4.1811   4.2294   4.2608   4.7945   4.9302   5.3521
     7.3843   7.8624   8.2062   8.4100   8.4819   8.7859

     occupation numbers 
     1.0000   1.0000   1.0000   1.0000   1.0000   1.0000   1.0000   1.0000
     1.0000   1.0000   1.0000   1.0000   1.0000   1.0000   1.0000   1.0000
     1.0000   1.0000   1.0000   1.0000   1.0000   1.0000   1.0000   1.0000
     1.0000   1.0000   1.0000   1.0000   1.0000   1.0000   1.0000   1.0000
     0.0000   0.0000   0.0000   0.0000   0.0000   0.0000

          k = 0.5303-0.1768 0.5303 (  7554 PWs)   bands (ev):

    -5.1078  -4.5980  -4.0398  -3.6476  -3.6043  -2.8806  -2.3765  -2.3430
    -0.8225  -0.7851  -0.5646   0.2783   0.3166   1.1547   1.5070   2.0282
     2.0353   2.1186   2.7843   2.8121   2.9609   3.1275   3.1528   3.4739
     3.7704   3.9252   4.1412   4.1874   4.2564   4.8252   4.8474   5.4039
     7.4052   7.9033   8.2093   8.3882   8.4313   8.7921

     occupation numbers 
     1.0000   1.0000   1.0000   1.0000   1.0000   1.0000   1.0000   1.0000
     1.0000   1.0000   1.0000   1.0000   1.0000   1.0000   1.0000   1.0000
     1.0000   1.0000   1.0000   1.0000   1.0000   1.0000   1.0000   1.0000
     1.0000   1.0000   1.0000   1.0000   1.0000   1.0000   1.0000   1.0000
     0.0000   0.0000   0.0000   0.0000   0.0000   0.0000

          k =-0.1768-0.5303-0.5303 (  7554 PWs)   bands (ev):

    -5.1083  -4.5798  -4.0566  -3.6543  -3.5997  -2.8978  -2.3994  -2.3390
    -0.7891  -0.7731  -0.5334   0.3145   0.3356   1.2128   1.4392   1.9788
     2.0174   2.0973   2.7592   2.7598   2.8778   3.1560   3.1743   3.3955
     3.8135   3.9287   4.1465   4.2039   4.2881   4.8373   4.9013   5.4219
     7.4191   7.9277   8.2266   8.4386   8.4723   8.8201

     occupation numbers 
     1.0000   1.0000   1.0000   1.0000   1.0000   1.0000   1.0000   1.0000
     1.0000   1.0000   1.0000   1.0000   1.0000   1.0000   1.0000   1.0000
     1.0000   1.0000   1.0000   1.0000   1.0000   1.0000   1.0000   1.0000
     1.0000   1.0000   1.0000   1.0000   1.0000   1.0000   1.0000   1.0000
     0.0000   0.0000   0.0000   0.0000   0.0000   0.0000

          k = 0.0000-0.3536-0.3536 (  7592 PWs)   bands (ev):

    -5.3055  -4.3293  -4.2323  -3.2911  -3.2261  -2.9972  -2.9335  -2.0583
    -1.1383  -0.6577  -0.6293   0.2019   0.2070   0.7758   0.8605   1.7639
     2.5725   2.6498   2.7282   2.7625   3.2821   3.3628   3.4120   3.7159
     3.9746   3.9919   4.2438   4.2964   4.5110   4.5194   4.6339   5.9161
     7.2697   8.0054   8.0145   8.2996   8.3713   8.6403

     occupation numbers 
     1.0000   1.0000   1.0000   1.0000   1.0000   1.0000   1.0000   1.0000
     1.0000   1.0000   1.0000   1.0000   1.0000   1.0000   1.0000   1.0000
     1.0000   1.0000   1.0000   1.0000   1.0000   1.0000   1.0000   1.0000
     1.0000   1.0000   1.0000   1.0000   1.0000   1.0000   1.0000   0.9993
     0.0000   0.0000   0.0000   0.0000   0.0000   0.0000

          k =-0.3536 0.0000-0.3536 (  7592 PWs)   bands (ev):

    -5.3072  -4.3086  -4.2554  -3.2899  -3.2311  -2.9643  -2.9419  -2.0741
    -1.1236  -0.6737  -0.6377   0.1707   0.2063   0.7842   0.8691   1.7785
     2.5971   2.6435   2.7400   2.7649   3.3061   3.3571   3.4295   3.7069
     3.9605   3.9837   4.2393   4.3151   4.5135   4.5317   4.6018   5.8850
     7.2550   7.9886   8.0173   8.3065   8.3444   8.6589

     occupation numbers 
     1.0000   1.0000   1.0000   1.0000   1.0000   1.0000   1.0000   1.0000
     1.0000   1.0000   1.0000   1.0000   1.0000   1.0000   1.0000   1.0000
     1.0000   1.0000   1.0000   1.0000   1.0000   1.0000   1.0000   1.0000
     1.0000   1.0000   1.0000   1.0000   1.0000   1.0000   1.0000   0.9997
     0.0000   0.0000   0.0000   0.0000   0.0000   0.0000

          k = 0.3536 0.0000-0.3536 (  7592 PWs)   bands (ev):

    -5.3075  -4.3173  -4.2613  -3.2819  -3.1995  -2.9804  -2.9107  -2.1154
    -1.0749  -0.7442  -0.6338   0.1085   0.2088   0.8239   0.8640   1.7911
     2.6454   2.6798   2.7289   2.7694   3.3268   3.3924   3.4764   3.6876
     3.9117   3.9731   4.2812   4.3154   4.4546   4.5543   4.5763   5.8320
     7.2144   7.9454   8.0383   8.2633   8.3217   8.6692

     occupation numbers 
     1.0000   1.0000   1.0000   1.0000   1.0000   1.0000   1.0000   1.0000
     1.0000   1.0000   1.0000   1.0000   1.0000   1.0000   1.0000   1.0000
     1.0000   1.0000   1.0000   1.0000   1.0000   1.0000   1.0000   1.0000
     1.0000   1.0000   1.0000   1.0000   1.0000   1.0000   1.0000   0.9999
     0.0000   0.0000   0.0000   0.0000   0.0000   0.0000

          k = 0.0000-0.7071 0.0000 (  7528 PWs)   bands (ev):

    -4.7933  -4.7368  -3.8836  -3.7943  -3.7717  -3.7189  -1.6073  -1.5169
    -1.4969  -1.4449   0.5659   0.6529   0.6795   0.6930   2.1813   2.2140
     2.2355   2.2557   2.3251   2.3469   2.3558   2.3829   2.6262   2.6400
     4.2068   4.2156   4.2509   4.2756   4.7697   4.7941   4.8069   4.8890
     7.1631   7.1931   8.4504   8.5035   8.5145   8.5570

     occupation numbers 
     1.0000   1.0000   1.0000   1.0000   1.0000   1.0000   1.0000   1.0000
     1.0000   1.0000   1.0000   1.0000   1.0000   1.0000   1.0000   1.0000
     1.0000   1.0000   1.0000   1.0000   1.0000   1.0000   1.0000   1.0000
     1.0000   1.0000   1.0000   1.0000   1.0000   1.0000   1.0000   1.0000
     0.0000   0.0000   0.0000   0.0000   0.0000   0.0000

          k = 0.3536-0.7071 0.0000 (  7564 PWs)   bands (ev):

    -4.6019  -4.5084  -4.4901  -4.4545  -2.8080  -2.7098  -2.6993  -2.6290
    -0.5179  -0.4317  -0.4147  -0.3819   1.7061   1.8077   1.8398   1.8487
     1.8563   1.8682   1.9341   1.9503   3.3046   3.3642   3.3937   3.4411
     3.5030   3.5087   3.5859   3.5942   4.6513   4.6996   4.7181   4.7659
     8.4360   8.5022   8.5341   8.5646   8.8646   8.9139

     occupation numbers 
     1.0000   1.0000   1.0000   1.0000   1.0000   1.0000   1.0000   1.0000
     1.0000   1.0000   1.0000   1.0000   1.0000   1.0000   1.0000   1.0000
     1.0000   1.0000   1.0000   1.0000   1.0000   1.0000   1.0000   1.0000
     1.0000   1.0000   1.0000   1.0000   1.0000   1.0000   1.0000   1.0000
     0.0000   0.0000   0.0000   0.0000   0.0000   0.0000

     the Fermi energy is     6.3767 ev

!    total energy              =    -152.94746269 Ry
     Harris-Foulkes estimate   =    -152.94746269 Ry
     estimated scf accuracy    <          5.5E-10 Ry

     The total energy is the sum of the following terms:

     one-electron contribution =      40.81485616 Ry
     hartree contribution      =       8.77942340 Ry
     xc contribution           =     -68.21878657 Ry
     ewald contribution        =    -134.32263529 Ry
     smearing contrib. (-TS)   =      -0.00032039 Ry

     convergence has been achieved in  12 iterations

     Forces acting on atoms (Ry/au):

     atom    1 type  1   force =  -0.61289312E-01 -0.36946780E-01 -0.36946780E-01
     atom    2 type  1   force =   0.30242950E-01  0.29015121E-01  0.29015121E-01
     atom    3 type  1   force =   0.29539789E-02  0.29674818E-02 -0.17135539E-02
     atom    4 type  1   force =   0.13971820E-01  0.11476294E-01 -0.58182042E-02
     atom    5 type  1   force =   0.29539789E-02 -0.17135539E-02  0.29674818E-02
     atom    6 type  1   force =   0.13971820E-01 -0.58182042E-02  0.11476294E-01
     atom    7 type  1   force =  -0.34678192E-02 -0.15151559E-03 -0.15151559E-03
     atom    8 type  1   force =  -0.12244626E-02 -0.57792862E-03 -0.57792862E-03
     atom    9 type  1   force =  -0.35375366E-02  0.19561930E-02  0.19561930E-02
     atom   10 type  1   force =   0.43654773E-02  0.30917553E-02  0.30917553E-02
     atom   11 type  1   force =   0.84231729E-03 -0.18047693E-02 -0.11603520E-02
     atom   12 type  1   force =  -0.60251557E-03 -0.11599408E-02 -0.40709305E-04
     atom   13 type  1   force =   0.84231729E-03 -0.11603520E-02 -0.18047693E-02
     atom   14 type  1   force =  -0.60251557E-03 -0.40709305E-04 -0.11599408E-02
     atom   15 type  1   force =   0.63294526E-03  0.31974687E-03  0.31974687E-03
     atom   16 type  1   force =  -0.53443864E-04  0.54716206E-03  0.54716206E-03
     The non-local contrib.  to forces
     atom    1 type  1   force =  -0.60517574E-01 -0.36965620E-01 -0.36965620E-01
     atom    2 type  1   force =   0.31732633E-01  0.36177223E-01  0.36177223E-01
     atom    3 type  1   force =   0.15297136E-02  0.90441360E-03  0.13731231E-02
     atom    4 type  1   force =   0.10778548E-01  0.13123882E-01 -0.17938622E-01
     atom    5 type  1   force =   0.15297136E-02  0.13731231E-02  0.90441360E-03
     atom    6 type  1   force =   0.10778548E-01 -0.17938622E-01  0.13123882E-01
     atom    7 type  1   force =   0.35424361E-02  0.60748106E-03  0.60748106E-03
     atom    8 type  1   force =   0.14971689E-02  0.76490413E-03  0.76490413E-03
     atom    9 type  1   force =   0.35521227E-02  0.73272578E-03  0.73272578E-03
     atom   10 type  1   force =  -0.76513510E-02 -0.11113581E-02 -0.11113581E-02
     atom   11 type  1   force =   0.14120367E-02  0.19100184E-02  0.41182915E-03
     atom   12 type  1   force =   0.70656549E-03  0.15725015E-02 -0.43982582E-04
     atom   13 type  1   force =   0.14120367E-02  0.41182915E-03  0.19100184E-02
     atom   14 type  1   force =   0.70656549E-03 -0.43982582E-04  0.15725015E-02
     atom   15 type  1   force =  -0.85780406E-03 -0.42092407E-03 -0.42092407E-03
     atom   16 type  1   force =  -0.15263363E-03 -0.88113393E-03 -0.88113393E-03
     The ionic contribution  to forces
     atom    1 type  1   force =  -0.19992169E+00 -0.11493513E+00 -0.11493513E+00
     atom    2 type  1   force =   0.91071973E-01  0.12877558E+00  0.12877558E+00
     atom    3 type  1   force =   0.47854272E-01  0.56956681E-01 -0.68925153E-02
     atom    4 type  1   force =   0.17916722E-01  0.46126482E-01 -0.10189443E+00
     atom    5 type  1   force =   0.47854272E-01 -0.68925153E-02  0.56956681E-01
     atom    6 type  1   force =   0.17916722E-01 -0.10189443E+00  0.46126482E-01
     atom    7 type  1   force =  -0.13536750E-01 -0.89805967E-02 -0.89805967E-02
     atom    8 type  1   force =   0.21231522E-01  0.10902351E-01  0.10902351E-01
     atom    9 type  1   force =  -0.13652617E-01  0.34846066E-01  0.34846066E-01
     atom   10 type  1   force =  -0.66005684E-01 -0.26219503E-01 -0.26219503E-01
     atom   11 type  1   force =   0.38972516E-02 -0.67763429E-02 -0.30899811E-01
     atom   12 type  1   force =   0.13136158E-01  0.20936186E-01  0.18957836E-03
     atom   13 type  1   force =   0.38972516E-02 -0.30899811E-01 -0.67763429E-02
     atom   14 type  1   force =   0.13136158E-01  0.18957836E-03  0.20936186E-01
     atom   15 type  1   force =   0.12731380E-01  0.63352311E-02  0.63352311E-02
     atom   16 type  1   force =   0.24730585E-02 -0.84698236E-02 -0.84698236E-02
     The local contribution  to forces
     atom    1 type  1   force =   0.19381095E+00  0.11168596E+00  0.11168596E+00
     atom    2 type  1   force =  -0.89577521E-01 -0.13247732E+00 -0.13247732E+00
     atom    3 type  1   force =  -0.46323120E-01 -0.54838061E-01  0.39214494E-02
     atom    4 type  1   force =  -0.13720432E-01 -0.46506419E-01  0.11220934E+00
     atom    5 type  1   force =  -0.46323120E-01  0.39214494E-02 -0.54838061E-01
     atom    6 type  1   force =  -0.13720432E-01  0.11220934E+00 -0.46506419E-01
     atom    7 type  1   force =   0.68211606E-02  0.82742994E-02  0.82742994E-02
     atom    8 type  1   force =  -0.23839031E-01 -0.12187459E-01 -0.12187459E-01
     atom    9 type  1   force =   0.68562303E-02 -0.33576252E-01 -0.33576252E-01
     atom   10 type  1   force =   0.77215036E-01  0.30261237E-01  0.30261237E-01
     atom   11 type  1   force =  -0.43535165E-02  0.32209890E-02  0.29369571E-01
     atom   12 type  1   force =  -0.14391456E-01 -0.23549546E-01 -0.19058350E-03
     atom   13 type  1   force =  -0.43535165E-02  0.29369571E-01  0.32209890E-02
     atom   14 type  1   force =  -0.14391456E-01 -0.19058350E-03 -0.23549546E-01
     atom   15 type  1   force =  -0.11316645E-01 -0.56325183E-02 -0.56325183E-02
     atom   16 type  1   force =  -0.23834932E-02  0.98316773E-02  0.98316773E-02
     The core correction contribution to forces
     atom    1 type  1   force =   0.53457582E-02  0.32729942E-02  0.32729942E-02
     atom    2 type  1   force =  -0.29867206E-02 -0.34651745E-02 -0.34651745E-02
     atom    3 type  1   force =  -0.11012079E-03 -0.61492063E-04 -0.11724679E-03
     atom    4 type  1   force =  -0.99959854E-03 -0.12663110E-02  0.18112059E-02
     atom    5 type  1   force =  -0.11012079E-03 -0.11724679E-03 -0.61492063E-04
     atom    6 type  1   force =  -0.99959854E-03  0.18112059E-02 -0.12663110E-02
     atom    7 type  1   force =  -0.29473477E-03 -0.48597042E-04 -0.48597042E-04
     atom    8 type  1   force =  -0.11914766E-03 -0.60736358E-04 -0.60736358E-04
     atom    9 type  1   force =  -0.29567381E-03 -0.50179538E-04 -0.50179538E-04
     atom   10 type  1   force =   0.81310878E-03  0.16494020E-03  0.16494020E-03
     atom   11 type  1   force =  -0.10891991E-03 -0.15889783E-03 -0.35795641E-04
     atom   12 type  1   force =  -0.56811511E-04 -0.12411405E-03  0.30627429E-05
     atom   13 type  1   force =  -0.10891991E-03 -0.35795641E-04 -0.15889783E-03
     atom   14 type  1   force =  -0.56811511E-04  0.30627429E-05 -0.12411405E-03
     atom   15 type  1   force =   0.70028051E-04  0.34358163E-04  0.34358163E-04
     atom   16 type  1   force =   0.10459754E-04  0.68976663E-04  0.68976663E-04
     The Hubbard contrib.    to forces
     atom    1 type  1   force =   0.00000000E+00  0.00000000E+00  0.00000000E+00
     atom    2 type  1   force =   0.00000000E+00  0.00000000E+00  0.00000000E+00
     atom    3 type  1   force =   0.00000000E+00  0.00000000E+00  0.00000000E+00
     atom    4 type  1   force =   0.00000000E+00  0.00000000E+00  0.00000000E+00
     atom    5 type  1   force =   0.00000000E+00  0.00000000E+00  0.00000000E+00
     atom    6 type  1   force =   0.00000000E+00  0.00000000E+00  0.00000000E+00
     atom    7 type  1   force =   0.00000000E+00  0.00000000E+00  0.00000000E+00
     atom    8 type  1   force =   0.00000000E+00  0.00000000E+00  0.00000000E+00
     atom    9 type  1   force =   0.00000000E+00  0.00000000E+00  0.00000000E+00
     atom   10 type  1   force =   0.00000000E+00  0.00000000E+00  0.00000000E+00
     atom   11 type  1   force =   0.00000000E+00  0.00000000E+00  0.00000000E+00
     atom   12 type  1   force =   0.00000000E+00  0.00000000E+00  0.00000000E+00
     atom   13 type  1   force =   0.00000000E+00  0.00000000E+00  0.00000000E+00
     atom   14 type  1   force =   0.00000000E+00  0.00000000E+00  0.00000000E+00
     atom   15 type  1   force =   0.00000000E+00  0.00000000E+00  0.00000000E+00
     atom   16 type  1   force =   0.00000000E+00  0.00000000E+00  0.00000000E+00
     The SCF correction term to forces
     atom    1 type  1   force =  -0.67312310E-05 -0.50014268E-05 -0.50014268E-05
     atom    2 type  1   force =   0.26141038E-05  0.47951467E-05  0.47951467E-05
     atom    3 type  1   force =   0.32614414E-05  0.59237997E-05  0.16198569E-05
     atom    4 type  1   force =  -0.33906302E-05 -0.13559398E-05 -0.57210054E-05
     atom    5 type  1   force =   0.32614414E-05  0.16198569E-05  0.59237997E-05
     atom    6 type  1   force =  -0.33906302E-05 -0.57210054E-05 -0.13559398E-05
     atom    7 type  1   force =   0.96828334E-07 -0.41181670E-05 -0.41181670E-05
     atom    8 type  1   force =   0.50526489E-05  0.29953952E-05  0.29953952E-05
     atom    9 type  1   force =   0.24286480E-05  0.38168721E-05  0.38168721E-05
     atom   10 type  1   force =  -0.56053197E-05 -0.35764615E-05 -0.35764615E-05
     atom   11 type  1   force =  -0.45066641E-05 -0.55177785E-06 -0.61609281E-05
     atom   12 type  1   force =   0.30561904E-05  0.50151768E-05  0.11998191E-05
     atom   13 type  1   force =  -0.45066641E-05 -0.61609281E-05 -0.55177785E-06
     atom   14 type  1   force =   0.30561904E-05  0.11998191E-05  0.50151768E-05
     atom   15 type  1   force =   0.60137684E-05  0.35840982E-05  0.35840982E-05
     atom   16 type  1   force =  -0.80743134E-06 -0.25502367E-05 -0.25502367E-05

     Total force =     0.099676     Total SCF correction =     0.000028


     entering subroutine stress ...

          total   stress  (Ry/bohr**3)                   (kbar)     P=    1.40
   0.0000058160   0.0000235297   0.0000235297          0.86      3.46      3.46
   0.0000235297   0.0000113684   0.0000398524          3.46      1.67      5.86
   0.0000235297   0.0000398524   0.0000113684          3.46      5.86      1.67

     kinetic stress (kbar)   2190.49     -1.71     -1.71
                               -1.71   2190.46     -3.54
                               -1.71     -3.54   2190.46

     local   stress (kbar)   -285.67    -21.80    -21.80
                              -21.80   -290.06    -43.14
                              -21.80    -43.14   -290.06

     nonloc. stress (kbar)   1940.08      2.72      2.72
                                2.72   1940.59      5.15
                                2.72      5.15   1940.59

     hartree stress (kbar)    198.60      2.39      2.39
                                2.39    199.29      4.95
                                2.39      4.95    199.29

     exc-cor stress (kbar)    993.76      0.03      0.03
                                0.03    993.76      0.06
                                0.03      0.06    993.76

     corecor stress (kbar)  -1988.13     -0.32     -0.32
                               -0.32  -1988.19     -0.60
                               -0.32     -0.60  -1988.19

     ewald   stress (kbar)  -3048.28     22.15     22.15
                               22.15  -3044.18     42.99
                               22.15     42.99  -3044.18

     hubbard stress (kbar)      0.00      0.00      0.00
                                0.00      0.00      0.00
                                0.00      0.00      0.00

     london  stress (kbar)      0.00      0.00      0.00
                                0.00      0.00      0.00
                                0.00      0.00      0.00

     XDM     stress (kbar)      0.00      0.00      0.00
                                0.00      0.00      0.00
                                0.00      0.00      0.00

     dft-nl  stress (kbar)      0.00      0.00      0.00
                                0.00      0.00      0.00
                                0.00      0.00      0.00



     Writing output data file Si_diamond.scf.in.super.222.xy010.save

     init_run     :     13.40s CPU     13.52s WALL (       1 calls)
     electrons    :    325.34s CPU    330.99s WALL (       1 calls)
     forces       :      5.17s CPU      5.02s WALL (       1 calls)
     stress       :     20.27s CPU     20.34s WALL (       1 calls)

     Called by init_run:
     wfcinit      :     12.21s CPU     12.28s WALL (       1 calls)
     potinit      :      0.16s CPU      0.16s WALL (       1 calls)

     Called by electrons:
     c_bands      :    265.68s CPU    271.35s WALL (      13 calls)
     sum_band     :     49.38s CPU     49.22s WALL (      13 calls)
     v_of_rho     :      1.48s CPU      1.50s WALL (      13 calls)
     v_h          :      0.10s CPU      0.09s WALL (      13 calls)
     v_xc         :      1.60s CPU      1.63s WALL (      15 calls)
     newd         :      8.06s CPU      8.16s WALL (      13 calls)
     mix_rho      :      1.25s CPU      1.27s WALL (      13 calls)

     Called by c_bands:
     init_us_2    :      3.40s CPU      3.52s WALL (     696 calls)
     cegterg      :    250.59s CPU    255.58s WALL (     312 calls)

     Called by sum_band:
     sum_band:bec :      0.25s CPU      0.28s WALL (     312 calls)
     addusdens    :      8.60s CPU      8.66s WALL (      13 calls)

     Called by *egterg:
     h_psi        :    174.51s CPU    174.50s WALL (    1201 calls)
     s_psi        :     16.04s CPU     13.65s WALL (    1201 calls)
     g_psi        :      0.39s CPU      0.42s WALL (     865 calls)
     cdiaghg      :     14.09s CPU     15.54s WALL (    1153 calls)
     cegterg:over :     26.27s CPU     28.55s WALL (     865 calls)
     cegterg:upda :      6.68s CPU      7.69s WALL (     865 calls)
     cegterg:last :      2.88s CPU      2.84s WALL (     329 calls)

     Called by h_psi:
     h_psi:vloc   :    128.32s CPU    130.63s WALL (    1201 calls)
     h_psi:vnl    :     45.85s CPU     43.50s WALL (    1201 calls)
     add_vuspsi   :     16.45s CPU     14.85s WALL (    1201 calls)

     General routines
     calbec       :     42.74s CPU     41.21s WALL (    1561 calls)
     fft          :      1.84s CPU      1.87s WALL (     233 calls)
     ffts         :      0.64s CPU      0.64s WALL (     223 calls)
     fftw         :    136.00s CPU    138.73s WALL (   74080 calls)
     interpolate  :      0.24s CPU      0.25s WALL (      26 calls)

     Parallel routines
     fft_scatter  :     75.06s CPU     77.43s WALL (   74536 calls)

     PWSCF        :  6m 5.37s CPU     6m11.39s WALL


   This run was terminated on:  12:16:49  28Sep2017            

=------------------------------------------------------------------------------=
   JOB DONE.
=------------------------------------------------------------------------------=
