
     Program PWSCF v.5.1 starts on 27Oct2017 at 11:13:30 

     This program is part of the open-source Quantum ESPRESSO suite
     for quantum simulation of materials; please cite
         "P. Giannozzi et al., J. Phys.:Condens. Matter 21 395502 (2009);
          URL http://www.quantum-espresso.org", 
     in publications or presentations arising from this work. More details at
     http://www.quantum-espresso.org/quote

     Parallel version (MPI), running on     4 processors
     R & G space division:  proc/nbgrp/npool/nimage =       4
     Reading input from /tmp/Si_diamond.scf.in.sxy.29569/Si_diamond.scf.in.sxy.t
Warning: card &IONS ignored
Warning: card   ION_DYNAMICS='BFGS', ignored
Warning: card / ignored
Warning: card &CELL ignored
Warning: card  CELL_DYNAMICS = 'BFGS' ignored
Warning: card / ignored
     Message from routine read_cards :
     DEPRECATED: no units specified in CELL_PARAMETERS card

     Current dimensions of program PWSCF are:
     Max number of different atomic species (ntypx) = 10
     Max number of k-points (npk) =  40000
     Max angular momentum in pseudopotentials (lmaxx) =  3
 kfg - two_fermi_energies  F

     Subspace diagonalization in iterative solution of the eigenvalue problem:
     a serial algorithm will be used


     Parallelization info
     --------------------
     sticks:   dense  smooth     PW     G-vecs:    dense   smooth      PW
     Min         181     125     40                 3234     1897     346
     Max         182     126     41                 3235     1905     348
     Sum         725     503    163                12939     7607    1387



     bravais-lattice index     =            0
     lattice parameter (alat)  =     7.257984435  a.u.
     unit-cell volume          =     270.3069 (a.u.)^3
     number of atoms/cell      =            2
     number of atomic types    =            1
     number of electrons       =         8.00
     number of Kohn-Sham states=            8
     kinetic-energy cutoff     =      35.0000  Ry
     charge density cutoff     =     200.0000  Ry
     convergence threshold     =      1.0E-09
     mixing beta               =       0.3000
     number of iterations used =            8  local-TF  mixing
     Exchange-correlation      = SLA  PW   PSX  PSC ( 1  4 10  8 0)
     A smooth kinetic-energy cutoff is imposed at      34.5000 Ry
     height of the smooth step-function =             800.0000 Ry
     width of the smooth step-function  =               1.0000 Ry


     celldm(1)=   7.257984  celldm(2)=   0.000000  celldm(3)=   0.000000
     celldm(4)=   0.000000  celldm(5)=   0.000000  celldm(6)=   0.000000

     crystal axes: (cart. coord. in units of alat)
               a(1) = (   0.007070891042   0.707089104180   0.707089104180 )  
               a(2) = (   0.707089104180   0.007070891042   0.707089104180 )  
               a(3) = (   0.714159995222   0.714159995222   0.000000000000 )  

     reciprocal axes: (cart. coord. in units 2 pi/alat)
               b(1) = ( -0.714267  0.714267  0.707124 )  
               b(2) = (  0.714267 -0.714267  0.707124 )  
               b(3) = (  0.700123  0.700123 -0.707124 )  


     PseudoPot. # 1 for Si read from file:
     /users/kfg/psuedo/gbrv_1.5/si.pbesol.UPF
     MD5 check sum: ef58ba74faed4df802eb8a9742fc00a8
     Pseudo is Ultrasoft + core correction, Zval =  4.0
     Generated by new atomic code, or converted to UPF format
     Using radial grid of  899 points,  6 beta functions with: 
                l(1) =   0
                l(2) =   0
                l(3) =   1
                l(4) =   1
                l(5) =   2
                l(6) =   2
     Q(r) pseudized with  8 coefficients,  rinner =    0.900   0.900   0.900
                                                       0.900   0.900

     atomic species   valence    mass     pseudopotential
        Si             4.00    28.08550     Si( 1.00)

      8 Sym. Ops., with inversion, found ( 4 have fractional translation)


                                    s                        frac. trans.

      isym =  1     identity                                     

 cryst.   s( 1) = (     1          0          0      )
                  (     0          1          0      )
                  (     0          0          1      )

 cart.    s( 1) = (  1.0000000  0.0000000  0.0000000 )
                  (  0.0000000  1.0000000  0.0000000 )
                  (  0.0000000  0.0000000  1.0000000 )


      isym =  2     180 deg rotation - cart. axis [0,0,1]        

 cryst.   s( 2) = (     0          1         -1      )
                  (     1          0         -1      )
                  (     0          0         -1      )

 cart.    s( 2) = ( -1.0000000  0.0000000 -0.0000000 )
                  (  0.0000000 -1.0000000 -0.0000000 )
                  (  0.0000000  0.0000000  1.0000000 )


      isym =  3     180 deg rotation - cart. axis [1,1,0]        

 cryst.   s( 3) = (    -1          0          1      )    f =( -0.2500000 )
                  (     0         -1          1      )       ( -0.2500000 )
                  (     0          0          1      )       ( -0.2500000 )

 cart.    s( 3) = (  0.0000000  1.0000000  0.0000000 )    f =( -0.3570800 )
                  (  1.0000000  0.0000000  0.0000000 )       ( -0.3570800 )
                  (  0.0000000  0.0000000 -1.0000000 )       ( -0.3535446 )


      isym =  4     180 deg rotation - cart. axis [1,-1,0]       

 cryst.   s( 4) = (     0         -1          0      )    f =( -0.2500000 )
                  (    -1          0          0      )       ( -0.2500000 )
                  (     0          0         -1      )       ( -0.2500000 )

 cart.    s( 4) = (  0.0000000 -1.0000000  0.0000000 )    f =( -0.3570800 )
                  ( -1.0000000  0.0000000  0.0000000 )       ( -0.3570800 )
                  (  0.0000000  0.0000000 -1.0000000 )       ( -0.3535446 )


      isym =  5     inversion                                    

 cryst.   s( 5) = (    -1          0          0      )    f =( -0.2500000 )
                  (     0         -1          0      )       ( -0.2500000 )
                  (     0          0         -1      )       ( -0.2500000 )

 cart.    s( 5) = ( -1.0000000  0.0000000  0.0000000 )    f =( -0.3570800 )
                  (  0.0000000 -1.0000000  0.0000000 )       ( -0.3570800 )
                  (  0.0000000  0.0000000 -1.0000000 )       ( -0.3535446 )


      isym =  6     inv. 180 deg rotation - cart. axis [0,0,1]   

 cryst.   s( 6) = (     0         -1          1      )    f =( -0.2500000 )
                  (    -1          0          1      )       ( -0.2500000 )
                  (     0          0          1      )       ( -0.2500000 )

 cart.    s( 6) = (  1.0000000  0.0000000  0.0000000 )    f =( -0.3570800 )
                  (  0.0000000  1.0000000  0.0000000 )       ( -0.3570800 )
                  (  0.0000000  0.0000000 -1.0000000 )       ( -0.3535446 )


      isym =  7     inv. 180 deg rotation - cart. axis [1,1,0]   

 cryst.   s( 7) = (     1          0         -1      )
                  (     0          1         -1      )
                  (     0          0         -1      )

 cart.    s( 7) = (  0.0000000 -1.0000000 -0.0000000 )
                  ( -1.0000000  0.0000000 -0.0000000 )
                  (  0.0000000  0.0000000  1.0000000 )


      isym =  8     inv. 180 deg rotation - cart. axis [1,-1,0]  

 cryst.   s( 8) = (     0          1          0      )
                  (     1          0          0      )
                  (     0          0          1      )

 cart.    s( 8) = (  0.0000000  1.0000000  0.0000000 )
                  (  1.0000000  0.0000000  0.0000000 )
                  (  0.0000000  0.0000000  1.0000000 )


     point group D_2h (mmm) 
     there are  8 classes
     the character table:

       E     C2_z  C2_y  C2_x  i     s_xy  s_xz  s_yz 
A_g    1.00  1.00  1.00  1.00  1.00  1.00  1.00  1.00
B_1g   1.00  1.00 -1.00 -1.00  1.00  1.00 -1.00 -1.00
B_2g   1.00 -1.00  1.00 -1.00  1.00 -1.00  1.00 -1.00
B_3g   1.00 -1.00 -1.00  1.00  1.00 -1.00 -1.00  1.00
A_u    1.00  1.00  1.00  1.00 -1.00 -1.00 -1.00 -1.00
B_1u   1.00  1.00 -1.00 -1.00 -1.00 -1.00  1.00  1.00
B_2u   1.00 -1.00  1.00 -1.00 -1.00  1.00 -1.00  1.00
B_3u   1.00 -1.00 -1.00  1.00 -1.00  1.00  1.00 -1.00

     the symmetry operations in each class:
     E        1
     C2_z     2
     C2_y     3
     C2_x     4
     i        5
     s_xy     6
     s_xz     7
     s_yz     8

   Cartesian axes

     site n.     atom                  positions (alat units)
         1           Si  tau(   1) = (    0.00000000000    0.00000000000    0.00000000000  )
         2           Si  tau(   2) = (    0.35707999761    0.35707999761    0.35354455209  )

   Crystallographic axes

     site n.     atom                  positions (cryst. coord.)
         1           Si  tau(   1) = (    0.00000000000    0.00000000000    0.00000000000  )
         2           Si  tau(   2) = (    0.25000000000    0.25000000000    0.25000000000  )

     number of k points=    95  gaussian smearing, width (Ry)=  0.0150
                       cart. coord. in units 2pi/alat
        k(    1) = (   0.0000000   0.0000000   0.0000000), wk =   0.0039063
        k(    2) = (   0.0875154   0.0875154  -0.0883906), wk =   0.0156250
        k(    3) = (   0.1750308   0.1750308  -0.1767811), wk =   0.0156250
        k(    4) = (   0.2625462   0.2625462  -0.2651717), wk =   0.0156250
        k(    5) = (  -0.3500616  -0.3500616   0.3535622), wk =   0.0078125
        k(    6) = (   0.0892834  -0.0892834   0.0883906), wk =   0.0156250
        k(    7) = (   0.1767988  -0.0017680   0.0000000), wk =   0.0156250
        k(    8) = (   0.2643142   0.0857474  -0.0883906), wk =   0.0312500
        k(    9) = (   0.3518296   0.1732628  -0.1767811), wk =   0.0312500
        k(   10) = (  -0.2607782  -0.4393450   0.4419528), wk =   0.0312500
        k(   11) = (  -0.1732628  -0.3518296   0.3535622), wk =   0.0312500
        k(   12) = (  -0.0857474  -0.2643142   0.2651717), wk =   0.0312500
        k(   13) = (   0.0017680  -0.1767988   0.1767811), wk =   0.0312500
        k(   14) = (   0.1785668  -0.1785668   0.1767811), wk =   0.0156250
        k(   15) = (   0.2660822  -0.0910514   0.0883906), wk =   0.0312500
        k(   16) = (   0.3535976  -0.0035360   0.0000000), wk =   0.0156250
        k(   17) = (   0.4411130   0.0839794  -0.0883906), wk =   0.0312500
        k(   18) = (  -0.1714948  -0.5286284   0.5303433), wk =   0.0312500
        k(   19) = (  -0.0839794  -0.4411130   0.4419528), wk =   0.0312500
        k(   20) = (   0.0035360  -0.3535976   0.3535622), wk =   0.0312500
        k(   21) = (   0.0910514  -0.2660822   0.2651717), wk =   0.0312500
        k(   22) = (   0.2678502  -0.2678502   0.2651717), wk =   0.0156250
        k(   23) = (   0.3553656  -0.1803348   0.1767811), wk =   0.0312500
        k(   24) = (   0.4428810  -0.0928194   0.0883906), wk =   0.0312500
        k(   25) = (   0.5303964  -0.0053040   0.0000000), wk =   0.0156250
        k(   26) = (  -0.0822114  -0.6179118   0.6187339), wk =   0.0312500
        k(   27) = (   0.0053040  -0.5303964   0.5303433), wk =   0.0312500
        k(   28) = (   0.0928194  -0.4428810   0.4419528), wk =   0.0312500
        k(   29) = (   0.1803348  -0.3553656   0.3535622), wk =   0.0312500
        k(   30) = (  -0.3571336   0.3571336  -0.3535622), wk =   0.0078125
        k(   31) = (  -0.2696182   0.4446490  -0.4419528), wk =   0.0312500
        k(   32) = (  -0.1821028   0.5321644  -0.5303433), wk =   0.0312500
        k(   33) = (  -0.0945874   0.6196798  -0.6187339), wk =   0.0312500
        k(   34) = (  -0.7071952   0.0070720  -0.0000000), wk =   0.0078125
        k(   35) = (   0.0000000   0.0000000   0.1767811), wk =   0.0078125
        k(   36) = (   0.1750308   0.1750308   0.0000000), wk =   0.0078125
        k(   37) = (   0.2625462   0.2625462  -0.0883906), wk =   0.0156250
        k(   38) = (  -0.3500616  -0.3500616   0.5303433), wk =   0.0156250
        k(   39) = (  -0.2625462  -0.2625462   0.4419528), wk =   0.0156250
        k(   40) = (  -0.1750308  -0.1750308   0.3535622), wk =   0.0156250
        k(   41) = (  -0.0875154  -0.0875154   0.2651717), wk =   0.0156250
        k(   42) = (   0.0892834  -0.0892834   0.2651717), wk =   0.0156250
        k(   43) = (   0.3518296   0.1732628   0.0000000), wk =   0.0156250
        k(   44) = (  -0.2607782  -0.4393450   0.6187339), wk =   0.0312500
        k(   45) = (  -0.1732628  -0.3518296   0.5303433), wk =   0.0312500
        k(   46) = (  -0.0857474  -0.2643142   0.4419528), wk =   0.0312500
        k(   47) = (   0.0017680  -0.1767988   0.3535622), wk =   0.0312500
        k(   48) = (   0.1785668  -0.1785668   0.3535622), wk =   0.0156250
        k(   49) = (   0.3535976  -0.0035360   0.1767811), wk =   0.0312500
        k(   50) = (  -0.1714948  -0.5286284   0.7071245), wk =   0.0156250
        k(   51) = (  -0.0839794  -0.4411130   0.6187339), wk =   0.0312500
        k(   52) = (   0.0035360  -0.3535976   0.5303433), wk =   0.0312500
        k(   53) = (   0.0910514  -0.2660822   0.4419528), wk =   0.0312500
        k(   54) = (  -0.4464170   0.4464170  -0.2651717), wk =   0.0156250
        k(   55) = (  -0.2713861   0.6214478  -0.4419528), wk =   0.0312500
        k(   56) = (  -0.1838707   0.7089632  -0.5303433), wk =   0.0312500
        k(   57) = (  -0.7089632   0.1838707   0.0000000), wk =   0.0156250
        k(   58) = (  -0.6214478   0.2713861  -0.0883906), wk =   0.0312500
        k(   59) = (  -0.5339324   0.3589016  -0.1767811), wk =   0.0312500
        k(   60) = (  -0.3571336   0.3571336  -0.1767811), wk =   0.0156250
        k(   61) = (  -0.1821028   0.5321644  -0.3535622), wk =   0.0156250
        k(   62) = (  -0.0945874   0.6196798  -0.4419528), wk =   0.0312500
        k(   63) = (  -0.7071952   0.0070720   0.1767811), wk =   0.0156250
        k(   64) = (  -0.5321644   0.1821028   0.0000000), wk =   0.0156250
        k(   65) = (  -0.4446490   0.2696182  -0.0883906), wk =   0.0312500
        k(   66) = (  -0.2678502   0.2678502  -0.0883906), wk =   0.0156250
        k(   67) = (  -0.0053040   0.5303964  -0.3535622), wk =   0.0312500
        k(   68) = (  -0.6179118  -0.0822114   0.2651717), wk =   0.0312500
        k(   69) = (  -0.3553656   0.1803348  -0.0000000), wk =   0.0156250
        k(   70) = (  -0.1785668   0.1785668   0.0000000), wk =   0.0078125
        k(   71) = (   0.0839794   0.4411130  -0.2651717), wk =   0.0312500
        k(   72) = (  -0.5286284  -0.1714948   0.3535622), wk =   0.0156250
        k(   73) = (   0.0000000   0.0000000   0.3535622), wk =   0.0078125
        k(   74) = (  -0.3500616  -0.3500616   0.7071245), wk =   0.0078125
        k(   75) = (  -0.2625462  -0.2625462   0.6187339), wk =   0.0156250
        k(   76) = (  -0.1750308  -0.1750308   0.5303433), wk =   0.0156250
        k(   77) = (  -0.0875154  -0.0875154   0.4419528), wk =   0.0156250
        k(   78) = (   0.0892834  -0.0892834   0.4419528), wk =   0.0156250
        k(   79) = (  -0.1732628  -0.3518296   0.7071245), wk =   0.0156250
        k(   80) = (  -0.0857474  -0.2643142   0.6187339), wk =   0.0312500
        k(   81) = (   0.0017680  -0.1767988   0.5303433), wk =   0.0312500
        k(   82) = (  -0.5357003   0.5357003  -0.1767811), wk =   0.0156250
        k(   83) = (  -0.7107312   0.3606695  -0.0000000), wk =   0.0156250
        k(   84) = (  -0.6232158   0.4481849  -0.0883906), wk =   0.0312500
        k(   85) = (  -0.4464170   0.4464170  -0.0883906), wk =   0.0156250
        k(   86) = (  -0.5339324   0.3589016   0.0000000), wk =   0.0156250
        k(   87) = (  -0.3571336   0.3571336   0.0000000), wk =   0.0078125
        k(   88) = (  -0.7071952   0.0070720   0.3535622), wk =   0.0078125
        k(   89) = (   0.0000000   0.0000000   0.5303433), wk =   0.0078125
        k(   90) = (  -0.1750308  -0.1750308   0.7071245), wk =   0.0078125
        k(   91) = (  -0.0875154  -0.0875154   0.6187339), wk =   0.0156250
        k(   92) = (  -0.6249837   0.6249837  -0.0883906), wk =   0.0156250
        k(   93) = (  -0.7124991   0.5374683  -0.0000000), wk =   0.0156250
        k(   94) = (  -0.5357003   0.5357003   0.0000000), wk =   0.0078125
        k(   95) = (   0.0000000   0.0000000  -0.7071245), wk =   0.0039063

                       cryst. coord.
        k(    1) = (   0.0000000   0.0000000   0.0000000), wk =   0.0039063
        k(    2) = (   0.0000000   0.0000000   0.1250000), wk =   0.0156250
        k(    3) = (   0.0000000   0.0000000   0.2500000), wk =   0.0156250
        k(    4) = (   0.0000000   0.0000000   0.3750000), wk =   0.0156250
        k(    5) = (  -0.0000000  -0.0000000  -0.5000000), wk =   0.0078125
        k(    6) = (   0.0000000   0.1250000   0.0000000), wk =   0.0156250
        k(    7) = (   0.0000000   0.1250000   0.1250000), wk =   0.0156250
        k(    8) = (   0.0000000   0.1250000   0.2500000), wk =   0.0312500
        k(    9) = (   0.0000000   0.1250000   0.3750000), wk =   0.0312500
        k(   10) = (   0.0000000   0.1250000  -0.5000000), wk =   0.0312500
        k(   11) = (   0.0000000   0.1250000  -0.3750000), wk =   0.0312500
        k(   12) = (   0.0000000   0.1250000  -0.2500000), wk =   0.0312500
        k(   13) = (   0.0000000   0.1250000  -0.1250000), wk =   0.0312500
        k(   14) = (   0.0000000   0.2500000   0.0000000), wk =   0.0156250
        k(   15) = (   0.0000000   0.2500000   0.1250000), wk =   0.0312500
        k(   16) = (   0.0000000   0.2500000   0.2500000), wk =   0.0156250
        k(   17) = (   0.0000000   0.2500000   0.3750000), wk =   0.0312500
        k(   18) = (   0.0000000   0.2500000  -0.5000000), wk =   0.0312500
        k(   19) = (   0.0000000   0.2500000  -0.3750000), wk =   0.0312500
        k(   20) = (   0.0000000   0.2500000  -0.2500000), wk =   0.0312500
        k(   21) = (   0.0000000   0.2500000  -0.1250000), wk =   0.0312500
        k(   22) = (   0.0000000   0.3750000   0.0000000), wk =   0.0156250
        k(   23) = (  -0.0000000   0.3750000   0.1250000), wk =   0.0312500
        k(   24) = (   0.0000000   0.3750000   0.2500000), wk =   0.0312500
        k(   25) = (   0.0000000   0.3750000   0.3750000), wk =   0.0156250
        k(   26) = (   0.0000000   0.3750000  -0.5000000), wk =   0.0312500
        k(   27) = (   0.0000000   0.3750000  -0.3750000), wk =   0.0312500
        k(   28) = (   0.0000000   0.3750000  -0.2500000), wk =   0.0312500
        k(   29) = (  -0.0000000   0.3750000  -0.1250000), wk =   0.0312500
        k(   30) = (   0.0000000  -0.5000000   0.0000000), wk =   0.0078125
        k(   31) = (  -0.0000000  -0.5000000   0.1250000), wk =   0.0312500
        k(   32) = (   0.0000000  -0.5000000   0.2500000), wk =   0.0312500
        k(   33) = (  -0.0000000  -0.5000000   0.3750000), wk =   0.0312500
        k(   34) = (  -0.0000000  -0.5000000  -0.5000000), wk =   0.0078125
        k(   35) = (   0.1250000   0.1250000   0.0000000), wk =   0.0078125
        k(   36) = (   0.1250000   0.1250000   0.2500000), wk =   0.0078125
        k(   37) = (   0.1250000   0.1250000   0.3750000), wk =   0.0156250
        k(   38) = (   0.1250000   0.1250000  -0.5000000), wk =   0.0156250
        k(   39) = (   0.1250000   0.1250000  -0.3750000), wk =   0.0156250
        k(   40) = (   0.1250000   0.1250000  -0.2500000), wk =   0.0156250
        k(   41) = (   0.1250000   0.1250000  -0.1250000), wk =   0.0156250
        k(   42) = (   0.1250000   0.2500000   0.0000000), wk =   0.0156250
        k(   43) = (   0.1250000   0.2500000   0.3750000), wk =   0.0156250
        k(   44) = (   0.1250000   0.2500000  -0.5000000), wk =   0.0312500
        k(   45) = (   0.1250000   0.2500000  -0.3750000), wk =   0.0312500
        k(   46) = (   0.1250000   0.2500000  -0.2500000), wk =   0.0312500
        k(   47) = (   0.1250000   0.2500000  -0.1250000), wk =   0.0312500
        k(   48) = (   0.1250000   0.3750000   0.0000000), wk =   0.0156250
        k(   49) = (   0.1250000   0.3750000   0.2500000), wk =   0.0312500
        k(   50) = (   0.1250000   0.3750000  -0.5000000), wk =   0.0156250
        k(   51) = (   0.1250000   0.3750000  -0.3750000), wk =   0.0312500
        k(   52) = (   0.1250000   0.3750000  -0.2500000), wk =   0.0312500
        k(   53) = (   0.1250000   0.3750000  -0.1250000), wk =   0.0312500
        k(   54) = (   0.1250000  -0.5000000   0.0000000), wk =   0.0156250
        k(   55) = (   0.1250000  -0.5000000   0.2500000), wk =   0.0312500
        k(   56) = (   0.1250000  -0.5000000   0.3750000), wk =   0.0312500
        k(   57) = (   0.1250000  -0.5000000  -0.3750000), wk =   0.0156250
        k(   58) = (   0.1250000  -0.5000000  -0.2500000), wk =   0.0312500
        k(   59) = (   0.1250000  -0.5000000  -0.1250000), wk =   0.0312500
        k(   60) = (   0.1250000  -0.3750000   0.0000000), wk =   0.0156250
        k(   61) = (   0.1250000  -0.3750000   0.2500000), wk =   0.0156250
        k(   62) = (   0.1250000  -0.3750000   0.3750000), wk =   0.0312500
        k(   63) = (   0.1250000  -0.3750000  -0.5000000), wk =   0.0156250
        k(   64) = (   0.1250000  -0.3750000  -0.2500000), wk =   0.0156250
        k(   65) = (   0.1250000  -0.3750000  -0.1250000), wk =   0.0312500
        k(   66) = (   0.1250000  -0.2500000   0.0000000), wk =   0.0156250
        k(   67) = (   0.1250000  -0.2500000   0.3750000), wk =   0.0312500
        k(   68) = (   0.1250000  -0.2500000  -0.5000000), wk =   0.0312500
        k(   69) = (   0.1250000  -0.2500000  -0.1250000), wk =   0.0156250
        k(   70) = (   0.1250000  -0.1250000   0.0000000), wk =   0.0078125
        k(   71) = (   0.1250000  -0.1250000   0.3750000), wk =   0.0312500
        k(   72) = (   0.1250000  -0.1250000  -0.5000000), wk =   0.0156250
        k(   73) = (   0.2500000   0.2500000   0.0000000), wk =   0.0078125
        k(   74) = (   0.2500000   0.2500000  -0.5000000), wk =   0.0078125
        k(   75) = (   0.2500000   0.2500000  -0.3750000), wk =   0.0156250
        k(   76) = (   0.2500000   0.2500000  -0.2500000), wk =   0.0156250
        k(   77) = (   0.2500000   0.2500000  -0.1250000), wk =   0.0156250
        k(   78) = (   0.2500000   0.3750000   0.0000000), wk =   0.0156250
        k(   79) = (   0.2500000   0.3750000  -0.3750000), wk =   0.0156250
        k(   80) = (   0.2500000   0.3750000  -0.2500000), wk =   0.0312500
        k(   81) = (   0.2500000   0.3750000  -0.1250000), wk =   0.0312500
        k(   82) = (   0.2500000  -0.5000000   0.0000000), wk =   0.0156250
        k(   83) = (   0.2500000  -0.5000000  -0.2500000), wk =   0.0156250
        k(   84) = (   0.2500000  -0.5000000  -0.1250000), wk =   0.0312500
        k(   85) = (   0.2500000  -0.3750000   0.0000000), wk =   0.0156250
        k(   86) = (   0.2500000  -0.3750000  -0.1250000), wk =   0.0156250
        k(   87) = (   0.2500000  -0.2500000   0.0000000), wk =   0.0078125
        k(   88) = (   0.2500000  -0.2500000  -0.5000000), wk =   0.0078125
        k(   89) = (   0.3750000   0.3750000   0.0000000), wk =   0.0078125
        k(   90) = (   0.3750000   0.3750000  -0.2500000), wk =   0.0078125
        k(   91) = (   0.3750000   0.3750000  -0.1250000), wk =   0.0156250
        k(   92) = (   0.3750000  -0.5000000   0.0000000), wk =   0.0156250
        k(   93) = (   0.3750000  -0.5000000  -0.1250000), wk =   0.0156250
        k(   94) = (   0.3750000  -0.3750000   0.0000000), wk =   0.0078125
        k(   95) = (  -0.5000000  -0.5000000   0.0000000), wk =   0.0039063

     Dense  grid:    12939 G-vectors     FFT dimensions: (  36,  36,  36)

     Smooth grid:     7607 G-vectors     FFT dimensions: (  27,  27,  27)

     Largest allocated arrays     est. size (Mb)     dimensions
        Kohn-Sham Wavefunctions         0.03 Mb     (     256,    8)
        NL pseudopotentials             0.14 Mb     (     256,   36)
        Each V/rho on FFT grid          0.18 Mb     (   11664)
        Each G-vector array             0.02 Mb     (    3235)
        G-vector shells                 0.01 Mb     (    1538)
     Largest temporary arrays     est. size (Mb)     dimensions
        Auxiliary wavefunctions         0.13 Mb     (     256,   32)
        Each subspace H/S matrix        0.02 Mb     (      32,   32)
        Each <psi_i|beta_j> matrix      0.00 Mb     (      36,    8)
        Arrays for rho mixing           1.42 Mb     (   11664,    8)

     Initial potential from superposition of free atoms

     starting charge    7.99870, renormalised to    8.00000
     Starting wfc are    8 randomized atomic wfcs

     total cpu time spent up to now is        2.2 secs

     per-process dynamical memory:     9.2 Mb

     Self-consistent Calculation

     iteration #  1     ecut=    35.00 Ry     beta=0.30
     Davidson diagonalization with overlap
     ethr =  1.00E-02,  avg # of iterations =  3.7

     Threshold (ethr) on eigenvalues was too large:
     Diagonalizing with lowered threshold

     Davidson diagonalization with overlap
     ethr =  7.03E-04,  avg # of iterations =  1.1

     total cpu time spent up to now is       13.5 secs

     total energy              =     -19.12822694 Ry
     Harris-Foulkes estimate   =     -19.13411682 Ry
     estimated scf accuracy    <       0.05527699 Ry

     iteration #  2     ecut=    35.00 Ry     beta=0.30
     Davidson diagonalization with overlap
     ethr =  6.91E-04,  avg # of iterations =  1.0

     total cpu time spent up to now is       17.7 secs

     total energy              =     -19.11701039 Ry
     Harris-Foulkes estimate   =     -19.12849375 Ry
     estimated scf accuracy    <       0.03365070 Ry

     iteration #  3     ecut=    35.00 Ry     beta=0.30
     Davidson diagonalization with overlap
     ethr =  4.21E-04,  avg # of iterations =  1.0

     total cpu time spent up to now is       21.8 secs

     total energy              =     -19.11916500 Ry
     Harris-Foulkes estimate   =     -19.11904128 Ry
     estimated scf accuracy    <       0.00032891 Ry

     iteration #  4     ecut=    35.00 Ry     beta=0.30
     Davidson diagonalization with overlap
     ethr =  4.11E-06,  avg # of iterations =  3.7

     total cpu time spent up to now is       28.9 secs

     total energy              =     -19.11925103 Ry
     Harris-Foulkes estimate   =     -19.11927940 Ry
     estimated scf accuracy    <       0.00011153 Ry

     iteration #  5     ecut=    35.00 Ry     beta=0.30
     Davidson diagonalization with overlap
     ethr =  1.39E-06,  avg # of iterations =  1.0

     total cpu time spent up to now is       32.9 secs

     total energy              =     -19.11926117 Ry
     Harris-Foulkes estimate   =     -19.11926023 Ry
     estimated scf accuracy    <       0.00000161 Ry

     iteration #  6     ecut=    35.00 Ry     beta=0.30
     Davidson diagonalization with overlap
     ethr =  2.01E-08,  avg # of iterations =  2.5

     total cpu time spent up to now is       38.0 secs

     total energy              =     -19.11926155 Ry
     Harris-Foulkes estimate   =     -19.11926162 Ry
     estimated scf accuracy    <       0.00000042 Ry

     iteration #  7     ecut=    35.00 Ry     beta=0.30
     Davidson diagonalization with overlap
     ethr =  5.21E-09,  avg # of iterations =  1.2

     total cpu time spent up to now is       42.1 secs

     total energy              =     -19.11926159 Ry
     Harris-Foulkes estimate   =     -19.11926158 Ry
     estimated scf accuracy    <          3.6E-09 Ry

     iteration #  8     ecut=    35.00 Ry     beta=0.30
     Davidson diagonalization with overlap
     ethr =  4.51E-11,  avg # of iterations =  2.9

     total cpu time spent up to now is       47.7 secs

     total energy              =     -19.11926159 Ry
     Harris-Foulkes estimate   =     -19.11926159 Ry
     estimated scf accuracy    <          2.5E-09 Ry

     iteration #  9     ecut=    35.00 Ry     beta=0.30
     Davidson diagonalization with overlap
     ethr =  3.14E-11,  avg # of iterations =  1.1

     total cpu time spent up to now is       51.6 secs

     End of self-consistent calculation

          k = 0.0000 0.0000 0.0000 (   941 PWs)   bands (ev):

    -5.8414   6.1234   6.1419   6.1697   8.5128   8.6164   8.8211   9.4990

     occupation numbers 
     1.0000   0.9545   0.9409   0.9146   0.0000   0.0000   0.0000   0.0000

          k = 0.0875 0.0875-0.0884 (   936 PWs)   bands (ev):

    -5.6404   4.4813   5.8581   5.8900   8.6060   9.0391   9.2273  10.7469

     occupation numbers 
     1.0000   1.0000   0.9998   0.9995   0.0000   0.0000   0.0000   0.0000

          k = 0.1750 0.1750-0.1768 (   939 PWs)   bands (ev):

    -5.0545   2.1512   5.4084   5.4259   8.1783   9.5263   9.7178  12.9311

     occupation numbers 
     1.0000   1.0000   1.0000   1.0000   0.0000   0.0000   0.0000   0.0000

          k = 0.2625 0.2625-0.2652 (   945 PWs)   bands (ev):

    -4.1789   0.1505   5.0982   5.0991   7.8254   9.4805   9.6582  13.8821

     occupation numbers 
     1.0000   1.0000   1.0000   1.0000   0.0000   0.0000   0.0000   0.0000

          k =-0.3501-0.3501 0.3536 (   952 PWs)   bands (ev):

    -3.5613  -0.8505   4.9865   4.9927   7.7003   9.3734   9.5502  13.7291

     occupation numbers 
     1.0000   1.0000   1.0000   1.0000   0.0000   0.0000   0.0000   0.0000

          k = 0.0893-0.0893 0.0884 (   933 PWs)   bands (ev):

    -5.6330   4.5815   5.8176   5.8424   8.5279   8.9631   9.1744  10.8741

     occupation numbers 
     1.0000   1.0000   0.9999   0.9999   0.0000   0.0000   0.0000   0.0000

          k = 0.1768-0.0018 0.0000 (   937 PWs)   bands (ev):

    -5.5676   4.8063   5.3246   5.3280   8.0895   9.7697   9.8161  10.5291

     occupation numbers 
     1.0000   1.0000   1.0000   1.0000   0.0000   0.0000   0.0000   0.0000

          k = 0.2643 0.0857-0.0884 (   942 PWs)   bands (ev):

    -5.1086   2.8875   4.8240   4.8788   8.2566   9.9668  10.5454  10.8399

     occupation numbers 
     1.0000   1.0000   1.0000   1.0000   0.0000   0.0000   0.0000   0.0000

          k = 0.3518 0.1733-0.1768 (   943 PWs)   bands (ev):

    -4.3102   0.8302   4.2982   4.5746   8.3566   9.8597  10.5601  11.6195

     occupation numbers 
     1.0000   1.0000   1.0000   1.0000   0.0000   0.0000   0.0000   0.0000

          k =-0.2608-0.4393 0.4420 (   942 PWs)   bands (ev):

    -3.4704  -0.6177   3.8728   4.6074   8.3153   9.6956  10.2030  13.5163

     occupation numbers 
     1.0000   1.0000   1.0000   1.0000   0.0000   0.0000   0.0000   0.0000

          k =-0.1733-0.3518 0.3536 (   944 PWs)   bands (ev):

    -3.6979  -0.2692   3.7062   4.9061   8.4882   9.7721   9.9666  13.8509

     occupation numbers 
     1.0000   1.0000   1.0000   1.0000   0.0000   0.0000   0.0000   0.0000

          k =-0.0857-0.2643 0.2652 (   946 PWs)   bands (ev):

    -4.5995   1.4615   3.8602   5.3905   8.8377   9.7705   9.9731  12.2879

     occupation numbers 
     1.0000   1.0000   1.0000   1.0000   0.0000   0.0000   0.0000   0.0000

          k = 0.0018-0.1768 0.1768 (   937 PWs)   bands (ev):

    -5.2995   3.4448   4.4944   5.8517   9.0221   9.3409   9.4507  11.6308

     occupation numbers 
     1.0000   1.0000   1.0000   0.9998   0.0000   0.0000   0.0000   0.0000

          k = 0.1786-0.1786 0.1768 (   938 PWs)   bands (ev):

    -5.0234   2.2360   5.3366   5.3468   8.0256   9.5022   9.6895  12.9724

     occupation numbers 
     1.0000   1.0000   1.0000   1.0000   0.0000   0.0000   0.0000   0.0000

          k = 0.2661-0.0911 0.0884 (   941 PWs)   bands (ev):

    -5.0862   2.9232   4.7919   4.9064   8.1911   9.6478  10.5821  10.8114

     occupation numbers 
     1.0000   1.0000   1.0000   1.0000   0.0000   0.0000   0.0000   0.0000

          k = 0.3536-0.0035 0.0000 (   954 PWs)   bands (ev):

    -4.7560   2.6249   4.2368   4.2370   7.1870   9.1774  11.8611  11.8616

     occupation numbers 
     1.0000   1.0000   1.0000   1.0000   0.0000   0.0000   0.0000   0.0000

          k = 0.4411 0.0840-0.0884 (   945 PWs)   bands (ev):

    -4.0622   1.2201   3.4088   3.9298   7.4229   8.9949  12.2043  12.3975

     occupation numbers 
     1.0000   1.0000   1.0000   1.0000   0.0000   0.0000   0.0000   0.0000

          k =-0.1715-0.5286 0.5303 (   944 PWs)   bands (ev):

    -3.1581  -0.2132   2.5596   3.9390   7.5851  10.5550  11.9318  12.0927

     occupation numbers 
     1.0000   1.0000   1.0000   1.0000   0.0000   0.0000   0.0000   0.0000

          k =-0.0840-0.4411 0.4420 (   946 PWs)   bands (ev):

    -2.9402  -0.4956   2.1183   4.2577   7.9108  11.5385  11.6991  13.0829

     occupation numbers 
     1.0000   1.0000   1.0000   1.0000   0.0000   0.0000   0.0000   0.0000

          k = 0.0035-0.3536 0.3536 (   945 PWs)   bands (ev):

    -3.7897   0.6526   2.3443   4.8089   8.5125  10.8766  11.2005  12.2318

     occupation numbers 
     1.0000   1.0000   1.0000   1.0000   0.0000   0.0000   0.0000   0.0000

          k = 0.0911-0.2661 0.2652 (   941 PWs)   bands (ev):

    -4.5741   1.5342   3.7527   5.3450   8.7443   9.7936   9.9123  12.3709

     occupation numbers 
     1.0000   1.0000   1.0000   1.0000   0.0000   0.0000   0.0000   0.0000

          k = 0.2679-0.2679 0.2652 (   939 PWs)   bands (ev):

    -4.1010   0.1790   5.0047   5.0105   7.6467   9.4298   9.6050  13.7834

     occupation numbers 
     1.0000   1.0000   1.0000   1.0000   0.0000   0.0000   0.0000   0.0000

          k = 0.3554-0.1803 0.1768 (   941 PWs)   bands (ev):

    -4.2469   0.8392   4.2862   4.5151   8.2758   9.6074  10.5674  11.4441

     occupation numbers 
     1.0000   1.0000   1.0000   1.0000   0.0000   0.0000   0.0000   0.0000

          k = 0.4429-0.0928 0.0884 (   949 PWs)   bands (ev):

    -4.0243   1.1736   3.4783   3.9073   7.3884   8.8896  11.9713  12.3574

     occupation numbers 
     1.0000   1.0000   1.0000   1.0000   0.0000   0.0000   0.0000   0.0000

          k = 0.5304-0.0053 0.0000 (   953 PWs)   bands (ev):

    -3.4391   0.3942   3.5183   3.5190   6.6571   7.5733  14.1288  14.1354

     occupation numbers 
     1.0000   1.0000   1.0000   1.0000   0.0223   0.0000   0.0000   0.0000

          k =-0.0822-0.6179 0.6187 (   951 PWs)   bands (ev):

    -2.5644  -0.6600   2.6525   3.4469   6.9349   8.0399  14.3738  14.6103

     occupation numbers 
     1.0000   1.0000   1.0000   1.0000   0.0000   0.0000   0.0000   0.0000

          k = 0.0053-0.5304 0.5303 (   950 PWs)   bands (ev):

    -2.0945  -1.0902   1.7865   3.7028   7.2439  10.1925  13.5264  14.0352

     occupation numbers 
     1.0000   1.0000   1.0000   1.0000   0.0000   0.0000   0.0000   0.0000

          k = 0.0928-0.4429 0.4420 (   946 PWs)   bands (ev):

    -2.8682  -0.5362   2.0921   4.2332   7.8792  11.3998  11.5805  12.9890

     occupation numbers 
     1.0000   1.0000   1.0000   1.0000   0.0000   0.0000   0.0000   0.0000

          k = 0.1803-0.3554 0.3536 (   945 PWs)   bands (ev):

    -3.6158  -0.2603   3.6098   4.8390   8.3741   9.6273   9.9602  13.9382

     occupation numbers 
     1.0000   1.0000   1.0000   1.0000   0.0000   0.0000   0.0000   0.0000

          k =-0.3571 0.3571-0.3536 (   948 PWs)   bands (ev):

    -3.4263  -0.8837   4.8878   4.9003   7.5144   9.3070   9.4824  13.6036

     occupation numbers 
     1.0000   1.0000   1.0000   1.0000   0.0000   0.0000   0.0000   0.0000

          k =-0.2696 0.4446-0.4420 (   946 PWs)   bands (ev):

    -3.3466  -0.6619   3.8132   4.5371   8.2068   9.4955  10.1860  13.3377

     occupation numbers 
     1.0000   1.0000   1.0000   1.0000   0.0000   0.0000   0.0000   0.0000

          k =-0.1821 0.5322-0.5303 (   948 PWs)   bands (ev):

    -3.0633  -0.2970   2.5798   3.9082   7.5488  10.4639  11.6901  11.9894

     occupation numbers 
     1.0000   1.0000   1.0000   1.0000   0.0000   0.0000   0.0000   0.0000

          k =-0.0946 0.6197-0.6187 (   958 PWs)   bands (ev):

    -2.5110  -0.7255   2.6861   3.4394   6.9304   7.9965  14.2184  14.3946

     occupation numbers 
     1.0000   1.0000   1.0000   1.0000   0.0000   0.0000   0.0000   0.0000

          k =-0.7072 0.0071-0.0000 (   954 PWs)   bands (ev):

    -1.6833  -1.6833   3.2727   3.2727   6.7439   6.7439  16.1716  16.1716

     occupation numbers 
     1.0000   1.0000   1.0000   1.0000   0.0045   0.0045   0.0000   0.0000

          k = 0.0000 0.0000 0.1768 (   941 PWs)   bands (ev):

    -5.5678   4.7999   5.2626   5.3940   8.0894   9.7162   9.9178  10.4865

     occupation numbers 
     1.0000   1.0000   1.0000   1.0000   0.0000   0.0000   0.0000   0.0000

          k = 0.1750 0.1750 0.0000 (   945 PWs)   bands (ev):

    -5.3140   3.4399   4.4363   5.8729   9.2688   9.3694   9.4581  11.5842

     occupation numbers 
     1.0000   1.0000   1.0000   0.9997   0.0000   0.0000   0.0000   0.0000

          k = 0.2625 0.2625-0.0884 (   948 PWs)   bands (ev):

    -4.6202   1.4962   3.7867   5.3998   8.9160   9.9021   9.9356  12.4837

     occupation numbers 
     1.0000   1.0000   1.0000   1.0000   0.0000   0.0000   0.0000   0.0000

          k =-0.3501-0.3501 0.5303 (   949 PWs)   bands (ev):

    -3.7184  -0.2478   3.6737   4.9207   8.5393   9.7022  10.0768  14.0579

     occupation numbers 
     1.0000   1.0000   1.0000   1.0000   0.0000   0.0000   0.0000   0.0000

          k =-0.2625-0.2625 0.4420 (   937 PWs)   bands (ev):

    -3.4660  -0.6366   3.8854   4.6362   8.3548   9.5835  10.2920  13.2067

     occupation numbers 
     1.0000   1.0000   1.0000   1.0000   0.0000   0.0000   0.0000   0.0000

          k =-0.1750-0.1750 0.3536 (   946 PWs)   bands (ev):

    -4.2985   0.7902   4.3462   4.6202   8.3848   9.6749  10.6395  11.3793

     occupation numbers 
     1.0000   1.0000   1.0000   1.0000   0.0000   0.0000   0.0000   0.0000

          k =-0.0875-0.0875 0.2652 (   943 PWs)   bands (ev):

    -5.1019   2.8467   4.8905   4.9147   8.2247   9.7256  10.6521  10.7801

     occupation numbers 
     1.0000   1.0000   1.0000   1.0000   0.0000   0.0000   0.0000   0.0000

          k = 0.0893-0.0893 0.2652 (   945 PWs)   bands (ev):

    -5.0937   2.9615   4.7379   4.8551   8.2192   9.9047  10.5084  10.8464

     occupation numbers 
     1.0000   1.0000   1.0000   1.0000   0.0000   0.0000   0.0000   0.0000

          k = 0.3518 0.1733 0.0000 (   949 PWs)   bands (ev):

    -4.5369   1.8705   3.3591   4.7043   8.5982  10.1414  10.2916  11.6751

     occupation numbers 
     1.0000   1.0000   1.0000   1.0000   0.0000   0.0000   0.0000   0.0000

          k =-0.2608-0.4393 0.6187 (   948 PWs)   bands (ev):

    -3.6701   0.3202   2.7860   4.2067   9.0208   9.7280  11.1895  12.0997

     occupation numbers 
     1.0000   1.0000   1.0000   1.0000   0.0000   0.0000   0.0000   0.0000

          k =-0.1733-0.3518 0.5303 (   949 PWs)   bands (ev):

    -3.0225  -0.6400   2.6960   3.9812   9.2221   9.2870  12.0510  13.0350

     occupation numbers 
     1.0000   1.0000   1.0000   1.0000   0.0000   0.0000   0.0000   0.0000

          k =-0.0857-0.2643 0.4420 (   944 PWs)   bands (ev):

    -3.6339   0.2593   2.8373   4.2145   9.0531   9.6547  10.9111  12.0498

     occupation numbers 
     1.0000   1.0000   1.0000   1.0000   0.0000   0.0000   0.0000   0.0000

          k = 0.0018-0.1768 0.3536 (   947 PWs)   bands (ev):

    -4.5081   1.8421   3.4001   4.7014   8.5147   9.9991  10.2589  11.6056

     occupation numbers 
     1.0000   1.0000   1.0000   1.0000   0.0000   0.0000   0.0000   0.0000

          k = 0.1786-0.1786 0.3536 (   941 PWs)   bands (ev):

    -4.2600   0.8805   4.2301   4.4737   8.2525   9.7861  10.4941  11.6911

     occupation numbers 
     1.0000   1.0000   1.0000   1.0000   0.0000   0.0000   0.0000   0.0000

          k = 0.3536-0.0035 0.1768 (   944 PWs)   bands (ev):

    -4.5075   1.8462   3.3944   4.7064   8.5198   9.9790  10.2554  11.6099

     occupation numbers 
     1.0000   1.0000   1.0000   1.0000   0.0000   0.0000   0.0000   0.0000

          k =-0.1715-0.5286 0.7071 (   950 PWs)   bands (ev):

    -3.2831   0.2312   2.7338   3.3268   8.0444   8.7513  12.0063  14.1258

     occupation numbers 
     1.0000   1.0000   1.0000   1.0000   0.0000   0.0000   0.0000   0.0000

          k =-0.0840-0.4411 0.6187 (   939 PWs)   bands (ev):

    -2.4249  -0.7306   2.0393   3.1407   8.4713  10.3737  11.5470  13.2642

     occupation numbers 
     1.0000   1.0000   1.0000   1.0000   0.0000   0.0000   0.0000   0.0000

          k = 0.0035-0.3536 0.5303 (   948 PWs)   bands (ev):

    -2.7119  -0.4307   1.8638   3.5293   8.9320  10.5716  11.3383  13.1060

     occupation numbers 
     1.0000   1.0000   1.0000   1.0000   0.0000   0.0000   0.0000   0.0000

          k = 0.0911-0.2661 0.4420 (   938 PWs)   bands (ev):

    -3.5968   0.3120   2.7361   4.1732   8.8387   9.6111  11.2754  12.0153

     occupation numbers 
     1.0000   1.0000   1.0000   1.0000   0.0000   0.0000   0.0000   0.0000

          k =-0.4464 0.4464-0.2652 (   941 PWs)   bands (ev):

    -3.3526  -0.6416   3.7949   4.5122   8.1774   9.6006  10.0981  13.6435

     occupation numbers 
     1.0000   1.0000   1.0000   1.0000   0.0000   0.0000   0.0000   0.0000

          k =-0.2714 0.6214-0.4420 (   939 PWs)   bands (ev):

    -3.5919   0.2783   2.7889   4.1628   8.9698   9.6065  11.0171  11.9452

     occupation numbers 
     1.0000   1.0000   1.0000   1.0000   0.0000   0.0000   0.0000   0.0000

          k =-0.1839 0.7090-0.5303 (   946 PWs)   bands (ev):

    -3.2387   0.1757   2.7404   3.3574   8.0076   8.6950  11.8388  14.0791

     occupation numbers 
     1.0000   1.0000   1.0000   1.0000   0.0000   0.0000   0.0000   0.0000

          k =-0.7090 0.1839 0.0000 (   949 PWs)   bands (ev):

    -1.6601  -1.5453   2.6702   2.7065   8.0119   8.0366  13.6966  14.1690

     occupation numbers 
     1.0000   1.0000   1.0000   1.0000   0.0000   0.0000   0.0000   0.0000

          k =-0.6214 0.2714-0.0884 (   943 PWs)   bands (ev):

    -2.2894  -0.8623   2.0265   3.1582   8.4224  10.3122  11.1834  13.7775

     occupation numbers 
     1.0000   1.0000   1.0000   1.0000   0.0000   0.0000   0.0000   0.0000

          k =-0.5339 0.3589-0.1768 (   949 PWs)   bands (ev):

    -2.8874  -0.6993   2.6207   3.9443   9.0253   9.1486  11.9578  13.2007

     occupation numbers 
     1.0000   1.0000   1.0000   1.0000   0.0000   0.0000   0.0000   0.0000

          k =-0.3571 0.3571-0.1768 (   939 PWs)   bands (ev):

    -3.5938  -0.2839   3.6392   4.8285   8.3369   9.6907   9.8459  13.8299

     occupation numbers 
     1.0000   1.0000   1.0000   1.0000   0.0000   0.0000   0.0000   0.0000

          k =-0.1821 0.5322-0.3536 (   944 PWs)   bands (ev):

    -2.9023  -0.7057   2.6739   3.9084   9.1645   9.1663  11.8829  13.1338

     occupation numbers 
     1.0000   1.0000   1.0000   1.0000   0.0000   0.0000   0.0000   0.0000

          k =-0.0946 0.6197-0.4420 (   949 PWs)   bands (ev):

    -2.3266  -0.8312   2.0603   3.1217   8.4539  10.3264  11.3608  13.4895

     occupation numbers 
     1.0000   1.0000   1.0000   1.0000   0.0000   0.0000   0.0000   0.0000

          k =-0.7072 0.0071 0.1768 (   950 PWs)   bands (ev):

    -1.6029  -1.6029   2.6892   2.6892   8.0232   8.0232  13.9268  13.9268

     occupation numbers 
     1.0000   1.0000   1.0000   1.0000   0.0000   0.0000   0.0000   0.0000

          k =-0.5322 0.1821 0.0000 (   950 PWs)   bands (ev):

    -3.1938   0.1194   2.7517   3.3815   7.9755   8.6378  11.6876  14.0412

     occupation numbers 
     1.0000   1.0000   1.0000   1.0000   0.0000   0.0000   0.0000   0.0000

          k =-0.4446 0.2696-0.0884 (   940 PWs)   bands (ev):

    -3.5575   0.2482   2.7858   4.1860   8.8731   9.5379  10.9908  11.9605

     occupation numbers 
     1.0000   1.0000   1.0000   1.0000   0.0000   0.0000   0.0000   0.0000

          k =-0.2679 0.2679-0.0884 (   941 PWs)   bands (ev):

    -4.5526   1.4977   3.8248   5.3411   8.6922   9.6516   9.9368  12.2298

     occupation numbers 
     1.0000   1.0000   1.0000   1.0000   0.0000   0.0000   0.0000   0.0000

          k =-0.0053 0.5304-0.3536 (   944 PWs)   bands (ev):

    -2.7098  -0.4320   1.8624   3.5322   8.9287  10.6176  11.2851  13.1031

     occupation numbers 
     1.0000   1.0000   1.0000   1.0000   0.0000   0.0000   0.0000   0.0000

          k =-0.6179-0.0822 0.2652 (   940 PWs)   bands (ev):

    -2.3870  -0.7622   2.0063   3.1798   8.4358  10.3568  11.3589  13.5398

     occupation numbers 
     1.0000   1.0000   1.0000   1.0000   0.0000   0.0000   0.0000   0.0000

          k =-0.3554 0.1803-0.0000 (   936 PWs)   bands (ev):

    -4.4776   1.8198   3.4329   4.7059   8.4487   9.8298  10.2294  11.5268

     occupation numbers 
     1.0000   1.0000   1.0000   1.0000   0.0000   0.0000   0.0000   0.0000

          k =-0.1786 0.1786 0.0000 (   933 PWs)   bands (ev):

    -5.2845   3.4564   4.5436   5.8370   9.0044   9.0861   9.4297  11.6703

     occupation numbers 
     1.0000   1.0000   1.0000   0.9999   0.0000   0.0000   0.0000   0.0000

          k = 0.0840 0.4411-0.2652 (   945 PWs)   bands (ev):

    -3.6367   0.2933   2.7819   4.2311   8.9209   9.6465  11.1532  12.1320

     occupation numbers 
     1.0000   1.0000   1.0000   1.0000   0.0000   0.0000   0.0000   0.0000

          k =-0.5286-0.1715 0.3536 (   946 PWs)   bands (ev):

    -3.0063  -0.6334   2.6446   4.0180   9.1230   9.2126  12.1377  13.2441

     occupation numbers 
     1.0000   1.0000   1.0000   1.0000   0.0000   0.0000   0.0000   0.0000

          k = 0.0000 0.0000 0.3536 (   952 PWs)   bands (ev):

    -4.7568   2.6193   4.1470   4.3312   7.1864   9.1817  11.8245  11.9157

     occupation numbers 
     1.0000   1.0000   1.0000   1.0000   0.0000   0.0000   0.0000   0.0000

          k =-0.3501-0.3501 0.7071 (   943 PWs)   bands (ev):

    -3.8478   0.6904   2.3220   4.8595   8.5860  10.9969  11.2710  12.3684

     occupation numbers 
     1.0000   1.0000   1.0000   1.0000   0.0000   0.0000   0.0000   0.0000

          k =-0.2625-0.2625 0.6187 (   943 PWs)   bands (ev):

    -2.9875  -0.4729   2.1113   4.3178   7.9792  11.6067  11.6609  12.7842

     occupation numbers 
     1.0000   1.0000   1.0000   1.0000   0.0000   0.0000   0.0000   0.0000

          k =-0.1750-0.1750 0.5303 (   947 PWs)   bands (ev):

    -3.1475  -0.2704   2.5841   4.0118   7.6526  10.3242  11.8553  12.0742

     occupation numbers 
     1.0000   1.0000   1.0000   1.0000   0.0000   0.0000   0.0000   0.0000

          k =-0.0875-0.0875 0.4420 (   946 PWs)   bands (ev):

    -4.0503   1.1650   3.4201   4.0148   7.4377   8.8621  12.0867  12.4080

     occupation numbers 
     1.0000   1.0000   1.0000   1.0000   0.0000   0.0000   0.0000   0.0000

          k = 0.0893-0.0893 0.4420 (   952 PWs)   bands (ev):

    -4.0390   1.2235   3.4665   3.8258   7.3672   9.0364  12.1080  12.3447

     occupation numbers 
     1.0000   1.0000   1.0000   1.0000   0.0000   0.0000   0.0000   0.0000

          k =-0.1733-0.3518 0.7071 (   945 PWs)   bands (ev):

    -2.7937  -0.3675   1.8607   3.5631   9.0501  10.6649  11.3779  12.8585

     occupation numbers 
     1.0000   1.0000   1.0000   1.0000   0.0000   0.0000   0.0000   0.0000

          k =-0.0857-0.2643 0.6187 (   949 PWs)   bands (ev):

    -2.4109  -0.7690   2.0345   3.1929   8.5807  10.1649  11.3734  13.5572

     occupation numbers 
     1.0000   1.0000   1.0000   1.0000   0.0000   0.0000   0.0000   0.0000

          k = 0.0018-0.1768 0.5303 (   948 PWs)   bands (ev):

    -3.2411   0.1745   2.7413   3.3571   7.9840   8.7236  11.8469  14.0917

     occupation numbers 
     1.0000   1.0000   1.0000   1.0000   0.0000   0.0000   0.0000   0.0000

          k =-0.5357 0.5357-0.1768 (   948 PWs)   bands (ev):

    -3.0787  -0.2378   2.5520   3.8381   7.4847  10.6910  11.8257  11.9653

     occupation numbers 
     1.0000   1.0000   1.0000   1.0000   0.0000   0.0000   0.0000   0.0000

          k =-0.7107 0.3607-0.0000 (   943 PWs)   bands (ev):

    -1.6056  -1.4223   2.2405   2.2417  10.2360  10.3983  10.9658  11.2397

     occupation numbers 
     1.0000   1.0000   1.0000   1.0000   0.0000   0.0000   0.0000   0.0000

          k =-0.6232 0.4482-0.0884 (   946 PWs)   bands (ev):

    -2.3112  -0.8192   2.0308   3.1081   8.3147  10.5115  11.3679  13.4835

     occupation numbers 
     1.0000   1.0000   1.0000   1.0000   0.0000   0.0000   0.0000   0.0000

          k =-0.4464 0.4464-0.0884 (   945 PWs)   bands (ev):

    -2.8184  -0.5639   2.0972   4.1758   7.8163  11.4639  11.4966  13.2655

     occupation numbers 
     1.0000   1.0000   1.0000   1.0000   0.0000   0.0000   0.0000   0.0000

          k =-0.5339 0.3589 0.0000 (   943 PWs)   bands (ev):

    -2.6235  -0.5016   1.8645   3.4997   8.8154  10.5781  11.1982  13.3246

     occupation numbers 
     1.0000   1.0000   1.0000   1.0000   0.0000   0.0000   0.0000   0.0000

          k =-0.3571 0.3571 0.0000 (   937 PWs)   bands (ev):

    -3.7295   0.6112   2.3650   4.7621   8.4481  10.7887  11.1418  12.0488

     occupation numbers 
     1.0000   1.0000   1.0000   1.0000   0.0000   0.0000   0.0000   0.0000

          k =-0.7072 0.0071 0.3536 (   944 PWs)   bands (ev):

    -1.5140  -1.5140   2.2423   2.2423  10.3249  10.3249  11.0883  11.0883

     occupation numbers 
     1.0000   1.0000   1.0000   1.0000   0.0000   0.0000   0.0000   0.0000

          k = 0.0000 0.0000 0.5303 (   944 PWs)   bands (ev):

    -3.4415   0.3923   3.4168   3.6231   6.6481   7.5856  14.1435  14.1469

     occupation numbers 
     1.0000   1.0000   1.0000   1.0000   0.0258   0.0000   0.0000   0.0000

          k =-0.1750-0.1750 0.7071 (   959 PWs)   bands (ev):

    -2.1954  -1.0228   1.7725   3.7945   7.3457   9.9897  13.6101  14.1076

     occupation numbers 
     1.0000   1.0000   1.0000   1.0000   0.0000   0.0000   0.0000   0.0000

          k =-0.0875-0.0875 0.6187 (   954 PWs)   bands (ev):

    -2.5562  -0.6913   2.6107   3.5455   7.0306   7.8796  14.3746  14.4766

     occupation numbers 
     1.0000   1.0000   1.0000   1.0000   0.0000   0.0000   0.0000   0.0000

          k =-0.6250 0.6250-0.0884 (   948 PWs)   bands (ev):

    -2.5290  -0.6911   2.7291   3.3424   6.8347   8.1648  14.3585  14.4099

     occupation numbers 
     1.0000   1.0000   1.0000   1.0000   0.0006   0.0000   0.0000   0.0000

          k =-0.7125 0.5375-0.0000 (   955 PWs)   bands (ev):

    -1.6937  -1.5146   2.6295   2.7488   7.8761   8.1754  13.9062  13.9597

     occupation numbers 
     1.0000   1.0000   1.0000   1.0000   0.0000   0.0000   0.0000   0.0000

          k =-0.5357 0.5357 0.0000 (   947 PWs)   bands (ev):

    -1.9878  -1.1678   1.8002   3.6129   7.1465  10.3972  13.5298  14.1874

     occupation numbers 
     1.0000   1.0000   1.0000   1.0000   0.0000   0.0000   0.0000   0.0000

          k = 0.0000 0.0000-0.7071 (   958 PWs)   bands (ev):

    -1.7689  -1.6012   3.1672   3.3798   6.6322   6.8594  16.1451  16.2530

     occupation numbers 
     1.0000   1.0000   1.0000   1.0000   0.0332   0.0003   0.0000   0.0000

     the Fermi energy is     6.3673 ev

!    total energy              =     -19.11926159 Ry
     Harris-Foulkes estimate   =     -19.11926159 Ry
     estimated scf accuracy    <          4.0E-11 Ry

     The total energy is the sum of the following terms:

     one-electron contribution =       5.10538061 Ry
     hartree contribution      =       1.09631189 Ry
     xc contribution           =      -8.52737283 Ry
     ewald contribution        =     -16.79354549 Ry
     smearing contrib. (-TS)   =      -0.00003578 Ry

     convergence has been achieved in   9 iterations

     Forces acting on atoms (Ry/au):

     atom    1 type  1   force =   0.00000000E+00  0.00000000E+00  0.77400471E-02
     atom    2 type  1   force =   0.00000000E+00  0.00000000E+00 -0.77400471E-02
     The non-local contrib.  to forces
     atom    1 type  1   force =   0.00000000E+00  0.00000000E+00  0.19410311E-01
     atom    2 type  1   force =   0.00000000E+00  0.00000000E+00 -0.19410311E-01
     The ionic contribution  to forces
     atom    1 type  1   force =   0.24424907E-14  0.22204460E-15  0.61107606E-01
     atom    2 type  1   force =  -0.31086245E-14 -0.22204460E-15 -0.61107606E-01
     The local contribution  to forces
     atom    1 type  1   force =   0.12212453E-14  0.27755576E-16 -0.70915493E-01
     atom    2 type  1   force =  -0.13877788E-14 -0.11102230E-15  0.70915493E-01
     The core correction contribution to forces
     atom    1 type  1   force =  -0.34694470E-15  0.62450045E-16 -0.18621211E-02
     atom    2 type  1   force =   0.19428903E-15 -0.12490009E-15  0.18621211E-02
     The Hubbard contrib.    to forces
     atom    1 type  1   force =   0.00000000E+00  0.00000000E+00  0.00000000E+00
     atom    2 type  1   force =   0.00000000E+00  0.00000000E+00  0.00000000E+00
     The SCF correction term to forces
     atom    1 type  1   force =   0.27941605E-16  0.33452666E-16 -0.25495878E-06
     atom    2 type  1   force =   0.18141063E-16  0.26858091E-16  0.25748238E-06

     Total force =     0.010946     Total SCF correction =     0.000000


     entering subroutine stress ...

          total   stress  (Ry/bohr**3)                   (kbar)     P=    0.87
   0.0000062842  -0.0001396435  -0.0000000000          0.92    -20.54     -0.00
  -0.0001396435   0.0000062842  -0.0000000000        -20.54      0.92     -0.00
  -0.0000000000  -0.0000000000   0.0000051229         -0.00     -0.00      0.75

     kinetic stress (kbar)   2190.74    -10.95      0.00
                              -10.95   2190.74      0.00
                                0.00      0.00   2190.27

     local   stress (kbar)   -288.10     82.38      0.00
                               82.38   -288.10      0.00
                                0.00      0.00   -287.55

     nonloc. stress (kbar)   1940.22     -7.28      0.00
                               -7.28   1940.22      0.00
                                0.00      0.00   1940.32

     hartree stress (kbar)    199.00    -16.96      0.00
                              -16.96    199.00     -0.00
                                0.00     -0.00    198.64

     exc-cor stress (kbar)    993.83     -0.06     -0.00
                               -0.06    993.83      0.00
                               -0.00      0.00    993.83

     corecor stress (kbar)  -1988.33      0.90     -0.00
                                0.90  -1988.33      0.00
                               -0.00      0.00  -1988.34

     ewald   stress (kbar)  -3046.44    -68.57      0.00
                              -68.57  -3046.44      0.00
                                0.00      0.00  -3046.41

     hubbard stress (kbar)      0.00      0.00      0.00
                                0.00      0.00      0.00
                                0.00      0.00      0.00

     london  stress (kbar)      0.00      0.00      0.00
                                0.00      0.00      0.00
                                0.00      0.00      0.00

     XDM     stress (kbar)      0.00      0.00      0.00
                                0.00      0.00      0.00
                                0.00      0.00      0.00

     dft-nl  stress (kbar)      0.00      0.00      0.00
                                0.00      0.00      0.00
                                0.00      0.00      0.00



     Writing output data file Si_diamond.scf.in.sxy.save

     init_run     :      1.97s CPU      1.97s WALL (       1 calls)
     electrons    :     50.71s CPU     49.45s WALL (       1 calls)
     forces       :      0.86s CPU      0.77s WALL (       1 calls)
     stress       :      1.23s CPU      1.21s WALL (       1 calls)

     Called by init_run:
     wfcinit      :      1.52s CPU      1.52s WALL (       1 calls)
     potinit      :      0.08s CPU      0.08s WALL (       1 calls)

     Called by electrons:
     c_bands      :     42.43s CPU     41.27s WALL (      10 calls)
     sum_band     :      7.63s CPU      7.52s WALL (      10 calls)
     v_of_rho     :      0.17s CPU      0.17s WALL (      10 calls)
     v_h          :      0.00s CPU      0.01s WALL (      10 calls)
     v_xc         :      0.19s CPU      0.19s WALL (      12 calls)
     newd         :      0.42s CPU      0.43s WALL (      10 calls)
     mix_rho      :      0.08s CPU      0.09s WALL (      10 calls)

     Called by c_bands:
     init_us_2    :      1.47s CPU      1.55s WALL (    2185 calls)
     cegterg      :     39.37s CPU     37.84s WALL (     950 calls)

     Called by sum_band:
     sum_band:bec :      0.08s CPU      0.06s WALL (     950 calls)
     addusdens    :      0.56s CPU      0.57s WALL (      10 calls)

     Called by *egterg:
     h_psi        :     29.08s CPU     28.53s WALL (    2883 calls)
     s_psi        :      4.07s CPU      3.25s WALL (    2883 calls)
     g_psi        :      0.08s CPU      0.14s WALL (    1838 calls)
     cdiaghg      :      1.68s CPU      2.10s WALL (    2693 calls)
     cegterg:over :      2.16s CPU      1.94s WALL (    1838 calls)
     cegterg:upda :      1.32s CPU      1.20s WALL (    1838 calls)
     cegterg:last :      0.77s CPU      0.60s WALL (     953 calls)

     Called by h_psi:
     h_psi:vloc   :     21.53s CPU     22.39s WALL (    2883 calls)
     h_psi:vnl    :      7.49s CPU      6.06s WALL (    2883 calls)
     add_vuspsi   :      4.02s CPU      3.35s WALL (    2883 calls)

     General routines
     calbec       :      5.09s CPU      3.93s WALL (    4023 calls)
     fft          :      0.14s CPU      0.14s WALL (     185 calls)
     ffts         :      0.04s CPU      0.06s WALL (     160 calls)
     fftw         :     23.90s CPU     24.80s WALL (   45648 calls)
     interpolate  :      0.05s CPU      0.04s WALL (      20 calls)

     Parallel routines
     fft_scatter  :      6.17s CPU      6.43s WALL (   45993 calls)

     PWSCF        :    55.44s CPU        54.22s WALL


   This run was terminated on:  11:14:24  27Oct2017            

=------------------------------------------------------------------------------=
   JOB DONE.
=------------------------------------------------------------------------------=
