
     Program PWSCF v.5.1 starts on 28Sep2017 at 16:58:23 

     This program is part of the open-source Quantum ESPRESSO suite
     for quantum simulation of materials; please cite
         "P. Giannozzi et al., J. Phys.:Condens. Matter 21 395502 (2009);
          URL http://www.quantum-espresso.org", 
     in publications or presentations arising from this work. More details at
     http://www.quantum-espresso.org/quote

     Parallel version (MPI), running on     8 processors
     R & G space division:  proc/nbgrp/npool/nimage =       8
     Reading input from /tmp/Si_diamond.scf.in.super.222.xyz001.3230/Si_diamond.scf.in.super.222.xyz001.t
Warning: card &IONS ignored
Warning: card   ION_DYNAMICS='BFGS', ignored
Warning: card / ignored
Warning: card &CELL ignored
Warning: card  CELL_DYNAMICS = 'BFGS' ignored
Warning: card / ignored
     Message from routine read_cards :
     DEPRECATED: no units specified in CELL_PARAMETERS card

     Current dimensions of program PWSCF are:
     Max number of different atomic species (ntypx) = 10
     Max number of k-points (npk) =  40000
     Max angular momentum in pseudopotentials (lmaxx) =  3
 kfg - two_fermi_energies  F

     Subspace diagonalization in iterative solution of the eigenvalue problem:
     a serial algorithm will be used


     Parallelization info
     --------------------
     sticks:   dense  smooth     PW     G-vecs:    dense   smooth      PW
     Min         363     256     71                12921     7555    1109
     Max         364     257     73                12925     7568    1110
     Sum        2905    2053    571               103379    60495    8873



     bravais-lattice index     =            0
     lattice parameter (alat)  =    14.515605984  a.u.
     unit-cell volume          =    2162.6713 (a.u.)^3
     number of atoms/cell      =           16
     number of atomic types    =            1
     number of electrons       =        64.00
     number of Kohn-Sham states=           38
     kinetic-energy cutoff     =      35.0000  Ry
     charge density cutoff     =     200.0000  Ry
     convergence threshold     =      1.0E-09
     mixing beta               =       0.3000
     number of iterations used =            8  local-TF  mixing
     Exchange-correlation      = SLA  PW   PSX  PSC ( 1  4 10  8 0)
     A smooth kinetic-energy cutoff is imposed at      34.5000 Ry
     height of the smooth step-function =             800.0000 Ry
     width of the smooth step-function  =               1.0000 Ry


     celldm(1)=  14.515606  celldm(2)=   0.000000  celldm(3)=   0.000000
     celldm(4)=   0.000000  celldm(5)=   0.000000  celldm(6)=   0.000000

     crystal axes: (cart. coord. in units of alat)
               a(1) = (  -0.000000000000   0.707106781187   0.707106781187 )  
               a(2) = (   0.707106781187  -0.000000000000   0.707106781187 )  
               a(3) = (   0.707106781187   0.707106781187  -0.000000000000 )  

     reciprocal axes: (cart. coord. in units 2 pi/alat)
               b(1) = ( -0.707107  0.707107  0.707107 )  
               b(2) = (  0.707107 -0.707107  0.707107 )  
               b(3) = (  0.707107  0.707107 -0.707107 )  


     PseudoPot. # 1 for Si read from file:
     /users/kfg/psuedo/gbrv_1.5/si.pbesol.UPF
     MD5 check sum: ef58ba74faed4df802eb8a9742fc00a8
     Pseudo is Ultrasoft + core correction, Zval =  4.0
     Generated by new atomic code, or converted to UPF format
     Using radial grid of  899 points,  6 beta functions with: 
                l(1) =   0
                l(2) =   0
                l(3) =   1
                l(4) =   1
                l(5) =   2
                l(6) =   2
     Q(r) pseudized with  8 coefficients,  rinner =    0.900   0.900   0.900
                                                       0.900   0.900

     atomic species   valence    mass     pseudopotential
        Si             4.00    28.08550     Si( 1.00)

      6 Sym. Ops. (no inversion) found


                                    s                        frac. trans.

      isym =  1     identity                                     

 cryst.   s( 1) = (     1          0          0      )
                  (     0          1          0      )
                  (     0          0          1      )

 cart.    s( 1) = (  1.0000000  0.0000000  0.0000000 )
                  (  0.0000000  1.0000000  0.0000000 )
                  (  0.0000000  0.0000000  1.0000000 )


      isym =  2     120 deg rotation - cart. axis [-1,-1,-1]     

 cryst.   s( 2) = (     0          0          1      )
                  (     1          0          0      )
                  (     0          1          0      )

 cart.    s( 2) = (  0.0000000  1.0000000  0.0000000 )
                  (  0.0000000  0.0000000  1.0000000 )
                  (  1.0000000  0.0000000  0.0000000 )


      isym =  3     120 deg rotation - cart. axis [1,1,1]        

 cryst.   s( 3) = (     0          1          0      )
                  (     0          0          1      )
                  (     1          0          0      )

 cart.    s( 3) = (  0.0000000  0.0000000  1.0000000 )
                  (  1.0000000  0.0000000  0.0000000 )
                  (  0.0000000  1.0000000  0.0000000 )


      isym =  4     inv. 180 deg rotation - cart. axis [1,-1,0]  

 cryst.   s( 4) = (     0          1          0      )
                  (     1          0          0      )
                  (     0          0          1      )

 cart.    s( 4) = (  0.0000000  1.0000000  0.0000000 )
                  (  1.0000000  0.0000000  0.0000000 )
                  (  0.0000000  0.0000000  1.0000000 )


      isym =  5     inv. 180 deg rotation - cart. axis [-1,0,1]  

 cryst.   s( 5) = (     0          0          1      )
                  (     0          1          0      )
                  (     1          0          0      )

 cart.    s( 5) = (  0.0000000  0.0000000  1.0000000 )
                  (  0.0000000  1.0000000  0.0000000 )
                  (  1.0000000  0.0000000  0.0000000 )


      isym =  6     inv. 180 deg rotation - cart. axis [0,1,-1]  

 cryst.   s( 6) = (     1          0          0      )
                  (     0          0          1      )
                  (     0          1          0      )

 cart.    s( 6) = (  1.0000000  0.0000000  0.0000000 )
                  (  0.0000000  0.0000000  1.0000000 )
                  (  0.0000000  1.0000000  0.0000000 )


     point group C_3v (3m)  
     there are  3 classes
     the character table:

       E     2C3   3s_v 
A_1    1.00  1.00  1.00
A_2    1.00  1.00 -1.00
E      2.00 -1.00  0.00

     the symmetry operations in each class:
     E        1
     2C3      2    3
     3s_v     4    5    6

   Cartesian axes

     site n.     atom                  positions (alat units)
         1           Si  tau(   1) = (    0.00141421356    0.00141421356    0.00141421356  )
         2           Si  tau(   2) = (    0.17677669530    0.17677669530    0.17677669530  )
         3           Si  tau(   3) = (    0.35355339059    0.35355339059    0.00000000000  )
         4           Si  tau(   4) = (    0.53033008589    0.53033008589    0.17677669530  )
         5           Si  tau(   5) = (    0.35355339059    0.00000000000    0.35355339059  )
         6           Si  tau(   6) = (    0.53033008589    0.17677669530    0.53033008589  )
         7           Si  tau(   7) = (    0.70710678119    0.35355339059    0.35355339059  )
         8           Si  tau(   8) = (    0.88388347648    0.53033008589    0.53033008589  )
         9           Si  tau(   9) = (    0.00000000000    0.35355339059    0.35355339059  )
        10           Si  tau(  10) = (    0.17677669530    0.53033008589    0.53033008589  )
        11           Si  tau(  11) = (    0.35355339059    0.70710678119    0.35355339059  )
        12           Si  tau(  12) = (    0.53033008589    0.88388347648    0.53033008589  )
        13           Si  tau(  13) = (    0.35355339059    0.35355339059    0.70710678119  )
        14           Si  tau(  14) = (    0.53033008589    0.53033008589    0.88388347648  )
        15           Si  tau(  15) = (    0.70710678119    0.70710678119    0.70710678119  )
        16           Si  tau(  16) = (    0.88388347648    0.88388347648    0.88388347648  )

   Crystallographic axes

     site n.     atom                  positions (cryst. coord.)
         1           Si  tau(   1) = (    0.00100000000    0.00100000000    0.00100000000  )
         2           Si  tau(   2) = (    0.12500000000    0.12500000000    0.12500000000  )
         3           Si  tau(   3) = (    0.00000000000    0.00000000000    0.50000000000  )
         4           Si  tau(   4) = (    0.12500000000    0.12500000000    0.62500000000  )
         5           Si  tau(   5) = (    0.00000000000    0.50000000000    0.00000000000  )
         6           Si  tau(   6) = (    0.12500000000    0.62500000000    0.12500000000  )
         7           Si  tau(   7) = (    0.00000000000    0.50000000000    0.50000000000  )
         8           Si  tau(   8) = (    0.12500000000    0.62500000000    0.62500000000  )
         9           Si  tau(   9) = (    0.50000000000    0.00000000000    0.00000000000  )
        10           Si  tau(  10) = (    0.62500000000    0.12500000000    0.12500000000  )
        11           Si  tau(  11) = (    0.50000000000    0.00000000000    0.50000000000  )
        12           Si  tau(  12) = (    0.62500000000    0.12500000000    0.62500000000  )
        13           Si  tau(  13) = (    0.50000000000    0.50000000000    0.00000000000  )
        14           Si  tau(  14) = (    0.62500000000    0.62500000000    0.12500000000  )
        15           Si  tau(  15) = (    0.50000000000    0.50000000000    0.50000000000  )
        16           Si  tau(  16) = (    0.62500000000    0.62500000000    0.62500000000  )

     number of k points=    13  gaussian smearing, width (Ry)=  0.0150
                       cart. coord. in units 2pi/alat
        k(    1) = (   0.0000000   0.0000000   0.0000000), wk =   0.0312500
        k(    2) = (   0.1767767   0.1767767  -0.1767767), wk =   0.1875000
        k(    3) = (  -0.3535534  -0.3535534   0.3535534), wk =   0.0937500
        k(    4) = (   0.3535534   0.0000000   0.0000000), wk =   0.1875000
        k(    5) = (  -0.1767767  -0.5303301   0.5303301), wk =   0.3750000
        k(    6) = (   0.0000000  -0.3535534   0.3535534), wk =   0.1875000
        k(    7) = (  -0.7071068   0.0000000   0.0000000), wk =   0.0937500
        k(    8) = (  -0.7071068   0.3535534   0.0000000), wk =   0.1875000
        k(    9) = (   0.1767767   0.1767767   0.1767767), wk =   0.0625000
        k(   10) = (  -0.3535534  -0.3535534  -0.3535534), wk =   0.0312500
        k(   11) = (   0.5303301  -0.1767767   0.5303301), wk =   0.1875000
        k(   12) = (  -0.5303301  -0.5303301  -0.1767767), wk =   0.1875000
        k(   13) = (   0.3535534   0.0000000   0.3535534), wk =   0.1875000

                       cryst. coord.
        k(    1) = (   0.0000000   0.0000000   0.0000000), wk =   0.0312500
        k(    2) = (   0.0000000   0.0000000   0.2500000), wk =   0.1875000
        k(    3) = (   0.0000000   0.0000000  -0.5000000), wk =   0.0937500
        k(    4) = (   0.0000000   0.2500000   0.2500000), wk =   0.1875000
        k(    5) = (   0.0000000   0.2500000  -0.5000000), wk =   0.3750000
        k(    6) = (   0.0000000   0.2500000  -0.2500000), wk =   0.1875000
        k(    7) = (   0.0000000  -0.5000000  -0.5000000), wk =   0.0937500
        k(    8) = (   0.2500000  -0.5000000  -0.2500000), wk =   0.1875000
        k(    9) = (   0.2500000   0.2500000   0.2500000), wk =   0.0625000
        k(   10) = (  -0.5000000  -0.5000000  -0.5000000), wk =   0.0312500
        k(   11) = (   0.2500000   0.7500000   0.2500000), wk =   0.1875000
        k(   12) = (  -0.5000000  -0.5000000  -0.7500000), wk =   0.1875000
        k(   13) = (   0.2500000   0.5000000   0.2500000), wk =   0.1875000

     Dense  grid:   103379 G-vectors     FFT dimensions: (  72,  72,  72)

     Smooth grid:    60495 G-vectors     FFT dimensions: (  60,  60,  60)

     Largest allocated arrays     est. size (Mb)     dimensions
        Kohn-Sham Wavefunctions         0.56 Mb     (     962,   38)
        NL pseudopotentials             4.23 Mb     (     962,  288)
        Each V/rho on FFT grid          0.71 Mb     (   46656)
        Each G-vector array             0.10 Mb     (   12923)
        G-vector shells                 0.01 Mb     (     706)
     Largest temporary arrays     est. size (Mb)     dimensions
        Auxiliary wavefunctions         2.23 Mb     (     962,  152)
        Each subspace H/S matrix        0.35 Mb     (     152,  152)
        Each <psi_i|beta_j> matrix      0.17 Mb     (     288,   38)
        Arrays for rho mixing           5.70 Mb     (   46656,    8)

     Initial potential from superposition of free atoms

     starting charge   63.98963, renormalised to   64.00000
     Starting wfc are   64 randomized atomic wfcs

     total cpu time spent up to now is        8.2 secs

     per-process dynamical memory:    31.9 Mb

     Self-consistent Calculation

     iteration #  1     ecut=    35.00 Ry     beta=0.30
     Davidson diagonalization with overlap
     ethr =  1.00E-02,  avg # of iterations =  2.9

     Threshold (ethr) on eigenvalues was too large:
     Diagonalizing with lowered threshold

     Davidson diagonalization with overlap
     ethr =  6.90E-04,  avg # of iterations =  1.1

     total cpu time spent up to now is       32.4 secs

     total energy              =    -153.02851001 Ry
     Harris-Foulkes estimate   =    -153.07460950 Ry
     estimated scf accuracy    <       0.43525625 Ry

     iteration #  2     ecut=    35.00 Ry     beta=0.30
     Davidson diagonalization with overlap
     ethr =  6.80E-04,  avg # of iterations =  1.0

     total cpu time spent up to now is       43.3 secs

     total energy              =    -152.93733358 Ry
     Harris-Foulkes estimate   =    -153.03059926 Ry
     estimated scf accuracy    <       0.27052388 Ry

     iteration #  3     ecut=    35.00 Ry     beta=0.30
     Davidson diagonalization with overlap
     ethr =  4.23E-04,  avg # of iterations =  1.4

     total cpu time spent up to now is       55.6 secs

     total energy              =    -152.95470892 Ry
     Harris-Foulkes estimate   =    -152.95398559 Ry
     estimated scf accuracy    <       0.00311114 Ry

     iteration #  4     ecut=    35.00 Ry     beta=0.30
     Davidson diagonalization with overlap
     ethr =  4.86E-06,  avg # of iterations = 10.5

     total cpu time spent up to now is       82.4 secs

     total energy              =    -152.95684005 Ry
     Harris-Foulkes estimate   =    -152.95674374 Ry
     estimated scf accuracy    <       0.00121131 Ry

     iteration #  5     ecut=    35.00 Ry     beta=0.30
     Davidson diagonalization with overlap
     ethr =  1.89E-06,  avg # of iterations =  1.2

     total cpu time spent up to now is       93.4 secs

     total energy              =    -152.95691688 Ry
     Harris-Foulkes estimate   =    -152.95691766 Ry
     estimated scf accuracy    <       0.00004192 Ry

     iteration #  6     ecut=    35.00 Ry     beta=0.30
     Davidson diagonalization with overlap
     ethr =  6.55E-08,  avg # of iterations =  3.5

     total cpu time spent up to now is      109.3 secs

     total energy              =    -152.95692926 Ry
     Harris-Foulkes estimate   =    -152.95693570 Ry
     estimated scf accuracy    <       0.00002562 Ry

     iteration #  7     ecut=    35.00 Ry     beta=0.30
     Davidson diagonalization with overlap
     ethr =  4.00E-08,  avg # of iterations =  2.0

     total cpu time spent up to now is      120.8 secs

     total energy              =    -152.95693181 Ry
     Harris-Foulkes estimate   =    -152.95693163 Ry
     estimated scf accuracy    <       0.00000023 Ry

     iteration #  8     ecut=    35.00 Ry     beta=0.30
     Davidson diagonalization with overlap
     ethr =  3.62E-10,  avg # of iterations =  3.1

     total cpu time spent up to now is      137.6 secs

     total energy              =    -152.95693199 Ry
     Harris-Foulkes estimate   =    -152.95693196 Ry
     estimated scf accuracy    <       0.00000001 Ry

     iteration #  9     ecut=    35.00 Ry     beta=0.30
     Davidson diagonalization with overlap
     ethr =  1.95E-11,  avg # of iterations =  2.4

     total cpu time spent up to now is      155.4 secs

     total energy              =    -152.95693200 Ry
     Harris-Foulkes estimate   =    -152.95693199 Ry
     estimated scf accuracy    <       0.00000001 Ry

     iteration # 10     ecut=    35.00 Ry     beta=0.30
     Davidson diagonalization with overlap
     ethr =  1.88E-11,  avg # of iterations =  2.0

     total cpu time spent up to now is      171.9 secs

     End of self-consistent calculation

          k = 0.0000 0.0000 0.0000 (  7631 PWs)   bands (ev):

    -5.8409  -3.5058  -3.4920  -3.4920  -3.4869  -1.7045  -1.6845  -1.6845
    -1.6796  -1.6796  -1.6728  -0.8776  -0.8664  -0.8664  -0.8580   3.2634
     3.2707   3.2707   3.2721   3.2751   3.2751   4.9177   4.9381   4.9381
     4.9398   4.9398   4.9415   4.9531   4.9531   6.1316   6.1508   6.1508
     6.7342   6.7342   6.7430   6.7455   6.7455   6.7551

     occupation numbers 
     1.0000   1.0000   1.0000   1.0000   1.0000   1.0000   1.0000   1.0000
     1.0000   1.0000   1.0000   1.0000   1.0000   1.0000   1.0000   1.0000
     1.0000   1.0000   1.0000   1.0000   1.0000   1.0000   1.0000   1.0000
     1.0000   1.0000   1.0000   1.0000   1.0000   0.9519   0.9369   0.9369
     0.0060   0.0060   0.0050   0.0048   0.0048   0.0039

          k = 0.1768 0.1768-0.1768 (  7564 PWs)   bands (ev):

    -5.6362  -4.1405  -3.4167  -3.4067  -3.4017  -2.5470  -2.5361  -2.5307
    -0.7074  -0.6923  -0.6886  -0.6482  -0.6387  -0.6324   0.1665   2.6652
     2.6698   2.6739   3.4363   3.4412   3.4447   3.8364   3.8435   3.8487
     4.5322   4.5658   4.5709   4.5744   5.0442   5.0580   5.8428   5.8580
     6.9253   6.9290   6.9370   7.7347   8.0116   8.0192

     occupation numbers 
     1.0000   1.0000   1.0000   1.0000   1.0000   1.0000   1.0000   1.0000
     1.0000   1.0000   1.0000   1.0000   1.0000   1.0000   1.0000   1.0000
     1.0000   1.0000   1.0000   1.0000   1.0000   1.0000   1.0000   1.0000
     1.0000   1.0000   1.0000   1.0000   1.0000   1.0000   0.9999   0.9998
     0.0001   0.0001   0.0000   0.0000   0.0000   0.0000

          k =-0.3536-0.3536 0.3536 (  7570 PWs)   bands (ev):

    -5.0415  -5.0360  -3.1305  -3.1128  -3.1100  -3.1088  -3.1052  -3.0969
    -0.2815  -0.2589  -0.2573  -0.2544  -0.2504  -0.2424   2.1927   2.1969
     2.5595   2.5655   2.5692   2.5712   2.5753   2.5826   3.9090   3.9207
     3.9233   3.9241   3.9243   3.9272   5.3607   5.3800   5.3810   5.3897
     7.5512   7.5603   7.5667   7.5669   7.5673   7.5752

     occupation numbers 
     1.0000   1.0000   1.0000   1.0000   1.0000   1.0000   1.0000   1.0000
     1.0000   1.0000   1.0000   1.0000   1.0000   1.0000   1.0000   1.0000
     1.0000   1.0000   1.0000   1.0000   1.0000   1.0000   1.0000   1.0000
     1.0000   1.0000   1.0000   1.0000   1.0000   1.0000   1.0000   1.0000
     0.0000   0.0000   0.0000   0.0000   0.0000   0.0000

          k = 0.3536 0.0000 0.0000 (  7563 PWs)   bands (ev):

    -5.5672  -3.6689  -3.6545  -3.6545  -3.6482  -3.4390  -1.6160  -1.6039
    -1.5990  -1.5961  -0.2772  -0.2657  -0.2643  -0.2562   0.3927   2.6839
     2.6840   2.6909   2.6914   3.5151   3.5200   3.6472   3.6556   3.6566
     3.6662   4.8037   4.8636   4.8689   4.8715   4.8829   5.3230   5.3312
     6.6556   7.5716   8.0147   8.0185   8.0258   8.0304

     occupation numbers 
     1.0000   1.0000   1.0000   1.0000   1.0000   1.0000   1.0000   1.0000
     1.0000   1.0000   1.0000   1.0000   1.0000   1.0000   1.0000   1.0000
     1.0000   1.0000   1.0000   1.0000   1.0000   1.0000   1.0000   1.0000
     1.0000   1.0000   1.0000   1.0000   1.0000   1.0000   1.0000   1.0000
     0.0245   0.0000   0.0000   0.0000   0.0000   0.0000

          k =-0.1768-0.5303 0.5303 (  7554 PWs)   bands (ev):

    -5.0972  -4.5868  -4.0435  -3.6185  -3.6075  -2.9055  -2.3617  -2.3513
    -0.8061  -0.7935  -0.5140   0.2731   0.2880   1.1956   1.5001   2.0314
     2.0362   2.1057   2.7803   2.7890   2.9061   3.1439   3.1517   3.4447
     3.8055   3.9156   4.1922   4.2029   4.2412   4.8087   4.8892   5.3626
     7.4015   7.8909   8.2217   8.4393   8.4502   8.8010

     occupation numbers 
     1.0000   1.0000   1.0000   1.0000   1.0000   1.0000   1.0000   1.0000
     1.0000   1.0000   1.0000   1.0000   1.0000   1.0000   1.0000   1.0000
     1.0000   1.0000   1.0000   1.0000   1.0000   1.0000   1.0000   1.0000
     1.0000   1.0000   1.0000   1.0000   1.0000   1.0000   1.0000   1.0000
     0.0000   0.0000   0.0000   0.0000   0.0000   0.0000

          k = 0.0000-0.3536 0.3536 (  7592 PWs)   bands (ev):

    -5.2991  -4.2834  -4.2742  -3.2437  -3.2324  -2.9582  -2.9484  -2.0956
    -1.0903  -0.6808  -0.6665   0.1640   0.1779   0.8325   0.8391   1.7878
     2.6570   2.6644   2.7397   2.7448   3.3505   3.3606   3.4526   3.6985
     3.9550   3.9640   4.2905   4.2929   4.4877   4.5375   4.5470   5.8462
     7.2396   8.0009   8.0128   8.3099   8.3179   8.6973

     occupation numbers 
     1.0000   1.0000   1.0000   1.0000   1.0000   1.0000   1.0000   1.0000
     1.0000   1.0000   1.0000   1.0000   1.0000   1.0000   1.0000   1.0000
     1.0000   1.0000   1.0000   1.0000   1.0000   1.0000   1.0000   1.0000
     1.0000   1.0000   1.0000   1.0000   1.0000   1.0000   1.0000   0.9999
     0.0000   0.0000   0.0000   0.0000   0.0000   0.0000

          k =-0.7071 0.0000 0.0000 (  7528 PWs)   bands (ev):

    -4.7607  -4.7512  -3.8013  -3.7872  -3.7871  -3.7799  -1.5271  -1.5148
    -1.5098  -1.5074   0.6389   0.6542   0.6549   0.6561   2.2355   2.2399
     2.2415   2.2445   2.3400   2.3410   2.3434   2.3485   2.6213   2.6241
     4.2287   4.2342   4.2400   4.2455   4.7992   4.8047   4.8077   4.8197
     7.1817   7.1863   8.5059   8.5132   8.5147   8.5226

     occupation numbers 
     1.0000   1.0000   1.0000   1.0000   1.0000   1.0000   1.0000   1.0000
     1.0000   1.0000   1.0000   1.0000   1.0000   1.0000   1.0000   1.0000
     1.0000   1.0000   1.0000   1.0000   1.0000   1.0000   1.0000   1.0000
     1.0000   1.0000   1.0000   1.0000   1.0000   1.0000   1.0000   1.0000
     0.0000   0.0000   0.0000   0.0000   0.0000   0.0000

          k =-0.7071 0.3536 0.0000 (  7564 PWs)   bands (ev):

    -4.5200  -4.5058  -4.5052  -4.4977  -2.7217  -2.7092  -2.7057  -2.7008
    -0.4467  -0.4341  -0.4306  -0.4265   1.8282   1.8445   1.8469   1.8493
     1.8587   1.8628   1.8675   1.8699   3.3874   3.3943   3.3957   3.4022
     3.5232   3.5257   3.5335   3.5364   4.6913   4.7016   4.7050   4.7139
     8.5129   8.5211   8.5237   8.5283   8.9213   8.9313

     occupation numbers 
     1.0000   1.0000   1.0000   1.0000   1.0000   1.0000   1.0000   1.0000
     1.0000   1.0000   1.0000   1.0000   1.0000   1.0000   1.0000   1.0000
     1.0000   1.0000   1.0000   1.0000   1.0000   1.0000   1.0000   1.0000
     1.0000   1.0000   1.0000   1.0000   1.0000   1.0000   1.0000   1.0000
     0.0000   0.0000   0.0000   0.0000   0.0000   0.0000

          k = 0.1768 0.1768 0.1768 (  7564 PWs)   bands (ev):

    -5.6361  -4.1375  -3.4174  -3.4068  -3.4068  -2.5441  -2.5364  -2.5364
    -0.6953  -0.6912  -0.6912  -0.6383  -0.6383  -0.6317   0.1567   2.6600
     2.6665   2.6665   3.4426   3.4448   3.4448   3.8239   3.8393   3.8393
     4.5231   4.5726   4.5780   4.5780   5.0543   5.0543   5.8568   5.8568
     6.9329   6.9329   6.9392   7.7383   8.0114   8.0133

     occupation numbers 
     1.0000   1.0000   1.0000   1.0000   1.0000   1.0000   1.0000   1.0000
     1.0000   1.0000   1.0000   1.0000   1.0000   1.0000   1.0000   1.0000
     1.0000   1.0000   1.0000   1.0000   1.0000   1.0000   1.0000   1.0000
     1.0000   1.0000   1.0000   1.0000   1.0000   1.0000   0.9998   0.9998
     0.0001   0.0001   0.0000   0.0000   0.0000   0.0000

          k =-0.3536-0.3536-0.3536 (  7570 PWs)   bands (ev):

    -5.0458  -5.0299  -3.1328  -3.1116  -3.1116  -3.1068  -3.1068  -3.1039
    -0.2578  -0.2578  -0.2571  -0.2480  -0.2480  -0.2430   2.1790   2.1922
     2.5417   2.5604   2.5604   2.5689   2.5700   2.5700   3.9155   3.9155
     3.9198   3.9273   3.9382   3.9382   5.3735   5.3735   5.3908   5.3908
     7.5614   7.5614   7.5637   7.5746   7.5746   7.5823

     occupation numbers 
     1.0000   1.0000   1.0000   1.0000   1.0000   1.0000   1.0000   1.0000
     1.0000   1.0000   1.0000   1.0000   1.0000   1.0000   1.0000   1.0000
     1.0000   1.0000   1.0000   1.0000   1.0000   1.0000   1.0000   1.0000
     1.0000   1.0000   1.0000   1.0000   1.0000   1.0000   1.0000   1.0000
     0.0000   0.0000   0.0000   0.0000   0.0000   0.0000

          k = 0.5303-0.1768 0.5303 (  7554 PWs)   bands (ev):

    -5.0973  -4.5863  -4.0425  -3.6180  -3.6122  -2.8996  -2.3610  -2.3549
    -0.7982  -0.7962  -0.5267   0.2865   0.2880   1.1900   1.4970   2.0319
     2.0329   2.1065   2.7854   2.7900   2.9095   3.1482   3.1488   3.4449
     3.8009   3.9204   4.1830   4.1941   4.2468   4.8166   4.8767   5.3730
     7.4054   7.8978   8.2238   8.4389   8.4435   8.8036

     occupation numbers 
     1.0000   1.0000   1.0000   1.0000   1.0000   1.0000   1.0000   1.0000
     1.0000   1.0000   1.0000   1.0000   1.0000   1.0000   1.0000   1.0000
     1.0000   1.0000   1.0000   1.0000   1.0000   1.0000   1.0000   1.0000
     1.0000   1.0000   1.0000   1.0000   1.0000   1.0000   1.0000   1.0000
     0.0000   0.0000   0.0000   0.0000   0.0000   0.0000

          k =-0.5303-0.5303-0.1768 (  7554 PWs)   bands (ev):

    -5.0968  -4.5852  -4.0438  -3.6180  -3.6123  -2.9034  -2.3615  -2.3553
    -0.7961  -0.7949  -0.5172   0.2875   0.2895   1.1992   1.4900   2.0259
     2.0304   2.1006   2.7819   2.7825   2.8981   3.1498   3.1525   3.4347
     3.8078   3.9209   4.1900   4.1961   4.2480   4.8151   4.8912   5.3711
     7.4066   7.8984   8.2243   8.4464   8.4503   8.8059

     occupation numbers 
     1.0000   1.0000   1.0000   1.0000   1.0000   1.0000   1.0000   1.0000
     1.0000   1.0000   1.0000   1.0000   1.0000   1.0000   1.0000   1.0000
     1.0000   1.0000   1.0000   1.0000   1.0000   1.0000   1.0000   1.0000
     1.0000   1.0000   1.0000   1.0000   1.0000   1.0000   1.0000   1.0000
     0.0000   0.0000   0.0000   0.0000   0.0000   0.0000

          k = 0.3536 0.0000 0.3536 (  7592 PWs)   bands (ev):

    -5.2988  -4.2827  -4.2733  -3.2428  -3.2370  -2.9592  -2.9524  -2.0888
    -1.0990  -0.6688  -0.6656   0.1764   0.1772   0.8261   0.8387   1.7844
     2.6496   2.6574   2.7402   2.7438   3.3467   3.3545   3.4432   3.7037
     3.9627   3.9644   4.2815   4.2931   4.4910   4.5423   4.5538   5.8577
     7.2464   8.0082   8.0097   8.3150   8.3228   8.6901

     occupation numbers 
     1.0000   1.0000   1.0000   1.0000   1.0000   1.0000   1.0000   1.0000
     1.0000   1.0000   1.0000   1.0000   1.0000   1.0000   1.0000   1.0000
     1.0000   1.0000   1.0000   1.0000   1.0000   1.0000   1.0000   1.0000
     1.0000   1.0000   1.0000   1.0000   1.0000   1.0000   1.0000   0.9998
     0.0000   0.0000   0.0000   0.0000   0.0000   0.0000

     the Fermi energy is     6.3716 ev

!    total energy              =    -152.95693201 Ry
     Harris-Foulkes estimate   =    -152.95693200 Ry
     estimated scf accuracy    <          3.7E-10 Ry

     The total energy is the sum of the following terms:

     one-electron contribution =      40.84904712 Ry
     hartree contribution      =       8.76466351 Ry
     xc contribution           =     -68.21700737 Ry
     ewald contribution        =    -134.35336908 Ry
     smearing contrib. (-TS)   =      -0.00026620 Ry

     convergence has been achieved in  10 iterations

     Forces acting on atoms (Ry/au):

     atom    1 type  1   force =  -0.58882089E-02 -0.58882089E-02 -0.58882089E-02
     atom    2 type  1   force =   0.35748496E-02  0.35748496E-02  0.35748496E-02
     atom    3 type  1   force =   0.39775741E-03  0.39775741E-03 -0.35414061E-03
     atom    4 type  1   force =   0.14676727E-02  0.14676727E-02 -0.49612089E-03
     atom    5 type  1   force =   0.39775741E-03 -0.35414061E-03  0.39775741E-03
     atom    6 type  1   force =   0.14676727E-02 -0.49612089E-03  0.14676727E-02
     atom    7 type  1   force =  -0.35520994E-03 -0.13581702E-04 -0.13581702E-04
     atom    8 type  1   force =  -0.17327126E-03 -0.61678862E-04 -0.61678862E-04
     atom    9 type  1   force =  -0.35414061E-03  0.39775741E-03  0.39775741E-03
     atom   10 type  1   force =  -0.49612089E-03  0.14676727E-02  0.14676727E-02
     atom   11 type  1   force =  -0.13581702E-04 -0.35520994E-03 -0.13581702E-04
     atom   12 type  1   force =  -0.61678862E-04 -0.17327126E-03 -0.61678862E-04
     atom   13 type  1   force =  -0.13581702E-04 -0.13581702E-04 -0.35520994E-03
     atom   14 type  1   force =  -0.61678862E-04 -0.61678862E-04 -0.17327126E-03
     atom   15 type  1   force =   0.62142548E-04  0.62142548E-04  0.62142548E-04
     atom   16 type  1   force =   0.49620358E-04  0.49620358E-04  0.49620358E-04
     The non-local contrib.  to forces
     atom    1 type  1   force =  -0.57917438E-02 -0.57917438E-02 -0.57917438E-02
     atom    2 type  1   force =   0.43859474E-02  0.43859474E-02  0.43859474E-02
     atom    3 type  1   force =   0.17772145E-03  0.17772145E-03  0.36307495E-03
     atom    4 type  1   force =   0.10469681E-02  0.10469681E-02 -0.22058531E-02
     atom    5 type  1   force =   0.17772145E-03  0.36307495E-03  0.17772145E-03
     atom    6 type  1   force =   0.10469681E-02 -0.22058531E-02  0.10469681E-02
     atom    7 type  1   force =   0.37007201E-03  0.12265846E-03  0.12265846E-03
     atom    8 type  1   force =   0.23284286E-03  0.68895044E-04  0.68895044E-04
     atom    9 type  1   force =   0.36307495E-03  0.17772145E-03  0.17772145E-03
     atom   10 type  1   force =  -0.22058531E-02  0.10469681E-02  0.10469681E-02
     atom   11 type  1   force =   0.12265846E-03  0.37007201E-03  0.12265846E-03
     atom   12 type  1   force =   0.68895044E-04  0.23284286E-03  0.68895044E-04
     atom   13 type  1   force =   0.12265846E-03  0.12265846E-03  0.37007201E-03
     atom   14 type  1   force =   0.68895044E-04  0.68895044E-04  0.23284286E-03
     atom   15 type  1   force =  -0.86261330E-04 -0.86261330E-04 -0.86261330E-04
     atom   16 type  1   force =  -0.96002995E-04 -0.96002995E-04 -0.96002995E-04
     The ionic contribution  to forces
     atom    1 type  1   force =  -0.19460256E-01 -0.19460256E-01 -0.19460256E-01
     atom    2 type  1   force =   0.16408737E-01  0.16408737E-01  0.16408737E-01
     atom    3 type  1   force =   0.69811062E-02  0.69811062E-02 -0.13607687E-02
     atom    4 type  1   force =   0.13743759E-02  0.13743759E-02 -0.13655798E-01
     atom    5 type  1   force =   0.69811062E-02 -0.13607687E-02  0.69811062E-02
     atom    6 type  1   force =   0.13743759E-02 -0.13655798E-01  0.13743759E-02
     atom    7 type  1   force =  -0.13603044E-02 -0.18034897E-02 -0.18034897E-02
     atom    8 type  1   force =   0.32950005E-02  0.12629753E-02  0.12629753E-02
     atom    9 type  1   force =  -0.13607687E-02  0.69811062E-02  0.69811062E-02
     atom   10 type  1   force =  -0.13655798E-01  0.13743759E-02  0.13743759E-02
     atom   11 type  1   force =  -0.18034897E-02 -0.13603044E-02 -0.18034897E-02
     atom   12 type  1   force =   0.12629753E-02  0.32950005E-02  0.12629753E-02
     atom   13 type  1   force =  -0.18034897E-02 -0.18034897E-02 -0.13603044E-02
     atom   14 type  1   force =   0.12629753E-02  0.12629753E-02  0.32950005E-02
     atom   15 type  1   force =   0.12722605E-02  0.12722605E-02  0.12722605E-02
     atom   16 type  1   force =  -0.76880561E-03 -0.76880561E-03 -0.76880561E-03
     The local contribution  to forces
     atom    1 type  1   force =   0.18850291E-01  0.18850291E-01  0.18850291E-01
     atom    2 type  1   force =  -0.16795283E-01 -0.16795283E-01 -0.16795283E-01
     atom    3 type  1   force =  -0.67467970E-02 -0.67467970E-02  0.67337367E-03
     atom    4 type  1   force =  -0.85709554E-03 -0.85709554E-03  0.15141887E-01
     atom    5 type  1   force =  -0.67467970E-02  0.67337367E-03 -0.67467970E-02
     atom    6 type  1   force =  -0.85709554E-03  0.15141887E-01 -0.85709554E-03
     atom    7 type  1   force =   0.66578770E-03  0.16753450E-02  0.16753450E-02
     atom    8 type  1   force =  -0.36843731E-02 -0.13882376E-02 -0.13882376E-02
     atom    9 type  1   force =   0.67337367E-03 -0.67467970E-02 -0.67467970E-02
     atom   10 type  1   force =   0.15141887E-01 -0.85709554E-03 -0.85709554E-03
     atom   11 type  1   force =   0.16753450E-02  0.66578770E-03  0.16753450E-02
     atom   12 type  1   force =  -0.13882376E-02 -0.36843731E-02 -0.13882376E-02
     atom   13 type  1   force =   0.16753450E-02  0.16753450E-02  0.66578770E-03
     atom   14 type  1   force =  -0.13882376E-02 -0.13882376E-02 -0.36843731E-02
     atom   15 type  1   force =  -0.11294016E-02 -0.11294016E-02 -0.11294016E-02
     atom   16 type  1   force =   0.90733582E-03  0.90733582E-03  0.90733582E-03
     The core correction contribution to forces
     atom    1 type  1   force =   0.51189286E-03  0.51189286E-03  0.51189286E-03
     atom    2 type  1   force =  -0.42505785E-03 -0.42505785E-03 -0.42505785E-03
     atom    3 type  1   force =  -0.12753014E-04 -0.12753014E-04 -0.30165396E-04
     atom    4 type  1   force =  -0.96071687E-04 -0.96071687E-04  0.22547051E-03
     atom    5 type  1   force =  -0.12753014E-04 -0.30165396E-04 -0.12753014E-04
     atom    6 type  1   force =  -0.96071687E-04  0.22547051E-03 -0.96071687E-04
     atom    7 type  1   force =  -0.30705775E-04 -0.96679394E-05 -0.96679394E-05
     atom    8 type  1   force =  -0.18504333E-04 -0.55810408E-05 -0.55810408E-05
     atom    9 type  1   force =  -0.30165396E-04 -0.12753014E-04 -0.12753014E-04
     atom   10 type  1   force =   0.22547051E-03 -0.96071687E-04 -0.96071687E-04
     atom   11 type  1   force =  -0.96679394E-05 -0.30705775E-04 -0.96679394E-05
     atom   12 type  1   force =  -0.55810408E-05 -0.18504333E-04 -0.55810408E-05
     atom   13 type  1   force =  -0.96679394E-05 -0.96679394E-05 -0.30705775E-04
     atom   14 type  1   force =  -0.55810408E-05 -0.55810408E-05 -0.18504333E-04
     atom   15 type  1   force =   0.70220086E-05  0.70220086E-05  0.70220086E-05
     atom   16 type  1   force =   0.74147395E-05  0.74147395E-05  0.74147395E-05
     The Hubbard contrib.    to forces
     atom    1 type  1   force =   0.00000000E+00  0.00000000E+00  0.00000000E+00
     atom    2 type  1   force =   0.00000000E+00  0.00000000E+00  0.00000000E+00
     atom    3 type  1   force =   0.00000000E+00  0.00000000E+00  0.00000000E+00
     atom    4 type  1   force =   0.00000000E+00  0.00000000E+00  0.00000000E+00
     atom    5 type  1   force =   0.00000000E+00  0.00000000E+00  0.00000000E+00
     atom    6 type  1   force =   0.00000000E+00  0.00000000E+00  0.00000000E+00
     atom    7 type  1   force =   0.00000000E+00  0.00000000E+00  0.00000000E+00
     atom    8 type  1   force =   0.00000000E+00  0.00000000E+00  0.00000000E+00
     atom    9 type  1   force =   0.00000000E+00  0.00000000E+00  0.00000000E+00
     atom   10 type  1   force =   0.00000000E+00  0.00000000E+00  0.00000000E+00
     atom   11 type  1   force =   0.00000000E+00  0.00000000E+00  0.00000000E+00
     atom   12 type  1   force =   0.00000000E+00  0.00000000E+00  0.00000000E+00
     atom   13 type  1   force =   0.00000000E+00  0.00000000E+00  0.00000000E+00
     atom   14 type  1   force =   0.00000000E+00  0.00000000E+00  0.00000000E+00
     atom   15 type  1   force =   0.00000000E+00  0.00000000E+00  0.00000000E+00
     atom   16 type  1   force =   0.00000000E+00  0.00000000E+00  0.00000000E+00
     The SCF correction term to forces
     atom    1 type  1   force =   0.15985701E-05  0.15985701E-05  0.15985701E-05
     atom    2 type  1   force =   0.49718859E-06  0.49718859E-06  0.49718859E-06
     atom    3 type  1   force =  -0.15289018E-05 -0.15289018E-05  0.33611722E-06
     atom    4 type  1   force =  -0.51271433E-06 -0.51271433E-06 -0.18353521E-05
     atom    5 type  1   force =  -0.15289018E-05  0.33611722E-06 -0.15289018E-05
     atom    6 type  1   force =  -0.51271433E-06 -0.18353521E-05 -0.51271433E-06
     atom    7 type  1   force =  -0.68211761E-07  0.15637439E-05  0.15637439E-05
     atom    8 type  1   force =   0.17541252E-05  0.26072649E-06  0.26072649E-06
     atom    9 type  1   force =   0.33611722E-06 -0.15289018E-05 -0.15289018E-05
     atom   10 type  1   force =  -0.18353521E-05 -0.51271433E-06 -0.51271433E-06
     atom   11 type  1   force =   0.15637439E-05 -0.68211761E-07  0.15637439E-05
     atom   12 type  1   force =   0.26072649E-06  0.17541252E-05  0.26072649E-06
     atom   13 type  1   force =   0.15637439E-05  0.15637439E-05 -0.68211761E-07
     atom   14 type  1   force =   0.26072649E-06  0.26072649E-06  0.17541252E-05
     atom   15 type  1   force =  -0.14858140E-05 -0.14858140E-05 -0.14858140E-05
     atom   16 type  1   force =  -0.33029836E-06 -0.33029836E-06 -0.33029836E-06

     Total force =     0.012564     Total SCF correction =     0.000008


     entering subroutine stress ...

          total   stress  (Ry/bohr**3)                   (kbar)     P=    0.43
   0.0000028962   0.0000037608   0.0000037608          0.43      0.55      0.55
   0.0000037608   0.0000028962   0.0000037608          0.55      0.43      0.55
   0.0000037608   0.0000037608   0.0000028962          0.55      0.55      0.43

     kinetic stress (kbar)   2190.11     -0.36     -0.36
                               -0.36   2190.11     -0.36
                               -0.36     -0.36   2190.11

     local   stress (kbar)   -287.61     -4.32     -4.32
                               -4.32   -287.61     -4.32
                               -4.32     -4.32   -287.61

     nonloc. stress (kbar)   1939.79      0.51      0.51
                                0.51   1939.79      0.51
                                0.51      0.51   1939.79

     hartree stress (kbar)    198.72      0.50      0.50
                                0.50    198.72      0.50
                                0.50      0.50    198.72

     exc-cor stress (kbar)    993.75      0.01      0.01
                                0.01    993.75      0.01
                                0.01      0.01    993.75

     corecor stress (kbar)  -1988.10     -0.06     -0.06
                               -0.06  -1988.10     -0.06
                               -0.06     -0.06  -1988.10

     ewald   stress (kbar)  -3046.24      4.28      4.28
                                4.28  -3046.24      4.28
                                4.28      4.28  -3046.24

     hubbard stress (kbar)      0.00      0.00      0.00
                                0.00      0.00      0.00
                                0.00      0.00      0.00

     london  stress (kbar)      0.00      0.00      0.00
                                0.00      0.00      0.00
                                0.00      0.00      0.00

     XDM     stress (kbar)      0.00      0.00      0.00
                                0.00      0.00      0.00
                                0.00      0.00      0.00

     dft-nl  stress (kbar)      0.00      0.00      0.00
                                0.00      0.00      0.00
                                0.00      0.00      0.00



     Writing output data file Si_diamond.scf.in.super.222.xyz001.save

     init_run     :      8.75s CPU      8.09s WALL (       1 calls)
     electrons    :    173.40s CPU    163.77s WALL (       1 calls)
     forces       :      3.98s CPU      3.91s WALL (       1 calls)
     stress       :     14.48s CPU     14.73s WALL (       1 calls)

     Called by init_run:
     wfcinit      :      7.19s CPU      6.49s WALL (       1 calls)
     potinit      :      0.17s CPU      0.18s WALL (       1 calls)

     Called by electrons:
     c_bands      :    136.14s CPU    127.06s WALL (      11 calls)
     sum_band     :     27.89s CPU     27.25s WALL (      11 calls)
     v_of_rho     :      1.22s CPU      1.24s WALL (      11 calls)
     v_h          :      0.08s CPU      0.09s WALL (      11 calls)
     v_xc         :      1.38s CPU      1.40s WALL (      13 calls)
     newd         :      7.71s CPU      7.79s WALL (      11 calls)
     mix_rho      :      1.12s CPU      1.13s WALL (      11 calls)

     Called by c_bands:
     init_us_2    :      1.83s CPU      1.92s WALL (     325 calls)
     cegterg      :    129.02s CPU    119.69s WALL (     143 calls)

     Called by sum_band:
     sum_band:bec :      0.10s CPU      0.12s WALL (     143 calls)
     addusdens    :      7.58s CPU      7.68s WALL (      11 calls)

     Called by *egterg:
     h_psi        :     92.57s CPU     87.37s WALL (     560 calls)
     s_psi        :      9.47s CPU      6.47s WALL (     560 calls)
     g_psi        :      0.21s CPU      0.26s WALL (     404 calls)
     cdiaghg      :      8.57s CPU      8.45s WALL (     534 calls)
     cegterg:over :     10.47s CPU      9.97s WALL (     404 calls)
     cegterg:upda :      4.53s CPU      3.42s WALL (     404 calls)
     cegterg:last :      2.00s CPU      1.36s WALL (     152 calls)

     Called by h_psi:
     h_psi:vloc   :     67.48s CPU     68.24s WALL (     560 calls)
     h_psi:vnl    :     24.91s CPU     18.94s WALL (     560 calls)
     add_vuspsi   :     10.10s CPU      6.92s WALL (     560 calls)

     General routines
     calbec       :     21.25s CPU     17.63s WALL (     729 calls)
     fft          :      1.87s CPU      1.92s WALL (     201 calls)
     ffts         :      0.59s CPU      0.56s WALL (     187 calls)
     fftw         :     69.80s CPU     70.47s WALL (   35832 calls)
     interpolate  :      0.26s CPU      0.25s WALL (      22 calls)

     Parallel routines
     fft_scatter  :     40.34s CPU     40.53s WALL (   36220 calls)

     PWSCF        :  3m21.40s CPU     3m11.48s WALL


   This run was terminated on:  17: 1:35  28Sep2017            

=------------------------------------------------------------------------------=
   JOB DONE.
=------------------------------------------------------------------------------=
