
     Program PWSCF v.5.1 starts on 14Feb2017 at  3:58:50 

     This program is part of the open-source Quantum ESPRESSO suite
     for quantum simulation of materials; please cite
         "P. Giannozzi et al., J. Phys.:Condens. Matter 21 395502 (2009);
          URL http://www.quantum-espresso.org", 
     in publications or presentations arising from this work. More details at
     http://www.quantum-espresso.org/quote

     Parallel version (MPI), running on    16 processors
     R & G space division:  proc/nbgrp/npool/nimage =      16
     Reading input from /tmp/Si_diamond.scf.in.super.444.a.01.19405/Si_diamond.scf.in.super.444.a.01.t
Warning: card &IONS ignored
Warning: card   ION_DYNAMICS='BFGS', ignored
Warning: card / ignored
Warning: card &CELL ignored
Warning: card  CELL_DYNAMICS = 'BFGS' ignored
Warning: card / ignored
     Message from routine read_cards :
     DEPRECATED: no units specified in CELL_PARAMETERS card

     Current dimensions of program PWSCF are:
     Max number of different atomic species (ntypx) = 10
     Max number of k-points (npk) =  40000
     Max angular momentum in pseudopotentials (lmaxx) =  3

     Subspace diagonalization in iterative solution of the eigenvalue problem:
     a serial algorithm will be used


     Parallelization info
     --------------------
     sticks:   dense  smooth     PW     G-vecs:    dense   smooth      PW
     Min         726     508    134                51681    30247    4089
     Max         727     509    135                51684    30277    4090
     Sum       11629    8137   2149               826925   484169   65427



     bravais-lattice index     =            0
     lattice parameter (alat)  =    29.031211967  a.u.
     unit-cell volume          =   17301.3703 (a.u.)^3
     number of atoms/cell      =          128
     number of atomic types    =            1
     number of electrons       =       512.00
     number of Kohn-Sham states=          307
     kinetic-energy cutoff     =      35.0000  Ry
     charge density cutoff     =     200.0000  Ry
     convergence threshold     =      1.0E-09
     mixing beta               =       0.3000
     number of iterations used =            8  local-TF  mixing
     Exchange-correlation      = SLA  PW   PSX  PSC ( 1  4 10  8 0)
     A smooth kinetic-energy cutoff is imposed at      34.5000 Ry
     height of the smooth step-function =             800.0000 Ry
     width of the smooth step-function  =               1.0000 Ry


     celldm(1)=  29.031212  celldm(2)=   0.000000  celldm(3)=   0.000000
     celldm(4)=   0.000000  celldm(5)=   0.000000  celldm(6)=   0.000000

     crystal axes: (cart. coord. in units of alat)
               a(1) = (   0.000000000000   0.707106781187   0.707106781187 )  
               a(2) = (   0.707106781187  -0.000000000000   0.707106781187 )  
               a(3) = (   0.707106781187   0.707106781187  -0.000000000000 )  

     reciprocal axes: (cart. coord. in units 2 pi/alat)
               b(1) = ( -0.707107  0.707107  0.707107 )  
               b(2) = (  0.707107 -0.707107  0.707107 )  
               b(3) = (  0.707107  0.707107 -0.707107 )  


     PseudoPot. # 1 for Si read from file:
     /users/kfg/psuedo/gbrv_1.5/si.pbesol.UPF
     MD5 check sum: ef58ba74faed4df802eb8a9742fc00a8
     Pseudo is Ultrasoft + core correction, Zval =  4.0
     Generated by new atomic code, or converted to UPF format
     Using radial grid of  899 points,  6 beta functions with: 
                l(1) =   0
                l(2) =   0
                l(3) =   1
                l(4) =   1
                l(5) =   2
                l(6) =   2
     Q(r) pseudized with  8 coefficients,  rinner =    0.900   0.900   0.900
                                                       0.900   0.900

     atomic species   valence    mass     pseudopotential
        Si             4.00    28.08550     Si( 1.00)

     No symmetry found


                                    s                        frac. trans.

      isym =  1     identity                                     

 cryst.   s( 1) = (     1          0          0      )
                  (     0          1          0      )
                  (     0          0          1      )

 cart.    s( 1) = (  1.0000000  0.0000000  0.0000000 )
                  (  0.0000000  1.0000000  0.0000000 )
                  (  0.0000000  0.0000000  1.0000000 )


     point group C_1 (1)    
     there are  1 classes
     the character table:

       E    
A      1.00

     the symmetry operations in each class:
     E        1

   Cartesian axes

     site n.     atom                  positions (alat units)
         1           Si  tau(   1) = (   -0.00308044173    0.00235338440    0.00064435487  )
         2           Si  tau(   2) = (    0.08851056603    0.08867136126    0.08940768931  )
         3           Si  tau(   3) = (    0.17334218236    0.17690197502    0.00141349617  )
         4           Si  tau(   4) = (    0.26745433116    0.26799011008    0.08619500174  )
         5           Si  tau(   5) = (    0.35299454204    0.35478391210   -0.00109292659  )
         6           Si  tau(   6) = (    0.44120627268    0.44492843355    0.08868999498  )
         7           Si  tau(   7) = (    0.52798557106    0.53315509927    0.00308382052  )
         8           Si  tau(   8) = (    0.61925686279    0.61756577679    0.09105144476  )
         9           Si  tau(   9) = (    0.17742930273    0.00286160578    0.18019409869  )
        10           Si  tau(  10) = (    0.26707912669    0.08677991227    0.26710331196  )
        11           Si  tau(  11) = (    0.35357281128    0.17506072413    0.17429592211  )
        12           Si  tau(  12) = (    0.43933308183    0.26807704491    0.26646092366  )
        13           Si  tau(  13) = (    0.53206710307    0.35500907113    0.17595642245  )
        14           Si  tau(  14) = (    0.61835236630    0.43919443282    0.26428468951  )
        15           Si  tau(  15) = (    0.70372836051    0.52699594434    0.17627771616  )
        16           Si  tau(  16) = (    0.79843615033    0.61549713405    0.26451557570  )
        17           Si  tau(  17) = (    0.35308035208    0.00276410199    0.35354241981  )
        18           Si  tau(  18) = (    0.44041800639    0.08801886379    0.44411701123  )
        19           Si  tau(  19) = (    0.53065056141    0.17830045879    0.35563361347  )
        20           Si  tau(  20) = (    0.62093952773    0.26612631682    0.44459455331  )
        21           Si  tau(  21) = (    0.70912369320    0.35293421322    0.35322832724  )
        22           Si  tau(  22) = (    0.79298745255    0.44160105597    0.44507250817  )
        23           Si  tau(  23) = (    0.88287974681    0.53346017573    0.35670964763  )
        24           Si  tau(  24) = (    0.97051467108    0.62123032407    0.44009541936  )
        25           Si  tau(  25) = (    0.52807572272    0.00234172943    0.53096648531  )
        26           Si  tau(  26) = (    0.61984183927    0.08696982630    0.61932402890  )
        27           Si  tau(  27) = (    0.70752134929    0.17998724192    0.52935883131  )
        28           Si  tau(  28) = (    0.79742708518    0.26722846205    0.61643839391  )
        29           Si  tau(  29) = (    0.88709573575    0.35023923133    0.52916985201  )
        30           Si  tau(  30) = (    0.96955118371    0.44490502247    0.62153337278  )
        31           Si  tau(  31) = (    1.05824333515    0.53278236594    0.53192012753  )
        32           Si  tau(  32) = (    1.14943517390    0.61714441679    0.61718186123  )
        33           Si  tau(  33) = (    0.00133872052    0.17774450816    0.17640457390  )
        34           Si  tau(  34) = (    0.09173186402    0.26604961555    0.26519730313  )
        35           Si  tau(  35) = (    0.17631961584    0.35329120660    0.17561108886  )
        36           Si  tau(  36) = (    0.26640684561    0.44285733697    0.26350517495  )
        37           Si  tau(  37) = (    0.35419893466    0.53337152670    0.17377129788  )
        38           Si  tau(  38) = (    0.44476309177    0.61979871868    0.26476838479  )
        39           Si  tau(  39) = (    0.52741606261    0.71030131122    0.17395722372  )
        40           Si  tau(  40) = (    0.61972269571    0.79525720147    0.26288768582  )
        41           Si  tau(  41) = (    0.17847582772    0.17380977879    0.35607513513  )
        42           Si  tau(  42) = (    0.26193745778    0.26207431423    0.44021665074  )
        43           Si  tau(  43) = (    0.35591699728    0.35230135152    0.35299694252  )
        44           Si  tau(  44) = (    0.44330440577    0.43864652190    0.44459653813  )
        45           Si  tau(  45) = (    0.52813746826    0.53054020890    0.35414587958  )
        46           Si  tau(  46) = (    0.61626812755    0.62143817833    0.44485869089  )
        47           Si  tau(  47) = (    0.70713514008    0.70964751195    0.35547202510  )
        48           Si  tau(  48) = (    0.79305266044    0.79548621165    0.44401959211  )
        49           Si  tau(  49) = (    0.35446322567    0.17595623681    0.52752221649  )
        50           Si  tau(  50) = (    0.44048227292    0.26802226338    0.61782574818  )
        51           Si  tau(  51) = (    0.52885140866    0.35429795390    0.52704065672  )
        52           Si  tau(  52) = (    0.62128148784    0.43992052735    0.61927068738  )
        53           Si  tau(  53) = (    0.70615851991    0.53332066401    0.53016472064  )
        54           Si  tau(  54) = (    0.79322852109    0.61699410131    0.62091571806  )
        55           Si  tau(  55) = (    0.88080666784    0.70618496967    0.53302907004  )
        56           Si  tau(  56) = (    0.96970508011    0.79366280888    0.61549418021  )
        57           Si  tau(  57) = (    0.52892480426    0.17729008221    0.70530675756  )
        58           Si  tau(  58) = (    0.62029191557    0.26793847668    0.79585286116  )
        59           Si  tau(  59) = (    0.70923437272    0.35045776292    0.70678452106  )
        60           Si  tau(  60) = (    0.79343118855    0.44075629517    0.79424118964  )
        61           Si  tau(  61) = (    0.88517852250    0.53262059421    0.70922235918  )
        62           Si  tau(  62) = (    0.97313981363    0.61742457452    0.79596859796  )
        63           Si  tau(  63) = (    1.06014795398    0.70513542286    0.70994324552  )
        64           Si  tau(  64) = (    1.14718727357    0.79422908582    0.79604340886  )
        65           Si  tau(  65) = (    0.00072998728    0.35412392817    0.35038428473  )
        66           Si  tau(  66) = (    0.08753431031    0.44180725967    0.44435174410  )
        67           Si  tau(  67) = (    0.17625731761    0.53030392015    0.35605800871  )
        68           Si  tau(  68) = (    0.26702589843    0.61830877735    0.43977023051  )
        69           Si  tau(  69) = (    0.35284960803    0.70537391372    0.35646472378  )
        70           Si  tau(  70) = (    0.44378539597    0.79206531554    0.44431100343  )
        71           Si  tau(  71) = (    0.52710902626    0.88462233795    0.35253736850  )
        72           Si  tau(  72) = (    0.61684160011    0.97499657446    0.43896712226  )
        73           Si  tau(  73) = (    0.17521506302    0.35568046301    0.52824655908  )
        74           Si  tau(  74) = (    0.26770745982    0.44109718142    0.62012861804  )
        75           Si  tau(  75) = (    0.35554274630    0.53140104568    0.52914347966  )
        76           Si  tau(  76) = (    0.44425967022    0.61948222970    0.61821623959  )
        77           Si  tau(  77) = (    0.53235761930    0.71045089816    0.53227094691  )
        78           Si  tau(  78) = (    0.61900796674    0.79219939763    0.61873701259  )
        79           Si  tau(  79) = (    0.70738087053    0.88096086704    0.53136404558  )
        80           Si  tau(  80) = (    0.79353948464    0.97243394095    0.61963695148  )
        81           Si  tau(  81) = (    0.35196813853    0.35015604939    0.70650513166  )
        82           Si  tau(  82) = (    0.43906395025    0.44385123146    0.79342629501  )
        83           Si  tau(  83) = (    0.52798151814    0.52942351740    0.70905668555  )
        84           Si  tau(  84) = (    0.61708029723    0.62025307317    0.79320674249  )
        85           Si  tau(  85) = (    0.70946913798    0.70430762705    0.70451711322  )
        86           Si  tau(  86) = (    0.79853678480    0.79664722625    0.79456079601  )
        87           Si  tau(  87) = (    0.88353243165    0.88256419152    0.70690248902  )
        88           Si  tau(  88) = (    0.96987942081    0.97070373334    0.79566826284  )
        89           Si  tau(  89) = (    0.52838846499    0.35280504118    0.88090470199  )
        90           Si  tau(  90) = (    0.61947375710    0.44414923332    0.97506043989  )
        91           Si  tau(  91) = (    0.70641443895    0.52756679012    0.88383013770  )
        92           Si  tau(  92) = (    0.79469278090    0.62149137454    0.97125546383  )
        93           Si  tau(  93) = (    0.88139989725    0.70474501329    0.88125978830  )
        94           Si  tau(  94) = (    0.97506541470    0.79278261202    0.97114431801  )
        95           Si  tau(  95) = (    1.06210539396    0.88487610867    0.88627630477  )
        96           Si  tau(  96) = (    1.14743185326    0.97464715940    0.97567671976  )
        97           Si  tau(  97) = (   -0.00041814306    0.53124654702    0.52963650149  )
        98           Si  tau(  98) = (    0.09121390195    0.62069366033    0.61580360673  )
        99           Si  tau(  99) = (    0.17927823645    0.70694502046    0.53344418256  )
       100           Si  tau( 100) = (    0.26178180207    0.79266558063    0.62028096601  )
       101           Si  tau( 101) = (    0.35577755245    0.88335768641    0.53014215251  )
       102           Si  tau( 102) = (    0.43921389332    0.97508748412    0.62103176271  )
       103           Si  tau( 103) = (    0.52919010840    1.06126387751    0.53323666745  )
       104           Si  tau( 104) = (    0.61816816249    1.14616701542    0.61698052787  )
       105           Si  tau( 105) = (    0.17711359046    0.53319064499    0.70924924207  )
       106           Si  tau( 106) = (    0.26823670800    0.61756156530    0.79452151052  )
       107           Si  tau( 107) = (    0.35566442544    0.70859994841    0.70720939664  )
       108           Si  tau( 108) = (    0.44130321571    0.79452400780    0.79739323525  )
       109           Si  tau( 109) = (    0.52777265517    0.88375208325    0.70645295216  )
       110           Si  tau( 110) = (    0.62048248144    0.97271655915    0.79780013888  )
       111           Si  tau( 111) = (    0.70811981279    1.06275022308    0.70897941126  )
       112           Si  tau( 112) = (    0.79397662391    1.15048282966    0.79867726839  )
       113           Si  tau( 113) = (    0.35372244946    0.53136700241    0.88382335559  )
       114           Si  tau( 114) = (    0.44360199108    0.61651444272    0.97114159935  )
       115           Si  tau( 115) = (    0.52802881038    0.70875459476    0.88298136919  )
       116           Si  tau( 116) = (    0.61689352929    0.79432874608    0.96988549892  )
       117           Si  tau( 117) = (    0.70937943694    0.88468282137    0.88139540505  )
       118           Si  tau( 118) = (    0.79489308790    0.97190772986    0.97203141199  )
       119           Si  tau( 119) = (    0.88242326078    1.06351818955    0.88576372041  )
       120           Si  tau( 120) = (    0.97423410800    1.14693812349    0.97275413281  )
       121           Si  tau( 121) = (    0.53366833590    0.53122584137    1.06352341956  )
       122           Si  tau( 122) = (    0.62037522677    0.61565845622    1.15038749411  )
       123           Si  tau( 123) = (    0.70957638589    0.70946518485    1.06214613797  )
       124           Si  tau( 124) = (    0.79488992219    0.79381875221    1.14913639139  )
       125           Si  tau( 125) = (    0.88402720145    0.88525935810    1.05921454011  )
       126           Si  tau( 126) = (    0.97182237853    0.96923332887    1.15138152241  )
       127           Si  tau( 127) = (    1.06392213347    1.06398795079    1.06005136273  )
       128           Si  tau( 128) = (    1.14916596114    1.15099910023    1.15079303099  )

   Crystallographic axes

     site n.     atom                  positions (cryst. coord.)
         1           Si  tau(   1) = (    0.00429792300   -0.00338666761   -0.00096973487  )
         2           Si  tau(   2) = (    0.06333448280    0.06310708399    0.06206575889  )
         3           Si  tau(   3) = (    0.00351664625   -0.00151766080    0.24666052603  )
         4           Si  tau(   4) = (    0.06132792314    0.06057021732    0.31766732512  )
         5           Si  tau(   5) = (    0.00049245989   -0.00203809150    0.50124776030  )
         6           Si  tau(   6) = (    0.06534526207    0.06008133168    0.56387856295  )
         7           Si  tau(   7) = (    0.00583599885   -0.00147481805    0.74815917339  )
         8           Si  tau(   8) = (    0.06318731565    0.06557887240    0.81018258155  )
         9           Si  tau(   9) = (    0.00397846682    0.25085447140    0.00006845488  )
        10           Si  tau(  10) = (    0.06137976601    0.31636136033    0.06134556287  )
        11           Si  tau(  11) = (   -0.00298127889    0.24947293581    0.25055452919  )
        12           Si  tau(  12) = (    0.06732002102    0.30951263107    0.31179817166  )
        13           Si  tau(  13) = (   -0.00077895555    0.24961891455    0.50283759870  )
        14           Si  tau(  14) = (    0.06019370645    0.31356128578    0.56092101696  )
        15           Si  tau(  15) = (   -0.00032152146    0.24961585840    0.74560633326  )
        16           Si  tau(  16) = (    0.05768333836    0.31639817626    0.81276105622  )
        17           Si  tau(  17) = (    0.00228124648    0.49770323848    0.00162778404  )
        18           Si  tau(  18) = (    0.06485432687    0.56322197369    0.05962314405  )
        19           Si  tau(  19) = (    0.00232179279    0.50062008663    0.24983313421  )
        20           Si  tau(  20) = (    0.06348499603    0.56526665102    0.31287445051  )
        21           Si  tau(  21) = (   -0.00209385118    0.50163414218    0.50121820214  )
        22           Si  tau(  22) = (    0.06624608481    0.56318149249    0.55827211770  )
        23           Si  tau(  23) = (    0.00515486256    0.49930875894    0.74927175293  )
        24           Si  tau(  24) = (    0.06421312507    0.55817578573    0.81433922459  )
        25           Si  tau(  25) = (    0.00369993059    0.74720007410   -0.00038822508  )
        26           Si  tau(  26) = (    0.06113080672    0.81472563446    0.06186310116  )
        27           Si  tau(  27) = (    0.00129027467    0.74733616393    0.25325012391  )
        28           Si  tau(  28) = (    0.06098072673    0.81079481031    0.31693738856  )
        29           Si  tau(  29) = (   -0.00543528404    0.75379446555    0.50074835507  )
        30           Si  tau(  30) = (    0.06850960428    0.81047132096    0.56068111246  )
        31           Si  tau(  31) = (    0.00456731465    0.74768134380    0.74890073306  )
        32           Si  tau(  32) = (    0.06002707539    0.81279988321    0.81274692878  )
        33           Si  tau(  33) = (    0.24947459912   -0.00000085825    0.00189409496  )
        34           Si  tau(  34) = (    0.31078407558    0.06426154721    0.06546689899  )
        35           Si  tau(  35) = (    0.24931360369   -0.00096202012    0.25031561216  )
        36           Si  tau(  36) = (    0.31109563507    0.06155695711    0.31519921707  )
        37           Si  tau(  37) = (    0.24956901794   -0.00381929173    0.50473222891  )
        38           Si  tau(  38) = (    0.31098839906    0.06345064159    0.56553935483  )
        39           Si  tau(  39) = (    0.25232573201   -0.00631306694    0.75219201569  )
        40           Si  tau(  40) = (    0.31001130468    0.06176802599    0.81465221520  )
        41           Si  tau(  41) = (    0.24848374782    0.25508253750   -0.00267960139  )
        42           Si  tau(  42) = (    0.31137695105    0.31118340680    0.05925209848  )
        43           Si  tau(  43) = (    0.24704988416    0.25216317943    0.25117946521  )
        44           Si  tau(  44) = (    0.31108360573    0.31767084828    0.30925625463  )
        45           Si  tau(  45) = (    0.25211794718    0.24871995878    0.49817921163  )
        46           Si  tau(  46) = (    0.31821837497    0.31090681903    0.56062792501  )
        47           Si  tau(  47) = (    0.25313319466    0.24958016428    0.75045994125  )
        48           Si  tau(  48) = (    0.31569004512    0.31224848400    0.80929734407  )
        49           Si  tau(  49) = (    0.24679103419    0.49923803882    0.00204866229  )
        50           Si  tau(  50) = (    0.31492113390    0.55881641836    0.06411958599  )
        51           Si  tau(  51) = (    0.24924609079    0.49610195386    0.25180688074  )
        52           Si  tau(  52) = (    0.30964893743    0.56613206744    0.31249263872  )
        53           Si  tau(  53) = (    0.25266824915    0.49709788907    0.50156106698  )
        54           Si  tau(  54) = (    0.31443716148    0.56367026809    0.55812426450  )
        55           Si  tau(  55) = (    0.25343228308    0.50038465691    0.74526407858  )
        56           Si  tau(  56) = (    0.31073942484    0.55970079237    0.81166928342  )
        57           Si  tau(  57) = (    0.25008389462    0.74737048756    0.00064214411  )
        58           Si  tau(  58) = (    0.31360144894    0.81190446097    0.06532077866  )
        59           Si  tau(  59) = (    0.24607875396    0.75346550140    0.24954336740  )
        60           Si  tau(  60) = (    0.31223452243    0.81099213976    0.31108900790  )
        61           Si  tau(  61) = (    0.25219983769    0.75079204140    0.50103943024  )
        62           Si  tau(  62) = (    0.31130613549    0.81436345097    0.56186407154  )
        63           Si  tau(  63) = (    0.25097391500    0.75303745132    0.74623816331  )
        64           Si  tau(  64) = (    0.31330856449    0.81246682055    0.80990098031  )
        65           Si  tau(  65) = (    0.49764635579   -0.00212814828    0.00316050619  )
        66           Si  tau(  66) = (    0.56471293638    0.06369532660    0.06009688221  )
        67           Si  tau(  67) = (    0.50211978596    0.00142227894    0.24784321009  )
        68           Si  tau(  68) = (    0.55935901796    0.06257000635    0.31506164071  )
        69           Si  tau(  69) = (    0.50133095052    0.00278629636    0.49621840480  )
        70           Si  tau(  70) = (    0.56044641636    0.06790423060    0.55970309516  )
        71           Si  tau(  71) = (    0.50208165094   -0.00351852317    0.74896325696  )
        72           Si  tau(  72) = (    0.56365043994    0.05714281779    0.81520293892  )
        73           Si  tau(  73) = (    0.50113503216    0.24591841596    0.00187310250  )
        74           Si  tau(  74) = (    0.56110219896    0.31589210309    0.06270341733  )
        75           Si  tau(  75) = (    0.49851153871    0.24981034667    0.25300302716  )
        76           Si  tau(  76) = (    0.56104595529    0.31324383522    0.31503421561  )
        77           Si  tau(  77) = (    0.50230336116    0.25044143082    0.50242593442  )
        78           Si  tau(  78) = (    0.55997797260    0.31504830215    0.56036115964  )
        79           Si  tau(  79) = (    0.49847071252    0.25299152729    0.74739609357  )
        80           Si  tau(  80) = (    0.56464697344    0.31165200709    0.81058229437  )
        81           Si  tau(  81) = (    0.49829322902    0.50085591005   -0.00309779502  )
        82           Si  tau(  82) = (    0.56442223258    0.55765199457    0.06327819863  )
        83           Si  tau(  83) = (    0.50239843805    0.50035914314    0.24631948049  )
        84           Si  tau(  84) = (    0.56312535788    0.55863837511    0.31404495030  )
        85           Si  tau(  85) = (    0.49451908884    0.50181856760    0.50152230942  )
        86           Si  tau(  86) = (    0.56050320726    0.56317544659    0.56612610452  )
        87           Si  tau(  87) = (    0.49917089446    0.50054019279    0.74896335485  )
        88           Si  tau(  88) = (    0.56320530121    0.56203954725    0.80957708353  )
        89           Si  tau(  89) = (    0.49873745871    0.74704991800    0.00020421539  )
        90           Si  tau(  90) = (    0.56549868944    0.81344500879    0.06262318003  )
        91           Si  tau(  91) = (    0.49849789850    0.75142666907    0.24759421115  )
        92           Si  tau(  92) = (    0.56430943579    0.80925321369    0.31461209498  )
        93           Si  tau(  93) = (    0.49823090591    0.74805863868    0.49842904989  )
        94           Si  tau(  94) = (    0.55780932691    0.81559613864    0.56335459503  )
        95           Si  tau(  95) = (    0.50137195565    0.75201201457    0.75003183824  )
        96           Si  tau(  96) = (    0.56773039608    0.81208485350    0.81062883528  )
        97           Si  tau(  97) = (    0.75045326943   -0.00143414590    0.00084280232  )
        98           Si  tau(  98) = (    0.80983763386    0.06104017854    0.06795575867  )
        99           Si  tau(  99) = (    0.75031876005    0.00408523769    0.24945247574  )
       100           Si  tau( 100) = (    0.81399639714    0.06321335747    0.30700201741  )
       101           Si  tau( 101) = (    0.74792260138    0.00181162069    0.50133381917  )
       102           Si  tau( 102) = (    0.81805562066    0.06021592083    0.56092632389  )
       103           Si  tau( 103) = (    0.75328823376    0.00082229330    0.74756553507  )
       104           Si  tau( 104) = (    0.80962268447    0.06291954575    0.81130225347  )
       105           Si  tau( 105) = (    0.75329944851    0.24973044873    0.00074599298  )
       106           Si  tau( 106) = (    0.80882152332    0.31480157246    0.06454241793  )
       107           Si  tau( 107) = (    0.74963566170    0.25050945847    0.25247599564  )
       108           Si  tau( 108) = (    0.81360698126    0.31407734657    0.31001964621  )
       109           Si  tau( 109) = (    0.75125314062    0.24782220550    0.49856104129  )
       110           Si  tau( 110) = (    0.81319699314    0.31506278333    0.56243195714  )
       111           Si  tau( 111) = (    0.75208571735    0.25056258149    0.75087006154  )
       112           Si  tau( 112) = (    0.81683806808    0.31266215684    0.81019035291  )
       113           Si  tau( 113) = (    0.75057115614    0.49934382008    0.00089526526  )
       114           Si  tau( 114) = (    0.80896837750    0.56443324328    0.06291470880  )
       115           Si  tau( 115) = (    0.75215454149    0.49656968614    0.25017581882  )
       116           Si  tau( 116) = (    0.81127825828    0.56034696824    0.31207222742  )
       117           Si  tau( 117) = (    0.74719887971    0.49928245593    0.50393156467  )
       118           Si  tau( 118) = (    0.81249825664    0.56216174924    0.56198683630  )
       119           Si  tau( 119) = (    0.75438298540    0.49827608106    0.74965886209  )
       120           Si  tau( 120) = (    0.80996122423    0.56572086325    0.81205422522  )
       121           Si  tau( 121) = (    0.75029751748    0.75375172636    0.00096927207  )
       122           Si  tau( 122) = (    0.81011153764    0.81678205852    0.06056100094  )
       123           Si  tau( 123) = (    0.75097210576    0.75112936778    0.25236318068  )
       124           Si  tau( 124) = (    0.81180470330    0.81331956642    0.31082454214  )
       125           Si  tau( 125) = (    0.74984905037    0.74810651772    0.50209674007  )
       126           Si  tau( 126) = (    0.81231894766    0.81598041680    0.55838397114  )
       127           Si  tau( 127) = (    0.74961604687    0.74952296712    0.75509014334  )
       128           Si  tau( 128) = (    0.81502978104    0.81243733087    0.81272875679  )

     number of k points=     8  gaussian smearing, width (Ry)=  0.0150
                       cart. coord. in units 2pi/alat
        k(    1) = (   0.0000000   0.0000000   0.0000000), wk =   0.2500000
        k(    2) = (  -0.3535534  -0.3535534   0.3535534), wk =   0.2500000
        k(    3) = (  -0.7071068   0.0000000   0.0000000), wk =   0.2500000
        k(    4) = (   0.3535534   0.3535534   0.3535534), wk =   0.2500000
        k(    5) = (   0.3535534  -0.3535534  -0.3535534), wk =   0.2500000
        k(    6) = (  -0.3535534   0.3535534  -0.3535534), wk =   0.2500000
        k(    7) = (   0.0000000  -0.7071068   0.0000000), wk =   0.2500000
        k(    8) = (   0.0000000   0.0000000  -0.7071068), wk =   0.2500000

                       cryst. coord.
        k(    1) = (   0.0000000   0.0000000   0.0000000), wk =   0.2500000
        k(    2) = (   0.0000000   0.0000000  -0.5000000), wk =   0.2500000
        k(    3) = (   0.0000000  -0.5000000  -0.5000000), wk =   0.2500000
        k(    4) = (   0.5000000   0.5000000   0.5000000), wk =   0.2500000
        k(    5) = (  -0.5000000   0.0000000   0.0000000), wk =   0.2500000
        k(    6) = (   0.0000000  -0.5000000   0.0000000), wk =   0.2500000
        k(    7) = (  -0.5000000   0.0000000  -0.5000000), wk =   0.2500000
        k(    8) = (  -0.5000000  -0.5000000   0.0000000), wk =   0.2500000

     Dense  grid:   826925 G-vectors     FFT dimensions: ( 135, 135, 135)

     Smooth grid:   484169 G-vectors     FFT dimensions: ( 120, 120, 120)

     Largest allocated arrays     est. size (Mb)     dimensions
        Kohn-Sham Wavefunctions        17.73 Mb     (    3784,  307)
        NL pseudopotentials           133.03 Mb     (    3784, 2304)
        Each V/rho on FFT grid          2.50 Mb     (  164025)
        Each G-vector array             0.39 Mb     (   51681)
        G-vector shells                 0.02 Mb     (    2817)
     Largest temporary arrays     est. size (Mb)     dimensions
        Auxiliary wavefunctions        70.90 Mb     (    3784, 1228)
        Each subspace H/S matrix       23.01 Mb     (    1228, 1228)
        Each <psi_i|beta_j> matrix     10.79 Mb     (    2304,  307)
        Arrays for rho mixing          20.02 Mb     (  164025,    8)

     Initial potential from superposition of free atoms

     starting charge  511.91704, renormalised to  512.00000
     Starting wfc are  512 randomized atomic wfcs

     total cpu time spent up to now is      595.6 secs

     Self-consistent Calculation

     iteration #  1     ecut=    35.00 Ry     beta=0.30
     Davidson diagonalization with overlap
     ethr =  1.00E-02,  avg # of iterations =  4.1

     Threshold (ethr) on eigenvalues was too large:
     Diagonalizing with lowered threshold

     Davidson diagonalization with overlap
     ethr =  6.95E-04,  avg # of iterations =  3.4

     total cpu time spent up to now is     2942.5 secs

     total energy              =   -1224.06078915 Ry
     Harris-Foulkes estimate   =   -1224.43433342 Ry
     estimated scf accuracy    <       3.50823101 Ry

     iteration #  2     ecut=    35.00 Ry     beta=0.30
     Davidson diagonalization with overlap
     ethr =  6.85E-04,  avg # of iterations =  1.9

     total cpu time spent up to now is     4179.4 secs

     total energy              =   -1223.31989334 Ry
     Harris-Foulkes estimate   =   -1224.07730432 Ry
     estimated scf accuracy    <       2.18080358 Ry

     iteration #  3     ecut=    35.00 Ry     beta=0.30
     Davidson diagonalization with overlap
     c_bands:  2 eigenvalues not converged
     ethr =  4.26E-04,  avg # of iterations = 12.1

     total cpu time spent up to now is     5598.6 secs

     total energy              =   -1223.46363795 Ry
     Harris-Foulkes estimate   =   -1223.45922578 Ry
     estimated scf accuracy    <       0.02577990 Ry

     iteration #  4     ecut=    35.00 Ry     beta=0.30
     Davidson diagonalization with overlap
     c_bands:  1 eigenvalues not converged
     ethr =  5.04E-06,  avg # of iterations = 15.0

     total cpu time spent up to now is     8179.1 secs

     total energy              =   -1223.48080665 Ry
     Harris-Foulkes estimate   =   -1223.47922037 Ry
     estimated scf accuracy    <       0.01039067 Ry

     iteration #  5     ecut=    35.00 Ry     beta=0.30
     Davidson diagonalization with overlap
     ethr =  2.03E-06,  avg # of iterations =  4.5

     total cpu time spent up to now is     8997.9 secs

     total energy              =   -1223.48145219 Ry
     Harris-Foulkes estimate   =   -1223.48136971 Ry
     estimated scf accuracy    <       0.00047633 Ry

     iteration #  6     ecut=    35.00 Ry     beta=0.30
     Davidson diagonalization with overlap
     ethr =  9.30E-08,  avg # of iterations =  3.0

     total cpu time spent up to now is     9990.9 secs

     total energy              =   -1223.48156193 Ry
     Harris-Foulkes estimate   =   -1223.48157934 Ry
     estimated scf accuracy    <       0.00012312 Ry

     iteration #  7     ecut=    35.00 Ry     beta=0.30
     Davidson diagonalization with overlap
     ethr =  2.40E-08,  avg # of iterations =  2.0

     total cpu time spent up to now is    10794.5 secs

     total energy              =   -1223.48157868 Ry
     Harris-Foulkes estimate   =   -1223.48157458 Ry
     estimated scf accuracy    <       0.00003045 Ry

     iteration #  8     ecut=    35.00 Ry     beta=0.30
     Davidson diagonalization with overlap
     ethr =  5.95E-09,  avg # of iterations =  2.5

     total cpu time spent up to now is    11574.2 secs

     total energy              =   -1223.48157819 Ry
     Harris-Foulkes estimate   =   -1223.48158100 Ry
     estimated scf accuracy    <       0.00001445 Ry

     iteration #  9     ecut=    35.00 Ry     beta=0.30
     Davidson diagonalization with overlap
     ethr =  2.82E-09,  avg # of iterations =  2.0

     total cpu time spent up to now is    12297.0 secs

     total energy              =   -1223.48157855 Ry
     Harris-Foulkes estimate   =   -1223.48157911 Ry
     estimated scf accuracy    <       0.00000269 Ry

     iteration # 10     ecut=    35.00 Ry     beta=0.30
     Davidson diagonalization with overlap
     ethr =  5.25E-10,  avg # of iterations =  3.0

     total cpu time spent up to now is    13274.2 secs

     total energy              =   -1223.48157890 Ry
     Harris-Foulkes estimate   =   -1223.48157902 Ry
     estimated scf accuracy    <       0.00000076 Ry

     iteration # 11     ecut=    35.00 Ry     beta=0.30
     Davidson diagonalization with overlap
     ethr =  1.48E-10,  avg # of iterations =  2.4

     total cpu time spent up to now is    14238.3 secs

     total energy              =   -1223.48157897 Ry
     Harris-Foulkes estimate   =   -1223.48157903 Ry
     estimated scf accuracy    <       0.00000024 Ry

     iteration # 12     ecut=    35.00 Ry     beta=0.30
     Davidson diagonalization with overlap
     ethr =  4.64E-11,  avg # of iterations =  2.1

     total cpu time spent up to now is    14995.9 secs

     total energy              =   -1223.48157900 Ry
     Harris-Foulkes estimate   =   -1223.48157900 Ry
     estimated scf accuracy    <       0.00000005 Ry

     iteration # 13     ecut=    35.00 Ry     beta=0.30
     Davidson diagonalization with overlap
     ethr =  8.96E-12,  avg # of iterations =  2.0

     total cpu time spent up to now is    15756.0 secs

     total energy              =   -1223.48157901 Ry
     Harris-Foulkes estimate   =   -1223.48157901 Ry
     estimated scf accuracy    <          5.9E-09 Ry

     iteration # 14     ecut=    35.00 Ry     beta=0.30
     Davidson diagonalization with overlap
     ethr =  1.14E-12,  avg # of iterations =  3.0

     total cpu time spent up to now is    16751.1 secs

     total energy              =   -1223.48157901 Ry
     Harris-Foulkes estimate   =   -1223.48157901 Ry
     estimated scf accuracy    <          2.1E-09 Ry

     iteration # 15     ecut=    35.00 Ry     beta=0.30
     Davidson diagonalization with overlap
     ethr =  4.08E-13,  avg # of iterations =  2.1

     total cpu time spent up to now is    17645.8 secs

     End of self-consistent calculation

          k = 0.0000 0.0000 0.0000 ( 60495 PWs)   bands (ev):

    -5.8566  -5.1121  -5.0997  -5.0816  -5.0677  -5.0546  -5.0349  -5.0235
    -4.9984  -4.8083  -4.8041  -4.7900  -4.7529  -4.7222  -4.7212  -3.9075
    -3.8834  -3.8604  -3.8479  -3.8291  -3.8131  -3.8022  -3.7890  -3.7812
    -3.7582  -3.7233  -3.7030  -3.5645  -3.5283  -3.5001  -3.4516  -3.2540
    -3.2478  -3.2111  -3.1999  -3.1908  -3.1796  -3.1731  -3.1632  -3.1604
    -3.1424  -3.1365  -3.1226  -3.1064  -3.0966  -3.0935  -3.0835  -3.0644
    -3.0577  -3.0433  -3.0326  -3.0216  -2.9974  -2.9892  -2.9811  -1.7663
    -1.7587  -1.7258  -1.6984  -1.6777  -1.6238  -1.5874  -1.5790  -1.5676
    -1.5598  -1.5437  -1.5359  -1.4938  -1.4929  -1.4826  -1.4553  -1.4468
    -1.4076  -0.9279  -0.8835  -0.8592  -0.8209  -0.3944  -0.3621  -0.3569
    -0.3433  -0.3319  -0.3240  -0.3185  -0.3164  -0.2948  -0.2796  -0.2789
    -0.2660  -0.2589  -0.2455  -0.2356  -0.2192  -0.2178  -0.2114  -0.1954
    -0.1854  -0.1616  -0.1542  -0.1300  -0.1130   0.5800   0.5943   0.6070
     0.6222   0.6332   0.6396   0.6462   0.6566   0.6823   0.7061   0.7100
     0.7251   2.0864   2.1026   2.1349   2.1384   2.1459   2.1565   2.1652
     2.1811   2.1927   2.1988   2.2086   2.2162   2.2216   2.2271   2.2342
     2.2467   2.2532   2.2618   2.2701   2.2777   2.2956   2.2982   2.3112
     2.3224   2.3309   2.3407   2.3504   2.3599   2.3616   2.3733   2.3799
     2.3814   2.4698   2.4795   2.4929   2.4993   2.5032   2.5178   2.5252
     2.5343   2.5446   2.5554   2.5592   2.5683   2.5723   2.5824   2.5870
     2.5945   2.5976   2.6005   2.6116   2.6148   2.6219   2.6263   2.6418
     2.6486   2.6529   2.6619   2.6745   2.6968   2.7036   2.7210   3.2455
     3.2523   3.2639   3.2710   3.2792   3.3079   3.8101   3.8154   3.8484
     3.8567   3.8704   3.8740   3.8788   3.8909   3.9028   3.9046   3.9071
     3.9175   3.9271   3.9342   3.9391   3.9416   3.9493   3.9545   3.9586
     3.9664   3.9752   3.9879   3.9957   3.9973   4.1712   4.1764   4.1954
     4.2058   4.2161   4.2347   4.2516   4.2761   4.2820   4.2845   4.3114
     4.3145   4.7114   4.7318   4.7463   4.7496   4.7754   4.7905   4.8085
     4.8219   4.8420   4.8571   4.8694   4.8841   4.8930   4.9044   4.9288
     4.9565   4.9763   4.9887   4.9921   5.0452   5.2502   5.3115   5.3194
     5.3296   5.3508   5.3529   5.3810   5.3903   5.3961   5.3999   5.4258
     5.4473   5.4689   5.4790   5.4976   5.5199   6.1162   6.1638   6.2122
     6.6708   6.6718   6.7287   6.7353   6.7687   6.7912   7.1134   7.1296
     7.1560   7.1860   7.1942   7.2120   7.4233   7.4494   7.4648   7.4769
     7.4789   7.4972   7.5160   7.5216   7.5242   7.5365   7.5400   7.5517
     7.5570   7.5656   7.5665   7.5763   7.5863   7.5917   7.5936   7.5961
     7.6077   7.6085   7.6212   7.6313   7.6339   7.6467   7.6622   7.6741
     8.0523   8.0698   8.0828   8.0891   8.0942   8.1122   8.1211   8.1370
     8.4133   8.4434   8.4615

     occupation numbers 
     1.0000   1.0000   1.0000   1.0000   1.0000   1.0000   1.0000   1.0000
     1.0000   1.0000   1.0000   1.0000   1.0000   1.0000   1.0000   1.0000
     1.0000   1.0000   1.0000   1.0000   1.0000   1.0000   1.0000   1.0000
     1.0000   1.0000   1.0000   1.0000   1.0000   1.0000   1.0000   1.0000
     1.0000   1.0000   1.0000   1.0000   1.0000   1.0000   1.0000   1.0000
     1.0000   1.0000   1.0000   1.0000   1.0000   1.0000   1.0000   1.0000
     1.0000   1.0000   1.0000   1.0000   1.0000   1.0000   1.0000   1.0000
     1.0000   1.0000   1.0000   1.0000   1.0000   1.0000   1.0000   1.0000
     1.0000   1.0000   1.0000   1.0000   1.0000   1.0000   1.0000   1.0000
     1.0000   1.0000   1.0000   1.0000   1.0000   1.0000   1.0000   1.0000
     1.0000   1.0000   1.0000   1.0000   1.0000   1.0000   1.0000   1.0000
     1.0000   1.0000   1.0000   1.0000   1.0000   1.0000   1.0000   1.0000
     1.0000   1.0000   1.0000   1.0000   1.0000   1.0000   1.0000   1.0000
     1.0000   1.0000   1.0000   1.0000   1.0000   1.0000   1.0000   1.0000
     1.0000   1.0000   1.0000   1.0000   1.0000   1.0000   1.0000   1.0000
     1.0000   1.0000   1.0000   1.0000   1.0000   1.0000   1.0000   1.0000
     1.0000   1.0000   1.0000   1.0000   1.0000   1.0000   1.0000   1.0000
     1.0000   1.0000   1.0000   1.0000   1.0000   1.0000   1.0000   1.0000
     1.0000   1.0000   1.0000   1.0000   1.0000   1.0000   1.0000   1.0000
     1.0000   1.0000   1.0000   1.0000   1.0000   1.0000   1.0000   1.0000
     1.0000   1.0000   1.0000   1.0000   1.0000   1.0000   1.0000   1.0000
     1.0000   1.0000   1.0000   1.0000   1.0000   1.0000   1.0000   1.0000
     1.0000   1.0000   1.0000   1.0000   1.0000   1.0000   1.0000   1.0000
     1.0000   1.0000   1.0000   1.0000   1.0000   1.0000   1.0000   1.0000
     1.0000   1.0000   1.0000   1.0000   1.0000   1.0000   1.0000   1.0000
     1.0000   1.0000   1.0000   1.0000   1.0000   1.0000   1.0000   1.0000
     1.0000   1.0000   1.0000   1.0000   1.0000   1.0000   1.0000   1.0000
     1.0000   1.0000   1.0000   1.0000   1.0000   1.0000   1.0000   1.0000
     1.0000   1.0000   1.0000   1.0000   1.0000   1.0000   1.0000   1.0000
     1.0000   1.0000   1.0000   1.0000   1.0000   1.0000   1.0000   1.0000
     1.0000   1.0000   1.0000   1.0000   1.0000   1.0000   1.0000   1.0000
     1.0000   1.0000   1.0000   1.0000   1.0000   0.9628   0.9269   0.8682
     0.0197   0.0194   0.0069   0.0061   0.0031   0.0019   0.0000   0.0000
     0.0000   0.0000   0.0000   0.0000   0.0000   0.0000   0.0000   0.0000
     0.0000   0.0000   0.0000   0.0000   0.0000   0.0000   0.0000   0.0000
     0.0000   0.0000   0.0000   0.0000   0.0000   0.0000   0.0000   0.0000
     0.0000   0.0000   0.0000   0.0000   0.0000   0.0000   0.0000   0.0000
     0.0000   0.0000   0.0000   0.0000   0.0000   0.0000   0.0000   0.0000
     0.0000   0.0000   0.0000

          k =-0.3536-0.3536 0.3536 ( 60452 PWs)   bands (ev):

    -5.6757  -5.6298  -5.1541  -5.1297  -5.1255  -5.1084  -5.0927  -5.0827
    -4.6641  -4.6307  -4.6055  -4.5870  -4.5796  -4.5534  -4.1904  -4.1643
    -4.1059  -4.0879  -4.0550  -4.0483  -4.0354  -4.0164  -3.7090  -3.6825
    -3.6684  -3.6646  -3.6507  -3.6313  -3.6268  -3.6096  -3.5936  -3.5808
    -3.5666  -3.5351  -3.4825  -3.4268  -3.4225  -3.3864  -3.3718  -3.3628
    -2.9597  -2.9482  -2.9202  -2.9122  -2.9035  -2.8773  -2.6054  -2.5919
    -2.5582  -2.5246  -2.5098  -2.4886  -2.4325  -2.4286  -2.4005  -2.3887
    -2.3735  -2.3554  -2.3511  -2.3318  -2.3176  -2.3082  -2.2882  -2.2783
    -0.9185  -0.8903  -0.8769  -0.8519  -0.8460  -0.8325  -0.8235  -0.8068
    -0.7949  -0.7848  -0.7765  -0.7572  -0.7431  -0.7324  -0.7265  -0.7130
    -0.6856  -0.6783  -0.6481  -0.6475  -0.6191  -0.6088  -0.5841  -0.5727
    -0.5257  -0.5083  -0.4837  -0.4679  -0.4633  -0.4503   0.1626   0.1751
     0.2013   0.2176   0.2300   0.2435   0.2636   0.2683   0.2883   0.2980
     0.3068   0.3225   0.3406   0.3816   1.1492   1.1817   1.1964   1.2107
     1.2271   1.2403   1.4544   1.4641   1.4782   1.4943   1.5099   1.5479
     1.9672   1.9764   1.9857   1.9904   2.0056   2.0143   2.0197   2.0217
     2.0303   2.0503   2.0620   2.0698   2.0817   2.0984   2.1006   2.1076
     2.1284   2.1429   2.6351   2.6467   2.6605   2.6690   2.6725   2.6797
     2.7024   2.7196   2.7281   2.7475   2.7560   2.7663   2.7735   2.7891
     2.7894   2.7982   2.8084   2.8163   2.8534   2.8724   2.9158   2.9289
     2.9452   2.9569   3.1025   3.1065   3.1171   3.1301   3.1348   3.1372
     3.1477   3.1596   3.1613   3.1745   3.1794   3.1930   3.3718   3.3847
     3.4037   3.4058   3.4152   3.4347   3.4388   3.4451   3.4641   3.4718
     3.4804   3.5047   3.7639   3.7805   3.7846   3.8003   3.8111   3.8178
     3.8294   3.8381   3.8611   3.8660   3.8714   3.8825   3.8988   3.9046
     3.9215   3.9268   3.9279   3.9558   4.1328   4.1361   4.1472   4.1673
     4.1845   4.1903   4.2055   4.2083   4.2150   4.2313   4.2391   4.2470
     4.2576   4.2598   4.2668   4.2746   4.2943   4.3085   4.5128   4.5393
     4.5464   4.5585   4.5615   4.5763   4.5928   4.6198   4.7478   4.7942
     4.8109   4.8184   4.8293   4.8361   4.8741   4.9048   4.9284   4.9388
     4.9492   4.9611   5.0167   5.0379   5.0513   5.1329   5.3380   5.3556
     5.3704   5.3792   5.3815   5.4349   5.8135   5.8444   5.8658   5.9279
     6.8436   6.8748   6.9027   6.9224   6.9368   6.9476   7.3431   7.3585
     7.3685   7.3872   7.3971   7.4348   7.6833   7.7250   7.8079   7.8408
     7.8594   7.8722   7.8854   7.9109   7.9641   7.9804   7.9962   8.0200
     8.0398   8.0517   8.1501   8.1738   8.1884   8.1908   8.2011   8.2191
     8.2304   8.2333   8.2578   8.2711   8.2777   8.2995   8.3901   8.3982
     8.4039   8.4196   8.4324   8.4346   8.4423   8.4448   8.4701   8.4788
     8.4828   8.4989   8.5619

     occupation numbers 
     1.0000   1.0000   1.0000   1.0000   1.0000   1.0000   1.0000   1.0000
     1.0000   1.0000   1.0000   1.0000   1.0000   1.0000   1.0000   1.0000
     1.0000   1.0000   1.0000   1.0000   1.0000   1.0000   1.0000   1.0000
     1.0000   1.0000   1.0000   1.0000   1.0000   1.0000   1.0000   1.0000
     1.0000   1.0000   1.0000   1.0000   1.0000   1.0000   1.0000   1.0000
     1.0000   1.0000   1.0000   1.0000   1.0000   1.0000   1.0000   1.0000
     1.0000   1.0000   1.0000   1.0000   1.0000   1.0000   1.0000   1.0000
     1.0000   1.0000   1.0000   1.0000   1.0000   1.0000   1.0000   1.0000
     1.0000   1.0000   1.0000   1.0000   1.0000   1.0000   1.0000   1.0000
     1.0000   1.0000   1.0000   1.0000   1.0000   1.0000   1.0000   1.0000
     1.0000   1.0000   1.0000   1.0000   1.0000   1.0000   1.0000   1.0000
     1.0000   1.0000   1.0000   1.0000   1.0000   1.0000   1.0000   1.0000
     1.0000   1.0000   1.0000   1.0000   1.0000   1.0000   1.0000   1.0000
     1.0000   1.0000   1.0000   1.0000   1.0000   1.0000   1.0000   1.0000
     1.0000   1.0000   1.0000   1.0000   1.0000   1.0000   1.0000   1.0000
     1.0000   1.0000   1.0000   1.0000   1.0000   1.0000   1.0000   1.0000
     1.0000   1.0000   1.0000   1.0000   1.0000   1.0000   1.0000   1.0000
     1.0000   1.0000   1.0000   1.0000   1.0000   1.0000   1.0000   1.0000
     1.0000   1.0000   1.0000   1.0000   1.0000   1.0000   1.0000   1.0000
     1.0000   1.0000   1.0000   1.0000   1.0000   1.0000   1.0000   1.0000
     1.0000   1.0000   1.0000   1.0000   1.0000   1.0000   1.0000   1.0000
     1.0000   1.0000   1.0000   1.0000   1.0000   1.0000   1.0000   1.0000
     1.0000   1.0000   1.0000   1.0000   1.0000   1.0000   1.0000   1.0000
     1.0000   1.0000   1.0000   1.0000   1.0000   1.0000   1.0000   1.0000
     1.0000   1.0000   1.0000   1.0000   1.0000   1.0000   1.0000   1.0000
     1.0000   1.0000   1.0000   1.0000   1.0000   1.0000   1.0000   1.0000
     1.0000   1.0000   1.0000   1.0000   1.0000   1.0000   1.0000   1.0000
     1.0000   1.0000   1.0000   1.0000   1.0000   1.0000   1.0000   1.0000
     1.0000   1.0000   1.0000   1.0000   1.0000   1.0000   1.0000   1.0000
     1.0000   1.0000   1.0000   1.0000   1.0000   1.0000   1.0000   1.0000
     1.0000   1.0000   1.0000   1.0000   1.0000   1.0000   1.0000   1.0000
     1.0000   1.0000   1.0000   1.0000   0.9999   0.9999   0.9998   0.9990
     0.0006   0.0003   0.0001   0.0001   0.0000   0.0000   0.0000   0.0000
     0.0000   0.0000   0.0000   0.0000   0.0000   0.0000   0.0000   0.0000
     0.0000   0.0000   0.0000   0.0000   0.0000   0.0000   0.0000   0.0000
     0.0000   0.0000   0.0000   0.0000   0.0000   0.0000   0.0000   0.0000
     0.0000   0.0000   0.0000   0.0000   0.0000   0.0000   0.0000   0.0000
     0.0000   0.0000   0.0000   0.0000   0.0000   0.0000   0.0000   0.0000
     0.0000   0.0000   0.0000

          k =-0.7071 0.0000 0.0000 ( 60622 PWs)   bands (ev):

    -5.5925  -5.5792  -5.3503  -5.3161  -5.3006  -5.2926  -4.5946  -4.5870
    -4.5770  -4.5384  -4.5183  -4.4838  -4.4781  -4.4650  -4.3462  -4.3328
    -4.3193  -4.3030  -4.2913  -4.2620  -4.2294  -4.2163  -3.7613  -3.7199
    -3.7054  -3.6876  -3.6778  -3.6577  -3.6043  -3.5926  -3.4719  -3.4313
    -3.3257  -3.3001  -3.2842  -3.2495  -3.2226  -3.2095  -3.2068  -3.1898
    -3.0220  -3.0115  -2.9987  -2.9806  -2.9344  -2.9338  -2.9133  -2.8944
    -2.7759  -2.7552  -2.7484  -2.7115  -2.7004  -2.6837  -2.6431  -2.6351
    -2.1467  -2.1140  -2.0810  -2.0610  -1.6892  -1.6701  -1.6380  -1.6180
    -1.6101  -1.5884  -1.5321  -1.5234  -1.1345  -1.1110  -1.1041  -1.0621
    -0.7423  -0.7136  -0.7042  -0.6918  -0.6786  -0.6604  -0.6377  -0.6203
    -0.5159  -0.4958  -0.4685  -0.4435  -0.4313  -0.4269  -0.4060  -0.3806
    -0.3292  -0.3174  -0.2791  -0.2617  -0.2479  -0.2409  -0.1931  -0.1784
     0.1067   0.1207   0.1344   0.1640   0.1771   0.2166   0.2278   0.2443
     0.3895   0.4136   0.7674   0.7691   0.8009   0.8332   0.8520   0.8543
     0.8881   0.9092   1.7218   1.7459   1.7605   1.7647   1.7805   1.7878
     1.7981   1.8109   1.8191   1.8286   1.8356   1.8458   1.8540   1.8632
     1.8762   1.8913   1.8953   1.9153   1.9363   1.9733   2.5964   2.6038
     2.6085   2.6194   2.6233   2.6345   2.6447   2.6517   2.6567   2.6581
     2.6699   2.6817   2.6893   2.7075   2.7095   2.7191   2.7285   2.7358
     2.7441   2.7523   2.7612   2.7625   2.7765   2.7956   3.2810   3.2935
     3.2990   3.3120   3.3209   3.3317   3.3427   3.3481   3.3552   3.3668
     3.3737   3.3806   3.3900   3.3946   3.4123   3.4136   3.4290   3.4375
     3.4443   3.4641   3.4774   3.4794   3.4811   3.5117   3.5161   3.5225
     3.5330   3.5475   3.5560   3.5597   3.5738   3.5776   3.6059   3.6328
     3.6434   3.6479   3.6713   3.6883   3.6900   3.6959   3.7072   3.7237
     3.7415   3.7668   3.9087   3.9165   3.9509   3.9626   3.9792   3.9845
     3.9968   4.0041   4.2184   4.2449   4.2694   4.2849   4.3051   4.3062
     4.3181   4.3504   4.4648   4.4723   4.4789   4.4899   4.5035   4.5096
     4.5329   4.5374   4.5678   4.5755   4.5969   4.6201   4.6495   4.6522
     4.6850   4.7050   4.7288   4.7390   4.7623   4.7838   4.8090   4.8175
     4.8368   4.8651   4.8724   4.8751   4.9192   4.9298   4.9352   4.9884
     5.3249   5.3386   5.3556   5.3698   5.8206   5.8712   5.8871   5.8935
     6.6344   6.6507   7.2117   7.2198   7.2270   7.2331   7.5388   7.5489
     7.9108   7.9190   7.9229   7.9381   7.9670   7.9732   7.9833   7.9915
     7.9992   8.0066   8.0168   8.0251   8.0321   8.0380   8.0576   8.0658
     8.0961   8.1009   8.2569   8.2611   8.2734   8.2933   8.3028   8.3157
     8.3190   8.3326   8.3698   8.3875   8.4077   8.4143   8.4168   8.4261
     8.4382   8.4417   8.4760   8.4835   8.4987   8.5108   8.5247   8.5348
     8.5553   8.5658   8.6345

     occupation numbers 
     1.0000   1.0000   1.0000   1.0000   1.0000   1.0000   1.0000   1.0000
     1.0000   1.0000   1.0000   1.0000   1.0000   1.0000   1.0000   1.0000
     1.0000   1.0000   1.0000   1.0000   1.0000   1.0000   1.0000   1.0000
     1.0000   1.0000   1.0000   1.0000   1.0000   1.0000   1.0000   1.0000
     1.0000   1.0000   1.0000   1.0000   1.0000   1.0000   1.0000   1.0000
     1.0000   1.0000   1.0000   1.0000   1.0000   1.0000   1.0000   1.0000
     1.0000   1.0000   1.0000   1.0000   1.0000   1.0000   1.0000   1.0000
     1.0000   1.0000   1.0000   1.0000   1.0000   1.0000   1.0000   1.0000
     1.0000   1.0000   1.0000   1.0000   1.0000   1.0000   1.0000   1.0000
     1.0000   1.0000   1.0000   1.0000   1.0000   1.0000   1.0000   1.0000
     1.0000   1.0000   1.0000   1.0000   1.0000   1.0000   1.0000   1.0000
     1.0000   1.0000   1.0000   1.0000   1.0000   1.0000   1.0000   1.0000
     1.0000   1.0000   1.0000   1.0000   1.0000   1.0000   1.0000   1.0000
     1.0000   1.0000   1.0000   1.0000   1.0000   1.0000   1.0000   1.0000
     1.0000   1.0000   1.0000   1.0000   1.0000   1.0000   1.0000   1.0000
     1.0000   1.0000   1.0000   1.0000   1.0000   1.0000   1.0000   1.0000
     1.0000   1.0000   1.0000   1.0000   1.0000   1.0000   1.0000   1.0000
     1.0000   1.0000   1.0000   1.0000   1.0000   1.0000   1.0000   1.0000
     1.0000   1.0000   1.0000   1.0000   1.0000   1.0000   1.0000   1.0000
     1.0000   1.0000   1.0000   1.0000   1.0000   1.0000   1.0000   1.0000
     1.0000   1.0000   1.0000   1.0000   1.0000   1.0000   1.0000   1.0000
     1.0000   1.0000   1.0000   1.0000   1.0000   1.0000   1.0000   1.0000
     1.0000   1.0000   1.0000   1.0000   1.0000   1.0000   1.0000   1.0000
     1.0000   1.0000   1.0000   1.0000   1.0000   1.0000   1.0000   1.0000
     1.0000   1.0000   1.0000   1.0000   1.0000   1.0000   1.0000   1.0000
     1.0000   1.0000   1.0000   1.0000   1.0000   1.0000   1.0000   1.0000
     1.0000   1.0000   1.0000   1.0000   1.0000   1.0000   1.0000   1.0000
     1.0000   1.0000   1.0000   1.0000   1.0000   1.0000   1.0000   1.0000
     1.0000   1.0000   1.0000   1.0000   1.0000   1.0000   1.0000   1.0000
     1.0000   1.0000   1.0000   1.0000   1.0000   1.0000   1.0000   1.0000
     1.0000   1.0000   1.0000   1.0000   1.0000   1.0000   1.0000   1.0000
     1.0000   1.0000   1.0000   1.0000   0.9999   0.9998   0.9996   0.9996
     0.0353   0.0274   0.0000   0.0000   0.0000   0.0000   0.0000   0.0000
     0.0000   0.0000   0.0000   0.0000   0.0000   0.0000   0.0000   0.0000
     0.0000   0.0000   0.0000   0.0000   0.0000   0.0000   0.0000   0.0000
     0.0000   0.0000   0.0000   0.0000   0.0000   0.0000   0.0000   0.0000
     0.0000   0.0000   0.0000   0.0000   0.0000   0.0000   0.0000   0.0000
     0.0000   0.0000   0.0000   0.0000   0.0000   0.0000   0.0000   0.0000
     0.0000   0.0000   0.0000

          k = 0.3536 0.3536 0.3536 ( 60452 PWs)   bands (ev):

    -5.6648  -5.6410  -5.1658  -5.1453  -5.1247  -5.1042  -5.0805  -5.0697
    -4.6540  -4.6237  -4.6121  -4.5932  -4.5769  -4.5721  -4.1770  -4.1587
    -4.1015  -4.0750  -4.0671  -4.0438  -4.0284  -4.0178  -3.7023  -3.6892
    -3.6773  -3.6628  -3.6432  -3.6404  -3.6352  -3.6071  -3.5975  -3.5904
    -3.5824  -3.5572  -3.4601  -3.4346  -3.4252  -3.3929  -3.3838  -3.3456
    -2.9569  -2.9424  -2.9101  -2.9027  -2.8802  -2.8532  -2.6095  -2.5911
    -2.5754  -2.5429  -2.5287  -2.5125  -2.4218  -2.4088  -2.4007  -2.3829
    -2.3716  -2.3552  -2.3517  -2.3475  -2.3226  -2.3043  -2.2888  -2.2641
    -0.9335  -0.8728  -0.8702  -0.8437  -0.8343  -0.8238  -0.8169  -0.8082
    -0.7882  -0.7826  -0.7691  -0.7585  -0.7431  -0.7261  -0.7186  -0.6924
    -0.6830  -0.6760  -0.6561  -0.6204  -0.6099  -0.5970  -0.5822  -0.5640
    -0.5565  -0.5428  -0.5311  -0.4959  -0.4940  -0.4728   0.1376   0.1503
     0.2021   0.2411   0.2515   0.2643   0.2744   0.2892   0.2997   0.3075
     0.3171   0.3369   0.3536   0.3620   1.1328   1.1720   1.1793   1.1891
     1.1960   1.2197   1.4459   1.4654   1.4802   1.4881   1.5262   1.5439
     1.9621   1.9767   1.9875   1.9978   2.0086   2.0138   2.0268   2.0336
     2.0443   2.0501   2.0581   2.0674   2.0961   2.1015   2.1194   2.1250
     2.1313   2.1437   2.6165   2.6247   2.6452   2.6568   2.6677   2.6733
     2.7087   2.7198   2.7398   2.7587   2.7634   2.7881   2.7888   2.7901
     2.7996   2.8135   2.8165   2.8270   2.8967   2.9031   2.9143   2.9257
     2.9402   2.9483   3.0882   3.1002   3.1142   3.1232   3.1287   3.1309
     3.1569   3.1607   3.1771   3.1804   3.1884   3.1948   3.3762   3.4094
     3.4177   3.4281   3.4335   3.4426   3.4468   3.4514   3.4789   3.4838
     3.4905   3.4988   3.7269   3.7496   3.7793   3.7811   3.7907   3.7974
     3.8051   3.8283   3.8362   3.8466   3.8616   3.8623   3.8800   3.9054
     3.9138   3.9314   3.9530   3.9651   4.1118   4.1299   4.1424   4.1607
     4.1636   4.1743   4.1860   4.2003   4.2088   4.2222   4.2257   4.2350
     4.2447   4.2571   4.2657   4.2884   4.2944   4.3012   4.5000   4.5093
     4.5473   4.5513   4.5690   4.5923   4.6130   4.6291   4.7831   4.7925
     4.8100   4.8163   4.8450   4.8531   4.8565   4.8806   4.8876   4.9030
     4.9217   4.9462   5.0177   5.0487   5.0836   5.1412   5.3305   5.3763
     5.3856   5.4036   5.4326   5.4440   5.8114   5.8773   5.8893   5.9420
     6.8736   6.8926   6.9108   6.9190   6.9535   6.9794   7.3315   7.3661
     7.3835   7.3916   7.4276   7.4318   7.7090   7.7288   7.8207   7.8572
     7.8732   7.8758   7.9052   7.9190   7.9579   7.9684   7.9908   7.9956
     8.0101   8.0360   8.1712   8.1870   8.1908   8.1974   8.2031   8.2218
     8.2251   8.2352   8.2608   8.2674   8.2965   8.3065   8.3631   8.3819
     8.3882   8.4092   8.4174   8.4213   8.4412   8.4419   8.4488   8.4666
     8.4711   8.4797   8.5879

     occupation numbers 
     1.0000   1.0000   1.0000   1.0000   1.0000   1.0000   1.0000   1.0000
     1.0000   1.0000   1.0000   1.0000   1.0000   1.0000   1.0000   1.0000
     1.0000   1.0000   1.0000   1.0000   1.0000   1.0000   1.0000   1.0000
     1.0000   1.0000   1.0000   1.0000   1.0000   1.0000   1.0000   1.0000
     1.0000   1.0000   1.0000   1.0000   1.0000   1.0000   1.0000   1.0000
     1.0000   1.0000   1.0000   1.0000   1.0000   1.0000   1.0000   1.0000
     1.0000   1.0000   1.0000   1.0000   1.0000   1.0000   1.0000   1.0000
     1.0000   1.0000   1.0000   1.0000   1.0000   1.0000   1.0000   1.0000
     1.0000   1.0000   1.0000   1.0000   1.0000   1.0000   1.0000   1.0000
     1.0000   1.0000   1.0000   1.0000   1.0000   1.0000   1.0000   1.0000
     1.0000   1.0000   1.0000   1.0000   1.0000   1.0000   1.0000   1.0000
     1.0000   1.0000   1.0000   1.0000   1.0000   1.0000   1.0000   1.0000
     1.0000   1.0000   1.0000   1.0000   1.0000   1.0000   1.0000   1.0000
     1.0000   1.0000   1.0000   1.0000   1.0000   1.0000   1.0000   1.0000
     1.0000   1.0000   1.0000   1.0000   1.0000   1.0000   1.0000   1.0000
     1.0000   1.0000   1.0000   1.0000   1.0000   1.0000   1.0000   1.0000
     1.0000   1.0000   1.0000   1.0000   1.0000   1.0000   1.0000   1.0000
     1.0000   1.0000   1.0000   1.0000   1.0000   1.0000   1.0000   1.0000
     1.0000   1.0000   1.0000   1.0000   1.0000   1.0000   1.0000   1.0000
     1.0000   1.0000   1.0000   1.0000   1.0000   1.0000   1.0000   1.0000
     1.0000   1.0000   1.0000   1.0000   1.0000   1.0000   1.0000   1.0000
     1.0000   1.0000   1.0000   1.0000   1.0000   1.0000   1.0000   1.0000
     1.0000   1.0000   1.0000   1.0000   1.0000   1.0000   1.0000   1.0000
     1.0000   1.0000   1.0000   1.0000   1.0000   1.0000   1.0000   1.0000
     1.0000   1.0000   1.0000   1.0000   1.0000   1.0000   1.0000   1.0000
     1.0000   1.0000   1.0000   1.0000   1.0000   1.0000   1.0000   1.0000
     1.0000   1.0000   1.0000   1.0000   1.0000   1.0000   1.0000   1.0000
     1.0000   1.0000   1.0000   1.0000   1.0000   1.0000   1.0000   1.0000
     1.0000   1.0000   1.0000   1.0000   1.0000   1.0000   1.0000   1.0000
     1.0000   1.0000   1.0000   1.0000   1.0000   1.0000   1.0000   1.0000
     1.0000   1.0000   1.0000   1.0000   1.0000   1.0000   1.0000   1.0000
     1.0000   1.0000   1.0000   1.0000   1.0000   0.9997   0.9996   0.9986
     0.0003   0.0002   0.0001   0.0001   0.0000   0.0000   0.0000   0.0000
     0.0000   0.0000   0.0000   0.0000   0.0000   0.0000   0.0000   0.0000
     0.0000   0.0000   0.0000   0.0000   0.0000   0.0000   0.0000   0.0000
     0.0000   0.0000   0.0000   0.0000   0.0000   0.0000   0.0000   0.0000
     0.0000   0.0000   0.0000   0.0000   0.0000   0.0000   0.0000   0.0000
     0.0000   0.0000   0.0000   0.0000   0.0000   0.0000   0.0000   0.0000
     0.0000   0.0000   0.0000

          k = 0.3536-0.3536-0.3536 ( 60452 PWs)   bands (ev):

    -5.6663  -5.6402  -5.1496  -5.1323  -5.1281  -5.1265  -5.0869  -5.0684
    -4.6431  -4.6301  -4.6179  -4.5921  -4.5775  -4.5560  -4.1859  -4.1591
    -4.1038  -4.0882  -4.0801  -4.0580  -4.0266  -4.0126  -3.7146  -3.6925
    -3.6775  -3.6563  -3.6474  -3.6456  -3.6311  -3.6229  -3.5829  -3.5664
    -3.5590  -3.5263  -3.4608  -3.4421  -3.4259  -3.4007  -3.3664  -3.3245
    -2.9565  -2.9454  -2.9396  -2.9088  -2.8996  -2.8901  -2.6035  -2.5861
    -2.5706  -2.5508  -2.5244  -2.4706  -2.4472  -2.4186  -2.3988  -2.3848
    -2.3703  -2.3608  -2.3466  -2.3313  -2.3282  -2.3069  -2.2713  -2.2618
    -0.9190  -0.8828  -0.8738  -0.8588  -0.8427  -0.8342  -0.8155  -0.8035
    -0.7917  -0.7869  -0.7772  -0.7603  -0.7381  -0.7351  -0.7281  -0.7154
    -0.6962  -0.6786  -0.6568  -0.6512  -0.6255  -0.6065  -0.5719  -0.5602
    -0.5478  -0.5295  -0.4982  -0.4752  -0.4503  -0.4170   0.1548   0.1963
     0.2026   0.2147   0.2295   0.2518   0.2676   0.2822   0.2877   0.2954
     0.3096   0.3233   0.3304   0.3561   1.1442   1.1605   1.1976   1.2182
     1.2376   1.2491   1.4346   1.4526   1.4940   1.5134   1.5164   1.5274
     1.9757   1.9807   1.9882   1.9989   2.0069   2.0129   2.0232   2.0267
     2.0357   2.0529   2.0606   2.0741   2.0832   2.0950   2.1000   2.1208
     2.1282   2.1376   2.6316   2.6435   2.6562   2.6675   2.6719   2.7002
     2.7101   2.7225   2.7360   2.7465   2.7555   2.7724   2.7742   2.7778
     2.7886   2.7943   2.8049   2.8389   2.8511   2.8632   2.8898   2.9043
     2.9223   2.9429   3.1039   3.1084   3.1147   3.1232   3.1387   3.1425
     3.1445   3.1590   3.1696   3.1812   3.1858   3.1966   3.3824   3.3967
     3.4055   3.4156   3.4195   3.4292   3.4394   3.4444   3.4596   3.4649
     3.4760   3.4862   3.7342   3.7645   3.7662   3.7754   3.7886   3.8111
     3.8297   3.8438   3.8478   3.8578   3.8813   3.8969   3.9025   3.9103
     3.9270   3.9348   3.9553   3.9587   4.1142   4.1240   4.1556   4.1613
     4.1733   4.1941   4.2081   4.2186   4.2289   4.2314   4.2445   4.2522
     4.2530   4.2730   4.2816   4.3050   4.3080   4.3191   4.5004   4.5248
     4.5407   4.5508   4.5747   4.5845   4.5987   4.6166   4.7665   4.7789
     4.7943   4.8121   4.8286   4.8435   4.8701   4.9031   4.9310   4.9451
     4.9773   4.9941   5.0063   5.0619   5.0719   5.1000   5.3264   5.3486
     5.3630   5.3653   5.3942   5.4208   5.7837   5.8668   5.8884   5.8912
     6.8404   6.8747   6.9149   6.9277   6.9397   6.9527   7.3429   7.3584
     7.3803   7.3864   7.4238   7.4271   7.6975   7.7203   7.8217   7.8416
     7.8555   7.8696   7.8943   7.8995   7.9616   7.9638   7.9967   8.0102
     8.0355   8.0592   8.1507   8.1646   8.1843   8.1927   8.2137   8.2255
     8.2322   8.2397   8.2466   8.2591   8.2665   8.2878   8.3790   8.3935
     8.4039   8.4073   8.4209   8.4397   8.4470   8.4581   8.4635   8.4718
     8.4890   8.5119   8.5574

     occupation numbers 
     1.0000   1.0000   1.0000   1.0000   1.0000   1.0000   1.0000   1.0000
     1.0000   1.0000   1.0000   1.0000   1.0000   1.0000   1.0000   1.0000
     1.0000   1.0000   1.0000   1.0000   1.0000   1.0000   1.0000   1.0000
     1.0000   1.0000   1.0000   1.0000   1.0000   1.0000   1.0000   1.0000
     1.0000   1.0000   1.0000   1.0000   1.0000   1.0000   1.0000   1.0000
     1.0000   1.0000   1.0000   1.0000   1.0000   1.0000   1.0000   1.0000
     1.0000   1.0000   1.0000   1.0000   1.0000   1.0000   1.0000   1.0000
     1.0000   1.0000   1.0000   1.0000   1.0000   1.0000   1.0000   1.0000
     1.0000   1.0000   1.0000   1.0000   1.0000   1.0000   1.0000   1.0000
     1.0000   1.0000   1.0000   1.0000   1.0000   1.0000   1.0000   1.0000
     1.0000   1.0000   1.0000   1.0000   1.0000   1.0000   1.0000   1.0000
     1.0000   1.0000   1.0000   1.0000   1.0000   1.0000   1.0000   1.0000
     1.0000   1.0000   1.0000   1.0000   1.0000   1.0000   1.0000   1.0000
     1.0000   1.0000   1.0000   1.0000   1.0000   1.0000   1.0000   1.0000
     1.0000   1.0000   1.0000   1.0000   1.0000   1.0000   1.0000   1.0000
     1.0000   1.0000   1.0000   1.0000   1.0000   1.0000   1.0000   1.0000
     1.0000   1.0000   1.0000   1.0000   1.0000   1.0000   1.0000   1.0000
     1.0000   1.0000   1.0000   1.0000   1.0000   1.0000   1.0000   1.0000
     1.0000   1.0000   1.0000   1.0000   1.0000   1.0000   1.0000   1.0000
     1.0000   1.0000   1.0000   1.0000   1.0000   1.0000   1.0000   1.0000
     1.0000   1.0000   1.0000   1.0000   1.0000   1.0000   1.0000   1.0000
     1.0000   1.0000   1.0000   1.0000   1.0000   1.0000   1.0000   1.0000
     1.0000   1.0000   1.0000   1.0000   1.0000   1.0000   1.0000   1.0000
     1.0000   1.0000   1.0000   1.0000   1.0000   1.0000   1.0000   1.0000
     1.0000   1.0000   1.0000   1.0000   1.0000   1.0000   1.0000   1.0000
     1.0000   1.0000   1.0000   1.0000   1.0000   1.0000   1.0000   1.0000
     1.0000   1.0000   1.0000   1.0000   1.0000   1.0000   1.0000   1.0000
     1.0000   1.0000   1.0000   1.0000   1.0000   1.0000   1.0000   1.0000
     1.0000   1.0000   1.0000   1.0000   1.0000   1.0000   1.0000   1.0000
     1.0000   1.0000   1.0000   1.0000   1.0000   1.0000   1.0000   1.0000
     1.0000   1.0000   1.0000   1.0000   1.0000   1.0000   1.0000   1.0000
     1.0000   1.0000   1.0000   1.0000   1.0000   0.9998   0.9996   0.9996
     0.0006   0.0003   0.0001   0.0001   0.0000   0.0000   0.0000   0.0000
     0.0000   0.0000   0.0000   0.0000   0.0000   0.0000   0.0000   0.0000
     0.0000   0.0000   0.0000   0.0000   0.0000   0.0000   0.0000   0.0000
     0.0000   0.0000   0.0000   0.0000   0.0000   0.0000   0.0000   0.0000
     0.0000   0.0000   0.0000   0.0000   0.0000   0.0000   0.0000   0.0000
     0.0000   0.0000   0.0000   0.0000   0.0000   0.0000   0.0000   0.0000
     0.0000   0.0000   0.0000

          k =-0.3536 0.3536-0.3536 ( 60452 PWs)   bands (ev):

    -5.6617  -5.6436  -5.1707  -5.1479  -5.1147  -5.1024  -5.0837  -5.0749
    -4.6442  -4.6373  -4.6161  -4.5911  -4.5753  -4.5603  -4.1701  -4.1642
    -4.1169  -4.0699  -4.0598  -4.0498  -4.0227  -4.0010  -3.7171  -3.6997
    -3.6853  -3.6687  -3.6508  -3.6502  -3.6265  -3.6174  -3.6021  -3.5673
    -3.5639  -3.5487  -3.4775  -3.4420  -3.4180  -3.4006  -3.3741  -3.3587
    -2.9659  -2.9292  -2.9037  -2.8899  -2.8590  -2.8463  -2.6389  -2.5886
    -2.5685  -2.5412  -2.5200  -2.4995  -2.4441  -2.4213  -2.4110  -2.3883
    -2.3806  -2.3657  -2.3477  -2.3360  -2.3320  -2.3059  -2.2669  -2.2529
    -0.9193  -0.8782  -0.8687  -0.8499  -0.8389  -0.8342  -0.8128  -0.8031
    -0.7923  -0.7730  -0.7677  -0.7569  -0.7508  -0.7243  -0.7036  -0.6830
    -0.6787  -0.6672  -0.6530  -0.6210  -0.6036  -0.5955  -0.5900  -0.5855
    -0.5581  -0.5565  -0.5372  -0.5025  -0.4860  -0.4820   0.1244   0.1424
     0.2003   0.2316   0.2436   0.2687   0.2764   0.2946   0.3150   0.3195
     0.3275   0.3399   0.3447   0.3866   1.1252   1.1345   1.1541   1.1636
     1.1943   1.2475   1.4485   1.4802   1.4869   1.5090   1.5164   1.5304
     1.9635   1.9814   1.9828   2.0011   2.0040   2.0134   2.0251   2.0379
     2.0435   2.0493   2.0604   2.0795   2.0944   2.1180   2.1214   2.1247
     2.1390   2.1546   2.6084   2.6153   2.6435   2.6568   2.6608   2.6666
     2.7242   2.7396   2.7515   2.7548   2.7587   2.7749   2.7855   2.7874
     2.8105   2.8196   2.8273   2.8415   2.8657   2.9158   2.9238   2.9441
     2.9529   2.9608   3.0873   3.1057   3.1208   3.1247   3.1298   3.1345
     3.1444   3.1521   3.1645   3.1665   3.1786   3.1981   3.3879   3.4145
     3.4191   3.4289   3.4333   3.4416   3.4524   3.4538   3.4733   3.4833
     3.4945   3.5191   3.7206   3.7240   3.7514   3.7672   3.7775   3.7889
     3.8002   3.8075   3.8304   3.8434   3.8630   3.8741   3.9078   3.9150
     3.9229   3.9307   3.9386   3.9641   4.0945   4.1100   4.1222   4.1405
     4.1495   4.1650   4.1750   4.1848   4.1902   4.2107   4.2402   4.2450
     4.2586   4.2624   4.2721   4.2810   4.3050   4.3161   4.4859   4.5039
     4.5590   4.5768   4.5870   4.5995   4.6174   4.6326   4.7834   4.7930
     4.8172   4.8246   4.8315   4.8394   4.8568   4.8602   4.8717   4.9126
     4.9223   4.9388   5.0311   5.0591   5.0888   5.1139   5.3699   5.3870
     5.4006   5.4110   5.4146   5.4442   5.8444   5.8652   5.9049   5.9319
     6.8796   6.8996   6.9236   6.9325   6.9453   6.9897   7.3329   7.3656
     7.3874   7.4042   7.4326   7.4401   7.7134   7.7335   7.8418   7.8546
     7.8716   7.8749   7.9049   7.9385   7.9512   7.9564   7.9796   8.0094
     8.0121   8.0353   8.1506   8.1726   8.1804   8.1996   8.2196   8.2391
     8.2454   8.2463   8.2627   8.2633   8.2785   8.3140   8.3538   8.3595
     8.3879   8.4040   8.4111   8.4181   8.4223   8.4384   8.4435   8.4595
     8.4656   8.4740   8.5801

     occupation numbers 
     1.0000   1.0000   1.0000   1.0000   1.0000   1.0000   1.0000   1.0000
     1.0000   1.0000   1.0000   1.0000   1.0000   1.0000   1.0000   1.0000
     1.0000   1.0000   1.0000   1.0000   1.0000   1.0000   1.0000   1.0000
     1.0000   1.0000   1.0000   1.0000   1.0000   1.0000   1.0000   1.0000
     1.0000   1.0000   1.0000   1.0000   1.0000   1.0000   1.0000   1.0000
     1.0000   1.0000   1.0000   1.0000   1.0000   1.0000   1.0000   1.0000
     1.0000   1.0000   1.0000   1.0000   1.0000   1.0000   1.0000   1.0000
     1.0000   1.0000   1.0000   1.0000   1.0000   1.0000   1.0000   1.0000
     1.0000   1.0000   1.0000   1.0000   1.0000   1.0000   1.0000   1.0000
     1.0000   1.0000   1.0000   1.0000   1.0000   1.0000   1.0000   1.0000
     1.0000   1.0000   1.0000   1.0000   1.0000   1.0000   1.0000   1.0000
     1.0000   1.0000   1.0000   1.0000   1.0000   1.0000   1.0000   1.0000
     1.0000   1.0000   1.0000   1.0000   1.0000   1.0000   1.0000   1.0000
     1.0000   1.0000   1.0000   1.0000   1.0000   1.0000   1.0000   1.0000
     1.0000   1.0000   1.0000   1.0000   1.0000   1.0000   1.0000   1.0000
     1.0000   1.0000   1.0000   1.0000   1.0000   1.0000   1.0000   1.0000
     1.0000   1.0000   1.0000   1.0000   1.0000   1.0000   1.0000   1.0000
     1.0000   1.0000   1.0000   1.0000   1.0000   1.0000   1.0000   1.0000
     1.0000   1.0000   1.0000   1.0000   1.0000   1.0000   1.0000   1.0000
     1.0000   1.0000   1.0000   1.0000   1.0000   1.0000   1.0000   1.0000
     1.0000   1.0000   1.0000   1.0000   1.0000   1.0000   1.0000   1.0000
     1.0000   1.0000   1.0000   1.0000   1.0000   1.0000   1.0000   1.0000
     1.0000   1.0000   1.0000   1.0000   1.0000   1.0000   1.0000   1.0000
     1.0000   1.0000   1.0000   1.0000   1.0000   1.0000   1.0000   1.0000
     1.0000   1.0000   1.0000   1.0000   1.0000   1.0000   1.0000   1.0000
     1.0000   1.0000   1.0000   1.0000   1.0000   1.0000   1.0000   1.0000
     1.0000   1.0000   1.0000   1.0000   1.0000   1.0000   1.0000   1.0000
     1.0000   1.0000   1.0000   1.0000   1.0000   1.0000   1.0000   1.0000
     1.0000   1.0000   1.0000   1.0000   1.0000   1.0000   1.0000   1.0000
     1.0000   1.0000   1.0000   1.0000   1.0000   1.0000   1.0000   1.0000
     1.0000   1.0000   1.0000   1.0000   1.0000   1.0000   1.0000   1.0000
     1.0000   1.0000   1.0000   1.0000   0.9999   0.9998   0.9994   0.9989
     0.0002   0.0001   0.0001   0.0001   0.0000   0.0000   0.0000   0.0000
     0.0000   0.0000   0.0000   0.0000   0.0000   0.0000   0.0000   0.0000
     0.0000   0.0000   0.0000   0.0000   0.0000   0.0000   0.0000   0.0000
     0.0000   0.0000   0.0000   0.0000   0.0000   0.0000   0.0000   0.0000
     0.0000   0.0000   0.0000   0.0000   0.0000   0.0000   0.0000   0.0000
     0.0000   0.0000   0.0000   0.0000   0.0000   0.0000   0.0000   0.0000
     0.0000   0.0000   0.0000

          k = 0.0000-0.7071 0.0000 ( 60622 PWs)   bands (ev):

    -5.6001  -5.5716  -5.3342  -5.3280  -5.3109  -5.2860  -4.6088  -4.5746
    -4.5631  -4.5416  -4.5396  -4.5023  -4.4737  -4.4410  -4.3493  -4.3270
    -4.3163  -4.2874  -4.2812  -4.2507  -4.2479  -4.2422  -3.7676  -3.7208
    -3.7098  -3.6960  -3.6643  -3.6308  -3.6217  -3.5855  -3.4809  -3.4162
    -3.3084  -3.2893  -3.2635  -3.2518  -3.2452  -3.2355  -3.2205  -3.2008
    -3.0108  -2.9936  -2.9744  -2.9665  -2.9630  -2.9445  -2.9282  -2.9013
    -2.7895  -2.7557  -2.7335  -2.7262  -2.7045  -2.6641  -2.6453  -2.6329
    -2.1415  -2.1035  -2.0907  -2.0524  -1.6905  -1.6696  -1.6390  -1.6130
    -1.5889  -1.5694  -1.5644  -1.5464  -1.1426  -1.1163  -1.0856  -1.0607
    -0.7582  -0.7190  -0.6957  -0.6891  -0.6781  -0.6620  -0.6423  -0.6291
    -0.4899  -0.4746  -0.4603  -0.4531  -0.4383  -0.4184  -0.4061  -0.3878
    -0.3261  -0.3190  -0.3093  -0.2889  -0.2356  -0.2285  -0.2074  -0.1685
     0.1123   0.1546   0.1664   0.1737   0.1826   0.1922   0.2113   0.2253
     0.3745   0.4216   0.7856   0.8005   0.8182   0.8310   0.8350   0.8500
     0.8665   0.8853   1.7375   1.7424   1.7523   1.7598   1.7718   1.7884
     1.7917   1.7999   1.8236   1.8277   1.8459   1.8508   1.8593   1.8688
     1.8709   1.8939   1.8949   1.9158   1.9336   1.9664   2.5826   2.5894
     2.5949   2.6128   2.6250   2.6374   2.6491   2.6540   2.6618   2.6679
     2.6805   2.6851   2.6921   2.6994   2.7050   2.7137   2.7284   2.7402
     2.7483   2.7525   2.7607   2.7753   2.7835   2.7979   3.2750   3.2882
     3.2911   3.3101   3.3275   3.3289   3.3375   3.3424   3.3532   3.3619
     3.3644   3.3745   3.3855   3.3907   3.4011   3.4178   3.4224   3.4407
     3.4470   3.4609   3.4696   3.5041   3.5134   3.5179   3.5280   3.5392
     3.5470   3.5488   3.5581   3.5646   3.5779   3.5880   3.6063   3.6153
     3.6432   3.6545   3.6659   3.6780   3.6964   3.7047   3.7205   3.7280
     3.7304   3.7388   3.9223   3.9438   3.9466   3.9611   3.9679   3.9789
     3.9833   3.9934   4.2570   4.2682   4.2749   4.2796   4.3063   4.3115
     4.3242   4.3325   4.4337   4.4407   4.4660   4.4860   4.5023   4.5300
     4.5463   4.5535   4.5638   4.5742   4.5920   4.6225   4.6689   4.6835
     4.6943   4.6994   4.7160   4.7211   4.7468   4.7581   4.7781   4.7988
     4.8376   4.8557   4.8746   4.8928   4.9370   4.9397   4.9558   4.9632
     5.2668   5.3359   5.3570   5.4178   5.8016   5.8548   5.8934   5.9313
     6.6177   6.6639   7.1814   7.2158   7.2432   7.2572   7.5243   7.5675
     7.8972   7.9340   7.9417   7.9465   7.9573   7.9737   7.9785   7.9891
     7.9949   8.0106   8.0116   8.0154   8.0286   8.0375   8.0554   8.0726
     8.0984   8.1035   8.2303   8.2623   8.2758   8.2861   8.3042   8.3082
     8.3253   8.3474   8.3510   8.3817   8.4112   8.4168   8.4291   8.4424
     8.4450   8.4587   8.4737   8.4799   8.5010   8.5159   8.5246   8.5323
     8.5487   8.5630   8.6356

     occupation numbers 
     1.0000   1.0000   1.0000   1.0000   1.0000   1.0000   1.0000   1.0000
     1.0000   1.0000   1.0000   1.0000   1.0000   1.0000   1.0000   1.0000
     1.0000   1.0000   1.0000   1.0000   1.0000   1.0000   1.0000   1.0000
     1.0000   1.0000   1.0000   1.0000   1.0000   1.0000   1.0000   1.0000
     1.0000   1.0000   1.0000   1.0000   1.0000   1.0000   1.0000   1.0000
     1.0000   1.0000   1.0000   1.0000   1.0000   1.0000   1.0000   1.0000
     1.0000   1.0000   1.0000   1.0000   1.0000   1.0000   1.0000   1.0000
     1.0000   1.0000   1.0000   1.0000   1.0000   1.0000   1.0000   1.0000
     1.0000   1.0000   1.0000   1.0000   1.0000   1.0000   1.0000   1.0000
     1.0000   1.0000   1.0000   1.0000   1.0000   1.0000   1.0000   1.0000
     1.0000   1.0000   1.0000   1.0000   1.0000   1.0000   1.0000   1.0000
     1.0000   1.0000   1.0000   1.0000   1.0000   1.0000   1.0000   1.0000
     1.0000   1.0000   1.0000   1.0000   1.0000   1.0000   1.0000   1.0000
     1.0000   1.0000   1.0000   1.0000   1.0000   1.0000   1.0000   1.0000
     1.0000   1.0000   1.0000   1.0000   1.0000   1.0000   1.0000   1.0000
     1.0000   1.0000   1.0000   1.0000   1.0000   1.0000   1.0000   1.0000
     1.0000   1.0000   1.0000   1.0000   1.0000   1.0000   1.0000   1.0000
     1.0000   1.0000   1.0000   1.0000   1.0000   1.0000   1.0000   1.0000
     1.0000   1.0000   1.0000   1.0000   1.0000   1.0000   1.0000   1.0000
     1.0000   1.0000   1.0000   1.0000   1.0000   1.0000   1.0000   1.0000
     1.0000   1.0000   1.0000   1.0000   1.0000   1.0000   1.0000   1.0000
     1.0000   1.0000   1.0000   1.0000   1.0000   1.0000   1.0000   1.0000
     1.0000   1.0000   1.0000   1.0000   1.0000   1.0000   1.0000   1.0000
     1.0000   1.0000   1.0000   1.0000   1.0000   1.0000   1.0000   1.0000
     1.0000   1.0000   1.0000   1.0000   1.0000   1.0000   1.0000   1.0000
     1.0000   1.0000   1.0000   1.0000   1.0000   1.0000   1.0000   1.0000
     1.0000   1.0000   1.0000   1.0000   1.0000   1.0000   1.0000   1.0000
     1.0000   1.0000   1.0000   1.0000   1.0000   1.0000   1.0000   1.0000
     1.0000   1.0000   1.0000   1.0000   1.0000   1.0000   1.0000   1.0000
     1.0000   1.0000   1.0000   1.0000   1.0000   1.0000   1.0000   1.0000
     1.0000   1.0000   1.0000   1.0000   1.0000   1.0000   1.0000   1.0000
     1.0000   1.0000   1.0000   1.0000   1.0000   0.9998   0.9996   0.9989
     0.0453   0.0221   0.0000   0.0000   0.0000   0.0000   0.0000   0.0000
     0.0000   0.0000   0.0000   0.0000   0.0000   0.0000   0.0000   0.0000
     0.0000   0.0000   0.0000   0.0000   0.0000   0.0000   0.0000   0.0000
     0.0000   0.0000   0.0000   0.0000   0.0000   0.0000   0.0000   0.0000
     0.0000   0.0000   0.0000   0.0000   0.0000   0.0000   0.0000   0.0000
     0.0000   0.0000   0.0000   0.0000   0.0000   0.0000   0.0000   0.0000
     0.0000   0.0000   0.0000

          k = 0.0000 0.0000-0.7071 ( 60622 PWs)   bands (ev):

    -5.6029  -5.5684  -5.3441  -5.3173  -5.3029  -5.2947  -4.5982  -4.5918
    -4.5614  -4.5414  -4.5233  -4.5015  -4.4872  -4.4487  -4.3703  -4.3146
    -4.3053  -4.2975  -4.2717  -4.2627  -4.2392  -4.2285  -3.7551  -3.7376
    -3.7065  -3.6772  -3.6564  -3.6502  -3.6122  -3.6030  -3.4593  -3.4406
    -3.3262  -3.2959  -3.2754  -3.2616  -3.2384  -3.2301  -3.2001  -3.1762
    -3.0399  -3.0151  -2.9859  -2.9698  -2.9595  -2.9329  -2.9042  -2.8872
    -2.7694  -2.7452  -2.7409  -2.7349  -2.6973  -2.6867  -2.6456  -2.6266
    -2.1468  -2.1041  -2.0779  -2.0616  -1.6846  -1.6595  -1.6498  -1.6202
    -1.6044  -1.5797  -1.5677  -1.5227  -1.1358  -1.1050  -1.1012  -1.0578
    -0.7417  -0.7177  -0.7078  -0.6967  -0.6855  -0.6543  -0.6430  -0.6130
    -0.4896  -0.4806  -0.4626  -0.4591  -0.4368  -0.4304  -0.4120  -0.3849
    -0.3249  -0.3140  -0.2834  -0.2622  -0.2481  -0.2294  -0.2067  -0.1937
     0.1243   0.1447   0.1573   0.1696   0.1827   0.1985   0.2047   0.2232
     0.3962   0.4017   0.7569   0.7854   0.8137   0.8217   0.8450   0.8586
     0.8702   0.9235   1.7282   1.7424   1.7487   1.7619   1.7680   1.7910
     1.7989   1.8173   1.8217   1.8248   1.8336   1.8403   1.8451   1.8770
     1.8849   1.8920   1.8992   1.9199   1.9462   1.9613   2.5871   2.5994
     2.6166   2.6202   2.6279   2.6439   2.6469   2.6559   2.6596   2.6699
     2.6853   2.6878   2.6910   2.6962   2.7038   2.7086   2.7236   2.7244
     2.7345   2.7487   2.7563   2.7673   2.7802   2.7987   3.2736   3.2831
     3.3076   3.3151   3.3255   3.3285   3.3370   3.3459   3.3560   3.3650
     3.3676   3.3761   3.3937   3.3998   3.4023   3.4088   3.4271   3.4294
     3.4499   3.4670   3.4814   3.4939   3.4983   3.5121   3.5160   3.5220
     3.5469   3.5482   3.5536   3.5656   3.5718   3.5850   3.6153   3.6241
     3.6340   3.6509   3.6610   3.6812   3.6998   3.7089   3.7158   3.7225
     3.7359   3.7545   3.9008   3.9222   3.9384   3.9703   3.9741   3.9812
     3.9930   4.0074   4.2266   4.2526   4.2619   4.2940   4.3050   4.3208
     4.3332   4.3541   4.4409   4.4648   4.4735   4.4820   4.4963   4.5077
     4.5267   4.5541   4.5690   4.5912   4.5975   4.6235   4.6636   4.6692
     4.6955   4.7013   4.7034   4.7135   4.7611   4.7651   4.7979   4.8144
[...]
     atom   77 type  1   force =   0.00000000E+00  0.00000000E+00  0.00000000E+00
     atom   78 type  1   force =   0.00000000E+00  0.00000000E+00  0.00000000E+00
     atom   79 type  1   force =   0.00000000E+00  0.00000000E+00  0.00000000E+00
     atom   80 type  1   force =   0.00000000E+00  0.00000000E+00  0.00000000E+00
     atom   81 type  1   force =   0.00000000E+00  0.00000000E+00  0.00000000E+00
     atom   82 type  1   force =   0.00000000E+00  0.00000000E+00  0.00000000E+00
     atom   83 type  1   force =   0.00000000E+00  0.00000000E+00  0.00000000E+00
     atom   84 type  1   force =   0.00000000E+00  0.00000000E+00  0.00000000E+00
     atom   85 type  1   force =   0.00000000E+00  0.00000000E+00  0.00000000E+00
     atom   86 type  1   force =   0.00000000E+00  0.00000000E+00  0.00000000E+00
     atom   87 type  1   force =   0.00000000E+00  0.00000000E+00  0.00000000E+00
     atom   88 type  1   force =   0.00000000E+00  0.00000000E+00  0.00000000E+00
     atom   89 type  1   force =   0.00000000E+00  0.00000000E+00  0.00000000E+00
     atom   90 type  1   force =   0.00000000E+00  0.00000000E+00  0.00000000E+00
     atom   91 type  1   force =   0.00000000E+00  0.00000000E+00  0.00000000E+00
     atom   92 type  1   force =   0.00000000E+00  0.00000000E+00  0.00000000E+00
     atom   93 type  1   force =   0.00000000E+00  0.00000000E+00  0.00000000E+00
     atom   94 type  1   force =   0.00000000E+00  0.00000000E+00  0.00000000E+00
     atom   95 type  1   force =   0.00000000E+00  0.00000000E+00  0.00000000E+00
     atom   96 type  1   force =   0.00000000E+00  0.00000000E+00  0.00000000E+00
     atom   97 type  1   force =   0.00000000E+00  0.00000000E+00  0.00000000E+00
     atom   98 type  1   force =   0.00000000E+00  0.00000000E+00  0.00000000E+00
     atom   99 type  1   force =   0.00000000E+00  0.00000000E+00  0.00000000E+00
     atom  100 type  1   force =   0.00000000E+00  0.00000000E+00  0.00000000E+00
     atom  101 type  1   force =   0.00000000E+00  0.00000000E+00  0.00000000E+00
     atom  102 type  1   force =   0.00000000E+00  0.00000000E+00  0.00000000E+00
     atom  103 type  1   force =   0.00000000E+00  0.00000000E+00  0.00000000E+00
     atom  104 type  1   force =   0.00000000E+00  0.00000000E+00  0.00000000E+00
     atom  105 type  1   force =   0.00000000E+00  0.00000000E+00  0.00000000E+00
     atom  106 type  1   force =   0.00000000E+00  0.00000000E+00  0.00000000E+00
     atom  107 type  1   force =   0.00000000E+00  0.00000000E+00  0.00000000E+00
     atom  108 type  1   force =   0.00000000E+00  0.00000000E+00  0.00000000E+00
     atom  109 type  1   force =   0.00000000E+00  0.00000000E+00  0.00000000E+00
     atom  110 type  1   force =   0.00000000E+00  0.00000000E+00  0.00000000E+00
     atom  111 type  1   force =   0.00000000E+00  0.00000000E+00  0.00000000E+00
     atom  112 type  1   force =   0.00000000E+00  0.00000000E+00  0.00000000E+00
     atom  113 type  1   force =   0.00000000E+00  0.00000000E+00  0.00000000E+00
     atom  114 type  1   force =   0.00000000E+00  0.00000000E+00  0.00000000E+00
     atom  115 type  1   force =   0.00000000E+00  0.00000000E+00  0.00000000E+00
     atom  116 type  1   force =   0.00000000E+00  0.00000000E+00  0.00000000E+00
     atom  117 type  1   force =   0.00000000E+00  0.00000000E+00  0.00000000E+00
     atom  118 type  1   force =   0.00000000E+00  0.00000000E+00  0.00000000E+00
     atom  119 type  1   force =   0.00000000E+00  0.00000000E+00  0.00000000E+00
     atom  120 type  1   force =   0.00000000E+00  0.00000000E+00  0.00000000E+00
     atom  121 type  1   force =   0.00000000E+00  0.00000000E+00  0.00000000E+00
     atom  122 type  1   force =   0.00000000E+00  0.00000000E+00  0.00000000E+00
     atom  123 type  1   force =   0.00000000E+00  0.00000000E+00  0.00000000E+00
     atom  124 type  1   force =   0.00000000E+00  0.00000000E+00  0.00000000E+00
     atom  125 type  1   force =   0.00000000E+00  0.00000000E+00  0.00000000E+00
     atom  126 type  1   force =   0.00000000E+00  0.00000000E+00  0.00000000E+00
     atom  127 type  1   force =   0.00000000E+00  0.00000000E+00  0.00000000E+00
     atom  128 type  1   force =   0.00000000E+00  0.00000000E+00  0.00000000E+00
     The SCF correction term to forces
     atom    1 type  1   force =  -0.12352879E-06 -0.41904088E-06  0.14141296E-06
     atom    2 type  1   force =   0.72522988E-06 -0.22136210E-06 -0.11894906E-05
     atom    3 type  1   force =  -0.22980427E-06 -0.11473679E-05 -0.58667323E-06
     atom    4 type  1   force =  -0.63061344E-06 -0.93654599E-06 -0.79280631E-06
     atom    5 type  1   force =   0.37430175E-06  0.63478933E-06  0.61964752E-07
     atom    6 type  1   force =   0.12052332E-05  0.17039026E-05 -0.10969243E-05
     atom    7 type  1   force =   0.11255917E-07  0.81990841E-06 -0.58806393E-06
     atom    8 type  1   force =  -0.94751825E-06 -0.76041657E-06 -0.89816796E-06
     atom    9 type  1   force =   0.23390928E-06 -0.17065715E-05 -0.10835156E-05
     atom   10 type  1   force =   0.58300151E-06 -0.12571541E-05 -0.10022293E-05
     atom   11 type  1   force =   0.82163724E-06 -0.73824028E-06 -0.31042703E-06
     atom   12 type  1   force =  -0.46391223E-07 -0.10174891E-06  0.93183538E-06
     atom   13 type  1   force =   0.26100895E-06  0.17320509E-06 -0.55244121E-06
     atom   14 type  1   force =   0.38291238E-06  0.27008792E-06 -0.20067930E-05
     atom   15 type  1   force =   0.95538190E-06  0.53109783E-07 -0.14320406E-05
     atom   16 type  1   force =   0.83001721E-06 -0.64782142E-06 -0.14333573E-06
     atom   17 type  1   force =  -0.89974994E-06  0.60873437E-06  0.39574907E-06
     atom   18 type  1   force =  -0.25479333E-06  0.87259334E-06  0.50324674E-06
     atom   19 type  1   force =  -0.13299395E-05  0.48223923E-06 -0.10192174E-06
     atom   20 type  1   force =  -0.17420594E-05 -0.44194090E-06  0.48891310E-06
     atom   21 type  1   force =  -0.54165415E-06  0.87173615E-06 -0.55347969E-06
     atom   22 type  1   force =   0.87299048E-06  0.15256896E-05 -0.52879722E-06
     atom   23 type  1   force =  -0.99180165E-07  0.11836531E-05 -0.15004981E-05
     atom   24 type  1   force =  -0.10004167E-05 -0.25096011E-06 -0.38508804E-06
     atom   25 type  1   force =  -0.29886822E-06 -0.12287590E-05  0.15599092E-05
     atom   26 type  1   force =   0.33391042E-06 -0.12176787E-05  0.37003545E-06
     atom   27 type  1   force =   0.36590092E-06 -0.67000064E-06  0.14562381E-05
     atom   28 type  1   force =   0.32985735E-06 -0.11377843E-05  0.15068546E-05
     atom   29 type  1   force =   0.15725962E-06 -0.72038052E-06  0.80687912E-06
     atom   30 type  1   force =   0.12651246E-05 -0.97049411E-07 -0.69184231E-07
     atom   31 type  1   force =   0.14541534E-05  0.97035807E-06  0.10926778E-05
     atom   32 type  1   force =   0.76686330E-06 -0.39132618E-06  0.16666708E-05
     atom   33 type  1   force =  -0.55385682E-06 -0.13905114E-05 -0.17662114E-05
     atom   34 type  1   force =   0.11895085E-06  0.50934392E-06 -0.14763465E-05
     atom   35 type  1   force =   0.48863784E-06  0.74392703E-06 -0.76518590E-06
     atom   36 type  1   force =  -0.16571435E-06  0.96576897E-06  0.11722975E-05
     atom   37 type  1   force =   0.15491151E-06  0.60651206E-06 -0.84695946E-06
     atom   38 type  1   force =  -0.59744240E-06  0.92265041E-06 -0.12322389E-05
     atom   39 type  1   force =  -0.12492531E-06  0.39524871E-07 -0.14863396E-05
     atom   40 type  1   force =  -0.94733753E-06 -0.58029976E-06 -0.25246228E-06
     atom   41 type  1   force =   0.13331468E-05 -0.90432450E-06  0.12418286E-05
     atom   42 type  1   force =   0.13945227E-05  0.12203764E-05  0.17488201E-05
     atom   43 type  1   force =   0.58840477E-06 -0.96570828E-07  0.83335393E-06
     atom   44 type  1   force =  -0.18603244E-05 -0.32320534E-06  0.17452239E-05
     atom   45 type  1   force =  -0.54446856E-06 -0.24540941E-07  0.60314372E-06
     atom   46 type  1   force =   0.47395797E-08  0.13016567E-05  0.11200994E-05
     atom   47 type  1   force =   0.38093247E-06 -0.82153126E-06 -0.31978644E-06
     atom   48 type  1   force =  -0.36530085E-06 -0.13973017E-05  0.12095793E-05
     atom   49 type  1   force =  -0.64570331E-06  0.10198804E-06  0.10873364E-06
     atom   50 type  1   force =  -0.14973835E-05  0.13018133E-05 -0.82608197E-06
     atom   51 type  1   force =  -0.15495663E-05  0.72989169E-06  0.86877518E-07
     atom   52 type  1   force =  -0.17836588E-05  0.82241196E-06  0.93638754E-06
     atom   53 type  1   force =  -0.84866409E-06  0.93304949E-06 -0.45298682E-07
     atom   54 type  1   force =  -0.55486464E-06  0.12428321E-05 -0.66500743E-06
     atom   55 type  1   force =   0.50007142E-06  0.88653265E-06 -0.44165217E-08
     atom   56 type  1   force =  -0.35935267E-06  0.74714375E-06  0.93398233E-06
     atom   57 type  1   force =   0.67204753E-07 -0.13454234E-05  0.38540645E-06
     atom   58 type  1   force =   0.10325419E-05 -0.13423772E-06 -0.52312511E-06
     atom   59 type  1   force =   0.26302913E-06 -0.85467096E-06  0.55832220E-07
     atom   60 type  1   force =  -0.60800356E-06 -0.69254646E-06  0.41018018E-06
     atom   61 type  1   force =   0.94284230E-06  0.44841400E-06  0.74986682E-06
     atom   62 type  1   force =   0.15081386E-05  0.10741236E-05  0.21547972E-06
     atom   63 type  1   force =   0.11257673E-05 -0.54462769E-06 -0.10631939E-06
     atom   64 type  1   force =  -0.51375949E-06 -0.16268494E-05  0.38195830E-06
     atom   65 type  1   force =   0.87075890E-07  0.20881538E-05  0.11280898E-05
     atom   66 type  1   force =   0.12155391E-05  0.21593560E-05  0.14294639E-05
     atom   67 type  1   force =  -0.28999526E-06  0.88959240E-06  0.12073098E-05
     atom   68 type  1   force =  -0.74362249E-06 -0.11396214E-05  0.14493917E-05
     atom   69 type  1   force =  -0.34820553E-06 -0.59271755E-06  0.95603028E-06
     atom   70 type  1   force =   0.23379732E-06 -0.54988075E-06  0.40531365E-06
     atom   71 type  1   force =  -0.11561427E-05 -0.47637181E-06 -0.74292851E-06
     atom   72 type  1   force =  -0.12875364E-05 -0.22879709E-06  0.92093236E-06
     atom   73 type  1   force =   0.37120672E-06  0.11433197E-05  0.18179156E-05
     atom   74 type  1   force =   0.16137849E-06  0.96806398E-06 -0.93982953E-07
     atom   75 type  1   force =  -0.58381229E-06  0.38016019E-06  0.17511559E-05
     atom   76 type  1   force =  -0.12344443E-05 -0.69577538E-06  0.15329045E-05
     atom   77 type  1   force =  -0.12554889E-05 -0.11787897E-05  0.85824480E-06
     atom   78 type  1   force =  -0.33835565E-07 -0.94418417E-06 -0.43437286E-06
     atom   79 type  1   force =   0.10287567E-05  0.38333636E-07  0.15677023E-05
     atom   80 type  1   force =   0.87016224E-06  0.70908531E-06  0.18632114E-05
     atom   81 type  1   force =  -0.13931962E-05  0.16175455E-05 -0.58735313E-06
     atom   82 type  1   force =  -0.11520682E-05  0.23217229E-05 -0.20333377E-05
     atom   83 type  1   force =  -0.24982790E-05  0.11935310E-05 -0.80826010E-06
     atom   84 type  1   force =  -0.21647889E-05 -0.42374275E-06 -0.83371320E-06
     atom   85 type  1   force =  -0.36511224E-06  0.54750340E-06 -0.23309176E-06
     atom   86 type  1   force =   0.10530816E-05  0.12722888E-05 -0.12174679E-05
     atom   87 type  1   force =  -0.17765704E-06  0.10291749E-05 -0.70345489E-06
     atom   88 type  1   force =  -0.11859572E-05  0.32145032E-06 -0.14213131E-05
     atom   89 type  1   force =  -0.10753428E-05 -0.12935573E-06 -0.36940236E-06
     atom   90 type  1   force =   0.53187122E-06  0.10276011E-05 -0.12280375E-06
     atom   91 type  1   force =   0.44399294E-06  0.74104578E-06  0.65072388E-06
     atom   92 type  1   force =   0.38245411E-06 -0.46269116E-06  0.15582286E-05
     atom   93 type  1   force =   0.20241121E-06 -0.68052518E-06  0.68742054E-07
     atom   94 type  1   force =   0.91652634E-06 -0.90651954E-06 -0.85428602E-06
     atom   95 type  1   force =   0.72605565E-06 -0.20276633E-06 -0.49030302E-06
     atom   96 type  1   force =  -0.50425761E-06 -0.83885771E-06  0.66447127E-06
     atom   97 type  1   force =   0.37832845E-06 -0.19417742E-06  0.38355976E-06
     atom   98 type  1   force =   0.11378853E-05 -0.56679223E-06 -0.59354673E-06
     atom   99 type  1   force =   0.91796674E-06 -0.12226989E-05  0.97561416E-06
     atom  100 type  1   force =   0.36267701E-08 -0.19085977E-05  0.11446932E-05
     atom  101 type  1   force =  -0.47225158E-06 -0.12972665E-05  0.44347722E-06
     atom  102 type  1   force =  -0.77994113E-07  0.52946384E-06 -0.56394086E-06
     atom  103 type  1   force =   0.42728931E-06  0.16417395E-05  0.88711258E-06
     atom  104 type  1   force =   0.42898901E-06  0.61552178E-06  0.10803551E-05
     atom  105 type  1   force =   0.10840893E-05 -0.36733312E-06  0.15562454E-07
     atom  106 type  1   force =   0.11807653E-05 -0.20032890E-07 -0.15334944E-05
     atom  107 type  1   force =  -0.34245757E-06 -0.19278718E-05 -0.25200329E-06
     atom  108 type  1   force =  -0.10294326E-05 -0.25039473E-05 -0.46680078E-06
     atom  109 type  1   force =   0.48000253E-07 -0.67177966E-06  0.68121222E-06
     atom  110 type  1   force =   0.17617607E-05  0.13632094E-05 -0.67647744E-06
     atom  111 type  1   force =   0.10205782E-05  0.69156418E-06  0.64143608E-07
     atom  112 type  1   force =   0.55263565E-08 -0.51569308E-06 -0.10064919E-05
     atom  113 type  1   force =  -0.15410018E-05  0.18136078E-06 -0.26294848E-05
     atom  114 type  1   force =  -0.59902008E-06  0.33302279E-06 -0.23127569E-05
     atom  115 type  1   force =  -0.83183962E-06  0.36211968E-06 -0.17518842E-05
     atom  116 type  1   force =  -0.45262243E-06 -0.52912779E-06 -0.30207513E-06
     atom  117 type  1   force =  -0.27033819E-06  0.43377495E-06 -0.17773441E-05
     atom  118 type  1   force =   0.12836556E-06  0.80016908E-06 -0.25998094E-05
     atom  119 type  1   force =   0.52642947E-07  0.15666941E-05 -0.23694898E-05
     atom  120 type  1   force =  -0.41575026E-06  0.92514703E-06 -0.11004610E-05
     atom  121 type  1   force =   0.98916073E-06 -0.21408165E-06  0.13747635E-05
     atom  122 type  1   force =   0.16884721E-05 -0.27820197E-06  0.10937756E-05
     atom  123 type  1   force =   0.83098333E-06 -0.17677586E-05  0.38236913E-06
     atom  124 type  1   force =   0.10898088E-07 -0.24961864E-05  0.11136480E-05
     atom  125 type  1   force =   0.82157599E-06 -0.98604581E-06  0.42411172E-06
     atom  126 type  1   force =   0.13331629E-05  0.92905032E-07  0.62195046E-06
     atom  127 type  1   force =   0.50464491E-06 -0.19012062E-06 -0.66065183E-06
     atom  128 type  1   force =   0.15823436E-06 -0.59644917E-06  0.96488847E-06

     Total force =     0.376465     Total SCF correction =     0.000019


     entering subroutine stress ...

          total   stress  (Ry/bohr**3)                   (kbar)     P=    2.69
   0.0000195304  -0.0000080421   0.0000273168          2.87     -1.18      4.02
  -0.0000080421   0.0000170453  -0.0000020937         -1.18      2.51     -0.31
   0.0000273168  -0.0000020937   0.0000183044          4.02     -0.31      2.69

     kinetic stress (kbar)   2190.96      0.46     -2.74
                                0.46   2190.98      0.55
                               -2.74      0.55   2190.96

     local   stress (kbar)   -292.07      6.69    -32.65
                                6.69   -289.12      5.66
                              -32.65      5.66   -290.08

     nonloc. stress (kbar)   1941.39     -0.83      3.77
                               -0.83   1941.14     -0.55
                                3.77     -0.55   1941.24

     hartree stress (kbar)    200.18     -0.87      3.92
                               -0.87    199.49     -0.74
                                3.92     -0.74    199.64

     exc-cor stress (kbar)    993.77     -0.01      0.05
                               -0.01    993.76     -0.01
                                0.05     -0.01    993.77

     corecor stress (kbar)  -1988.27      0.10     -0.45
                                0.10  -1988.24      0.07
                               -0.45      0.07  -1988.25

     ewald   stress (kbar)  -3043.07     -6.72     32.11
                               -6.72  -3045.50     -5.28
                               32.11     -5.28  -3044.58

     hubbard stress (kbar)      0.00      0.00      0.00
                                0.00      0.00      0.00
                                0.00      0.00      0.00

     london  stress (kbar)      0.00      0.00      0.00
                                0.00      0.00      0.00
                                0.00      0.00      0.00

     XDM     stress (kbar)      0.00      0.00      0.00
                                0.00      0.00      0.00
                                0.00      0.00      0.00

     dft-nl  stress (kbar)      0.00      0.00      0.00
                                0.00      0.00      0.00
                                0.00      0.00      0.00



     Writing output data file Si_diamond.scf.in.super.444.a.011.save

     init_run     :    579.15s CPU    575.38s WALL (       1 calls)
     electrons    :  17156.93s CPU  17051.56s WALL (       1 calls)
     forces       :    298.58s CPU    246.60s WALL (       1 calls)
     stress       :   1534.28s CPU   1596.26s WALL (       1 calls)

     Called by init_run:
     wfcinit      :    553.55s CPU    546.02s WALL (       1 calls)
     potinit      :      2.49s CPU      2.87s WALL (       1 calls)

     Called by electrons:
     c_bands      :  14503.57s CPU  14345.37s WALL (      16 calls)
     sum_band     :   2252.52s CPU   2271.76s WALL (      16 calls)
     v_of_rho     :     11.94s CPU     14.35s WALL (      16 calls)
     v_h          :      1.26s CPU      1.51s WALL (      16 calls)
     v_xc         :     11.61s CPU     13.94s WALL (      18 calls)
     newd         :    394.13s CPU    424.69s WALL (      16 calls)
     mix_rho      :     13.81s CPU     16.20s WALL (      16 calls)

     Called by c_bands:
     init_us_2    :     40.95s CPU     43.98s WALL (     280 calls)
     cegterg      :  14305.71s CPU  14128.05s WALL (     128 calls)

     Called by sum_band:
     sum_band:bec :      6.94s CPU      7.39s WALL (     128 calls)
     addusdens    :    320.54s CPU    344.36s WALL (      16 calls)

     Called by *egterg:
     h_psi        :   9443.94s CPU   9438.20s WALL (     657 calls)
     s_psi        :   1811.35s CPU   1292.11s WALL (     657 calls)
     g_psi        :      2.97s CPU      3.26s WALL (     521 calls)
     cdiaghg      :   1478.76s CPU   2082.22s WALL (     641 calls)
     cegterg:over :    967.95s CPU    857.26s WALL (     521 calls)
     cegterg:upda :    398.36s CPU    307.84s WALL (     521 calls)
     cegterg:last :    267.96s CPU    195.38s WALL (     135 calls)

     Called by h_psi:
     h_psi:vloc   :   5548.53s CPU   6544.33s WALL (     657 calls)
     h_psi:vnl    :   3888.44s CPU   2886.16s WALL (     657 calls)
     add_vuspsi   :   1830.71s CPU   1307.08s WALL (     657 calls)

     General routines
     calbec       :   3199.57s CPU   2502.01s WALL (     801 calls)
     fft          :     64.59s CPU     72.94s WALL (     281 calls)
     ffts         :      9.94s CPU     11.54s WALL (     286 calls)
     fftw         :   6296.83s CPU   7463.03s WALL (  240326 calls)
     interpolate  :      3.40s CPU      4.31s WALL (      32 calls)

     Parallel routines
     fft_scatter  :   5097.45s CPU   5993.67s WALL (  240893 calls)

     PWSCF        :     5h26m CPU        5h25m WALL


   This run was terminated on:   9:23:53  14Feb2017            

=------------------------------------------------------------------------------=
   JOB DONE.
=------------------------------------------------------------------------------=
