
     Program PWSCF v.5.1 starts on 18Jan2017 at 20:14:35 

     This program is part of the open-source Quantum ESPRESSO suite
     for quantum simulation of materials; please cite
         "P. Giannozzi et al., J. Phys.:Condens. Matter 21 395502 (2009);
          URL http://www.quantum-espresso.org", 
     in publications or presentations arising from this work. More details at
     http://www.quantum-espresso.org/quote

     Parallel version (MPI), running on    16 processors
     R & G space division:  proc/nbgrp/npool/nimage =      16
     Reading input from /tmp/Si_diamond.scf.in.super.444.GeGe.02.7295/Si_diamond.scf.in.super.444.GeGe.02.t
Warning: card &IONS ignored
Warning: card   ION_DYNAMICS='BFGS', ignored
Warning: card / ignored
Warning: card &CELL ignored
Warning: card  CELL_DYNAMICS = 'BFGS' ignored
Warning: card / ignored
     Message from routine read_cards :
     DEPRECATED: no units specified in CELL_PARAMETERS card

     Current dimensions of program PWSCF are:
     Max number of different atomic species (ntypx) = 10
     Max number of k-points (npk) =  40000
     Max angular momentum in pseudopotentials (lmaxx) =  3

     Subspace diagonalization in iterative solution of the eigenvalue problem:
     a serial algorithm will be used


     Parallelization info
     --------------------
     sticks:   dense  smooth     PW     G-vecs:    dense   smooth      PW
     Min         726     508    134                51681    30247    4089
     Max         727     509    135                51684    30277    4090
     Sum       11629    8137   2149               826925   484169   65427



     bravais-lattice index     =            0
     lattice parameter (alat)  =    29.031211967  a.u.
     unit-cell volume          =   17301.3703 (a.u.)^3
     number of atoms/cell      =          128
     number of atomic types    =            2
     number of electrons       =       532.00
     number of Kohn-Sham states=          319
     kinetic-energy cutoff     =      35.0000  Ry
     charge density cutoff     =     200.0000  Ry
     convergence threshold     =      1.0E-09
     mixing beta               =       0.3000
     number of iterations used =            8  local-TF  mixing
     Exchange-correlation      = SLA  PW   PSX  PSC ( 1  4 10  8 0)
     A smooth kinetic-energy cutoff is imposed at      34.5000 Ry
     height of the smooth step-function =             800.0000 Ry
     width of the smooth step-function  =               1.0000 Ry


     celldm(1)=  29.031212  celldm(2)=   0.000000  celldm(3)=   0.000000
     celldm(4)=   0.000000  celldm(5)=   0.000000  celldm(6)=   0.000000

     crystal axes: (cart. coord. in units of alat)
               a(1) = (  -0.000000000000   0.707106781187   0.707106781187 )  
               a(2) = (   0.707106781187  -0.000000000000   0.707106781187 )  
               a(3) = (   0.707106781187   0.707106781187  -0.000000000000 )  

     reciprocal axes: (cart. coord. in units 2 pi/alat)
               b(1) = ( -0.707107  0.707107  0.707107 )  
               b(2) = (  0.707107 -0.707107  0.707107 )  
               b(3) = (  0.707107  0.707107 -0.707107 )  


     PseudoPot. # 1 for Si read from file:
     /users/kfg/psuedo/gbrv_1.5/si.pbesol.UPF
     MD5 check sum: ef58ba74faed4df802eb8a9742fc00a8
     Pseudo is Ultrasoft + core correction, Zval =  4.0
     Generated by new atomic code, or converted to UPF format
     Using radial grid of  899 points,  6 beta functions with: 
                l(1) =   0
                l(2) =   0
                l(3) =   1
                l(4) =   1
                l(5) =   2
                l(6) =   2
     Q(r) pseudized with  8 coefficients,  rinner =    0.900   0.900   0.900
                                                       0.900   0.900

     PseudoPot. # 2 for Ge read from file:
     /users/kfg/psuedo/gbrv_1.5/ge.pbesol.UPF
     MD5 check sum: 7bed0412183f5e553a4d27ec7023354d
     Pseudo is Ultrasoft + core correction, Zval = 14.0
     Generated by new atomic code, or converted to UPF format
     Using radial grid of  873 points,  6 beta functions with: 
                l(1) =   0
                l(2) =   0
                l(3) =   1
                l(4) =   1
                l(5) =   2
                l(6) =   2
     Q(r) pseudized with  8 coefficients,  rinner =    1.400   1.400   1.400
                                                       1.400   1.400

     atomic species   valence    mass     pseudopotential
        Si             4.00    28.08550     Si( 1.00)
        Ge            14.00    69.00000     Ge( 1.00)

     No symmetry found


                                    s                        frac. trans.

      isym =  1     identity                                     

 cryst.   s( 1) = (     1          0          0      )
                  (     0          1          0      )
                  (     0          0          1      )

 cart.    s( 1) = (  1.0000000  0.0000000  0.0000000 )
                  (  0.0000000  1.0000000  0.0000000 )
                  (  0.0000000  0.0000000  1.0000000 )


     point group C_1 (1)    
     there are  1 classes
     the character table:

       E    
A      1.00

     the symmetry operations in each class:
     E        1

   Cartesian axes

     site n.     atom                  positions (alat units)
         1           Ge  tau(   1) = (    0.00011688637    0.00001248814    0.00006863678  )
         2           Ge  tau(   2) = (    0.08825660127    0.08826636170    0.08849940310  )
         3           Si  tau(   3) = (    0.17681410908    0.17677436886   -0.00004426880  )
         4           Si  tau(   4) = (    0.26520001414    0.26502759361    0.08837382911  )
         5           Si  tau(   5) = (    0.35339238802    0.35353334043   -0.00004332739  )
         6           Si  tau(   6) = (    0.44204880951    0.44195667142    0.08839848488  )
         7           Si  tau(   7) = (    0.53026222991    0.53018096205   -0.00003132846  )
         8           Si  tau(   8) = (    0.61859837229    0.61862049715    0.08833498265  )
         9           Si  tau(   9) = (    0.17665280610   -0.00013243989    0.17668016730  )
        10           Si  tau(  10) = (    0.26513610187    0.08837755991    0.26526900958  )
        11           Si  tau(  11) = (    0.35345769517    0.17676803558    0.17689147966  )
        12           Si  tau(  12) = (    0.44196205220    0.26511181930    0.26510866207  )
        13           Si  tau(  13) = (    0.53017528675    0.35369845310    0.17691681109  )
        14           Si  tau(  14) = (    0.61863957521    0.44194841170    0.26530146416  )
        15           Si  tau(  15) = (    0.70723372914    0.53029945729    0.17677304838  )
        16           Si  tau(  16) = (    0.79554036180    0.61868978838    0.26524877218  )
        17           Si  tau(  17) = (    0.35347950552   -0.00011711041    0.35364127780  )
        18           Si  tau(  18) = (    0.44206428825    0.08840098550    0.44184665776  )
        19           Si  tau(  19) = (    0.53026041336    0.17666699424    0.35352804203  )
        20           Si  tau(  20) = (    0.61885026067    0.26520033709    0.44205862177  )
        21           Si  tau(  21) = (    0.70726359011    0.35357248015    0.35360779088  )
        22           Si  tau(  22) = (    0.79541849447    0.44204996927    0.44201223863  )
        23           Si  tau(  23) = (    0.88386322505    0.53048005227    0.35338255507  )
        24           Si  tau(  24) = (    0.97224413226    0.61875122613    0.44192632882  )
        25           Si  tau(  25) = (    0.53026034556   -0.00013916231    0.53016809885  )
        26           Si  tau(  26) = (    0.61855712510    0.08848059885    0.61865917274  )
        27           Si  tau(  27) = (    0.70698722456    0.17693706745    0.53024974703  )
        28           Si  tau(  28) = (    0.79536670442    0.26499993980    0.61866253957  )
        29           Si  tau(  29) = (    0.88388649837    0.35344693701    0.53031087249  )
        30           Si  tau(  30) = (    0.97239487429    0.44192091319    0.61859203553  )
        31           Si  tau(  31) = (    1.06064148729    0.53037973642    0.53048175182  )
        32           Si  tau(  32) = (    1.14912704576    0.61866694342    0.61880235774  )
        33           Si  tau(  33) = (    0.00006973732    0.17674255440    0.17673554205  )
        34           Si  tau(  34) = (    0.08847583451    0.26508032402    0.26502657410  )
        35           Si  tau(  35) = (    0.17663905589    0.35366746562    0.17680671066  )
        36           Si  tau(  36) = (    0.26525635605    0.44198729939    0.26503804566  )
        37           Si  tau(  37) = (    0.35352237509    0.53026801219    0.17670656049  )
        38           Si  tau(  38) = (    0.44203259682    0.61881314133    0.26528983830  )
        39           Si  tau(  39) = (    0.53035876213    0.70708764895    0.17674365127  )
        40           Si  tau(  40) = (    0.61857178310    0.79548603759    0.26502713267  )
        41           Si  tau(  41) = (    0.17670895220    0.17692481835    0.35366845670  )
        42           Si  tau(  42) = (    0.26518735730    0.26522306130    0.44186248637  )
        43           Si  tau(  43) = (    0.35345415140    0.35343996620    0.35364293466  )
        44           Si  tau(  44) = (    0.44208150330    0.44178308639    0.44179190542  )
        45           Si  tau(  45) = (    0.53029364673    0.53029142749    0.35359984968  )
        46           Si  tau(  46) = (    0.61860870155    0.61858654010    0.44184835413  )
        47           Si  tau(  47) = (    0.70696651782    0.70694042244    0.35365971748  )
        48           Si  tau(  48) = (    0.79563297242    0.79552444747    0.44195121470  )
        49           Si  tau(  49) = (    0.35361447722    0.17691591704    0.53025469849  )
        50           Si  tau(  50) = (    0.44193897171    0.26516332720    0.61867861002  )
        51           Si  tau(  51) = (    0.53046239547    0.35371553509    0.53019760202  )
        52           Si  tau(  52) = (    0.61860114515    0.44194828746    0.61884785182  )
        53           Si  tau(  53) = (    0.70726403112    0.53042740724    0.53021722427  )
        54           Si  tau(  54) = (    0.79565187125    0.61866921396    0.61865600044  )
        55           Si  tau(  55) = (    0.88380909420    0.70727493335    0.53023318569  )
        56           Si  tau(  56) = (    0.97240964857    0.79564179219    0.61865180139  )
        57           Si  tau(  57) = (    0.53020004577    0.17673390008    0.70711194184  )
        58           Si  tau(  58) = (    0.61867514341    0.26513523403    0.79539409079  )
        59           Si  tau(  59) = (    0.70719383849    0.35347438369    0.70701404640  )
        60           Si  tau(  60) = (    0.79546884123    0.44209344548    0.79534636504  )
        61           Si  tau(  61) = (    0.88373005329    0.53048164388    0.70703948744  )
        62           Si  tau(  62) = (    0.97233224336    0.61872713312    0.79554205251  )
        63           Si  tau(  63) = (    1.06056584988    0.70700048281    0.70711188461  )
        64           Si  tau(  64) = (    1.14904348120    0.79537336677    0.79547576195  )
        65           Si  tau(  65) = (   -0.00013203481    0.35370993178    0.35364783450  )
        66           Si  tau(  66) = (    0.08846171194    0.44211391927    0.44210083244  )
        67           Si  tau(  67) = (    0.17672655392    0.53024420033    0.35355603779  )
        68           Si  tau(  68) = (    0.26512019429    0.61883539204    0.44189665745  )
        69           Si  tau(  69) = (    0.35350713104    0.70713531242    0.35338753012  )
        70           Si  tau(  70) = (    0.44195466285    0.79563282337    0.44186010350  )
        71           Si  tau(  71) = (    0.53036462416    0.88385266957    0.35345297466  )
        72           Si  tau(  72) = (    0.61861771113    0.97225139450    0.44189451061  )
        73           Si  tau(  73) = (    0.17673673306    0.35368900171    0.53025645220  )
        74           Si  tau(  74) = (    0.26514388957    0.44211252532    0.61857988736  )
        75           Si  tau(  75) = (    0.35359485257    0.53039527192    0.53048006493  )
        76           Si  tau(  76) = (    0.44184973839    0.61874695335    0.61878920238  )
        77           Si  tau(  77) = (    0.53041529864    0.70719419947    0.53030895516  )
        78           Si  tau(  78) = (    0.61861289976    0.79548555074    0.61855557950  )
        79           Si  tau(  79) = (    0.70703535764    0.88404318478    0.53030135064  )
        80           Si  tau(  80) = (    0.79538072593    0.97237734275    0.61878703260  )
        81           Si  tau(  81) = (    0.35363158085    0.35342567012    0.70696433012  )
        82           Si  tau(  82) = (    0.44178026709    0.44186143699    0.79563637792  )
        83           Si  tau(  83) = (    0.53030299282    0.53038261288    0.70701660364  )
        84           Si  tau(  84) = (    0.61871718447    0.61866882021    0.79566574581  )
        85           Si  tau(  85) = (    0.70703671153    0.70703313300    0.70697847301  )
        86           Si  tau(  86) = (    0.79551235036    0.79558955766    0.79548416804  )
        87           Si  tau(  87) = (    0.88378026741    0.88398077819    0.70716502141  )
        88           Si  tau(  88) = (    0.97216903188    0.97222677855    0.79566654670  )
        89           Si  tau(  89) = (    0.53026057208    0.35361980071    0.88391394511  )
        90           Si  tau(  90) = (    0.61867203532    0.44202726688    0.97225095991  )
        91           Si  tau(  91) = (    0.70701174126    0.53027505472    0.88402369063  )
        92           Si  tau(  92) = (    0.79554676598    0.61884637809    0.97223931038  )
        93           Si  tau(  93) = (    0.88377088940    0.70722597519    0.88404573761  )
        94           Si  tau(  94) = (    0.97231471629    0.79537107112    0.97236216854  )
        95           Si  tau(  95) = (    1.06064968581    0.88398535599    0.88397968132  )
        96           Si  tau(  96) = (    1.14890403674    0.97212815928    0.97212270921  )
        97           Si  tau(  97) = (    0.00009335085    0.53035547103    0.53037215709  )
        98           Si  tau(  98) = (    0.08828117784    0.61860010599    0.61883020579  )
        99           Si  tau(  99) = (    0.17668911047    0.70713613657    0.53038964994  )
       100           Si  tau( 100) = (    0.26529494091    0.79558894442    0.61866417918  )
       101           Si  tau( 101) = (    0.35351425340    0.88401070385    0.53019172556  )
       102           Si  tau( 102) = (    0.44201842647    0.97214461292    0.61872291789  )
       103           Si  tau( 103) = (    0.53038017028    1.06064237252    0.53032632038  )
       104           Si  tau( 104) = (    0.61887701219    1.14897222147    0.61862121672  )
       105           Si  tau( 105) = (    0.17686051793    0.53038087058    0.70726454185  )
       106           Si  tau( 106) = (    0.26506786070    0.61870658512    0.79536579618  )
       107           Si  tau( 107) = (    0.35339892509    0.70721288909    0.70708830687  )
       108           Si  tau( 108) = (    0.44187580100    0.79541544769    0.79555607406  )
       109           Si  tau( 109) = (    0.53031058463    0.88385085800    0.70693686219  )
       110           Si  tau( 110) = (    0.61884306108    0.97223084747    0.79533639506  )
       111           Si  tau( 111) = (    0.70697026663    1.06079809098    0.70726334890  )
       112           Si  tau( 112) = (    0.79553393981    1.14894625440    0.79534506283  )
       113           Si  tau( 113) = (    0.35355618346    0.53049912830    0.88378414265  )
       114           Si  tau( 114) = (    0.44207200649    0.61868426691    0.97229458809  )
       115           Si  tau( 115) = (    0.53037547912    0.70699936805    0.88381453161  )
       116           Si  tau( 116) = (    0.61855116232    0.79532517197    0.97241364998  )
       117           Si  tau( 117) = (    0.70711880110    0.88372975236    0.88371881094  )
       118           Si  tau( 118) = (    0.79559340657    0.97228072932    0.97221677288  )
       119           Si  tau( 119) = (    0.88392881781    1.06053475598    0.88397770391  )
       120           Si  tau( 120) = (    0.97217683674    1.14910696593    0.97211614862  )
       121           Si  tau( 121) = (    0.53017238049    0.53027603576    1.06069630305  )
       122           Si  tau( 122) = (    0.61858066770    0.61883834864    1.14898835990  )
       123           Si  tau( 123) = (    0.70707310493    0.70708493143    1.06076130505  )
       124           Si  tau( 124) = (    0.79538252365    0.79537544647    1.14895025619  )
       125           Si  tau( 125) = (    0.88378005058    0.88371149335    1.06049428811  )
       126           Si  tau( 126) = (    0.97224611038    0.97223279850    1.14898389347  )
       127           Si  tau( 127) = (    1.06068031244    1.06053871738    1.06058370129  )
       128           Si  tau( 128) = (    1.14908023119    1.14904656133    1.14912912281  )

   Crystallographic axes

     site n.     atom                  positions (cryst. coord.)
         1           Ge  tau(   1) = (   -0.00002528716    0.00012235424    0.00004294806  )
         2           Ge  tau(   2) = (    0.06258542973    0.06257162640    0.06224205609  )
         3           Si  tau(   3) = (   -0.00005940335   -0.00000320218    0.25005611326  )
         4           Si  tau(   4) = (    0.06236781412    0.06261165356    0.31243780317  )
         5           Si  tau(   5) = (    0.00006903131   -0.00013030549    0.49990261348  )
         6           Si  tau(   6) = (    0.06244201664    0.06257231958    0.56257910206  )
         7           Si  tau(   7) = (   -0.00007961762    0.00003531249    0.74986872466  )
         8           Si  tau(   8) = (    0.06247790989    0.06244662061    0.81238358714  )
         9           Si  tau(   9) = (   -0.00007430185    0.24993779065   -0.00011299644  )
        10           Si  tau(  10) = (    0.06258635186    0.31256067917    0.06239839197  )
        11           Si  tau(  11) = (    0.00014270834    0.25001962126    0.24984504497  )
        12           Si  tau(  12) = (    0.06240813376    0.31251213164    0.31251659664  )
        13           Si  tau(  13) = (    0.00031111104    0.24988704262    0.49989403833  )
        14           Si  tau(  14) = (    0.06265694447    0.31253598426    0.56235249323  )
        15           Si  tau(  15) = (   -0.00011400221    0.25010884469    0.75007068682  )
        16           Si  tau(  16) = (    0.06250696579    0.31261144523    0.81245252385  )
        17           Si  tau(  17) = (    0.00003158071    0.50009271057   -0.00019719984  )
        18           Si  tau(  18) = (    0.06235504832    0.56251048757    0.06266282431  )
        19           Si  tau(  19) = (   -0.00004622858    0.50001038030    0.24989108787  )
        20           Si  tau(  20) = (    0.06251439001    0.56265090827    0.31253552345  )
        21           Si  tau(  21) = (   -0.00005891548    0.50013584911    0.50008591220  )
        22           Si  tau(  22) = (    0.06268057088    0.56241913172    0.56247249091  )
        23           Si  tau(  23) = (   -0.00000043679    0.49975883887    0.75021252128  )
        24           Si  tau(  24) = (    0.06253187287    0.56244633492    0.81251450286  )
        25           Si  tau(  25) = (   -0.00016363088    0.74993454662   -0.00003317434  )
        26           Si  tau(  26) = (    0.06263739003    0.81227880255    0.06249307287  )
        27           Si  tau(  27) = (    0.00014113138    0.74974525231    0.25008566909  )
        28           Si  tau(  28) = (    0.06243454122    0.81248641278    0.31233196768  )
        29           Si  tau(  29) = (   -0.00009099677    0.75006382492    0.49994044867  )
        30           Si  tau(  30) = (    0.06230888797    0.81251235825    0.56266166095  )
        31           Si  tau(  31) = (    0.00015556416    0.75005892386    0.74991465229  )
        32           Si  tau(  32) = (    0.06246740786    0.81265127889    0.81245977412  )
        33           Si  tau(  33) = (    0.24989744727    0.00004435325    0.00005427022  )
        34           Si  tau(  34) = (    0.31228031986    0.06252385562    0.06259986949  )
        35           Si  tau(  35) = (    0.25019921305   -0.00015676492    0.24996211340  )
        36           Si  tau(  36) = (    0.31237784784    0.06244255088    0.31268658535  )
        37           Si  tau(  37) = (    0.24992844574   -0.00002763134    0.49998376879  )
        38           Si  tau(  38) = (    0.31259096545    0.06258552184    0.56254297160  )
        39           Si  tau(  39) = (    0.24994282864    0.00001044004    0.75003011429  )
        40           Si  tau(  40) = (    0.31249975175    0.06230521367    0.81248739129  )
        41           Si  tau(  41) = (    0.25023400444    0.24992872361   -0.00002452681  )
        42           Si  tau(  42) = (    0.31246920701    0.31241871392    0.06261284333  )
        43           Si  tau(  43) = (    0.25005328676    0.25007334767    0.24978630692  )
        44           Si  tau(  44) = (    0.31218303958    0.31260506481    0.31259259282  )
        45           Si  tau(  45) = (    0.25003128229    0.25003442077    0.49991404647  )
        46           Si  tau(  46) = (    0.31241829695    0.31244963797    0.56239517756  )
        47           Si  tau(  47) = (    0.25005673224    0.25009363668    0.74970800096  )
        48           Si  tau(  48) = (    0.31242996214    0.31258343959    0.81261150067  )
        49           Si  tau(  49) = (    0.25000194293    0.49989144319    0.00019494635  )
        50           Si  tau(  50) = (    0.31247258354    0.56247109750    0.06252499004  )
        51           Si  tau(  51) = (    0.24992741623    0.49988522328    0.25030189072  )
        52           Si  tau(  52) = (    0.31267907896    0.56250394613    0.31233018304  )
        53           Si  tau(  53) = (    0.24987781888    0.49996257069    0.50025981430  )
        54           Si  tau(  54) = (    0.31231021601    0.56260149026    0.56262017699  )
        55           Si  tau(  55) = (    0.25010297896    0.49975998346    0.75013482410  )
        56           Si  tau(  56) = (    0.31245913401    0.56244663390    0.81274827929  )
        57           Si  tau(  57) = (    0.25006534060    0.74994195768   -0.00012586217  )
        58           Si  tau(  58) = (    0.31243808797    0.81241902266    0.06251975586  )
        59           Si  tau(  59) = (    0.24981700148    0.75005185173    0.25007126589  )
        60           Si  tau(  60) = (    0.31252066947    0.81226894675    0.31269387696  )
        61           Si  tau(  61) = (    0.25016807040    0.74973676188    0.50004626496  )
        62           Si  tau(  62) = (    0.31249660873    0.81256975136    0.56251569433  )
        63           Si  tau(  63) = (    0.24999514001    0.75001207731    0.74985453138  )
        64           Si  tau(  64) = (    0.31240376933    0.81256884176    0.81242403310  )
        65           Si  tau(  65) = (    0.50027083597   -0.00013727212   -0.00004945330  )
        66           Si  tau(  66) = (    0.56268237058    0.06254262260    0.06256113017  )
        67           Si  tau(  67) = (    0.49997659689    0.00002714681    0.24990194258  )
        68           Si  tau(  68) = (    0.56258253801    0.06235370813    0.31258286629  )
        69           Si  tau(  69) = (    0.49993560401   -0.00017016613    0.50010474525  )
        70           Si  tau(  70) = (    0.56253050118    0.06235404986    0.56266422830  )
        71           Si  tau(  71) = (    0.49988278919   -0.00002479876    0.75007364325  )
        72           Si  tau(  72) = (    0.56252338059    0.06240982945    0.81244772754  )
        73           Si  tau(  73) = (    0.50007208223    0.24982378401    0.00011970086  )
        74           Si  tau(  74) = (    0.56253775546    0.31226631066    0.06270377394  )
        75           Si  tau(  75) = (    0.50012282664    0.25008927576    0.24996936033  )
        76           Si  tau(  76) = (    0.56263526140    0.31246482085    0.31240507171  )
        77           Si  tau(  77) = (    0.49998661786    0.24998349877    0.50013701026  )
        78           Si  tau(  78) = (    0.56245269572    0.31231699389    0.56253375881  )
        79           Si  tau(  79) = (    0.50014311600    0.24981624622    0.75008274563  )
        80           Si  tau(  80) = (    0.56270401486    0.31239299886    0.81244521101  )
        81           Si  tau(  81) = (    0.49975367102    0.50004487275    0.00006570496  )
        82           Si  tau(  82) = (    0.56265727397    0.56254248241    0.06222916291  )
        83           Si  tau(  83) = (    0.49999253473    0.49987993496    0.25008174965  )
        84           Si  tau(  84) = (    0.56258644572    0.56265484312    0.31234339043  )
        85           Si  tau(  85) = (    0.49990674202    0.49991180282    0.49998910372  )
        86           Si  tau(  86) = (    0.56254684335    0.56243765574    0.56258669917  )
        87           Si  tau(  87) = (    0.50018296459    0.49989939952    0.74995464080  )
        88           Si  tau(  88) = (    0.56266204380    0.56258037767    0.81227425213  )
        89           Si  tau(  89) = (    0.50011765730    0.74992543185   -0.00002373922  )
        90           Si  tau(  90) = (    0.56257853315    0.81239196039    0.06254242262  )
        91           Si  tau(  91) = (    0.50012743684    0.75007085591    0.24979473734  )
        92           Si  tau(  92) = (    0.56253096679    0.81242305182    0.31264997413  )
        93           Si  tau(  93) = (    0.50027862992    0.74995084196    0.49988993586  )
        94           Si  tau(  94) = (    0.56244583176    0.81268193453    0.56237872414  )
        95           Si  tau(  95) = (    0.50014748148    0.74998857270    0.74999659789  )
        96           Si  tau(  96) = (    0.56239513813    0.81239398153    0.81240168909  )
        97           Si  tau(  97) = (    0.74998168982    0.00007780785    0.00005421019  )
        98           Si  tau(  98) = (    0.81257114520    0.06258692462    0.06226151437  )
        99           Si  tau(  99) = (    0.75012480736   -0.00004057107    0.24991670741  )
       100           Si  tau( 100) = (    0.81243612228    0.06248715047    0.31269655299  )
       101           Si  tau( 101) = (    0.75001980198   -0.00021547304    0.50016012469  )
       102           Si  tau( 102) = (    0.81235899224    0.06264734959    0.56246110394  )
       103           Si  tau( 103) = (    0.74994933639    0.00004533837    0.75002549166  )
       104           Si  tau( 104) = (    0.81226517449    0.06259734017    0.81262692390  )
       105           Si  tau( 105) = (    0.75008819228    0.25013491499   -0.00001637188  )
       106           Si  tau( 106) = (    0.81246888814    0.31234820787    0.06251435567  )
       107           Si  tau( 107) = (    0.75017118990    0.24980268347    0.24997886933  )
       108           Si  tau( 108) = (    0.81253337638    0.31255281318    0.31235393747  )
       109           Si  tau( 109) = (    0.74987057384    0.24988912440    0.50008329665  )
       110           Si  tau( 110) = (    0.81227065842    0.31250485812    0.56267139183  )
       111           Si  tau( 111) = (    0.75030476406    0.24991665613    0.74989028314  )
       112           Si  tau( 112) = (    0.81229413152    0.31249364310    0.81256124390  )
       113           Si  tau( 113) = (    0.75004731655    0.49981220419    0.00019174551  )
       114           Si  tau( 114) = (    0.81239982353    0.56263236957    0.06255185756  )
       115           Si  tau( 115) = (    0.74984319820    0.50005929903    0.25000489669  )
       116           Si  tau( 116) = (    0.81259838698    0.56260218506    0.31216125772  )
       117           Si  tau( 117) = (    0.74976636514    0.50000076261    0.50001623612  )
       118           Si  tau( 118) = (    0.81239787696    0.56252426882    0.56261471689  )
       119           Si  tau( 119) = (    0.74994588533    0.50018737237    0.74987674994  )
       120           Si  tau( 120) = (    0.81249841494    0.56228142665    0.81258424090  )
       121           Si  tau( 121) = (    0.75009884401    0.74995225333   -0.00017528244  )
       122           Si  tau( 122) = (    0.81263966873    0.81227525285    0.06252991683  )
       123           Si  tau( 123) = (    0.75007987463    0.75006314942    0.24988922516  )
       124           Si  tau( 124) = (    0.81242551308    0.81243552172    0.31240523050  )
       125           Si  tau( 125) = (    0.74983422525    0.74993117982    0.49992255387  )
       126           Si  tau( 126) = (    0.81244488963    0.81246371547    0.56249991979  )
       127           Si  tau( 127) = (    0.74984580437    0.75004605003    0.74998243317  )
       128           Si  tau( 128) = (    0.81253318701    0.81258080339    0.81246404382  )

     number of k points=     8  gaussian smearing, width (Ry)=  0.0150
                       cart. coord. in units 2pi/alat
        k(    1) = (   0.0000000   0.0000000   0.0000000), wk =   0.2500000
        k(    2) = (  -0.3535534  -0.3535534   0.3535534), wk =   0.2500000
        k(    3) = (  -0.7071068   0.0000000   0.0000000), wk =   0.2500000
        k(    4) = (   0.3535534   0.3535534   0.3535534), wk =   0.2500000
        k(    5) = (   0.3535534  -0.3535534  -0.3535534), wk =   0.2500000
        k(    6) = (  -0.3535534   0.3535534  -0.3535534), wk =   0.2500000
        k(    7) = (   0.0000000  -0.7071068   0.0000000), wk =   0.2500000
        k(    8) = (   0.0000000   0.0000000  -0.7071068), wk =   0.2500000

                       cryst. coord.
        k(    1) = (   0.0000000   0.0000000   0.0000000), wk =   0.2500000
        k(    2) = (   0.0000000   0.0000000  -0.5000000), wk =   0.2500000
        k(    3) = (   0.0000000  -0.5000000  -0.5000000), wk =   0.2500000
        k(    4) = (   0.5000000   0.5000000   0.5000000), wk =   0.2500000
        k(    5) = (  -0.5000000   0.0000000   0.0000000), wk =   0.2500000
        k(    6) = (   0.0000000  -0.5000000   0.0000000), wk =   0.2500000
        k(    7) = (  -0.5000000   0.0000000  -0.5000000), wk =   0.2500000
        k(    8) = (  -0.5000000  -0.5000000   0.0000000), wk =   0.2500000

     Dense  grid:   826925 G-vectors     FFT dimensions: ( 135, 135, 135)

     Smooth grid:   484169 G-vectors     FFT dimensions: ( 120, 120, 120)

     Largest allocated arrays     est. size (Mb)     dimensions
        Kohn-Sham Wavefunctions        18.42 Mb     (    3784,  319)
        NL pseudopotentials           133.03 Mb     (    3784, 2304)
        Each V/rho on FFT grid          2.50 Mb     (  164025)
        Each G-vector array             0.39 Mb     (   51681)
        G-vector shells                 0.02 Mb     (    2817)
     Largest temporary arrays     est. size (Mb)     dimensions
        Auxiliary wavefunctions        73.68 Mb     (    3784, 1276)
        Each subspace H/S matrix       24.84 Mb     (    1276, 1276)
        Each <psi_i|beta_j> matrix     11.21 Mb     (    2304,  319)
        Arrays for rho mixing          20.02 Mb     (  164025,    8)

     Initial potential from superposition of free atoms

     starting charge  531.91672, renormalised to  532.00000
     Starting wfc are  522 randomized atomic wfcs

     total cpu time spent up to now is      373.2 secs

     Self-consistent Calculation

     iteration #  1     ecut=    35.00 Ry     beta=0.30
     Davidson diagonalization with overlap
     ethr =  1.00E-02,  avg # of iterations =  3.0

     Threshold (ethr) on eigenvalues was too large:
     Diagonalizing with lowered threshold

     Davidson diagonalization with overlap
     ethr =  6.62E-04,  avg # of iterations =  2.1

     total cpu time spent up to now is     1918.0 secs

     total energy              =   -1631.47069590 Ry
     Harris-Foulkes estimate   =   -1631.83889032 Ry
     estimated scf accuracy    <       3.47287440 Ry

     iteration #  2     ecut=    35.00 Ry     beta=0.30
     Davidson diagonalization with overlap
     ethr =  6.53E-04,  avg # of iterations =  1.0

     total cpu time spent up to now is     2435.4 secs

     total energy              =   -1630.74372569 Ry
     Harris-Foulkes estimate   =   -1631.48750339 Ry
     estimated scf accuracy    <       2.15764876 Ry

     iteration #  3     ecut=    35.00 Ry     beta=0.30
     Davidson diagonalization with overlap
     ethr =  4.06E-04,  avg # of iterations =  8.5

     total cpu time spent up to now is     3220.0 secs

     total energy              =   -1630.88396055 Ry
     Harris-Foulkes estimate   =   -1630.87843143 Ry
     estimated scf accuracy    <       0.02506006 Ry

     iteration #  4     ecut=    35.00 Ry     beta=0.30
     Davidson diagonalization with overlap
     ethr =  4.71E-06,  avg # of iterations = 12.3

     total cpu time spent up to now is     4985.2 secs

     total energy              =   -1630.89898860 Ry
     Harris-Foulkes estimate   =   -1630.89852771 Ry
     estimated scf accuracy    <       0.01052320 Ry

     iteration #  5     ecut=    35.00 Ry     beta=0.30
     Davidson diagonalization with overlap
     ethr =  1.98E-06,  avg # of iterations =  3.0

     total cpu time spent up to now is     5622.7 secs

     total energy              =   -1630.89972621 Ry
     Harris-Foulkes estimate   =   -1630.89971073 Ry
     estimated scf accuracy    <       0.00029540 Ry

     iteration #  6     ecut=    35.00 Ry     beta=0.30
     Davidson diagonalization with overlap
     ethr =  5.55E-08,  avg # of iterations =  3.0

     total cpu time spent up to now is     6433.4 secs

     total energy              =   -1630.89983253 Ry
     Harris-Foulkes estimate   =   -1630.89985956 Ry
     estimated scf accuracy    <       0.00016950 Ry

     iteration #  7     ecut=    35.00 Ry     beta=0.30
     Davidson diagonalization with overlap
     ethr =  3.19E-08,  avg # of iterations =  1.1

     total cpu time spent up to now is     6954.9 secs

     total energy              =   -1630.89983941 Ry
     Harris-Foulkes estimate   =   -1630.89984138 Ry
     estimated scf accuracy    <       0.00002101 Ry

     iteration #  8     ecut=    35.00 Ry     beta=0.30
     Davidson diagonalization with overlap
     ethr =  3.95E-09,  avg # of iterations =  2.0

     total cpu time spent up to now is     7591.1 secs

     total energy              =   -1630.89984164 Ry
     Harris-Foulkes estimate   =   -1630.89984170 Ry
     estimated scf accuracy    <       0.00000329 Ry

     iteration #  9     ecut=    35.00 Ry     beta=0.30
     Davidson diagonalization with overlap
     ethr =  6.19E-10,  avg # of iterations =  3.0

     total cpu time spent up to now is     8323.9 secs

     total energy              =   -1630.89984151 Ry
     Harris-Foulkes estimate   =   -1630.89984188 Ry
     estimated scf accuracy    <       0.00000170 Ry

     iteration # 10     ecut=    35.00 Ry     beta=0.30
     Davidson diagonalization with overlap
     ethr =  3.20E-10,  avg # of iterations =  2.5

     total cpu time spent up to now is     9006.6 secs

     total energy              =   -1630.89984175 Ry
     Harris-Foulkes estimate   =   -1630.89984170 Ry
     estimated scf accuracy    <       0.00000032 Ry

     iteration # 11     ecut=    35.00 Ry     beta=0.30
     Davidson diagonalization with overlap
     ethr =  6.00E-11,  avg # of iterations =  2.3

     total cpu time spent up to now is     9570.6 secs

     total energy              =   -1630.89984176 Ry
     Harris-Foulkes estimate   =   -1630.89984178 Ry
     estimated scf accuracy    <       0.00000017 Ry

     iteration # 12     ecut=    35.00 Ry     beta=0.30
     Davidson diagonalization with overlap
     ethr =  3.18E-11,  avg # of iterations =  2.0

     total cpu time spent up to now is    10143.8 secs

     total energy              =   -1630.89984178 Ry
     Harris-Foulkes estimate   =   -1630.89984177 Ry
     estimated scf accuracy    <       0.00000003 Ry

     iteration # 13     ecut=    35.00 Ry     beta=0.30
     Davidson diagonalization with overlap
     ethr =  5.51E-12,  avg # of iterations =  3.0

     total cpu time spent up to now is    10732.8 secs

     total energy              =   -1630.89984178 Ry
     Harris-Foulkes estimate   =   -1630.89984178 Ry
     estimated scf accuracy    <          6.9E-09 Ry

     iteration # 14     ecut=    35.00 Ry     beta=0.30
     Davidson diagonalization with overlap
     ethr =  1.30E-12,  avg # of iterations =  3.0

     total cpu time spent up to now is    11507.2 secs

     End of self-consistent calculation

          k = 0.0000 0.0000 0.0000 ( 60495 PWs)   bands (ev):

   -18.2098 -18.0944 -18.0939 -18.0395 -18.0393 -18.0173 -18.0172 -17.9619
   -17.9616 -17.8956  -5.8275  -5.2368  -5.0104  -4.9893  -4.9889  -4.9872
    -4.9860  -4.9847  -4.9834  -4.7774  -4.7264  -4.7060  -4.7050  -4.7030
    -4.7023  -3.9498  -3.8228  -3.7413  -3.7406  -3.7392  -3.7382  -3.7377
    -3.7371  -3.7368  -3.7359  -3.7344  -3.7324  -3.4923  -3.4685  -3.4433
    -3.4413  -3.2319  -3.1969  -3.0674  -3.0653  -3.0640  -3.0634  -3.0631
    -3.0626  -3.0622  -3.0619  -3.0608  -3.0603  -3.0597  -3.0594  -3.0588
    -3.0577  -3.0574  -3.0570  -3.0559  -3.0558  -3.0548  -3.0540  -3.0530
    -3.0516  -1.7174  -1.6852  -1.6350  -1.6337  -1.6329  -1.6317  -1.5344
    -1.5188  -1.4666  -1.4661  -1.4652  -1.4641  -1.4632  -1.4629  -1.4624
    -1.4616  -1.4604  -1.4585  -0.8415  -0.8241  -0.8203  -0.8178  -0.3754
    -0.2787  -0.2168  -0.2129  -0.2113  -0.2094  -0.2080  -0.2074  -0.2071
    -0.2062  -0.2056  -0.2055  -0.2048  -0.2045  -0.2043  -0.2033  -0.2021
    -0.2019  -0.2016  -0.2010  -0.1996  -0.1986  -0.1981  -0.1969   0.6217
     0.6775   0.6984   0.6996   0.7013   0.7017   0.7027   0.7034   0.7041
     0.7051   0.7063   0.7085   2.1981   2.2375   2.2402   2.2416   2.2436
     2.2462   2.2499   2.2504   2.2840   2.2864   2.2883   2.2902   2.2914
     2.2925   2.2930   2.2935   2.2935   2.2940   2.2943   2.2953   2.3854
     2.3886   2.3891   2.3903   2.3935   2.3937   2.3956   2.3957   2.3966
     2.3969   2.3973   2.3978   2.5787   2.6064   2.6117   2.6126   2.6131
     2.6162   2.6168   2.6179   2.6180   2.6186   2.6197   2.6198   2.6202
     2.6205   2.6214   2.6216   2.6218   2.6230   2.6230   2.6237   2.6240
     2.6248   2.6251   2.6260   2.6496   2.6711   2.6748   2.6765   2.6779
     2.6803   3.3206   3.3210   3.3214   3.3220   3.3227   3.3231   3.9689
     3.9690   3.9698   3.9710   3.9716   3.9717   3.9722   3.9729   3.9729
     3.9733   3.9742   3.9745   3.9749   3.9754   3.9764   3.9766   3.9767
     3.9771   3.9779   3.9783   3.9787   3.9798   3.9807   3.9813   4.2854
     4.2868   4.2875   4.2883   4.2887   4.2892   4.2898   4.2908   4.2910
     4.2957   4.2979   4.2987   4.8569   4.8578   4.8590   4.8594   4.8599
     4.8601   4.8607   4.8644   4.8646   4.8663   4.8674   4.8689   4.9887
     4.9915   4.9924   4.9932   4.9961   4.9967   4.9981   5.0016   5.4262
     5.4263   5.4286   5.4289   5.4294   5.4300   5.4309   5.4326   5.4331
     5.4341   5.4349   5.4360   5.4369   5.4527   5.4530   5.4566   6.2031
     6.2045   6.2073   6.7880   6.7899   6.8046   6.8058   6.8068   6.8075
     7.2208   7.2401   7.2412   7.2434   7.2458   7.2475   7.5503   7.5937
     7.6122   7.6141   7.6145   7.6147   7.6155   7.6166   7.6172   7.6176
     7.6180   7.6187   7.6194   7.6202   7.6207   7.6213   7.6220   7.6272
     7.6286   7.6380   7.6457   7.6521   7.6537   7.6548   7.6564   7.6571
     7.6784   7.6797   8.0950   8.1424   8.1542   8.1555   8.1565   8.1620
     8.1717   8.1727   8.5352   8.5576   8.5636   8.5647   8.5764

     occupation numbers 
     1.0000   1.0000   1.0000   1.0000   1.0000   1.0000   1.0000   1.0000
     1.0000   1.0000   1.0000   1.0000   1.0000   1.0000   1.0000   1.0000
     1.0000   1.0000   1.0000   1.0000   1.0000   1.0000   1.0000   1.0000
     1.0000   1.0000   1.0000   1.0000   1.0000   1.0000   1.0000   1.0000
     1.0000   1.0000   1.0000   1.0000   1.0000   1.0000   1.0000   1.0000
     1.0000   1.0000   1.0000   1.0000   1.0000   1.0000   1.0000   1.0000
     1.0000   1.0000   1.0000   1.0000   1.0000   1.0000   1.0000   1.0000
     1.0000   1.0000   1.0000   1.0000   1.0000   1.0000   1.0000   1.0000
     1.0000   1.0000   1.0000   1.0000   1.0000   1.0000   1.0000   1.0000
     1.0000   1.0000   1.0000   1.0000   1.0000   1.0000   1.0000   1.0000
     1.0000   1.0000   1.0000   1.0000   1.0000   1.0000   1.0000   1.0000
     1.0000   1.0000   1.0000   1.0000   1.0000   1.0000   1.0000   1.0000
     1.0000   1.0000   1.0000   1.0000   1.0000   1.0000   1.0000   1.0000
     1.0000   1.0000   1.0000   1.0000   1.0000   1.0000   1.0000   1.0000
     1.0000   1.0000   1.0000   1.0000   1.0000   1.0000   1.0000   1.0000
     1.0000   1.0000   1.0000   1.0000   1.0000   1.0000   1.0000   1.0000
     1.0000   1.0000   1.0000   1.0000   1.0000   1.0000   1.0000   1.0000
     1.0000   1.0000   1.0000   1.0000   1.0000   1.0000   1.0000   1.0000
     1.0000   1.0000   1.0000   1.0000   1.0000   1.0000   1.0000   1.0000
     1.0000   1.0000   1.0000   1.0000   1.0000   1.0000   1.0000   1.0000
     1.0000   1.0000   1.0000   1.0000   1.0000   1.0000   1.0000   1.0000
     1.0000   1.0000   1.0000   1.0000   1.0000   1.0000   1.0000   1.0000
     1.0000   1.0000   1.0000   1.0000   1.0000   1.0000   1.0000   1.0000
     1.0000   1.0000   1.0000   1.0000   1.0000   1.0000   1.0000   1.0000
     1.0000   1.0000   1.0000   1.0000   1.0000   1.0000   1.0000   1.0000
     1.0000   1.0000   1.0000   1.0000   1.0000   1.0000   1.0000   1.0000
     1.0000   1.0000   1.0000   1.0000   1.0000   1.0000   1.0000   1.0000
     1.0000   1.0000   1.0000   1.0000   1.0000   1.0000   1.0000   1.0000
     1.0000   1.0000   1.0000   1.0000   1.0000   1.0000   1.0000   1.0000
     1.0000   1.0000   1.0000   1.0000   1.0000   1.0000   1.0000   1.0000
     1.0000   1.0000   1.0000   1.0000   1.0000   1.0000   1.0000   1.0000
     1.0000   1.0000   1.0000   1.0000   1.0000   1.0000   1.0000   1.0000
     1.0000   1.0000   1.0000   1.0000   1.0000   1.0000   1.0000   0.9419
     0.9408   0.9385   0.0065   0.0063   0.0047   0.0046   0.0045   0.0044
     0.0000   0.0000   0.0000   0.0000   0.0000   0.0000   0.0000   0.0000
     0.0000   0.0000   0.0000   0.0000   0.0000   0.0000   0.0000   0.0000
     0.0000   0.0000   0.0000   0.0000   0.0000   0.0000   0.0000   0.0000
     0.0000   0.0000   0.0000   0.0000   0.0000   0.0000   0.0000   0.0000
     0.0000   0.0000   0.0000   0.0000   0.0000   0.0000   0.0000   0.0000
     0.0000   0.0000   0.0000   0.0000   0.0000   0.0000   0.0000

          k =-0.3536-0.3536 0.3536 ( 60452 PWs)   bands (ev):

   -18.2098 -18.0944 -18.0938 -18.0394 -18.0392 -18.0173 -18.0171 -17.9619
   -17.9616 -17.8955  -5.6656  -5.5841  -5.2070  -5.0667  -5.0468  -5.0448
    -5.0442  -5.0440  -4.6581  -4.5571  -4.5362  -4.5353  -4.5340  -4.5331
    -4.1750  -4.0912  -4.0465  -4.0204  -3.9936  -3.9931  -3.9915  -3.9894
    -3.6929  -3.6664  -3.5671  -3.5651  -3.5646  -3.5636  -3.5622  -3.5620
    -3.5611  -3.5601  -3.5592  -3.5580  -3.3972  -3.3880  -3.3587  -3.3570
    -3.3564  -3.3550  -2.9266  -2.8699  -2.8541  -2.8521  -2.8508  -2.8486
    -2.5529  -2.5372  -2.4887  -2.4879  -2.4869  -2.4851  -2.3713  -2.3651
    -2.3095  -2.3081  -2.3075  -2.3067  -2.3056  -2.3047  -2.3044  -2.3042
    -2.3032  -2.3028  -0.9139  -0.8254  -0.7498  -0.7491  -0.7480  -0.7475
    -0.7471  -0.7454  -0.7451  -0.7450  -0.7430  -0.7428  -0.6712  -0.6635
    -0.6448  -0.6428  -0.6422  -0.6404  -0.6016  -0.5995  -0.5946  -0.5902
    -0.5863  -0.5851  -0.5038  -0.4743  -0.4704  -0.4680  -0.4639  -0.4620
     0.1933   0.2139   0.2718   0.3017   0.3301   0.3330   0.3348   0.3352
     0.3355   0.3369   0.3382   0.3386   0.3394   0.3405   1.1939   1.2376
     1.2461   1.2467   1.2484   1.2497   1.5167   1.5431   1.5461   1.5485
     1.5497   1.5529   2.0731   2.0762   2.0798   2.0816   2.0827   2.0828
     2.0836   2.0845   2.0847   2.0856   2.0860   2.0868   2.1456   2.1534
     2.1552   2.1562   2.1564   2.1580   2.7155   2.7161   2.7175   2.7199
     2.7208   2.7222   2.8248   2.8260   2.8291   2.8338   2.8358   2.8365
     2.8375   2.8377   2.8383   2.8390   2.8396   2.8410   2.9262   2.9548
     2.9555   2.9570   2.9583   2.9647   3.1957   3.1963   3.1980   3.1990
     3.2002   3.2006   3.2013   3.2017   3.2022   3.2030   3.2035   3.2043
     3.4873   3.4891   3.4909   3.4916   3.4930   3.4936   3.4938   3.4949
     3.4957   3.4963   3.4965   3.4985   3.8470   3.8553   3.8561   3.8578
     3.8590   3.8614   3.8845   3.8888   3.8928   3.8944   3.8948   3.8969
     3.9671   3.9692   3.9703   3.9712   3.9726   3.9750   4.2419   4.2429
     4.2438   4.2452   4.2461   4.2467   4.2472   4.2480   4.2494   4.2500
     4.2523   4.2527   4.2949   4.2958   4.2971   4.2978   4.2988   4.2998
     4.5748   4.5907   4.6215   4.6230   4.6247   4.6266   4.6270   4.6301
     4.8624   4.8635   4.8663   4.8679   4.8719   4.8745   4.9281   4.9350
     4.9383   4.9405   4.9428   4.9572   5.1027   5.1069   5.1085   5.1106
     5.4180   5.4198   5.4212   5.4234   5.4280   5.4323   5.9027   5.9077
     5.9160   5.9185   6.9795   6.9823   6.9858   6.9877   6.9965   7.0035
     7.4462   7.4586   7.4609   7.4627   7.4658   7.4715   7.7699   7.7882
     7.9350   7.9432   7.9480   7.9512   7.9617   7.9668   8.0661   8.0674
     8.0702   8.0798   8.0842   8.0874   8.2707   8.2759   8.2796   8.2816
     8.2825   8.2851   8.2991   8.3143   8.3159   8.3169   8.3210   8.3450
     8.4918   8.4926   8.4951   8.4962   8.4966   8.4971   8.4986   8.5022
     8.5045   8.5129   8.5258   8.5364   8.6376   8.6406   8.8247

     occupation numbers 
     1.0000   1.0000   1.0000   1.0000   1.0000   1.0000   1.0000   1.0000
     1.0000   1.0000   1.0000   1.0000   1.0000   1.0000   1.0000   1.0000
     1.0000   1.0000   1.0000   1.0000   1.0000   1.0000   1.0000   1.0000
     1.0000   1.0000   1.0000   1.0000   1.0000   1.0000   1.0000   1.0000
     1.0000   1.0000   1.0000   1.0000   1.0000   1.0000   1.0000   1.0000
     1.0000   1.0000   1.0000   1.0000   1.0000   1.0000   1.0000   1.0000
     1.0000   1.0000   1.0000   1.0000   1.0000   1.0000   1.0000   1.0000
     1.0000   1.0000   1.0000   1.0000   1.0000   1.0000   1.0000   1.0000
     1.0000   1.0000   1.0000   1.0000   1.0000   1.0000   1.0000   1.0000
     1.0000   1.0000   1.0000   1.0000   1.0000   1.0000   1.0000   1.0000
     1.0000   1.0000   1.0000   1.0000   1.0000   1.0000   1.0000   1.0000
     1.0000   1.0000   1.0000   1.0000   1.0000   1.0000   1.0000   1.0000
     1.0000   1.0000   1.0000   1.0000   1.0000   1.0000   1.0000   1.0000
     1.0000   1.0000   1.0000   1.0000   1.0000   1.0000   1.0000   1.0000
     1.0000   1.0000   1.0000   1.0000   1.0000   1.0000   1.0000   1.0000
     1.0000   1.0000   1.0000   1.0000   1.0000   1.0000   1.0000   1.0000
     1.0000   1.0000   1.0000   1.0000   1.0000   1.0000   1.0000   1.0000
     1.0000   1.0000   1.0000   1.0000   1.0000   1.0000   1.0000   1.0000
     1.0000   1.0000   1.0000   1.0000   1.0000   1.0000   1.0000   1.0000
     1.0000   1.0000   1.0000   1.0000   1.0000   1.0000   1.0000   1.0000
     1.0000   1.0000   1.0000   1.0000   1.0000   1.0000   1.0000   1.0000
     1.0000   1.0000   1.0000   1.0000   1.0000   1.0000   1.0000   1.0000
     1.0000   1.0000   1.0000   1.0000   1.0000   1.0000   1.0000   1.0000
     1.0000   1.0000   1.0000   1.0000   1.0000   1.0000   1.0000   1.0000
     1.0000   1.0000   1.0000   1.0000   1.0000   1.0000   1.0000   1.0000
     1.0000   1.0000   1.0000   1.0000   1.0000   1.0000   1.0000   1.0000
     1.0000   1.0000   1.0000   1.0000   1.0000   1.0000   1.0000   1.0000
     1.0000   1.0000   1.0000   1.0000   1.0000   1.0000   1.0000   1.0000
     1.0000   1.0000   1.0000   1.0000   1.0000   1.0000   1.0000   1.0000
     1.0000   1.0000   1.0000   1.0000   1.0000   1.0000   1.0000   1.0000
     1.0000   1.0000   1.0000   1.0000   1.0000   1.0000   1.0000   1.0000
     1.0000   1.0000   1.0000   1.0000   1.0000   1.0000   1.0000   1.0000
     1.0000   1.0000   1.0000   1.0000   1.0000   1.0000   0.9999   0.9999
     0.9998   0.9998   0.0001   0.0001   0.0001   0.0001   0.0000   0.0000
     0.0000   0.0000   0.0000   0.0000   0.0000   0.0000   0.0000   0.0000
     0.0000   0.0000   0.0000   0.0000   0.0000   0.0000   0.0000   0.0000
     0.0000   0.0000   0.0000   0.0000   0.0000   0.0000   0.0000   0.0000
     0.0000   0.0000   0.0000   0.0000   0.0000   0.0000   0.0000   0.0000
     0.0000   0.0000   0.0000   0.0000   0.0000   0.0000   0.0000   0.0000
     0.0000   0.0000   0.0000   0.0000   0.0000   0.0000   0.0000

          k =-0.7071 0.0000 0.0000 ( 60622 PWs)   bands (ev):

   -18.2098 -18.0944 -18.0938 -18.0395 -18.0392 -18.0173 -18.0172 -17.9619
   -17.9616 -17.8955  -5.6088  -5.5171  -5.3423  -5.2549  -5.2475  -5.2461
    -4.6696  -4.4964  -4.4590  -4.4582  -4.4558  -4.4551  -4.4549  -4.4522
    -4.3063  -4.2624  -4.2291  -4.2283  -4.2269  -4.2260  -4.2246  -4.2233
    -3.7214  -3.6594  -3.6071  -3.6057  -3.6055  -3.6045  -3.6032  -3.6014
    -3.4110  -3.4026  -3.2605  -3.2435  -3.1912  -3.1887  -3.1876  -3.1869
    -3.1856  -3.1842  -2.9697  -2.9537  -2.9050  -2.9047  -2.9033  -2.9024
    -2.9013  -2.9000  -2.7067  -2.6990  -2.6610  -2.6593  -2.6575  -2.6567
    -2.6562  -2.6555  -2.0737  -2.0680  -2.0417  -2.0385  -1.6209  -1.6002
    -1.5542  -1.5538  -1.5529  -1.5518  -1.5500  -1.5488  -1.0808  -1.0617
    -1.0446  -1.0424  -0.6914  -0.6452  -0.6256  -0.6222  -0.6207  -0.6201
    -0.6166  -0.6152  -0.4447  -0.4153  -0.3867  -0.3840  -0.3837  -0.3823
    -0.3809  -0.3802  -0.2461  -0.2288  -0.2208  -0.2194  -0.2157  -0.2134
    -0.2129  -0.2113   0.1664   0.1997   0.2235   0.2238   0.2255   0.2269
     0.2284   0.2289   0.4330   0.4388   0.8455   0.8742   0.8813   0.8833
     0.8847   0.8856   0.8870   0.8896   1.8331   1.8339   1.8374   1.8383
     1.8390   1.8840   1.8948   1.8952   1.8964   1.8973   1.8999   1.9017
     1.9093   1.9101   1.9116   1.9130   1.9136   1.9151   1.9153   1.9161
     2.6971   2.7022   2.7052   2.7066   2.7077   2.7101   2.7107   2.7118
     2.7353   2.7362   2.7370   2.7376   2.7396   2.7401   2.7411   2.7413
     2.7901   2.7909   2.7919   2.7924   2.7930   2.7941   2.7947   2.7955
     3.4017   3.4028   3.4040   3.4049   3.4054   3.4061   3.4070   3.4075
     3.4415   3.4436   3.4463   3.4469   3.4473   3.4487   3.4493   3.4517
     3.4755   3.4991   3.5042   3.5056   3.5659   3.5677   3.5703   3.5714
     3.5791   3.5797   3.5804   3.5819   3.5826   3.5830   3.5838   3.5847
     3.6986   3.7060   3.7069   3.7077   3.7079   3.7101   3.7105   3.7124
     3.7514   3.7525   3.7531   3.7553   4.0114   4.0121   4.0132   4.0141
     4.0151   4.0163   4.0166   4.0174   4.3294   4.3390   4.3401   4.3416
     4.3434   4.3441   4.3458   4.3485   4.5403   4.5417   4.5425   4.5521
     4.5934   4.5951   4.5969   4.5987   4.5994   4.5999   4.6029   4.6038
     4.7505   4.7534   4.7541   4.7552   4.7573   4.7581   4.7607   4.7677
     4.8464   4.8680   4.9212   4.9215   4.9221   4.9251   4.9271   4.9278
     4.9318   4.9323   5.3763   5.3820   5.3883   5.3896   5.9044   5.9074
     5.9133   5.9167   6.7102   6.7144   7.2942   7.2958   7.3037   7.3076
     7.6284   7.6324   8.0520   8.0583   8.0593   8.0602   8.0641   8.0652
     8.0662   8.0672   8.0711   8.0738   8.0749   8.0753   8.0846   8.0872
     8.1026   8.1066   8.1419   8.1526   8.3520   8.3648   8.3671   8.3699
     8.3712   8.3728   8.3749   8.3928   8.4523   8.4829   8.4864   8.4882
     8.4887   8.4921   8.4936   8.5241   8.5709   8.5733   8.5752   8.5763
     8.5810   8.5819   8.5931   8.5953   8.7471   8.7568   8.7613

     occupation numbers 
     1.0000   1.0000   1.0000   1.0000   1.0000   1.0000   1.0000   1.0000
     1.0000   1.0000   1.0000   1.0000   1.0000   1.0000   1.0000   1.0000
     1.0000   1.0000   1.0000   1.0000   1.0000   1.0000   1.0000   1.0000
     1.0000   1.0000   1.0000   1.0000   1.0000   1.0000   1.0000   1.0000
     1.0000   1.0000   1.0000   1.0000   1.0000   1.0000   1.0000   1.0000
     1.0000   1.0000   1.0000   1.0000   1.0000   1.0000   1.0000   1.0000
     1.0000   1.0000   1.0000   1.0000   1.0000   1.0000   1.0000   1.0000
     1.0000   1.0000   1.0000   1.0000   1.0000   1.0000   1.0000   1.0000
     1.0000   1.0000   1.0000   1.0000   1.0000   1.0000   1.0000   1.0000
     1.0000   1.0000   1.0000   1.0000   1.0000   1.0000   1.0000   1.0000
     1.0000   1.0000   1.0000   1.0000   1.0000   1.0000   1.0000   1.0000
     1.0000   1.0000   1.0000   1.0000   1.0000   1.0000   1.0000   1.0000
     1.0000   1.0000   1.0000   1.0000   1.0000   1.0000   1.0000   1.0000
     1.0000   1.0000   1.0000   1.0000   1.0000   1.0000   1.0000   1.0000
     1.0000   1.0000   1.0000   1.0000   1.0000   1.0000   1.0000   1.0000
     1.0000   1.0000   1.0000   1.0000   1.0000   1.0000   1.0000   1.0000
     1.0000   1.0000   1.0000   1.0000   1.0000   1.0000   1.0000   1.0000
     1.0000   1.0000   1.0000   1.0000   1.0000   1.0000   1.0000   1.0000
     1.0000   1.0000   1.0000   1.0000   1.0000   1.0000   1.0000   1.0000
     1.0000   1.0000   1.0000   1.0000   1.0000   1.0000   1.0000   1.0000
     1.0000   1.0000   1.0000   1.0000   1.0000   1.0000   1.0000   1.0000
     1.0000   1.0000   1.0000   1.0000   1.0000   1.0000   1.0000   1.0000
     1.0000   1.0000   1.0000   1.0000   1.0000   1.0000   1.0000   1.0000
     1.0000   1.0000   1.0000   1.0000   1.0000   1.0000   1.0000   1.0000
     1.0000   1.0000   1.0000   1.0000   1.0000   1.0000   1.0000   1.0000
     1.0000   1.0000   1.0000   1.0000   1.0000   1.0000   1.0000   1.0000
     1.0000   1.0000   1.0000   1.0000   1.0000   1.0000   1.0000   1.0000
     1.0000   1.0000   1.0000   1.0000   1.0000   1.0000   1.0000   1.0000
     1.0000   1.0000   1.0000   1.0000   1.0000   1.0000   1.0000   1.0000
     1.0000   1.0000   1.0000   1.0000   1.0000   1.0000   1.0000   1.0000
     1.0000   1.0000   1.0000   1.0000   1.0000   1.0000   1.0000   1.0000
     1.0000   1.0000   1.0000   1.0000   1.0000   1.0000   1.0000   1.0000
     1.0000   1.0000   1.0000   1.0000   1.0000   1.0000   0.9999   0.9999
     0.9998   0.9998   0.0260   0.0243   0.0000   0.0000   0.0000   0.0000
     0.0000   0.0000   0.0000   0.0000   0.0000   0.0000   0.0000   0.0000
     0.0000   0.0000   0.0000   0.0000   0.0000   0.0000   0.0000   0.0000
     0.0000   0.0000   0.0000   0.0000   0.0000   0.0000   0.0000   0.0000
     0.0000   0.0000   0.0000   0.0000   0.0000   0.0000   0.0000   0.0000
     0.0000   0.0000   0.0000   0.0000   0.0000   0.0000   0.0000   0.0000
     0.0000   0.0000   0.0000   0.0000   0.0000   0.0000   0.0000

          k = 0.3536 0.3536 0.3536 ( 60452 PWs)   bands (ev):

   -18.2098 -18.0943 -18.0938 -18.0395 -18.0393 -18.0173 -18.0172 -17.9619
   -17.9616 -17.8955  -5.6613  -5.5883  -5.2224  -5.0477  -5.0467  -5.0461
    -5.0439  -5.0431  -4.6463  -4.5688  -4.5358  -4.5350  -4.5338  -4.5323
    -4.1401  -4.1325  -4.0566  -4.0282  -3.9946  -3.9928  -3.9900  -3.9883
    -3.7558  -3.5744  -3.5681  -3.5670  -3.5649  -3.5635  -3.5631  -3.5625
    -3.5618  -3.5607  -3.5580  -3.5574  -3.4016  -3.3604  -3.3586  -3.3574
    -3.3566  -3.3556  -2.9767  -2.8596  -2.8533  -2.8522  -2.8507  -2.8499
    -2.5651  -2.5172  -2.4891  -2.4880  -2.4870  -2.4862  -2.3739  -2.3593
    -2.3096  -2.3083  -2.3079  -2.3071  -2.3064  -2.3059  -2.3040  -2.3030
    -2.3023  -2.3007  -0.9224  -0.8130  -0.7536  -0.7505  -0.7492  -0.7483
    -0.7469  -0.7462  -0.7456  -0.7444  -0.7439  -0.7411  -0.6754  -0.6562
    -0.6454  -0.6431  -0.6426  -0.6397  -0.6046  -0.5945  -0.5932  -0.5905
    -0.5899  -0.5840  -0.5117  -0.4693  -0.4676  -0.4644  -0.4640  -0.4637
     0.1982   0.2050   0.2562   0.3238   0.3280   0.3304   0.3323   0.3343
     0.3354   0.3371   0.3375   0.3391   0.3401   0.3423   1.2089   1.2249
     1.2463   1.2471   1.2478   1.2511   1.5255   1.5361   1.5447   1.5460
     1.5516   1.5520   2.0746   2.0754   2.0764   2.0799   2.0825   2.0835
     2.0842   2.0851   2.0856   2.0857   2.0869   2.0873   2.1433   2.1534
     2.1550   2.1566   2.1572   2.1574   2.7154   2.7182   2.7185   2.7201
     2.7208   2.7213   2.8094   2.8326   2.8335   2.8343   2.8347   2.8359
     2.8371   2.8379   2.8381   2.8397   2.8399   2.8404   2.9226   2.9556
     2.9565   2.9571   2.9627   2.9638   3.1944   3.1977   3.1979   3.1984
     3.2000   3.2006   3.2010   3.2018   3.2026   3.2035   3.2038   3.2044
     3.4851   3.4894   3.4908   3.4915   3.4923   3.4936   3.4948   3.4950
     3.4955   3.4957   3.4971   3.4982   3.8496   3.8556   3.8567   3.8581
     3.8592   3.8599   3.8853   3.8909   3.8927   3.8940   3.8945   3.8968
     3.9674   3.9689   3.9695   3.9702   3.9731   3.9750   4.2429   4.2434
     4.2445   4.2454   4.2461   4.2468   4.2475   4.2484   4.2492   4.2502
     4.2507   4.2551   4.2950   4.2951   4.2970   4.2976   4.2985   4.2998
     4.5788   4.5878   4.6198   4.6210   4.6229   4.6233   4.6320   4.6324
     4.8619   4.8630   4.8641   4.8649   4.8757   4.8760   4.9312   4.9375
     4.9398   4.9403   4.9416   4.9538   5.1020   5.1066   5.1085   5.1104
     5.4179   5.4180   5.4218   5.4237   5.4286   5.4312   5.8990   5.9074
     5.9171   5.9205   6.9701   6.9838   6.9865   6.9875   7.0034   7.0046
     7.4518   7.4531   7.4605   7.4623   7.4689   7.4701   7.7762   7.7856
     7.9368   7.9390   7.9498   7.9501   7.9667   7.9673   8.0580   8.0694
     8.0707   8.0768   8.0857   8.0873   8.2675   8.2725   8.2780   8.2800
     8.2832   8.2836   8.2879   8.3116   8.3177   8.3199   8.3390   8.3406
     8.4876   8.4935   8.4947   8.4960   8.4970   8.4973   8.4980   8.4992
     8.5001   8.5063   8.5351   8.5384   8.6378   8.6424   8.8102

     occupation numbers 
     1.0000   1.0000   1.0000   1.0000   1.0000   1.0000   1.0000   1.0000
     1.0000   1.0000   1.0000   1.0000   1.0000   1.0000   1.0000   1.0000
     1.0000   1.0000   1.0000   1.0000   1.0000   1.0000   1.0000   1.0000
     1.0000   1.0000   1.0000   1.0000   1.0000   1.0000   1.0000   1.0000
     1.0000   1.0000   1.0000   1.0000   1.0000   1.0000   1.0000   1.0000
     1.0000   1.0000   1.0000   1.0000   1.0000   1.0000   1.0000   1.0000
     1.0000   1.0000   1.0000   1.0000   1.0000   1.0000   1.0000   1.0000
     1.0000   1.0000   1.0000   1.0000   1.0000   1.0000   1.0000   1.0000
     1.0000   1.0000   1.0000   1.0000   1.0000   1.0000   1.0000   1.0000
     1.0000   1.0000   1.0000   1.0000   1.0000   1.0000   1.0000   1.0000
     1.0000   1.0000   1.0000   1.0000   1.0000   1.0000   1.0000   1.0000
     1.0000   1.0000   1.0000   1.0000   1.0000   1.0000   1.0000   1.0000
     1.0000   1.0000   1.0000   1.0000   1.0000   1.0000   1.0000   1.0000
     1.0000   1.0000   1.0000   1.0000   1.0000   1.0000   1.0000   1.0000
     1.0000   1.0000   1.0000   1.0000   1.0000   1.0000   1.0000   1.0000
     1.0000   1.0000   1.0000   1.0000   1.0000   1.0000   1.0000   1.0000
     1.0000   1.0000   1.0000   1.0000   1.0000   1.0000   1.0000   1.0000
     1.0000   1.0000   1.0000   1.0000   1.0000   1.0000   1.0000   1.0000
     1.0000   1.0000   1.0000   1.0000   1.0000   1.0000   1.0000   1.0000
     1.0000   1.0000   1.0000   1.0000   1.0000   1.0000   1.0000   1.0000
     1.0000   1.0000   1.0000   1.0000   1.0000   1.0000   1.0000   1.0000
     1.0000   1.0000   1.0000   1.0000   1.0000   1.0000   1.0000   1.0000
     1.0000   1.0000   1.0000   1.0000   1.0000   1.0000   1.0000   1.0000
     1.0000   1.0000   1.0000   1.0000   1.0000   1.0000   1.0000   1.0000
     1.0000   1.0000   1.0000   1.0000   1.0000   1.0000   1.0000   1.0000
     1.0000   1.0000   1.0000   1.0000   1.0000   1.0000   1.0000   1.0000
     1.0000   1.0000   1.0000   1.0000   1.0000   1.0000   1.0000   1.0000
     1.0000   1.0000   1.0000   1.0000   1.0000   1.0000   1.0000   1.0000
     1.0000   1.0000   1.0000   1.0000   1.0000   1.0000   1.0000   1.0000
     1.0000   1.0000   1.0000   1.0000   1.0000   1.0000   1.0000   1.0000
     1.0000   1.0000   1.0000   1.0000   1.0000   1.0000   1.0000   1.0000
     1.0000   1.0000   1.0000   1.0000   1.0000   1.0000   1.0000   1.0000
     1.0000   1.0000   1.0000   1.0000   1.0000   1.0000   0.9999   0.9999
     0.9998   0.9998   0.0001   0.0001   0.0001   0.0001   0.0000   0.0000
     0.0000   0.0000   0.0000   0.0000   0.0000   0.0000   0.0000   0.0000
     0.0000   0.0000   0.0000   0.0000   0.0000   0.0000   0.0000   0.0000
     0.0000   0.0000   0.0000   0.0000   0.0000   0.0000   0.0000   0.0000
     0.0000   0.0000   0.0000   0.0000   0.0000   0.0000   0.0000   0.0000
     0.0000   0.0000   0.0000   0.0000   0.0000   0.0000   0.0000   0.0000
     0.0000   0.0000   0.0000   0.0000   0.0000   0.0000   0.0000

          k = 0.3536-0.3536-0.3536 ( 60452 PWs)   bands (ev):

   -18.2098 -18.0943 -18.0939 -18.0394 -18.0392 -18.0172 -18.0172 -17.9619
   -17.9616 -17.8955  -5.6655  -5.5843  -5.2073  -5.0666  -5.0466  -5.0451
    -5.0449  -5.0428  -4.6567  -4.5569  -4.5369  -4.5358  -4.5342  -4.5333
    -4.1747  -4.0918  -4.0473  -4.0199  -3.9941  -3.9934  -3.9916  -3.9902
    -3.6924  -3.6664  -3.5660  -3.5642  -3.5639  -3.5633  -3.5627  -3.5624
    -3.5612  -3.5610  -3.5590  -3.5576  -3.3949  -3.3898  -3.3576  -3.3562
    -3.3557  -3.3546  -2.9271  -2.8720  -2.8541  -2.8523  -2.8515  -2.8507
    -2.5533  -2.5357  -2.4889  -2.4882  -2.4861  -2.4854  -2.3700  -2.3655
    -2.3102  -2.3087  -2.3076  -2.3068  -2.3063  -2.3055  -2.3047  -2.3034
    -2.3027  -2.3000  -0.9131  -0.8264  -0.7523  -0.7502  -0.7492  -0.7468
    -0.7462  -0.7457  -0.7446  -0.7440  -0.7439  -0.7420  -0.6724  -0.6637
    -0.6452  -0.6425  -0.6417  -0.6403  -0.6051  -0.5983  -0.5968  -0.5895
    -0.5875  -0.5870  -0.5032  -0.4706  -0.4666  -0.4655  -0.4630  -0.4610
     0.1945   0.2154   0.2705   0.3018   0.3298   0.3318   0.3336   0.3342
     0.3353   0.3360   0.3368   0.3381   0.3394   0.3403   1.1956   1.2372
     1.2478   1.2488   1.2498   1.2503   1.5167   1.5433   1.5447   1.5497
     1.5503   1.5522   2.0731   2.0765   2.0796   2.0813   2.0826   2.0831
     2.0838   2.0843   2.0846   2.0854   2.0857   2.0866   2.1456   2.1513
     2.1526   2.1548   2.1584   2.1588   2.7163   2.7166   2.7181   2.7218
     2.7222   2.7224   2.8234   2.8274   2.8297   2.8333   2.8338   2.8350
     2.8366   2.8371   2.8379   2.8388   2.8391   2.8400   2.9256   2.9496
     2.9529   2.9562   2.9593   2.9664   3.1957   3.1961   3.1980   3.1992
     3.1999   3.2007   3.2013   3.2020   3.2026   3.2034   3.2039   3.2043
     3.4867   3.4895   3.4899   3.4907   3.4924   3.4935   3.4937   3.4940
     3.4945   3.4949   3.4968   3.4975   3.8489   3.8564   3.8573   3.8584
     3.8597   3.8617   3.8870   3.8901   3.8937   3.8949   3.8968   3.8988
     3.9666   3.9689   3.9699   3.9705   3.9724   3.9736   4.2437   4.2446
     4.2459   4.2465   4.2473   4.2480   4.2484   4.2487   4.2492   4.2515
     4.2523   4.2559   4.2939   4.2952   4.2961   4.2967   4.2986   4.2997
     4.5767   4.5929   4.6214   4.6232   4.6236   4.6244   4.6253   4.6281
     4.8615   4.8635   4.8641   4.8670   4.8706   4.8742   4.9330   4.9376
     4.9393   4.9437   4.9446   4.9565   5.1038   5.1046   5.1079   5.1097
     5.4169   5.4188   5.4212   5.4222   5.4265   5.4295   5.9039   5.9046
     5.9153   5.9171   6.9800   6.9818   6.9839   6.9866   6.9947   7.0033
     7.4471   7.4587   7.4605   7.4634   7.4653   7.4688   7.7696   7.7875
     7.9359   7.9434   7.9469   7.9485   7.9615   7.9650   8.0665   8.0684
     8.0708   8.0810   8.0845   8.0880   8.2700   8.2771   8.2786   8.2804
     8.2814   8.2852   8.3001   8.3146   8.3153   8.3158   8.3201   8.3443
     8.4926   8.4942   8.4958   8.4962   8.4968   8.4986   8.4997   8.5037
     8.5057   8.5145   8.5246   8.5376   8.6368   8.6399   8.8247

     occupation numbers 
     1.0000   1.0000   1.0000   1.0000   1.0000   1.0000   1.0000   1.0000
     1.0000   1.0000   1.0000   1.0000   1.0000   1.0000   1.0000   1.0000
     1.0000   1.0000   1.0000   1.0000   1.0000   1.0000   1.0000   1.0000
     1.0000   1.0000   1.0000   1.0000   1.0000   1.0000   1.0000   1.0000
     1.0000   1.0000   1.0000   1.0000   1.0000   1.0000   1.0000   1.0000
     1.0000   1.0000   1.0000   1.0000   1.0000   1.0000   1.0000   1.0000
     1.0000   1.0000   1.0000   1.0000   1.0000   1.0000   1.0000   1.0000
     1.0000   1.0000   1.0000   1.0000   1.0000   1.0000   1.0000   1.0000
     1.0000   1.0000   1.0000   1.0000   1.0000   1.0000   1.0000   1.0000
     1.0000   1.0000   1.0000   1.0000   1.0000   1.0000   1.0000   1.0000
     1.0000   1.0000   1.0000   1.0000   1.0000   1.0000   1.0000   1.0000
     1.0000   1.0000   1.0000   1.0000   1.0000   1.0000   1.0000   1.0000
     1.0000   1.0000   1.0000   1.0000   1.0000   1.0000   1.0000   1.0000
     1.0000   1.0000   1.0000   1.0000   1.0000   1.0000   1.0000   1.0000
     1.0000   1.0000   1.0000   1.0000   1.0000   1.0000   1.0000   1.0000
     1.0000   1.0000   1.0000   1.0000   1.0000   1.0000   1.0000   1.0000
     1.0000   1.0000   1.0000   1.0000   1.0000   1.0000   1.0000   1.0000
     1.0000   1.0000   1.0000   1.0000   1.0000   1.0000   1.0000   1.0000
     1.0000   1.0000   1.0000   1.0000   1.0000   1.0000   1.0000   1.0000
     1.0000   1.0000   1.0000   1.0000   1.0000   1.0000   1.0000   1.0000
     1.0000   1.0000   1.0000   1.0000   1.0000   1.0000   1.0000   1.0000
     1.0000   1.0000   1.0000   1.0000   1.0000   1.0000   1.0000   1.0000
     1.0000   1.0000   1.0000   1.0000   1.0000   1.0000   1.0000   1.0000
     1.0000   1.0000   1.0000   1.0000   1.0000   1.0000   1.0000   1.0000
     1.0000   1.0000   1.0000   1.0000   1.0000   1.0000   1.0000   1.0000
     1.0000   1.0000   1.0000   1.0000   1.0000   1.0000   1.0000   1.0000
     1.0000   1.0000   1.0000   1.0000   1.0000   1.0000   1.0000   1.0000
     1.0000   1.0000   1.0000   1.0000   1.0000   1.0000   1.0000   1.0000
     1.0000   1.0000   1.0000   1.0000   1.0000   1.0000   1.0000   1.0000
     1.0000   1.0000   1.0000   1.0000   1.0000   1.0000   1.0000   1.0000
     1.0000   1.0000   1.0000   1.0000   1.0000   1.0000   1.0000   1.0000
     1.0000   1.0000   1.0000   1.0000   1.0000   1.0000   1.0000   1.0000
     1.0000   1.0000   1.0000   1.0000   1.0000   1.0000   0.9999   0.9999
     0.9998   0.9998   0.0001   0.0001   0.0001   0.0001   0.0000   0.0000
     0.0000   0.0000   0.0000   0.0000   0.0000   0.0000   0.0000   0.0000
     0.0000   0.0000   0.0000   0.0000   0.0000   0.0000   0.0000   0.0000
     0.0000   0.0000   0.0000   0.0000   0.0000   0.0000   0.0000   0.0000
     0.0000   0.0000   0.0000   0.0000   0.0000   0.0000   0.0000   0.0000
     0.0000   0.0000   0.0000   0.0000   0.0000   0.0000   0.0000   0.0000
     0.0000   0.0000   0.0000   0.0000   0.0000   0.0000   0.0000

          k =-0.3536 0.3536-0.3536 ( 60452 PWs)   bands (ev):

   -18.2098 -18.0943 -18.0938 -18.0394 -18.0392 -18.0172 -18.0172 -17.9619
   -17.9616 -17.8955  -5.6655  -5.5842  -5.2075  -5.0670  -5.0465  -5.0444
    -5.0441  -5.0437  -4.6582  -4.5585  -4.5371  -4.5344  -4.5331  -4.5324
    -4.1768  -4.0908  -4.0460  -4.0215  -3.9935  -3.9927  -3.9909  -3.9891
    -3.6923  -3.6657  -3.5665  -3.5658  -3.5640  -3.5635  -3.5624  -3.5620
    -3.5617  -3.5605  -3.5599  -3.5577  -3.3955  -3.3901  -3.3586  -3.3581
    -3.3572  -3.3538  -2.9266  -2.8712  -2.8528  -2.8517  -2.8493  -2.8485
    -2.5553  -2.5360  -2.4898  -2.4880  -2.4854  -2.4850  -2.3713  -2.3666
    -2.3103  -2.3084  -2.3068  -2.3064  -2.3058  -2.3050  -2.3041  -2.3038
    -2.3029  -2.3021  -0.9136  -0.8248  -0.7504  -0.7496  -0.7492  -0.7478
    -0.7461  -0.7455  -0.7446  -0.7445  -0.7443  -0.7426  -0.6698  -0.6610
    -0.6441  -0.6433  -0.6421  -0.6410  -0.6032  -0.5989  -0.5933  -0.5889
    -0.5866  -0.5846  -0.5064  -0.4721  -0.4696  -0.4685  -0.4669  -0.4639
     0.1932   0.2130   0.2713   0.3021   0.3308   0.3332   0.3341   0.3352
     0.3366   0.3369   0.3386   0.3391   0.3399   0.3405   1.1931   1.2368
     1.2452   1.2464   1.2479   1.2502   1.5164   1.5430   1.5461   1.5488
     1.5507   1.5524   2.0731   2.0760   2.0793   2.0812   2.0824   2.0831
     2.0842   2.0847   2.0852   2.0858   2.0861   2.0866   2.1462   2.1521
     2.1549   2.1561   2.1577   2.1589   2.7145   2.7151   2.7173   2.7201
     2.7209   2.7221   2.8237   2.8265   2.8295   2.8338   2.8354   2.8369
     2.8372   2.8386   2.8392   2.8399   2.8404   2.8413   2.9264   2.9542
     2.9553   2.9581   2.9587   2.9660   3.1952   3.1958   3.1986   3.1996
     3.2007   3.2008   3.2012   3.2015   3.2021   3.2028   3.2030   3.2043
     3.4870   3.4895   3.4913   3.4920   3.4937   3.4940   3.4943   3.4949
     3.4954   3.4961   3.4970   3.4985   3.8467   3.8551   3.8560   3.8576
     3.8582   3.8609   3.8852   3.8888   3.8914   3.8917   3.8946   3.8971
     3.9669   3.9690   3.9703   3.9720   3.9724   3.9760   4.2414   4.2422
     4.2438   4.2444   4.2445   4.2457   4.2467   4.2471   4.2481   4.2498
     4.2511   4.2555   4.2944   4.2953   4.2979   4.2983   4.2999   4.3001
     4.5740   4.5903   4.6214   4.6243   4.6254   4.6260   4.6278   4.6303
     4.8629   4.8638   4.8665   4.8675   4.8723   4.8757   4.9284   4.9351
     4.9360   4.9392   4.9424   4.9555   5.1047   5.1052   5.1075   5.1119
     5.4180   5.4196   5.4209   5.4249   5.4301   5.4321   5.9056   5.9060
     5.9150   5.9199   6.9796   6.9823   6.9856   6.9880   6.9968   7.0047
     7.4471   7.4580   7.4605   7.4621   7.4670   7.4718   7.7702   7.7884
     7.9347   7.9439   7.9482   7.9521   7.9618   7.9669   8.0654   8.0673
     8.0712   8.0797   8.0827   8.0874   8.2695   8.2770   8.2788   8.2805
     8.2840   8.2849   8.2990   8.3154   8.3158   8.3167   8.3213   8.3454
     8.4901   8.4929   8.4942   8.4954   8.4963   8.4975   8.4989   8.5025
     8.5042   8.5122   8.5245   8.5372   8.6379   8.6414   8.8235

     occupation numbers 
     1.0000   1.0000   1.0000   1.0000   1.0000   1.0000   1.0000   1.0000
     1.0000   1.0000   1.0000   1.0000   1.0000   1.0000   1.0000   1.0000
     1.0000   1.0000   1.0000   1.0000   1.0000   1.0000   1.0000   1.0000
     1.0000   1.0000   1.0000   1.0000   1.0000   1.0000   1.0000   1.0000
     1.0000   1.0000   1.0000   1.0000   1.0000   1.0000   1.0000   1.0000
     1.0000   1.0000   1.0000   1.0000   1.0000   1.0000   1.0000   1.0000
     1.0000   1.0000   1.0000   1.0000   1.0000   1.0000   1.0000   1.0000
     1.0000   1.0000   1.0000   1.0000   1.0000   1.0000   1.0000   1.0000
     1.0000   1.0000   1.0000   1.0000   1.0000   1.0000   1.0000   1.0000
     1.0000   1.0000   1.0000   1.0000   1.0000   1.0000   1.0000   1.0000
     1.0000   1.0000   1.0000   1.0000   1.0000   1.0000   1.0000   1.0000
     1.0000   1.0000   1.0000   1.0000   1.0000   1.0000   1.0000   1.0000
     1.0000   1.0000   1.0000   1.0000   1.0000   1.0000   1.0000   1.0000
     1.0000   1.0000   1.0000   1.0000   1.0000   1.0000   1.0000   1.0000
     1.0000   1.0000   1.0000   1.0000   1.0000   1.0000   1.0000   1.0000
     1.0000   1.0000   1.0000   1.0000   1.0000   1.0000   1.0000   1.0000
     1.0000   1.0000   1.0000   1.0000   1.0000   1.0000   1.0000   1.0000
     1.0000   1.0000   1.0000   1.0000   1.0000   1.0000   1.0000   1.0000
     1.0000   1.0000   1.0000   1.0000   1.0000   1.0000   1.0000   1.0000
     1.0000   1.0000   1.0000   1.0000   1.0000   1.0000   1.0000   1.0000
     1.0000   1.0000   1.0000   1.0000   1.0000   1.0000   1.0000   1.0000
     1.0000   1.0000   1.0000   1.0000   1.0000   1.0000   1.0000   1.0000
     1.0000   1.0000   1.0000   1.0000   1.0000   1.0000   1.0000   1.0000
     1.0000   1.0000   1.0000   1.0000   1.0000   1.0000   1.0000   1.0000
     1.0000   1.0000   1.0000   1.0000   1.0000   1.0000   1.0000   1.0000
     1.0000   1.0000   1.0000   1.0000   1.0000   1.0000   1.0000   1.0000
     1.0000   1.0000   1.0000   1.0000   1.0000   1.0000   1.0000   1.0000
     1.0000   1.0000   1.0000   1.0000   1.0000   1.0000   1.0000   1.0000
     1.0000   1.0000   1.0000   1.0000   1.0000   1.0000   1.0000   1.0000
     1.0000   1.0000   1.0000   1.0000   1.0000   1.0000   1.0000   1.0000
     1.0000   1.0000   1.0000   1.0000   1.0000   1.0000   1.0000   1.0000
     1.0000   1.0000   1.0000   1.0000   1.0000   1.0000   1.0000   1.0000
     1.0000   1.0000   1.0000   1.0000   1.0000   1.0000   0.9999   0.9999
     0.9998   0.9998   0.0001   0.0001   0.0001   0.0001   0.0000   0.0000
     0.0000   0.0000   0.0000   0.0000   0.0000   0.0000   0.0000   0.0000
     0.0000   0.0000   0.0000   0.0000   0.0000   0.0000   0.0000   0.0000
     0.0000   0.0000   0.0000   0.0000   0.0000   0.0000   0.0000   0.0000
     0.0000   0.0000   0.0000   0.0000   0.0000   0.0000   0.0000   0.0000
     0.0000   0.0000   0.0000   0.0000   0.0000   0.0000   0.0000   0.0000
     0.0000   0.0000   0.0000   0.0000   0.0000   0.0000   0.0000

          k = 0.0000-0.7071 0.0000 ( 60622 PWs)   bands (ev):

   -18.2098 -18.0943 -18.0938 -18.0394 -18.0393 -18.0172 -18.0172 -17.9619
   -17.9616 -17.8955  -5.6090  -5.5167  -5.3424  -5.2550  -5.2476  -5.2460
    -4.6707  -4.4974  -4.4595  -4.4570  -4.4563  -4.4557  -4.4530  -4.4512
    -4.3048  -4.2631  -4.2287  -4.2278  -4.2269  -4.2262  -4.2256  -4.2240
    -3.7220  -3.6601  -3.6084  -3.6057  -3.6049  -3.6036  -3.6029  -3.6014
    -3.4106  -3.4037  -3.2615  -3.2434  -3.1905  -3.1886  -3.1875  -3.1863
    -3.1855  -3.1837  -2.9710  -2.9540  -2.9052  -2.9040  -2.9033  -2.9013
    -2.9008  -2.8998  -2.7055  -2.7023  -2.6608  -2.6588  -2.6585  -2.6574
    -2.6554  -2.6537  -2.0729  -2.0693  -2.0421  -2.0387  -1.6210  -1.5983
    -1.5551  -1.5546  -1.5527  -1.5518  -1.5499  -1.5482  -1.0819  -1.0632
    -1.0449  -1.0404  -0.6900  -0.6451  -0.6265  -0.6227  -0.6199  -0.6193
    -0.6172  -0.6162  -0.4465  -0.4125  -0.3865  -0.3843  -0.3838  -0.3834
    -0.3812  -0.3792  -0.2470  -0.2282  -0.2217  -0.2182  -0.2154  -0.2138
    -0.2136  -0.2103   0.1690   0.1997   0.2231   0.2246   0.2255   0.2257
     0.2274   0.2281   0.4322   0.4395   0.8447   0.8746   0.8812   0.8826
     0.8838   0.8872   0.8881   0.8891   1.8334   1.8348   1.8362   1.8379
     1.8400   1.8862   1.8935   1.8954   1.8965   1.8974   1.8990   1.9012
     1.9096   1.9098   1.9120   1.9122   1.9136   1.9148   1.9153   1.9162
     2.6983   2.7033   2.7055   2.7069   2.7074   2.7085   2.7104   2.7111
     2.7345   2.7364   2.7370   2.7378   2.7400   2.7401   2.7409   2.7416
     2.7903   2.7906   2.7917   2.7923   2.7930   2.7933   2.7953   2.7958
     3.4028   3.4033   3.4038   3.4049   3.4053   3.4059   3.4067   3.4068
     3.4415   3.4438   3.4458   3.4470   3.4482   3.4493   3.4498   3.4510
     3.4755   3.4991   3.5024   3.5063   3.5660   3.5671   3.5702   3.5722
     3.5790   3.5796   3.5810   3.5813   3.5820   3.5829   3.5844   3.5848
     3.6982   3.7044   3.7068   3.7085   3.7093   3.7102   3.7108   3.7119
     3.7506   3.7528   3.7541   3.7548   4.0118   4.0129   4.0135   4.0141
     4.0145   4.0155   4.0165   4.0172   4.3305   4.3365   4.3408   4.3422
     4.3441   4.3449   4.3455   4.3473   4.5402   4.5417   4.5426   4.5521
     4.5926   4.5962   4.5970   4.5979   4.5984   4.5995   4.6039   4.6044
     4.7502   4.7536   4.7549   4.7558   4.7570   4.7580   4.7599   4.7677
     4.8464   4.8680   4.9202   4.9219   4.9239   4.9257   4.9270   4.9276
     4.9300   4.9329   5.3792   5.3801   5.3875   5.3898   5.9027   5.9080
     5.9152   5.9158   6.7095   6.7150   7.2943   7.2952   7.3054   7.3065
     7.6291   7.6317   8.0522   8.0582   8.0591   8.0606   8.0638   8.0654
     8.0667   8.0673   8.0722   8.0735   8.0744   8.0761   8.0827   8.0848
     8.1052   8.1065   8.1417   8.1524   8.3536   8.3639   8.3685   8.3691
     8.3702   8.3714   8.3755   8.3931   8.4527   8.4822   8.4852   8.4893
     8.4895   8.4911   8.4935   8.5244   8.5705   8.5738   8.5756   8.5760
     8.5809   8.5823   8.5907   8.5976   8.7458   8.7545   8.7621

     occupation numbers 
     1.0000   1.0000   1.0000   1.0000   1.0000   1.0000   1.0000   1.0000
     1.0000   1.0000   1.0000   1.0000   1.0000   1.0000   1.0000   1.0000
     1.0000   1.0000   1.0000   1.0000   1.0000   1.0000   1.0000   1.0000
     1.0000   1.0000   1.0000   1.0000   1.0000   1.0000   1.0000   1.0000
     1.0000   1.0000   1.0000   1.0000   1.0000   1.0000   1.0000   1.0000
     1.0000   1.0000   1.0000   1.0000   1.0000   1.0000   1.0000   1.0000
     1.0000   1.0000   1.0000   1.0000   1.0000   1.0000   1.0000   1.0000
     1.0000   1.0000   1.0000   1.0000   1.0000   1.0000   1.0000   1.0000
     1.0000   1.0000   1.0000   1.0000   1.0000   1.0000   1.0000   1.0000
     1.0000   1.0000   1.0000   1.0000   1.0000   1.0000   1.0000   1.0000
     1.0000   1.0000   1.0000   1.0000   1.0000   1.0000   1.0000   1.0000
     1.0000   1.0000   1.0000   1.0000   1.0000   1.0000   1.0000   1.0000
     1.0000   1.0000   1.0000   1.0000   1.0000   1.0000   1.0000   1.0000
     1.0000   1.0000   1.0000   1.0000   1.0000   1.0000   1.0000   1.0000
     1.0000   1.0000   1.0000   1.0000   1.0000   1.0000   1.0000   1.0000
     1.0000   1.0000   1.0000   1.0000   1.0000   1.0000   1.0000   1.0000
     1.0000   1.0000   1.0000   1.0000   1.0000   1.0000   1.0000   1.0000
     1.0000   1.0000   1.0000   1.0000   1.0000   1.0000   1.0000   1.0000
     1.0000   1.0000   1.0000   1.0000   1.0000   1.0000   1.0000   1.0000
     1.0000   1.0000   1.0000   1.0000   1.0000   1.0000   1.0000   1.0000
     1.0000   1.0000   1.0000   1.0000   1.0000   1.0000   1.0000   1.0000
     1.0000   1.0000   1.0000   1.0000   1.0000   1.0000   1.0000   1.0000
     1.0000   1.0000   1.0000   1.0000   1.0000   1.0000   1.0000   1.0000
     1.0000   1.0000   1.0000   1.0000   1.0000   1.0000   1.0000   1.0000
     1.0000   1.0000   1.0000   1.0000   1.0000   1.0000   1.0000   1.0000
     1.0000   1.0000   1.0000   1.0000   1.0000   1.0000   1.0000   1.0000
     1.0000   1.0000   1.0000   1.0000   1.0000   1.0000   1.0000   1.0000
     1.0000   1.0000   1.0000   1.0000   1.0000   1.0000   1.0000   1.0000
     1.0000   1.0000   1.0000   1.0000   1.0000   1.0000   1.0000   1.0000
     1.0000   1.0000   1.0000   1.0000   1.0000   1.0000   1.0000   1.0000
     1.0000   1.0000   1.0000   1.0000   1.0000   1.0000   1.0000   1.0000
     1.0000   1.0000   1.0000   1.0000   1.0000   1.0000   1.0000   1.0000
     1.0000   1.0000   1.0000   1.0000   1.0000   1.0000   0.9999   0.9999
     0.9998   0.9998   0.0263   0.0241   0.0000   0.0000   0.0000   0.0000
     0.0000   0.0000   0.0000   0.0000   0.0000   0.0000   0.0000   0.0000
     0.0000   0.0000   0.0000   0.0000   0.0000   0.0000   0.0000   0.0000
     0.0000   0.0000   0.0000   0.0000   0.0000   0.0000   0.0000   0.0000
     0.0000   0.0000   0.0000   0.0000   0.0000   0.0000   0.0000   0.0000
     0.0000   0.0000   0.0000   0.0000   0.0000   0.0000   0.0000   0.0000
     0.0000   0.0000   0.0000   0.0000   0.0000   0.0000   0.0000

          k = 0.0000 0.0000-0.7071 ( 60622 PWs)   bands (ev):

   -18.2098 -18.0943 -18.0939 -18.0394 -18.0393 -18.0173 -18.0171 -17.9619
   -17.9616 -17.8955  -5.6085  -5.5176  -5.3423  -5.2552  -5.2474  -5.2455
    -4.6699  -4.4967  -4.4585  -4.4581  -4.4565  -4.4557  -4.4549  -4.4519
    -4.3056  -4.2629  -4.2290  -4.2280  -4.2260  -4.2256  -4.2256  -4.2235
    -3.7207  -3.6589  -3.6073  -3.6064  -3.6048  -3.6046  -3.6041  -3.6013
    -3.4103  -3.4040  -3.2614  -3.2430  -3.1913  -3.1891  -3.1877  -3.1863
[...]
     atom   77 type  1   force =   0.00000000E+00  0.00000000E+00  0.00000000E+00
     atom   78 type  1   force =   0.00000000E+00  0.00000000E+00  0.00000000E+00
     atom   79 type  1   force =   0.00000000E+00  0.00000000E+00  0.00000000E+00
     atom   80 type  1   force =   0.00000000E+00  0.00000000E+00  0.00000000E+00
     atom   81 type  1   force =   0.00000000E+00  0.00000000E+00  0.00000000E+00
     atom   82 type  1   force =   0.00000000E+00  0.00000000E+00  0.00000000E+00
     atom   83 type  1   force =   0.00000000E+00  0.00000000E+00  0.00000000E+00
     atom   84 type  1   force =   0.00000000E+00  0.00000000E+00  0.00000000E+00
     atom   85 type  1   force =   0.00000000E+00  0.00000000E+00  0.00000000E+00
     atom   86 type  1   force =   0.00000000E+00  0.00000000E+00  0.00000000E+00
     atom   87 type  1   force =   0.00000000E+00  0.00000000E+00  0.00000000E+00
     atom   88 type  1   force =   0.00000000E+00  0.00000000E+00  0.00000000E+00
     atom   89 type  1   force =   0.00000000E+00  0.00000000E+00  0.00000000E+00
     atom   90 type  1   force =   0.00000000E+00  0.00000000E+00  0.00000000E+00
     atom   91 type  1   force =   0.00000000E+00  0.00000000E+00  0.00000000E+00
     atom   92 type  1   force =   0.00000000E+00  0.00000000E+00  0.00000000E+00
     atom   93 type  1   force =   0.00000000E+00  0.00000000E+00  0.00000000E+00
     atom   94 type  1   force =   0.00000000E+00  0.00000000E+00  0.00000000E+00
     atom   95 type  1   force =   0.00000000E+00  0.00000000E+00  0.00000000E+00
     atom   96 type  1   force =   0.00000000E+00  0.00000000E+00  0.00000000E+00
     atom   97 type  1   force =   0.00000000E+00  0.00000000E+00  0.00000000E+00
     atom   98 type  1   force =   0.00000000E+00  0.00000000E+00  0.00000000E+00
     atom   99 type  1   force =   0.00000000E+00  0.00000000E+00  0.00000000E+00
     atom  100 type  1   force =   0.00000000E+00  0.00000000E+00  0.00000000E+00
     atom  101 type  1   force =   0.00000000E+00  0.00000000E+00  0.00000000E+00
     atom  102 type  1   force =   0.00000000E+00  0.00000000E+00  0.00000000E+00
     atom  103 type  1   force =   0.00000000E+00  0.00000000E+00  0.00000000E+00
     atom  104 type  1   force =   0.00000000E+00  0.00000000E+00  0.00000000E+00
     atom  105 type  1   force =   0.00000000E+00  0.00000000E+00  0.00000000E+00
     atom  106 type  1   force =   0.00000000E+00  0.00000000E+00  0.00000000E+00
     atom  107 type  1   force =   0.00000000E+00  0.00000000E+00  0.00000000E+00
     atom  108 type  1   force =   0.00000000E+00  0.00000000E+00  0.00000000E+00
     atom  109 type  1   force =   0.00000000E+00  0.00000000E+00  0.00000000E+00
     atom  110 type  1   force =   0.00000000E+00  0.00000000E+00  0.00000000E+00
     atom  111 type  1   force =   0.00000000E+00  0.00000000E+00  0.00000000E+00
     atom  112 type  1   force =   0.00000000E+00  0.00000000E+00  0.00000000E+00
     atom  113 type  1   force =   0.00000000E+00  0.00000000E+00  0.00000000E+00
     atom  114 type  1   force =   0.00000000E+00  0.00000000E+00  0.00000000E+00
     atom  115 type  1   force =   0.00000000E+00  0.00000000E+00  0.00000000E+00
     atom  116 type  1   force =   0.00000000E+00  0.00000000E+00  0.00000000E+00
     atom  117 type  1   force =   0.00000000E+00  0.00000000E+00  0.00000000E+00
     atom  118 type  1   force =   0.00000000E+00  0.00000000E+00  0.00000000E+00
     atom  119 type  1   force =   0.00000000E+00  0.00000000E+00  0.00000000E+00
     atom  120 type  1   force =   0.00000000E+00  0.00000000E+00  0.00000000E+00
     atom  121 type  1   force =   0.00000000E+00  0.00000000E+00  0.00000000E+00
     atom  122 type  1   force =   0.00000000E+00  0.00000000E+00  0.00000000E+00
     atom  123 type  1   force =   0.00000000E+00  0.00000000E+00  0.00000000E+00
     atom  124 type  1   force =   0.00000000E+00  0.00000000E+00  0.00000000E+00
     atom  125 type  1   force =   0.00000000E+00  0.00000000E+00  0.00000000E+00
     atom  126 type  1   force =   0.00000000E+00  0.00000000E+00  0.00000000E+00
     atom  127 type  1   force =   0.00000000E+00  0.00000000E+00  0.00000000E+00
     atom  128 type  1   force =   0.00000000E+00  0.00000000E+00  0.00000000E+00
     The SCF correction term to forces
     atom    1 type  2   force =   0.14472728E-04  0.14678264E-04  0.15499372E-04
     atom    2 type  2   force =  -0.14882093E-04 -0.15144648E-04 -0.14399719E-04
     atom    3 type  1   force =  -0.19073599E-05 -0.20271567E-05  0.21897434E-05
     atom    4 type  1   force =   0.14122611E-05  0.99715206E-06  0.64673930E-07
     atom    5 type  1   force =   0.15593262E-05  0.92787248E-06 -0.34602523E-06
     atom    6 type  1   force =  -0.86970619E-06 -0.14533277E-05  0.43562246E-06
     atom    7 type  1   force =  -0.10324769E-05 -0.13776428E-05 -0.26550326E-07
     atom    8 type  1   force =   0.20061376E-05  0.19065279E-05 -0.17962399E-05
     atom    9 type  1   force =  -0.16470551E-05  0.19747104E-05 -0.19740031E-05
     atom   10 type  1   force =   0.15060309E-05 -0.34250626E-06  0.84471907E-06
     atom   11 type  1   force =   0.44845191E-05 -0.36049946E-06 -0.24982228E-06
     atom   12 type  1   force =   0.37350172E-05 -0.10472823E-05 -0.10146461E-05
     atom   13 type  1   force =   0.20475777E-05 -0.36531381E-05 -0.31410555E-07
     atom   14 type  1   force =   0.22756958E-07 -0.34070060E-05  0.11884537E-05
     atom   15 type  1   force =  -0.26547915E-06 -0.23849111E-05  0.46719063E-06
     atom   16 type  1   force =   0.75780317E-07 -0.49319320E-06  0.20585109E-05
     atom   17 type  1   force =   0.16200173E-05 -0.85418123E-06  0.70465500E-06
     atom   18 type  1   force =  -0.93771898E-06  0.31585069E-06 -0.16486507E-05
     atom   19 type  1   force =   0.20037970E-05 -0.71180400E-07 -0.37236366E-05
     atom   20 type  1   force =  -0.17710146E-06  0.13357704E-05 -0.37165419E-05
     atom   21 type  1   force =   0.34847631E-06 -0.16559035E-05 -0.17796698E-05
     atom   22 type  1   force =  -0.22491203E-06  0.12017200E-05  0.10847473E-05
     atom   23 type  1   force =   0.54934042E-06 -0.17577470E-05  0.30054253E-05
     atom   24 type  1   force =  -0.14514044E-05 -0.24680239E-06  0.29252347E-05
     atom   25 type  1   force =  -0.11403497E-05 -0.11979628E-06 -0.14665421E-05
     atom   26 type  1   force =   0.19600334E-05 -0.19705805E-05  0.20369834E-05
     atom   27 type  1   force =  -0.23025941E-06  0.34315861E-06 -0.24354319E-05
     atom   28 type  1   force =   0.64520517E-07  0.21970327E-05 -0.33991564E-06
     atom   29 type  1   force =   0.57274846E-07  0.32219698E-05 -0.17672581E-05
     atom   30 type  1   force =  -0.17096499E-05  0.32407073E-05 -0.35966365E-07
     atom   31 type  1   force =  -0.29500967E-05  0.75030130E-06  0.22333081E-06
     atom   32 type  1   force =  -0.38562304E-05 -0.11109387E-06 -0.11960439E-06
     atom   33 type  1   force =   0.17719299E-05 -0.19569349E-05 -0.19565769E-05
     atom   34 type  1   force =  -0.39998391E-06  0.12291578E-05  0.11353947E-05
     atom   35 type  1   force =  -0.13772598E-06  0.41475367E-05 -0.24781827E-06
     atom   36 type  1   force =  -0.69226187E-06  0.34131964E-05 -0.83200486E-06
     atom   37 type  1   force =  -0.31410028E-05  0.19138977E-05  0.25895129E-06
     atom   38 type  1   force =  -0.31319398E-05 -0.90090266E-07  0.16150370E-05
     atom   39 type  1   force =  -0.21991422E-05 -0.14312363E-06  0.52333667E-06
     atom   40 type  1   force =  -0.55701729E-06  0.20445599E-06  0.23718187E-05
     atom   41 type  1   force =  -0.21176738E-06 -0.32665351E-06  0.40028349E-05
     atom   42 type  1   force =  -0.76573606E-06 -0.86365799E-06  0.33142863E-05
     atom   43 type  1   force =   0.11692137E-05  0.93484711E-06  0.55590352E-06
     atom   44 type  1   force =   0.12069787E-05  0.14624830E-05  0.12130178E-05
     atom   45 type  1   force =  -0.47831587E-06 -0.14626890E-06  0.26821081E-05
     atom   46 type  1   force =   0.16611316E-06  0.72783432E-06  0.57221509E-05
     atom   47 type  1   force =  -0.55165309E-06 -0.17106753E-06  0.56848571E-05
     atom   48 type  1   force =  -0.12055446E-05 -0.90498567E-06  0.68623534E-05
     atom   49 type  1   force =  -0.31410141E-05 -0.99220892E-07  0.17800999E-05
     atom   50 type  1   force =  -0.30010187E-05  0.16645526E-05  0.18372206E-06
     atom   51 type  1   force =  -0.24627446E-06  0.29104084E-05 -0.12944345E-06
     atom   52 type  1   force =   0.19174508E-06  0.58011303E-05  0.85871294E-06
     atom   53 type  1   force =  -0.18130171E-06  0.37990617E-05  0.39693218E-05
     atom   54 type  1   force =  -0.28909090E-05  0.41826303E-05  0.42362918E-05
     atom   55 type  1   force =  -0.33157337E-05  0.13509662E-06  0.56623284E-05
     atom   56 type  1   force =  -0.58144316E-05 -0.38120192E-07  0.33182942E-05
     atom   57 type  1   force =  -0.22234913E-05  0.59006481E-06  0.67388890E-07
     atom   58 type  1   force =  -0.69115451E-06  0.25341051E-05  0.34718504E-06
     atom   59 type  1   force =  -0.68064149E-06  0.59419720E-05 -0.10490907E-06
     atom   60 type  1   force =  -0.12695083E-05  0.70485722E-05 -0.75532799E-06
     atom   61 type  1   force =  -0.34927800E-05  0.56735586E-05  0.34294863E-06
     atom   62 type  1   force =  -0.58195720E-05  0.33223554E-05  0.13555284E-06
     atom   63 type  1   force =  -0.68775659E-05  0.96969279E-06  0.10257143E-05
     atom   64 type  1   force =  -0.56328274E-05  0.61793538E-06  0.69039327E-06
     atom   65 type  1   force =  -0.95249750E-06  0.12506237E-05  0.11107323E-05
     atom   66 type  1   force =   0.87992546E-09 -0.12363329E-05 -0.14779161E-05
     atom   67 type  1   force =  -0.11267176E-06  0.19297337E-05 -0.36266975E-05
     atom   68 type  1   force =   0.18671414E-05 -0.60717963E-07 -0.32931006E-05
     atom   69 type  1   force =  -0.10111807E-05  0.32592646E-06 -0.13210028E-05
     atom   70 type  1   force =   0.16576311E-05 -0.43985590E-06  0.13530924E-05
     atom   71 type  1   force =  -0.14721767E-05  0.14727940E-06  0.32593077E-05
     atom   72 type  1   force =  -0.17600703E-06 -0.17379159E-05  0.32208733E-05
     atom   73 type  1   force =  -0.13481925E-06 -0.35139850E-05  0.20117622E-05
     atom   74 type  1   force =   0.17582883E-05 -0.32456733E-05  0.25148120E-06
     atom   75 type  1   force =   0.31970139E-05 -0.15100882E-06 -0.37716733E-06
     atom   76 type  1   force =   0.59328549E-05  0.54251591E-06  0.75024926E-06
     atom   77 type  1   force =   0.37260453E-05  0.20409844E-06  0.38391822E-05
     atom   78 type  1   force =   0.38680282E-05 -0.25490999E-05  0.43952946E-05
     atom   79 type  1   force =  -0.17820295E-06 -0.32063944E-05  0.58655169E-05
     atom   80 type  1   force =  -0.38789435E-06 -0.58952681E-05  0.34567570E-05
     atom   81 type  1   force =  -0.12599589E-05 -0.12846965E-05  0.85849475E-06
     atom   82 type  1   force =   0.16793876E-05  0.15767234E-05 -0.19445838E-07
     atom   83 type  1   force =   0.38282441E-05  0.38909881E-05  0.63486110E-06
     atom   84 type  1   force =   0.36133365E-05  0.41405075E-05 -0.23035193E-05
     atom   85 type  1   force =   0.10843157E-05  0.17269123E-05  0.19600519E-05
     atom   86 type  1   force =  -0.20669319E-05 -0.16658966E-05 -0.15223533E-05
     atom   87 type  1   force =  -0.41719990E-05 -0.38061990E-05  0.27297593E-05
     atom   88 type  1   force =  -0.36703229E-05 -0.36357651E-05  0.12020615E-06
     atom   89 type  1   force =  -0.16112516E-05  0.35780796E-05  0.17913069E-06
     atom   90 type  1   force =  -0.39685819E-06  0.34710976E-05 -0.20261604E-05
     atom   91 type  1   force =  -0.40472802E-06  0.59058372E-05 -0.32103682E-05
     atom   92 type  1   force =  -0.57196611E-06  0.32795372E-05 -0.59143317E-05
     atom   93 type  1   force =  -0.42533510E-05  0.26248900E-05 -0.39195823E-05
     atom   94 type  1   force =  -0.37709339E-05  0.10408520E-06 -0.39888194E-05
     atom   95 type  1   force =  -0.56047064E-05 -0.21962024E-06 -0.42516378E-06
     atom   96 type  1   force =  -0.27091819E-05  0.57823959E-06  0.11007115E-06
     atom   97 type  1   force =  -0.49344423E-06 -0.12374170E-05 -0.13266820E-05
     atom   98 type  1   force =  -0.21330592E-05  0.20569758E-05  0.20760195E-05
     atom   99 type  1   force =   0.47013528E-06 -0.34806170E-07 -0.22712235E-05
     atom  100 type  1   force =   0.24892782E-05  0.99045219E-07 -0.26175303E-06
     atom  101 type  1   force =   0.35752107E-05 -0.15734532E-07 -0.15080204E-05
     atom  102 type  1   force =   0.36514926E-05 -0.18699086E-05  0.19273454E-06
     atom  103 type  1   force =   0.87745942E-06 -0.31637605E-05  0.70669932E-06
     atom  104 type  1   force =  -0.25751009E-06 -0.42640799E-05 -0.81349065E-07
     atom  105 type  1   force =   0.54410777E-06 -0.23561525E-05  0.20415037E-06
     atom  106 type  1   force =   0.27849854E-05 -0.33995239E-06  0.52279369E-06
     atom  107 type  1   force =   0.62164373E-05 -0.35637505E-06  0.16039757E-06
     atom  108 type  1   force =   0.73372762E-05 -0.11668905E-05 -0.73976745E-06
     atom  109 type  1   force =   0.58209678E-05 -0.34723084E-05  0.48353961E-06
     atom  110 type  1   force =   0.30525793E-05 -0.60153572E-05  0.30781995E-07
     atom  111 type  1   force =   0.67931908E-06 -0.72395884E-05  0.10620799E-05
     atom  112 type  1   force =   0.35173191E-06 -0.58910206E-05  0.66606372E-06
     atom  113 type  1   force =   0.36646101E-05 -0.13658436E-05  0.42685272E-06
     atom  114 type  1   force =   0.34424344E-05 -0.12379244E-06 -0.20760171E-05
     atom  115 type  1   force =   0.56533764E-05 -0.16838062E-07 -0.33835723E-05
     atom  116 type  1   force =   0.30182567E-05 -0.17069355E-06 -0.60325419E-05
     atom  117 type  1   force =   0.21368038E-05 -0.40225901E-05 -0.39053579E-05
     atom  118 type  1   force =  -0.36954582E-06 -0.38222000E-05 -0.38559630E-05
     atom  119 type  1   force =  -0.34867906E-06 -0.56790372E-05 -0.43723821E-06
     atom  120 type  1   force =   0.77462224E-06 -0.27219707E-05  0.33534541E-06
     atom  121 type  1   force =   0.48777189E-06  0.78504920E-06 -0.36239255E-05
     atom  122 type  1   force =  -0.20102786E-06 -0.11775721E-06 -0.45001312E-05
     atom  123 type  1   force =   0.57834503E-06  0.89828429E-06 -0.73964358E-05
     atom  124 type  1   force =   0.22251728E-06  0.49750304E-06 -0.60488171E-05
     atom  125 type  1   force =  -0.67857444E-06 -0.36570773E-06 -0.58990941E-05
     atom  126 type  1   force =   0.32905148E-06  0.38584303E-06 -0.31177605E-05
     atom  127 type  1   force =  -0.98813506E-06 -0.68952497E-06 -0.15887964E-05
     atom  128 type  1   force =  -0.64414866E-06 -0.65378295E-06 -0.12755093E-05

     Total force =     0.052873     Total SCF correction =     0.000062


     entering subroutine stress ...

          total   stress  (Ry/bohr**3)                   (kbar)     P=    2.11
   0.0000143617   0.0000004208   0.0000009069          2.11      0.06      0.13
   0.0000004208   0.0000143760  -0.0000007609          0.06      2.11     -0.11
   0.0000009069  -0.0000007609   0.0000143643          0.13     -0.11      2.11

     kinetic stress (kbar)   2335.66     -0.02     -0.07
                               -0.02   2335.65      0.10
                               -0.07      0.10   2335.66

     local   stress (kbar)   -797.15   -243.12   -245.48
                             -243.12   -798.26   -244.48
                             -245.48   -244.48   -798.79

     nonloc. stress (kbar)   1962.78     -0.03      0.03
                               -0.03   1962.78     -0.21
                                0.03     -0.21   1962.78

     hartree stress (kbar)    934.50    116.49    117.30
                              116.49    934.95    117.40
                              117.30    117.40    935.29

     exc-cor stress (kbar)   1324.62     -0.00      0.00
                               -0.00   1324.62     -0.00
                                0.00     -0.00   1324.62

     corecor stress (kbar)  -2476.00     -0.01     -0.01
                               -0.01  -2476.00      0.01
                               -0.01      0.01  -2476.00

     ewald   stress (kbar)  -3282.28    126.75    128.36
                              126.75  -3281.62    127.07
                              128.36    127.07  -3281.43

     hubbard stress (kbar)      0.00      0.00      0.00
                                0.00      0.00      0.00
                                0.00      0.00      0.00

     london  stress (kbar)      0.00      0.00      0.00
                                0.00      0.00      0.00
                                0.00      0.00      0.00

     XDM     stress (kbar)      0.00      0.00      0.00
                                0.00      0.00      0.00
                                0.00      0.00      0.00

     dft-nl  stress (kbar)      0.00      0.00      0.00
                                0.00      0.00      0.00
                                0.00      0.00      0.00



     Writing output data file Si_diamond.scf.in.super.444.GeGe.022.save

     init_run     :    441.52s CPU    372.90s WALL (       1 calls)
     electrons    :  14096.82s CPU  11134.11s WALL (       1 calls)
     forces       :    328.70s CPU    243.22s WALL (       1 calls)
     stress       :   1109.44s CPU   1092.06s WALL (       1 calls)

     Called by init_run:
     wfcinit      :    418.00s CPU    348.95s WALL (       1 calls)
     potinit      :      0.66s CPU      0.73s WALL (       1 calls)

     Called by electrons:
     c_bands      :  11933.84s CPU   9167.71s WALL (      15 calls)
     sum_band     :   1796.22s CPU   1593.11s WALL (      15 calls)
     v_of_rho     :      6.42s CPU      7.24s WALL (      15 calls)
     v_h          :      0.42s CPU      0.52s WALL (      15 calls)
     v_xc         :      6.76s CPU      7.56s WALL (      17 calls)
     newd         :    371.52s CPU    376.10s WALL (      15 calls)
     mix_rho      :      8.94s CPU     10.15s WALL (      15 calls)

     Called by c_bands:
     init_us_2    :     34.93s CPU     35.57s WALL (     264 calls)
     cegterg      :  11762.64s CPU   8991.28s WALL (     120 calls)

     Called by sum_band:
     sum_band:bec :      6.54s CPU      6.58s WALL (     120 calls)
     addusdens    :    311.14s CPU    312.56s WALL (      15 calls)

     Called by *egterg:
     h_psi        :   6524.39s CPU   5408.31s WALL (     542 calls)
     s_psi        :   1945.36s CPU   1154.73s WALL (     542 calls)
     g_psi        :      2.92s CPU      2.95s WALL (     414 calls)
     cdiaghg      :   1633.70s CPU   1348.52s WALL (     526 calls)
     cegterg:over :    900.59s CPU    611.11s WALL (     414 calls)
     cegterg:upda :    441.22s CPU    264.90s WALL (     414 calls)
     cegterg:last :    275.82s CPU    163.53s WALL (     124 calls)

     Called by h_psi:
     h_psi:vloc   :   2544.76s CPU   2966.82s WALL (     542 calls)
     h_psi:vnl    :   3973.94s CPU   2435.62s WALL (     542 calls)
     add_vuspsi   :   1935.48s CPU   1157.13s WALL (     542 calls)

     General routines
     calbec       :   3320.04s CPU   2203.90s WALL (     678 calls)
     fft          :     79.36s CPU     80.83s WALL (     265 calls)
     ffts         :      5.82s CPU      6.70s WALL (     375 calls)
     fftw         :   2860.73s CPU   3375.64s WALL (  231184 calls)
     interpolate  :      1.44s CPU      1.83s WALL (      30 calls)

     Parallel routines
     fft_scatter  :   1762.15s CPU   2076.24s WALL (  231824 calls)

     PWSCF        :     4h26m CPU        3h34m WALL


   This run was terminated on:  23:48:54  18Jan2017            

=------------------------------------------------------------------------------=
   JOB DONE.
=------------------------------------------------------------------------------=
