
     Program PWSCF v.5.1 starts on 18Jan2017 at 18:40: 1 

     This program is part of the open-source Quantum ESPRESSO suite
     for quantum simulation of materials; please cite
         "P. Giannozzi et al., J. Phys.:Condens. Matter 21 395502 (2009);
          URL http://www.quantum-espresso.org", 
     in publications or presentations arising from this work. More details at
     http://www.quantum-espresso.org/quote

     Parallel version (MPI), running on    16 processors
     R & G space division:  proc/nbgrp/npool/nimage =      16
     Reading input from /tmp/Si_diamond.scf.in.super.444.GeGe.01.13813/Si_diamond.scf.in.super.444.GeGe.01.t
Warning: card &IONS ignored
Warning: card   ION_DYNAMICS='BFGS', ignored
Warning: card / ignored
Warning: card &CELL ignored
Warning: card  CELL_DYNAMICS = 'BFGS' ignored
Warning: card / ignored
     Message from routine read_cards :
     DEPRECATED: no units specified in CELL_PARAMETERS card

     Current dimensions of program PWSCF are:
     Max number of different atomic species (ntypx) = 10
     Max number of k-points (npk) =  40000
     Max angular momentum in pseudopotentials (lmaxx) =  3

     Subspace diagonalization in iterative solution of the eigenvalue problem:
     a serial algorithm will be used


     Parallelization info
     --------------------
     sticks:   dense  smooth     PW     G-vecs:    dense   smooth      PW
     Min         726     508    134                51681    30247    4089
     Max         727     509    135                51684    30277    4090
     Sum       11629    8137   2149               826925   484169   65427



     bravais-lattice index     =            0
     lattice parameter (alat)  =    29.031211967  a.u.
     unit-cell volume          =   17301.3703 (a.u.)^3
     number of atoms/cell      =          128
     number of atomic types    =            2
     number of electrons       =       532.00
     number of Kohn-Sham states=          319
     kinetic-energy cutoff     =      35.0000  Ry
     charge density cutoff     =     200.0000  Ry
     convergence threshold     =      1.0E-09
     mixing beta               =       0.3000
     number of iterations used =            8  local-TF  mixing
     Exchange-correlation      = SLA  PW   PSX  PSC ( 1  4 10  8 0)
     A smooth kinetic-energy cutoff is imposed at      34.5000 Ry
     height of the smooth step-function =             800.0000 Ry
     width of the smooth step-function  =               1.0000 Ry


     celldm(1)=  29.031212  celldm(2)=   0.000000  celldm(3)=   0.000000
     celldm(4)=   0.000000  celldm(5)=   0.000000  celldm(6)=   0.000000

     crystal axes: (cart. coord. in units of alat)
               a(1) = (  -0.000000000000   0.707106781187   0.707106781187 )  
               a(2) = (   0.707106781187   0.000000000000   0.707106781187 )  
               a(3) = (   0.707106781187   0.707106781187   0.000000000000 )  

     reciprocal axes: (cart. coord. in units 2 pi/alat)
               b(1) = ( -0.707107  0.707107  0.707107 )  
               b(2) = (  0.707107 -0.707107  0.707107 )  
               b(3) = (  0.707107  0.707107 -0.707107 )  


     PseudoPot. # 1 for Si read from file:
     /users/kfg/psuedo/gbrv_1.5/si.pbesol.UPF
     MD5 check sum: ef58ba74faed4df802eb8a9742fc00a8
     Pseudo is Ultrasoft + core correction, Zval =  4.0
     Generated by new atomic code, or converted to UPF format
     Using radial grid of  899 points,  6 beta functions with: 
                l(1) =   0
                l(2) =   0
                l(3) =   1
                l(4) =   1
                l(5) =   2
                l(6) =   2
     Q(r) pseudized with  8 coefficients,  rinner =    0.900   0.900   0.900
                                                       0.900   0.900

     PseudoPot. # 2 for Ge read from file:
     /users/kfg/psuedo/gbrv_1.5/ge.pbesol.UPF
     MD5 check sum: 7bed0412183f5e553a4d27ec7023354d
     Pseudo is Ultrasoft + core correction, Zval = 14.0
     Generated by new atomic code, or converted to UPF format
     Using radial grid of  873 points,  6 beta functions with: 
                l(1) =   0
                l(2) =   0
                l(3) =   1
                l(4) =   1
                l(5) =   2
                l(6) =   2
     Q(r) pseudized with  8 coefficients,  rinner =    1.400   1.400   1.400
                                                       1.400   1.400

     atomic species   valence    mass     pseudopotential
        Si             4.00    28.08550     Si( 1.00)
        Ge            14.00    69.00000     Ge( 1.00)

     No symmetry found


                                    s                        frac. trans.

      isym =  1     identity                                     

 cryst.   s( 1) = (     1          0          0      )
                  (     0          1          0      )
                  (     0          0          1      )

 cart.    s( 1) = (  1.0000000  0.0000000  0.0000000 )
                  (  0.0000000  1.0000000  0.0000000 )
                  (  0.0000000  0.0000000  1.0000000 )


     point group C_1 (1)    
     there are  1 classes
     the character table:

       E    
A      1.00

     the symmetry operations in each class:
     E        1

   Cartesian axes

     site n.     atom                  positions (alat units)
         1           Ge  tau(   1) = (    0.00003089826    0.00003169056   -0.00011157933  )
         2           Ge  tau(   2) = (    0.08833051025    0.08849362542    0.08843689045  )
         3           Si  tau(   3) = (    0.17682156873    0.17688455524   -0.00013053648  )
         4           Si  tau(   4) = (    0.26504680808    0.26524127793    0.08823692408  )
         5           Si  tau(   5) = (    0.35365248388    0.35353888829    0.00016623083  )
         6           Si  tau(   6) = (    0.44206068193    0.44205076410    0.08842793014  )
         7           Si  tau(   7) = (    0.53035066586    0.53047422618   -0.00001539994  )
         8           Si  tau(   8) = (    0.61859871758    0.61878296527    0.08830955297  )
         9           Si  tau(   9) = (    0.17686951742    0.00001129916    0.17682505920  )
        10           Si  tau(  10) = (    0.26509464666    0.08825463879    0.26518747107  )
        11           Si  tau(  11) = (    0.35362682258    0.17685410366    0.17679936735  )
        12           Si  tau(  12) = (    0.44211030198    0.26515820797    0.26508868619  )
        13           Si  tau(  13) = (    0.53015898532    0.35350576723    0.17663104313  )
        14           Si  tau(  14) = (    0.61859857007    0.44204021909    0.26517935933  )
        15           Si  tau(  15) = (    0.70708163165    0.53027919392    0.17688188130  )
        16           Si  tau(  16) = (    0.79554664921    0.61874594803    0.26523619796  )
        17           Si  tau(  17) = (    0.35367001763    0.00011803665    0.35347001871  )
        18           Si  tau(  18) = (    0.44187259132    0.08825304383    0.44184607668  )
        19           Si  tau(  19) = (    0.53019172303    0.17667567650    0.35364953109  )
        20           Si  tau(  20) = (    0.61857824318    0.26521932012    0.44196830434  )
        21           Si  tau(  21) = (    0.70710299576    0.35353050420    0.35353181072  )
        22           Si  tau(  22) = (    0.79559974782    0.44208407422    0.44210206029  )
        23           Si  tau(  23) = (    0.88391831828    0.53017393647    0.35351305215  )
        24           Si  tau(  24) = (    0.97235171651    0.61875964118    0.44194283813  )
        25           Si  tau(  25) = (    0.53041463927   -0.00015516151    0.53019456883  )
        26           Si  tau(  26) = (    0.61870005025    0.08833936652    0.61858317837  )
        27           Si  tau(  27) = (    0.70695030211    0.17673809036    0.53021657456  )
        28           Si  tau(  28) = (    0.79559546468    0.26504188400    0.61872742599  )
        29           Si  tau(  29) = (    0.88387667764    0.35350297275    0.53040421750  )
        30           Si  tau(  30) = (    0.97212352718    0.44178989828    0.61878734317  )
        31           Si  tau(  31) = (    1.06078599826    0.53037057436    0.53017996062  )
        32           Si  tau(  32) = (    1.14897978103    0.61858308715    0.61874900712  )
        33           Si  tau(  33) = (    0.00008135048    0.17681059670    0.17681021014  )
        34           Si  tau(  34) = (    0.08827901696    0.26532592556    0.26528128769  )
        35           Si  tau(  35) = (    0.17689848789    0.35351244304    0.17672515745  )
        36           Si  tau(  36) = (    0.26522861504    0.44197937326    0.26510078020  )
        37           Si  tau(  37) = (    0.35358442267    0.53038052070    0.17668764724  )
        38           Si  tau(  38) = (    0.44188139369    0.61859127514    0.26505058701  )
        39           Si  tau(  39) = (    0.53048396406    0.70719388634    0.17680040969  )
        40           Si  tau(  40) = (    0.61855723934    0.79538996914    0.26515406110  )
        41           Si  tau(  41) = (    0.17672981278    0.17691007100    0.35356762139  )
        42           Si  tau(  42) = (    0.26525842215    0.26530646218    0.44180170679  )
        43           Si  tau(  43) = (    0.35345064841    0.35372289271    0.35344189275  )
        44           Si  tau(  44) = (    0.44191343583    0.44185142082    0.44200857533  )
        45           Si  tau(  45) = (    0.53035274420    0.53027922588    0.35341366585  )
        46           Si  tau(  46) = (    0.61872872251    0.61857136699    0.44197587916  )
        47           Si  tau(  47) = (    0.70713733870    0.70699843523    0.35367069640  )
        48           Si  tau(  48) = (    0.79552881933    0.79562812825    0.44192794603  )
        49           Si  tau(  49) = (    0.35353052280    0.17682535419    0.53049115920  )
        50           Si  tau(  50) = (    0.44192248510    0.26530009718    0.61855650637  )
        51           Si  tau(  51) = (    0.53015931342    0.35339488929    0.53024015450  )
        52           Si  tau(  52) = (    0.61883982401    0.44184024236    0.61886191542  )
        53           Si  tau(  53) = (    0.70693968250    0.53025137802    0.53022744230  )
        54           Si  tau(  54) = (    0.79536628174    0.61863731826    0.61887672229  )
        55           Si  tau(  55) = (    0.88371961701    0.70695781580    0.53027416478  )
        56           Si  tau(  56) = (    0.97236107875    0.79539936812    0.61869333246  )
        57           Si  tau(  57) = (    0.53040769480    0.17691548847    0.70709681728  )
        58           Si  tau(  58) = (    0.61888835425    0.26531859067    0.79564883618  )
        59           Si  tau(  59) = (    0.70705745874    0.35350824288    0.70703983994  )
        60           Si  tau(  60) = (    0.79555115689    0.44203839845    0.79550613788  )
        61           Si  tau(  61) = (    0.88399556050    0.53019930735    0.70704848382  )
        62           Si  tau(  62) = (    0.97212135550    0.61860651949    0.79537535884  )
        63           Si  tau(  63) = (    1.06079151074    0.70700716216    0.70719513032  )
        64           Si  tau(  64) = (    1.14920414817    0.79542489245    0.79562566081  )
        65           Si  tau(  65) = (    0.00003343304    0.35348422419    0.35348812436  )
        66           Si  tau(  66) = (    0.08851212016    0.44192342023    0.44189207176  )
        67           Si  tau(  67) = (    0.17674134175    0.53016671060    0.35338603629  )
        68           Si  tau(  68) = (    0.26525006911    0.61885808273    0.44178328606  )
        69           Si  tau(  69) = (    0.35346812800    0.70709434948    0.35365098840  )
        70           Si  tau(  70) = (    0.44191692537    0.79536225270    0.44186776506  )
        71           Si  tau(  71) = (    0.53040527481    0.88398767404    0.35362339653  )
        72           Si  tau(  72) = (    0.61873256571    0.97210701076    0.44203330696  )
        73           Si  tau(  73) = (    0.17675448547    0.35372144946    0.53019375341  )
        74           Si  tau(  74) = (    0.26502850282    0.44189179088    0.61868892687  )
        75           Si  tau(  75) = (    0.35352756962    0.53047545304    0.53026184551  )
        76           Si  tau(  76) = (    0.44179069231    0.61880376380    0.61869431585  )
        77           Si  tau(  77) = (    0.53016816433    0.70726342530    0.53043954171  )
        78           Si  tau(  78) = (    0.61879173205    0.79542978452    0.61856514886  )
        79           Si  tau(  79) = (    0.70707802223    0.88383990487    0.53043044260  )
        80           Si  tau(  80) = (    0.79547838476    0.97231578473    0.61870069125  )
        81           Si  tau(  81) = (    0.35360191479    0.35354437722    0.70718037905  )
        82           Si  tau(  82) = (    0.44180761808    0.44199074220    0.79538730764  )
        83           Si  tau(  83) = (    0.53030342929    0.53042626631    0.70719844038  )
        84           Si  tau(  84) = (    0.61863609836    0.61885403814    0.79550870660  )
        85           Si  tau(  85) = (    0.70701826480    0.70713953022    0.70708477956  )
        86           Si  tau(  86) = (    0.79550588120    0.79565356848    0.79551587886  )
        87           Si  tau(  87) = (    0.88397418382    0.88380753009    0.70725019761  )
        88           Si  tau(  88) = (    0.97222133909    0.97214908708    0.79562254770  )
        89           Si  tau(  89) = (    0.53029676201    0.35351298614    0.88397331990  )
        90           Si  tau(  90) = (    0.61867062497    0.44201128232    0.97232128701  )
        91           Si  tau(  91) = (    0.70701466246    0.53033345510    0.88399457431  )
        92           Si  tau(  92) = (    0.79564130083    0.61856184365    0.97240161900  )
        93           Si  tau(  93) = (    0.88402036566    0.70716158855    0.88403055995  )
        94           Si  tau(  94) = (    0.97225364992    0.79557540195    0.97235682923  )
        95           Si  tau(  95) = (    1.06069459980    0.88390809356    0.88394903433  )
        96           Si  tau(  96) = (    1.14914274334    0.97220938556    0.97225043547  )
        97           Si  tau(  97) = (    0.00005058513    0.53035936795    0.53037141892  )
        98           Si  tau(  98) = (    0.08838899717    0.61859537828    0.61882524516  )
        99           Si  tau(  99) = (    0.17672836123    0.70721251594    0.53027047468  )
       100           Si  tau( 100) = (    0.26509655875    0.79562537045    0.61872187769  )
       101           Si  tau( 101) = (    0.35371214577    0.88382818918    0.53023095698  )
       102           Si  tau( 102) = (    0.44192375666    0.97222074345    0.61880154430  )
       103           Si  tau( 103) = (    0.53016213870    1.06055280980    0.53032236676  )
       104           Si  tau( 104) = (    0.61874204075    1.14899388763    0.61856889044  )
       105           Si  tau( 105) = (    0.17671710339    0.53034911021    0.70713708321  )
       106           Si  tau( 106) = (    0.26518925940    0.61888461178    0.79566426083  )
       107           Si  tau( 107) = (    0.35339537231    0.70717056655    0.70726973624  )
       108           Si  tau( 108) = (    0.44184956580    0.79566589230    0.79557580856  )
       109           Si  tau( 109) = (    0.53020896489    0.88389986265    0.70716275518  )
       110           Si  tau( 110) = (    0.61876257495    0.97242214090    0.79554473186  )
       111           Si  tau( 111) = (    0.70724168733    1.06073209845    0.70695369371  )
       112           Si  tau( 112) = (    0.79544263933    1.14918993616    0.79554047577  )
       113           Si  tau( 113) = (    0.35343640396    0.53024665061    0.88374181539  )
       114           Si  tau( 114) = (    0.44210960191    0.61885002293    0.97218643452  )
       115           Si  tau( 115) = (    0.53024080598    0.70714236975    0.88389174100  )
       116           Si  tau( 116) = (    0.61883757780    0.79542761611    0.97225412686  )
       117           Si  tau( 117) = (    0.70715881585    0.88392385949    0.88382008696  )
       118           Si  tau( 118) = (    0.79555781269    0.97211420770    0.97237810043  )
       119           Si  tau( 119) = (    0.88389147037    1.06080461010    0.88396053405  )
       120           Si  tau( 120) = (    0.97228983938    1.14890418079    0.97217184997  )
       121           Si  tau( 121) = (    0.53028070874    0.53032163179    1.06075789567  )
       122           Si  tau( 122) = (    0.61863498233    0.61855379614    1.14892115604  )
       123           Si  tau( 123) = (    0.70714202416    0.70703439843    1.06059316413  )
       124           Si  tau( 124) = (    0.79537629084    0.79544236154    1.14912007817  )
       125           Si  tau( 125) = (    0.88372915059    0.88396104543    1.06058231605  )
       126           Si  tau( 126) = (    0.97241175449    0.97231087059    1.14887756800  )
       127           Si  tau( 127) = (    1.06081282546    1.06064796208    1.06051906714  )
       128           Si  tau( 128) = (    1.14915301563    1.14915784265    1.14917056054  )

   Crystallographic axes

     site n.     atom                  positions (cryst. coord.)
         1           Ge  tau(   1) = (   -0.00007833826   -0.00007945874    0.00012315548  )
         2           Ge  tau(   2) = (    0.06264966478    0.06241898510    0.06249922046  )
         3           Si  tau(   3) = (   -0.00004776504   -0.00013684142    0.25020030204  )
         4           Si  tau(   4) = (    0.06253043832    0.06225541641    0.31257737423  )
         5           Si  tau(   5) = (    0.00003721874    0.00019786716    0.49994227191  )
         6           Si  tau(   6) = (    0.06252097608    0.06253500201    0.56263320977  )
         7           Si  tau(   7) = (    0.00007648094   -0.00009825974    0.75012736421  )
         8           Si  tau(   8) = (    0.06257456654    0.06231400096    0.81251669511  )
         9           Si  tau(   9) = (   -0.00002344699    0.25009184388    0.00003942642  )
        10           Si  tau(  10) = (    0.06247109033    0.31256062783    0.06233981679  )
        11           Si  tau(  11) = (    0.00001884329    0.25001321984    0.25009062867  )
        12           Si  tau(  12) = (    0.06232198201    0.31257003324    0.31266835188  )
        13           Si  tau(  13) = (   -0.00001568006    0.24980969679    0.49994833046  )
        14           Si  tau(  14) = (    0.06266451597    0.31235573046    0.56247475699  )
        15           Si  tau(  15) = (    0.00005617509    0.25009258038    0.74987185280  )
        16           Si  tau(  16) = (    0.06253333947    0.31256728892    0.81250557190  )
        17           Si  tau(  17) = (   -0.00005795607    0.49994005043    0.00022488511  )
        18           Si  tau(  18) = (    0.06238557707    0.56247913706    0.06242307443  )
        19           Si  tau(  19) = (    0.00009438784    0.50004157536    0.24976275001  )
        20           Si  tau(  20) = (    0.06265629438    0.56238127575    0.31242046514  )
        21           Si  tau(  21) = (   -0.00002876569    0.49999824715    0.49999639945  )
        22           Si  tau(  22) = (    0.06264003475    0.56258669487    0.56256125872  )
        23           Si  tau(  23) = (   -0.00016357477    0.50010652759    0.74994274614  )
        24           Si  tau(  24) = (    0.06247342350    0.56252813198    0.81258485291  )
        25           Si  tau(  25) = (   -0.00026532906    0.75007367899    0.00004589754  )
        26           Si  tau(  26) = (    0.06238272422    0.81242599610    0.06254800601  )
        27           Si  tau(  27) = (    0.00000308497    0.74983638576    0.24994231940  )
        28           Si  tau(  28) = (    0.06234832394    0.81266439330    0.31247750301  )
        29           Si  tau(  29) = (    0.00002157567    0.75008326225    0.49990712273  )
        30           Si  tau(  30) = (    0.06254622119    0.81255123175    0.56223904469  )
        31           Si  tau(  31) = (   -0.00016649768    0.74995418849    0.75022375703  )
        32           Si  tau(  32) = (    0.06247451982    0.81256871774    0.81233407148  )
        33           Si  tau(  33) = (    0.24999014700    0.00005725014    0.00005779682  )
        34           Si  tau(  34) = (    0.31277326710    0.06239112779    0.06245425527  )
        35           Si  tau(  35) = (    0.24984848258    0.00007863190    0.25009360884  )
        36           Si  tau(  36) = (    0.31243621910    0.06247289967    0.31261700485  )
        37           Si  tau(  37) = (    0.24995075331   -0.00007668629    0.50012057227  )
        38           Si  tau(  38) = (    0.31237182291    0.06246631196    0.56244834796  )
        39           Si  tau(  39) = (    0.24996955295    0.00006398426    0.75015363233  )
        40           Si  tau(  40) = (    0.31253185704    0.06245261228    0.81231942470  )
        41           Si  tau(  41) = (    0.25013752450    0.24988260088    0.00005109723  )
        42           Si  tau(  42) = (    0.31243495224    0.31236701338    0.06276504476  )
        43           Si  tau(  43) = (    0.25011366491    0.24972865332    0.25012604728  )
        44           Si  tau(  44) = (    0.31250340973    0.31259111219    0.31236886215  )
        45           Si  tau(  45) = (    0.24984921439    0.24995318499    0.50007885870  )
        46           Si  tau(  46) = (    0.31241287412    0.31263540843    0.56237914237  )
        47           Si  tau(  47) = (    0.24998472815    0.25018116731    0.74986204753  )
        48           Si  tau(  48) = (    0.31256046944    0.31242002542    0.81262762013  )
        49           Si  tau(  49) = (    0.25016447304    0.50006331902   -0.00009565897  )
        50           Si  tau(  50) = (    0.31249461200    0.56227638841    0.06269638354  )
        51           Si  tau(  51) = (    0.24994508592    0.49992773188    0.24983075938  )
        52           Si  tau(  52) = (    0.31244385256    0.56275906146    0.31241261058  )
        53           Si  tau(  53) = (    0.24998992177    0.49986491828    0.49989876849  )
        54           Si  tau(  54) = (    0.31264567854    0.56257817556    0.56223960713  )
        55           Si  tau(  55) = (    0.24997098951    0.49994992610    0.74981834161  )
        56           Si  tau(  56) = (    0.31235142526    0.56261307645    0.81251314864  )
        57           Si  tau(  57) = (    0.25003621826    0.74994969065    0.00016006493  )
        58           Si  tau(  58) = (    0.31259711006    0.81262026496    0.06262003921  )
        59           Si  tau(  59) = (    0.24995561737    0.74994971341    0.24998053412  )
        60           Si  tau(  60) = (    0.31253651584    0.81247905330    0.31260018234  )
        61           Si  tau(  61) = (    0.24978704777    0.75013050729    0.50002800344  )
        62           Si  tau(  62) = (    0.31244257203    0.81238804762    0.56239915760  )
        63           Si  tau(  63) = (    0.24989916031    0.75022578423    0.74995995711  )
        64           Si  tau(  64) = (    0.31243258928    0.81275201081    0.81246808146  )
        65           Si  tau(  65) = (    0.49988130104    0.00002639856    0.00002088289  )
        66           Si  tau(  66) = (    0.56236440732    0.06256535367    0.06260968710  )
        67           Si  tau(  67) = (    0.49979113760   -0.00002781232    0.24997781485  )
        68           Si  tau(  68) = (    0.56242658170    0.06234933308    0.31277091207  )
        69           Si  tau(  69) = (    0.50012051128    0.00001751286    0.49986190763  )
        70           Si  tau(  70) = (    0.56237128080    0.06252410532    0.56244080397  )
        71           Si  tau(  71) = (    0.50007001387    0.00002898948    0.75007734372  )
        72           Si  tau(  72) = (    0.56243821525    0.06269128246    0.81232870344  )
        73           Si  tau(  73) = (    0.50003813866    0.24976905809    0.00019953247  )
        74           Si  tau(  74) = (    0.56254036597    0.31241790531    0.06238899780  )
        75           Si  tau(  75) = (    0.50007279505    0.24983069849    0.25013278514  )
        76           Si  tau(  76) = (    0.56265008943    0.31231580300    0.31247058579  )
        77           Si  tau(  77) = (    0.50030265690    0.24985213700    0.49991887133  )
        78           Si  tau(  78) = (    0.56229357608    0.31248964665    0.56261401310  )
        79           Si  tau(  79) = (    0.50006048878    0.25008143704    0.74987789165  )
        80           Si  tau(  80) = (    0.56253037900    0.31244452962    0.81253179068  )
        81           Si  tau(  81) = (    0.50001135634    0.50009272676   -0.00002410317  )
        82           Si  tau(  82) = (    0.56255324720    0.56229427060    0.06251605485  )
        83           Si  tau(  83) = (    0.50015167173    0.49997795395    0.24998434793  )
        84           Si  tau(  84) = (    0.56266370763    0.56235549424    0.31252806624  )
        85           Si  tau(  85) = (    0.50007019010    0.49989869490    0.49997612402  )
        86           Si  tau(  86) = (    0.56261910316    0.56241024181    0.56260496433  )
        87           Si  tau(  87) = (    0.49998356874    0.50021925271    0.74990902684  )
        88           Si  tau(  88) = (    0.56253900886    0.56264118862    0.81228741475  )
        89           Si  tau(  89) = (    0.50005852217    0.75006853561   -0.00011566269  )
        90           Si  tau(  90) = (    0.56261795639    0.81245199468    0.06248039379  )
        91           Si  tau(  91) = (    0.50014607819    0.75001103786    0.24985868659  )
        92           Si  tau(  92) = (    0.56237769385    0.81280586381    0.31240085461  )
        93           Si  tau(  93) = (    0.50004596311    0.75016204433    0.50003154620  )
        94           Si  tau(  94) = (    0.56262972045    0.81249049491    0.56248380287  )
        95           Si  tau(  95) = (    0.50003941901    0.75005329378    0.74999539479  )
        96           Si  tau(  96) = (    0.56237409883    0.81259565304    0.81253759970  )
        97           Si  tau(  97) = (    0.75001416332    0.00004429041    0.00002724777  )
        98           Si  tau(  98) = (    0.81248805474    0.06266299971    0.06233791885  )
        99           Si  tau(  99) = (    0.75006679162   -0.00015109460    0.25008273991  )
       100           Si  tau( 100) = (    0.81264295575    0.06236191501    0.31254123371  )
       101           Si  tau( 101) = (    0.74977855439    0.00008125616    0.50014325756  )
       102           Si  tau( 102) = (    0.81253536359    0.06258217278    0.56239239742  )
       103           Si  tau( 103) = (    0.75003738196   -0.00004829846    0.74981078527  )
       104           Si  tau( 104) = (    0.81233893373    0.06244958040    0.81258380524  )
       105           Si  tau( 105) = (    0.75007701683    0.24996583669   -0.00005011238  )
       106           Si  tau( 106) = (    0.81271997652    0.31251921223    0.06251503500  )
       107           Si  tau( 107) = (    0.75027206549    0.24995838776    0.24981814064  )
       108           Si  tau( 108) = (    0.81274297294    0.31237112542    0.31249852307  )
       109           Si  tau( 109) = (    0.75013681184    0.24994234734    0.49988636171  )
       110           Si  tau( 110) = (    0.81261015195    0.31245999733    0.56260242806  )
       111           Si  tau( 111) = (    0.74984721760    0.24993628402    0.75025450207  )
       112           Si  tau( 112) = (    0.81266917754    0.31239495271    0.81253081592  )
       113           Si  tau( 113) = (    0.74992355487    0.49987610609   -0.00004155017  )
       114           Si  tau( 114) = (    0.81241397064    0.56246527022    0.06277212486  )
       115           Si  tau( 115) = (    0.75009413923    0.49991754855    0.24995619059  )
       116           Si  tau( 116) = (    0.81235549972    0.56261947256    0.31254902287  )
       117           Si  tau( 117) = (    0.74994693787    0.49996341581    0.50011017232  )
       118           Si  tau( 118) = (    0.81241937286    0.56273092452    0.56235772384  )
       119           Si  tau( 119) = (    0.75015096871    0.49995800714    0.75005329792  )
       120           Si  tau( 120) = (    0.81231450605    0.56254410913    0.81248136828  )
       121           Si  tau( 121) = (    0.75009803819    0.75004016426   -0.00010999409  )
       122           Si  tau( 122) = (    0.81235253318    0.81246734779    0.06241463437  )
       123           Si  tau( 123) = (    0.74987651556    0.75002872131    0.25002111977  )
       124           Si  tau( 124) = (    0.81259731871    0.81250388064    0.31232805706  )
       125           Si  tau( 125) = (    0.75010892210    0.74978097327    0.50000077696  )
       126           Si  tau( 126) = (    0.81230778339    0.81245045477    0.56274743664  )
       127           Si  tau( 127) = (    0.74978364793    0.75001679997    0.75019908494  )
       128           Si  tau( 128) = (    0.81258970931    0.81258288288    0.81256489707  )

     number of k points=     8  gaussian smearing, width (Ry)=  0.0150
                       cart. coord. in units 2pi/alat
        k(    1) = (   0.0000000   0.0000000   0.0000000), wk =   0.2500000
        k(    2) = (  -0.3535534  -0.3535534   0.3535534), wk =   0.2500000
        k(    3) = (  -0.7071068   0.0000000   0.0000000), wk =   0.2500000
        k(    4) = (   0.3535534   0.3535534   0.3535534), wk =   0.2500000
        k(    5) = (   0.3535534  -0.3535534  -0.3535534), wk =   0.2500000
        k(    6) = (  -0.3535534   0.3535534  -0.3535534), wk =   0.2500000
        k(    7) = (   0.0000000  -0.7071068   0.0000000), wk =   0.2500000
        k(    8) = (   0.0000000   0.0000000  -0.7071068), wk =   0.2500000

                       cryst. coord.
        k(    1) = (   0.0000000   0.0000000   0.0000000), wk =   0.2500000
        k(    2) = (   0.0000000   0.0000000  -0.5000000), wk =   0.2500000
        k(    3) = (   0.0000000  -0.5000000  -0.5000000), wk =   0.2500000
        k(    4) = (   0.5000000   0.5000000   0.5000000), wk =   0.2500000
        k(    5) = (  -0.5000000   0.0000000   0.0000000), wk =   0.2500000
        k(    6) = (   0.0000000  -0.5000000   0.0000000), wk =   0.2500000
        k(    7) = (  -0.5000000   0.0000000  -0.5000000), wk =   0.2500000
        k(    8) = (  -0.5000000  -0.5000000   0.0000000), wk =   0.2500000

     Dense  grid:   826925 G-vectors     FFT dimensions: ( 135, 135, 135)

     Smooth grid:   484169 G-vectors     FFT dimensions: ( 120, 120, 120)

     Largest allocated arrays     est. size (Mb)     dimensions
        Kohn-Sham Wavefunctions        18.42 Mb     (    3784,  319)
        NL pseudopotentials           133.03 Mb     (    3784, 2304)
        Each V/rho on FFT grid          2.50 Mb     (  164025)
        Each G-vector array             0.39 Mb     (   51681)
        G-vector shells                 0.02 Mb     (    2817)
     Largest temporary arrays     est. size (Mb)     dimensions
        Auxiliary wavefunctions        73.68 Mb     (    3784, 1276)
        Each subspace H/S matrix       24.84 Mb     (    1276, 1276)
        Each <psi_i|beta_j> matrix     11.21 Mb     (    2304,  319)
        Arrays for rho mixing          20.02 Mb     (  164025,    8)

     Initial potential from superposition of free atoms

     starting charge  531.91672, renormalised to  532.00000
     Starting wfc are  522 randomized atomic wfcs

     total cpu time spent up to now is      400.5 secs

     Self-consistent Calculation

     iteration #  1     ecut=    35.00 Ry     beta=0.30
     Davidson diagonalization with overlap
     ethr =  1.00E-02,  avg # of iterations =  3.0

     Threshold (ethr) on eigenvalues was too large:
     Diagonalizing with lowered threshold

     Davidson diagonalization with overlap
     ethr =  6.62E-04,  avg # of iterations =  2.3

     total cpu time spent up to now is     2018.9 secs

     total energy              =   -1631.47090741 Ry
     Harris-Foulkes estimate   =   -1631.83912176 Ry
     estimated scf accuracy    <       3.47298147 Ry

     iteration #  2     ecut=    35.00 Ry     beta=0.30
     Davidson diagonalization with overlap
     ethr =  6.53E-04,  avg # of iterations =  1.0

     total cpu time spent up to now is     2642.2 secs

     total energy              =   -1630.74396779 Ry
     Harris-Foulkes estimate   =   -1631.48777206 Ry
     estimated scf accuracy    <       2.15772574 Ry

     iteration #  3     ecut=    35.00 Ry     beta=0.30
     Davidson diagonalization with overlap
     ethr =  4.06E-04,  avg # of iterations =  8.0

     total cpu time spent up to now is     3503.0 secs

     total energy              =   -1630.88424950 Ry
     Harris-Foulkes estimate   =   -1630.87866816 Ry
     estimated scf accuracy    <       0.02506084 Ry

     iteration #  4     ecut=    35.00 Ry     beta=0.30
     Davidson diagonalization with overlap
     c_bands:  2 eigenvalues not converged
     ethr =  4.71E-06,  avg # of iterations = 12.8

     total cpu time spent up to now is     5514.4 secs

     total energy              =   -1630.89926044 Ry
     Harris-Foulkes estimate   =   -1630.89886468 Ry
     estimated scf accuracy    <       0.01056976 Ry

     iteration #  5     ecut=    35.00 Ry     beta=0.30
     Davidson diagonalization with overlap
     c_bands:  2 eigenvalues not converged
     c_bands:  2 eigenvalues not converged
     ethr =  1.99E-06,  avg # of iterations =  7.0

     total cpu time spent up to now is     6322.9 secs

     total energy              =   -1630.90000936 Ry
     Harris-Foulkes estimate   =   -1630.89999052 Ry
     estimated scf accuracy    <       0.00028915 Ry

     iteration #  6     ecut=    35.00 Ry     beta=0.30
     Davidson diagonalization with overlap
     ethr =  5.44E-08,  avg # of iterations =  3.1

     total cpu time spent up to now is     7327.4 secs

     total energy              =   -1630.90011451 Ry
     Harris-Foulkes estimate   =   -1630.90014212 Ry
     estimated scf accuracy    <       0.00017136 Ry

     iteration #  7     ecut=    35.00 Ry     beta=0.30
     Davidson diagonalization with overlap
     ethr =  3.22E-08,  avg # of iterations =  1.0

     total cpu time spent up to now is     7966.5 secs

     total energy              =   -1630.90012123 Ry
     Harris-Foulkes estimate   =   -1630.90012331 Ry
     estimated scf accuracy    <       0.00002123 Ry

     iteration #  8     ecut=    35.00 Ry     beta=0.30
     Davidson diagonalization with overlap
     ethr =  3.99E-09,  avg # of iterations =  2.0

     total cpu time spent up to now is     8704.4 secs

     total energy              =   -1630.90012346 Ry
     Harris-Foulkes estimate   =   -1630.90012352 Ry
     estimated scf accuracy    <       0.00000331 Ry

     iteration #  9     ecut=    35.00 Ry     beta=0.30
     Davidson diagonalization with overlap
     ethr =  6.23E-10,  avg # of iterations =  3.0

     total cpu time spent up to now is     9437.3 secs

     total energy              =   -1630.90012332 Ry
     Harris-Foulkes estimate   =   -1630.90012369 Ry
     estimated scf accuracy    <       0.00000171 Ry

     iteration # 10     ecut=    35.00 Ry     beta=0.30
     Davidson diagonalization with overlap
     ethr =  3.21E-10,  avg # of iterations =  2.6

     total cpu time spent up to now is    10187.2 secs

     total energy              =   -1630.90012357 Ry
     Harris-Foulkes estimate   =   -1630.90012352 Ry
     estimated scf accuracy    <       0.00000032 Ry

     iteration # 11     ecut=    35.00 Ry     beta=0.30
     Davidson diagonalization with overlap
     ethr =  6.06E-11,  avg # of iterations =  2.4

     total cpu time spent up to now is    10867.0 secs

     total energy              =   -1630.90012357 Ry
     Harris-Foulkes estimate   =   -1630.90012360 Ry
     estimated scf accuracy    <       0.00000017 Ry

     iteration # 12     ecut=    35.00 Ry     beta=0.30
     Davidson diagonalization with overlap
     ethr =  3.26E-11,  avg # of iterations =  2.1

     total cpu time spent up to now is    11562.0 secs

     total energy              =   -1630.90012359 Ry
     Harris-Foulkes estimate   =   -1630.90012359 Ry
     estimated scf accuracy    <       0.00000003 Ry

     iteration # 13     ecut=    35.00 Ry     beta=0.30
     Davidson diagonalization with overlap
     ethr =  5.81E-12,  avg # of iterations =  2.8

     total cpu time spent up to now is    12277.4 secs

     total energy              =   -1630.90012360 Ry
     Harris-Foulkes estimate   =   -1630.90012360 Ry
     estimated scf accuracy    <          7.2E-09 Ry

     iteration # 14     ecut=    35.00 Ry     beta=0.30
     Davidson diagonalization with overlap
     ethr =  1.35E-12,  avg # of iterations =  3.0

     total cpu time spent up to now is    13142.3 secs

     total energy              =   -1630.90012360 Ry
     Harris-Foulkes estimate   =   -1630.90012360 Ry
     estimated scf accuracy    <          1.1E-09 Ry

     iteration # 15     ecut=    35.00 Ry     beta=0.30
     Davidson diagonalization with overlap
     ethr =  2.12E-13,  avg # of iterations =  2.9

     total cpu time spent up to now is    13907.0 secs

     End of self-consistent calculation

          k = 0.0000 0.0000 0.0000 ( 60495 PWs)   bands (ev):

   -18.2081 -18.0943 -18.0940 -18.0406 -18.0404 -18.0187 -18.0186 -17.9637
   -17.9635 -17.8983  -5.8273  -5.2353  -5.0104  -4.9887  -4.9880  -4.9868
    -4.9864  -4.9851  -4.9850  -4.7778  -4.7261  -4.7057  -4.7049  -4.7033
    -4.7022  -3.9484  -3.8249  -3.7413  -3.7405  -3.7404  -3.7381  -3.7369
    -3.7365  -3.7352  -3.7346  -3.7340  -3.7331  -3.4942  -3.4688  -3.4421
    -3.4415  -3.2322  -3.1986  -3.0667  -3.0661  -3.0651  -3.0641  -3.0632
    -3.0626  -3.0610  -3.0609  -3.0602  -3.0600  -3.0592  -3.0587  -3.0583
    -3.0581  -3.0574  -3.0567  -3.0565  -3.0557  -3.0549  -3.0541  -3.0532
    -3.0524  -1.7194  -1.6842  -1.6348  -1.6331  -1.6327  -1.6316  -1.5358
    -1.5201  -1.4669  -1.4654  -1.4651  -1.4642  -1.4638  -1.4628  -1.4616
    -1.4605  -1.4599  -1.4595  -0.8412  -0.8236  -0.8198  -0.8191  -0.3775
    -0.2788  -0.2162  -0.2143  -0.2098  -0.2093  -0.2080  -0.2071  -0.2069
    -0.2063  -0.2055  -0.2051  -0.2042  -0.2039  -0.2035  -0.2027  -0.2021
    -0.2017  -0.2017  -0.2012  -0.2007  -0.1994  -0.1990  -0.1967   0.6206
     0.6784   0.6975   0.7005   0.7011   0.7015   0.7029   0.7037   0.7048
     0.7052   0.7063   0.7079   2.1975   2.2386   2.2406   2.2414   2.2436
     2.2462   2.2493   2.2504   2.2833   2.2861   2.2878   2.2904   2.2912
     2.2925   2.2930   2.2932   2.2940   2.2948   2.2950   2.2951   2.3846
     2.3877   2.3881   2.3908   2.3932   2.3944   2.3953   2.3964   2.3966
     2.3972   2.3973   2.3986   2.5804   2.6066   2.6111   2.6119   2.6125
     2.6180   2.6183   2.6184   2.6189   2.6193   2.6195   2.6198   2.6202
     2.6207   2.6214   2.6217   2.6219   2.6221   2.6224   2.6228   2.6229
     2.6238   2.6245   2.6253   2.6479   2.6716   2.6761   2.6769   2.6785
     2.6793   3.3209   3.3215   3.3216   3.3219   3.3221   3.3229   3.9680
     3.9692   3.9702   3.9707   3.9715   3.9723   3.9725   3.9729   3.9738
     3.9739   3.9745   3.9748   3.9755   3.9756   3.9758   3.9764   3.9768
     3.9770   3.9775   3.9782   3.9783   3.9790   3.9801   3.9812   4.2853
     4.2863   4.2865   4.2873   4.2882   4.2894   4.2906   4.2917   4.2924
     4.2965   4.2972   4.2983   4.8572   4.8587   4.8592   4.8593   4.8600
     4.8607   4.8617   4.8639   4.8641   4.8652   4.8654   4.8695   4.9901
     4.9919   4.9926   4.9941   4.9952   4.9963   4.9972   5.0012   5.4272
     5.4275   5.4285   5.4298   5.4302   5.4313   5.4316   5.4322   5.4331
     5.4339   5.4349   5.4359   5.4368   5.4514   5.4525   5.4531   6.2040
     6.2050   6.2056   6.7887   6.7904   6.8046   6.8056   6.8062   6.8066
     7.2222   7.2400   7.2402   7.2431   7.2465   7.2465   7.5484   7.5944
     7.6136   7.6149   7.6155   7.6157   7.6161   7.6168   7.6175   7.6177
     7.6183   7.6183   7.6195   7.6197   7.6206   7.6213   7.6231   7.6266
     7.6268   7.6381   7.6447   7.6524   7.6530   7.6546   7.6559   7.6565
     7.6789   7.6792   8.0943   8.1433   8.1559   8.1562   8.1568   8.1613
     8.1710   8.1711   8.5354   8.5576   8.5645   8.5653   8.5695

     occupation numbers 
     1.0000   1.0000   1.0000   1.0000   1.0000   1.0000   1.0000   1.0000
     1.0000   1.0000   1.0000   1.0000   1.0000   1.0000   1.0000   1.0000
     1.0000   1.0000   1.0000   1.0000   1.0000   1.0000   1.0000   1.0000
     1.0000   1.0000   1.0000   1.0000   1.0000   1.0000   1.0000   1.0000
     1.0000   1.0000   1.0000   1.0000   1.0000   1.0000   1.0000   1.0000
     1.0000   1.0000   1.0000   1.0000   1.0000   1.0000   1.0000   1.0000
     1.0000   1.0000   1.0000   1.0000   1.0000   1.0000   1.0000   1.0000
     1.0000   1.0000   1.0000   1.0000   1.0000   1.0000   1.0000   1.0000
     1.0000   1.0000   1.0000   1.0000   1.0000   1.0000   1.0000   1.0000
     1.0000   1.0000   1.0000   1.0000   1.0000   1.0000   1.0000   1.0000
     1.0000   1.0000   1.0000   1.0000   1.0000   1.0000   1.0000   1.0000
     1.0000   1.0000   1.0000   1.0000   1.0000   1.0000   1.0000   1.0000
     1.0000   1.0000   1.0000   1.0000   1.0000   1.0000   1.0000   1.0000
     1.0000   1.0000   1.0000   1.0000   1.0000   1.0000   1.0000   1.0000
     1.0000   1.0000   1.0000   1.0000   1.0000   1.0000   1.0000   1.0000
     1.0000   1.0000   1.0000   1.0000   1.0000   1.0000   1.0000   1.0000
     1.0000   1.0000   1.0000   1.0000   1.0000   1.0000   1.0000   1.0000
     1.0000   1.0000   1.0000   1.0000   1.0000   1.0000   1.0000   1.0000
     1.0000   1.0000   1.0000   1.0000   1.0000   1.0000   1.0000   1.0000
     1.0000   1.0000   1.0000   1.0000   1.0000   1.0000   1.0000   1.0000
     1.0000   1.0000   1.0000   1.0000   1.0000   1.0000   1.0000   1.0000
     1.0000   1.0000   1.0000   1.0000   1.0000   1.0000   1.0000   1.0000
     1.0000   1.0000   1.0000   1.0000   1.0000   1.0000   1.0000   1.0000
     1.0000   1.0000   1.0000   1.0000   1.0000   1.0000   1.0000   1.0000
     1.0000   1.0000   1.0000   1.0000   1.0000   1.0000   1.0000   1.0000
     1.0000   1.0000   1.0000   1.0000   1.0000   1.0000   1.0000   1.0000
     1.0000   1.0000   1.0000   1.0000   1.0000   1.0000   1.0000   1.0000
     1.0000   1.0000   1.0000   1.0000   1.0000   1.0000   1.0000   1.0000
     1.0000   1.0000   1.0000   1.0000   1.0000   1.0000   1.0000   1.0000
     1.0000   1.0000   1.0000   1.0000   1.0000   1.0000   1.0000   1.0000
     1.0000   1.0000   1.0000   1.0000   1.0000   1.0000   1.0000   1.0000
     1.0000   1.0000   1.0000   1.0000   1.0000   1.0000   1.0000   1.0000
     1.0000   1.0000   1.0000   1.0000   1.0000   1.0000   1.0000   0.9411
     0.9403   0.9398   0.0064   0.0062   0.0047   0.0046   0.0045   0.0045
     0.0000   0.0000   0.0000   0.0000   0.0000   0.0000   0.0000   0.0000
     0.0000   0.0000   0.0000   0.0000   0.0000   0.0000   0.0000   0.0000
     0.0000   0.0000   0.0000   0.0000   0.0000   0.0000   0.0000   0.0000
     0.0000   0.0000   0.0000   0.0000   0.0000   0.0000   0.0000   0.0000
     0.0000   0.0000   0.0000   0.0000   0.0000   0.0000   0.0000   0.0000
     0.0000   0.0000   0.0000   0.0000   0.0000   0.0000   0.0000

          k =-0.3536-0.3536 0.3536 ( 60452 PWs)   bands (ev):

   -18.2081 -18.0943 -18.0939 -18.0405 -18.0404 -18.0186 -18.0185 -17.9637
   -17.9635 -17.8982  -5.6649  -5.5845  -5.2066  -5.0673  -5.0466  -5.0456
    -5.0438  -5.0426  -4.6562  -4.5578  -4.5372  -4.5353  -4.5343  -4.5330
    -4.1751  -4.0918  -4.0452  -4.0207  -3.9942  -3.9923  -3.9914  -3.9903
    -3.6912  -3.6679  -3.5660  -3.5659  -3.5652  -3.5630  -3.5627  -3.5615
    -3.5610  -3.5597  -3.5589  -3.5579  -3.3964  -3.3886  -3.3577  -3.3573
    -3.3563  -3.3551  -2.9283  -2.8715  -2.8526  -2.8525  -2.8509  -2.8488
    -2.5538  -2.5346  -2.4892  -2.4884  -2.4862  -2.4855  -2.3704  -2.3663
    -2.3106  -2.3098  -2.3082  -2.3070  -2.3063  -2.3047  -2.3039  -2.3029
    -2.3024  -2.3015  -0.9169  -0.8242  -0.7523  -0.7490  -0.7484  -0.7480
    -0.7470  -0.7459  -0.7452  -0.7439  -0.7429  -0.7413  -0.6707  -0.6662
    -0.6447  -0.6429  -0.6413  -0.6395  -0.6028  -0.5978  -0.5946  -0.5889
    -0.5878  -0.5860  -0.5032  -0.4722  -0.4682  -0.4668  -0.4658  -0.4622
     0.1930   0.2147   0.2709   0.3027   0.3293   0.3319   0.3342   0.3351
     0.3357   0.3362   0.3368   0.3394   0.3400   0.3410   1.1937   1.2378
     1.2471   1.2474   1.2482   1.2509   1.5159   1.5434   1.5454   1.5494
     1.5511   1.5518   2.0730   2.0757   2.0798   2.0821   2.0823   2.0832
     2.0837   2.0842   2.0848   2.0854   2.0862   2.0866   2.1445   2.1531
     2.1551   2.1555   2.1570   2.1583   2.7156   2.7166   2.7178   2.7208
     2.7211   2.7222   2.8235   2.8258   2.8292   2.8327   2.8359   2.8362
     2.8374   2.8377   2.8380   2.8387   2.8403   2.8408   2.9253   2.9544
     2.9556   2.9569   2.9584   2.9637   3.1951   3.1961   3.1981   3.1996
     3.2009   3.2010   3.2012   3.2018   3.2020   3.2026   3.2038   3.2040
     3.4867   3.4893   3.4898   3.4920   3.4928   3.4935   3.4939   3.4945
     3.4957   3.4963   3.4967   3.4974   3.8473   3.8558   3.8573   3.8583
     3.8589   3.8615   3.8843   3.8892   3.8930   3.8949   3.8953   3.8982
     3.9665   3.9690   3.9702   3.9709   3.9731   3.9744   4.2436   4.2443
     4.2448   4.2452   4.2458   4.2472   4.2473   4.2481   4.2492   4.2503
     4.2522   4.2542   4.2953   4.2963   4.2968   4.2971   4.2981   4.2993
     4.5758   4.5913   4.6210   4.6233   4.6247   4.6254   4.6262   4.6297
     4.8633   4.8647   4.8660   4.8664   4.8716   4.8728   4.9276   4.9380
     4.9392   4.9402   4.9440   4.9574   5.1030   5.1053   5.1093   5.1099
     5.4175   5.4194   5.4216   5.4224   5.4281   5.4308   5.9034   5.9054
     5.9169   5.9172   6.9788   6.9826   6.9843   6.9872   6.9961   7.0042
     7.4481   7.4572   7.4605   7.4621   7.4665   7.4705   7.7697   7.7877
     7.9354   7.9455   7.9455   7.9508   7.9596   7.9669   8.0652   8.0684
     8.0700   8.0807   8.0847   8.0878   8.2712   8.2758   8.2796   8.2805
     8.2821   8.2840   8.3000   8.3137   8.3156   8.3168   8.3212   8.3449
     8.4916   8.4943   8.4953   8.4968   8.4973   8.4978   8.4987   8.5028
     8.5044   8.5127   8.5255   8.5363   8.6374   8.6406   8.8242

     occupation numbers 
     1.0000   1.0000   1.0000   1.0000   1.0000   1.0000   1.0000   1.0000
     1.0000   1.0000   1.0000   1.0000   1.0000   1.0000   1.0000   1.0000
     1.0000   1.0000   1.0000   1.0000   1.0000   1.0000   1.0000   1.0000
     1.0000   1.0000   1.0000   1.0000   1.0000   1.0000   1.0000   1.0000
     1.0000   1.0000   1.0000   1.0000   1.0000   1.0000   1.0000   1.0000
     1.0000   1.0000   1.0000   1.0000   1.0000   1.0000   1.0000   1.0000
     1.0000   1.0000   1.0000   1.0000   1.0000   1.0000   1.0000   1.0000
     1.0000   1.0000   1.0000   1.0000   1.0000   1.0000   1.0000   1.0000
     1.0000   1.0000   1.0000   1.0000   1.0000   1.0000   1.0000   1.0000
     1.0000   1.0000   1.0000   1.0000   1.0000   1.0000   1.0000   1.0000
     1.0000   1.0000   1.0000   1.0000   1.0000   1.0000   1.0000   1.0000
     1.0000   1.0000   1.0000   1.0000   1.0000   1.0000   1.0000   1.0000
     1.0000   1.0000   1.0000   1.0000   1.0000   1.0000   1.0000   1.0000
     1.0000   1.0000   1.0000   1.0000   1.0000   1.0000   1.0000   1.0000
     1.0000   1.0000   1.0000   1.0000   1.0000   1.0000   1.0000   1.0000
     1.0000   1.0000   1.0000   1.0000   1.0000   1.0000   1.0000   1.0000
     1.0000   1.0000   1.0000   1.0000   1.0000   1.0000   1.0000   1.0000
     1.0000   1.0000   1.0000   1.0000   1.0000   1.0000   1.0000   1.0000
     1.0000   1.0000   1.0000   1.0000   1.0000   1.0000   1.0000   1.0000
     1.0000   1.0000   1.0000   1.0000   1.0000   1.0000   1.0000   1.0000
     1.0000   1.0000   1.0000   1.0000   1.0000   1.0000   1.0000   1.0000
     1.0000   1.0000   1.0000   1.0000   1.0000   1.0000   1.0000   1.0000
     1.0000   1.0000   1.0000   1.0000   1.0000   1.0000   1.0000   1.0000
     1.0000   1.0000   1.0000   1.0000   1.0000   1.0000   1.0000   1.0000
     1.0000   1.0000   1.0000   1.0000   1.0000   1.0000   1.0000   1.0000
     1.0000   1.0000   1.0000   1.0000   1.0000   1.0000   1.0000   1.0000
     1.0000   1.0000   1.0000   1.0000   1.0000   1.0000   1.0000   1.0000
     1.0000   1.0000   1.0000   1.0000   1.0000   1.0000   1.0000   1.0000
     1.0000   1.0000   1.0000   1.0000   1.0000   1.0000   1.0000   1.0000
     1.0000   1.0000   1.0000   1.0000   1.0000   1.0000   1.0000   1.0000
     1.0000   1.0000   1.0000   1.0000   1.0000   1.0000   1.0000   1.0000
     1.0000   1.0000   1.0000   1.0000   1.0000   1.0000   1.0000   1.0000
     1.0000   1.0000   1.0000   1.0000   1.0000   1.0000   0.9999   0.9999
     0.9998   0.9998   0.0001   0.0001   0.0001   0.0001   0.0000   0.0000
     0.0000   0.0000   0.0000   0.0000   0.0000   0.0000   0.0000   0.0000
     0.0000   0.0000   0.0000   0.0000   0.0000   0.0000   0.0000   0.0000
     0.0000   0.0000   0.0000   0.0000   0.0000   0.0000   0.0000   0.0000
     0.0000   0.0000   0.0000   0.0000   0.0000   0.0000   0.0000   0.0000
     0.0000   0.0000   0.0000   0.0000   0.0000   0.0000   0.0000   0.0000
     0.0000   0.0000   0.0000   0.0000   0.0000   0.0000   0.0000

          k =-0.7071 0.0000 0.0000 ( 60622 PWs)   bands (ev):

   -18.2081 -18.0943 -18.0939 -18.0406 -18.0404 -18.0186 -18.0186 -17.9637
   -17.9635 -17.8982  -5.6079  -5.5175  -5.3413  -5.2548  -5.2478  -5.2466
    -4.6683  -4.4980  -4.4584  -4.4565  -4.4556  -4.4553  -4.4543  -4.4534
    -4.3054  -4.2635  -4.2292  -4.2284  -4.2268  -4.2260  -4.2247  -4.2235
    -3.7195  -3.6609  -3.6071  -3.6066  -3.6050  -3.6040  -3.6027  -3.6024
    -3.4098  -3.4035  -3.2604  -3.2446  -3.1905  -3.1887  -3.1878  -3.1868
    -3.1853  -3.1848  -2.9696  -2.9535  -2.9045  -2.9040  -2.9036  -2.9028
    -2.9015  -2.9000  -2.7042  -2.7011  -2.6608  -2.6591  -2.6581  -2.6575
    -2.6561  -2.6552  -2.0735  -2.0695  -2.0402  -2.0395  -1.6239  -1.5963
    -1.5543  -1.5534  -1.5531  -1.5513  -1.5505  -1.5502  -1.0814  -1.0623
    -1.0438  -1.0428  -0.6921  -0.6432  -0.6249  -0.6241  -0.6202  -0.6179
    -0.6171  -0.6168  -0.4471  -0.4150  -0.3859  -0.3846  -0.3835  -0.3824
    -0.3813  -0.3793  -0.2473  -0.2257  -0.2212  -0.2189  -0.2155  -0.2137
    -0.2132  -0.2124   0.1663   0.2017   0.2225   0.2251   0.2256   0.2268
     0.2273   0.2280   0.4323   0.4396   0.8455   0.8740   0.8809   0.8824
     0.8854   0.8869   0.8878   0.8886   1.8337   1.8340   1.8369   1.8376
     1.8381   1.8868   1.8933   1.8948   1.8967   1.8978   1.8995   1.9007
     1.9088   1.9102   1.9113   1.9133   1.9140   1.9146   1.9160   1.9166
     2.6964   2.7021   2.7060   2.7077   2.7080   2.7094   2.7102   2.7119
     2.7354   2.7361   2.7367   2.7380   2.7391   2.7402   2.7407   2.7414
     2.7905   2.7911   2.7919   2.7923   2.7926   2.7941   2.7949   2.7953
     3.4020   3.4035   3.4041   3.4047   3.4053   3.4058   3.4064   3.4074
     3.4415   3.4438   3.4462   3.4476   3.4481   3.4484   3.4494   3.4515
     3.4754   3.4989   3.5033   3.5060   3.5666   3.5685   3.5697   3.5706
     3.5795   3.5798   3.5811   3.5818   3.5823   3.5827   3.5835   3.5840
     3.6979   3.7043   3.7079   3.7087   3.7093   3.7097   3.7105   3.7120
     3.7517   3.7524   3.7540   3.7542   4.0117   4.0131   4.0140   4.0142
     4.0146   4.0151   4.0162   4.0171   4.3297   4.3378   4.3406   4.3417
     4.3436   4.3444   4.3454   4.3490   4.5401   4.5418   4.5423   4.5519
     4.5948   4.5955   4.5967   4.5978   4.5990   4.6000   4.6031   4.6033
     4.7522   4.7532   4.7549   4.7562   4.7570   4.7586   4.7590   4.7657
     4.8466   4.8678   4.9205   4.9225   4.9235   4.9246   4.9264   4.9279
     4.9300   4.9336   5.3788   5.3798   5.3887   5.3889   5.9044   5.9073
     5.9135   5.9162   6.7095   6.7150   7.2948   7.2950   7.3041   7.3074
     7.6290   7.6316   8.0536   8.0576   8.0586   8.0609   8.0637   8.0645
     8.0654   8.0676   8.0728   8.0731   8.0738   8.0758   8.0839   8.0864
     8.1041   8.1060   8.1417   8.1530   8.3513   8.3646   8.3682   8.3699
     8.3708   8.3714   8.3755   8.3929   8.4530   8.4819   8.4866   8.4875
     8.4899   8.4913   8.4930   8.5245   8.5700   8.5729   8.5759   8.5768
     8.5814   8.5826   8.5924   8.5956   8.7456   8.7478   8.7589

     occupation numbers 
     1.0000   1.0000   1.0000   1.0000   1.0000   1.0000   1.0000   1.0000
     1.0000   1.0000   1.0000   1.0000   1.0000   1.0000   1.0000   1.0000
     1.0000   1.0000   1.0000   1.0000   1.0000   1.0000   1.0000   1.0000
     1.0000   1.0000   1.0000   1.0000   1.0000   1.0000   1.0000   1.0000
     1.0000   1.0000   1.0000   1.0000   1.0000   1.0000   1.0000   1.0000
     1.0000   1.0000   1.0000   1.0000   1.0000   1.0000   1.0000   1.0000
     1.0000   1.0000   1.0000   1.0000   1.0000   1.0000   1.0000   1.0000
     1.0000   1.0000   1.0000   1.0000   1.0000   1.0000   1.0000   1.0000
     1.0000   1.0000   1.0000   1.0000   1.0000   1.0000   1.0000   1.0000
     1.0000   1.0000   1.0000   1.0000   1.0000   1.0000   1.0000   1.0000
     1.0000   1.0000   1.0000   1.0000   1.0000   1.0000   1.0000   1.0000
     1.0000   1.0000   1.0000   1.0000   1.0000   1.0000   1.0000   1.0000
     1.0000   1.0000   1.0000   1.0000   1.0000   1.0000   1.0000   1.0000
     1.0000   1.0000   1.0000   1.0000   1.0000   1.0000   1.0000   1.0000
     1.0000   1.0000   1.0000   1.0000   1.0000   1.0000   1.0000   1.0000
     1.0000   1.0000   1.0000   1.0000   1.0000   1.0000   1.0000   1.0000
     1.0000   1.0000   1.0000   1.0000   1.0000   1.0000   1.0000   1.0000
     1.0000   1.0000   1.0000   1.0000   1.0000   1.0000   1.0000   1.0000
     1.0000   1.0000   1.0000   1.0000   1.0000   1.0000   1.0000   1.0000
     1.0000   1.0000   1.0000   1.0000   1.0000   1.0000   1.0000   1.0000
     1.0000   1.0000   1.0000   1.0000   1.0000   1.0000   1.0000   1.0000
     1.0000   1.0000   1.0000   1.0000   1.0000   1.0000   1.0000   1.0000
     1.0000   1.0000   1.0000   1.0000   1.0000   1.0000   1.0000   1.0000
     1.0000   1.0000   1.0000   1.0000   1.0000   1.0000   1.0000   1.0000
     1.0000   1.0000   1.0000   1.0000   1.0000   1.0000   1.0000   1.0000
     1.0000   1.0000   1.0000   1.0000   1.0000   1.0000   1.0000   1.0000
     1.0000   1.0000   1.0000   1.0000   1.0000   1.0000   1.0000   1.0000
     1.0000   1.0000   1.0000   1.0000   1.0000   1.0000   1.0000   1.0000
     1.0000   1.0000   1.0000   1.0000   1.0000   1.0000   1.0000   1.0000
     1.0000   1.0000   1.0000   1.0000   1.0000   1.0000   1.0000   1.0000
     1.0000   1.0000   1.0000   1.0000   1.0000   1.0000   1.0000   1.0000
     1.0000   1.0000   1.0000   1.0000   1.0000   1.0000   1.0000   1.0000
     1.0000   1.0000   1.0000   1.0000   1.0000   1.0000   0.9999   0.9999
     0.9998   0.9998   0.0263   0.0240   0.0000   0.0000   0.0000   0.0000
     0.0000   0.0000   0.0000   0.0000   0.0000   0.0000   0.0000   0.0000
     0.0000   0.0000   0.0000   0.0000   0.0000   0.0000   0.0000   0.0000
     0.0000   0.0000   0.0000   0.0000   0.0000   0.0000   0.0000   0.0000
     0.0000   0.0000   0.0000   0.0000   0.0000   0.0000   0.0000   0.0000
     0.0000   0.0000   0.0000   0.0000   0.0000   0.0000   0.0000   0.0000
     0.0000   0.0000   0.0000   0.0000   0.0000   0.0000   0.0000

          k = 0.3536 0.3536 0.3536 ( 60452 PWs)   bands (ev):

   -18.2081 -18.0942 -18.0939 -18.0406 -18.0404 -18.0186 -18.0186 -17.9637
   -17.9635 -17.8982  -5.6606  -5.5885  -5.2219  -5.0476  -5.0467  -5.0464
    -5.0448  -5.0417  -4.6449  -4.5700  -4.5356  -4.5347  -4.5334  -4.5329
    -4.1429  -4.1306  -4.0560  -4.0284  -3.9924  -3.9921  -3.9909  -3.9901
    -3.7535  -3.5774  -3.5681  -3.5673  -3.5648  -3.5631  -3.5629  -3.5614
    -3.5608  -3.5600  -3.5594  -3.5574  -3.4025  -3.3606  -3.3579  -3.3571
    -3.3569  -3.3557  -2.9769  -2.8598  -2.8537  -2.8530  -2.8506  -2.8490
    -2.5631  -2.5192  -2.4902  -2.4878  -2.4861  -2.4849  -2.3750  -2.3614
    -2.3103  -2.3094  -2.3069  -2.3066  -2.3054  -2.3053  -2.3042  -2.3032
    -2.3021  -2.3005  -0.9239  -0.8139  -0.7519  -0.7505  -0.7487  -0.7485
    -0.7478  -0.7460  -0.7445  -0.7441  -0.7437  -0.7429  -0.6773  -0.6564
    -0.6441  -0.6432  -0.6428  -0.6403  -0.6034  -0.5945  -0.5940  -0.5888
    -0.5879  -0.5877  -0.5110  -0.4708  -0.4685  -0.4653  -0.4628  -0.4607
     0.1966   0.2070   0.2540   0.3250   0.3278   0.3290   0.3332   0.3354
     0.3359   0.3373   0.3378   0.3382   0.3396   0.3423   1.2088   1.2247
     1.2463   1.2481   1.2492   1.2505   1.5240   1.5374   1.5461   1.5465
     1.5504   1.5514   2.0744   2.0748   2.0775   2.0792   2.0830   2.0836
     2.0843   2.0851   2.0853   2.0860   2.0869   2.0870   2.1439   2.1539
     2.1548   2.1557   2.1568   2.1574   2.7158   2.7173   2.7187   2.7203
     2.7208   2.7219   2.8108   2.8320   2.8335   2.8349   2.8357   2.8360
     2.8366   2.8367   2.8370   2.8387   2.8392   2.8406   2.9233   2.9551
     2.9553   2.9562   2.9633   2.9644   3.1954   3.1971   3.1975   3.1990
     3.2000   3.2010   3.2013   3.2018   3.2026   3.2028   3.2032   3.2045
     3.4842   3.4898   3.4908   3.4912   3.4927   3.4930   3.4940   3.4954
     3.4960   3.4965   3.4971   3.4973   3.8475   3.8566   3.8573   3.8589
     3.8592   3.8601   3.8841   3.8917   3.8933   3.8942   3.8948   3.8978
     3.9676   3.9691   3.9697   3.9712   3.9721   3.9738   4.2433   4.2446
     4.2448   4.2453   4.2458   4.2467   4.2479   4.2483   4.2487   4.2500
     4.2512   4.2562   4.2950   4.2960   4.2971   4.2975   4.2981   4.2984
     4.5774   4.5900   4.6195   4.6228   4.6235   4.6243   4.6296   4.6303
     4.8622   4.8629   4.8644   4.8656   4.8739   4.8759   4.9314   4.9356
     4.9398   4.9414   4.9434   4.9544   5.1054   5.1059   5.1069   5.1088
     5.4182   5.4193   5.4203   5.4223   5.4285   5.4311   5.9046   5.9048
     5.9157   5.9180   6.9699   6.9858   6.9864   6.9867   7.0030   7.0034
     7.4509   7.4558   7.4590   7.4599   7.4696   7.4710   7.7757   7.7859
     7.9381   7.9390   7.9494   7.9499   7.9651   7.9671   8.0578   8.0692
     8.0706   8.0775   8.0860   8.0864   8.2676   8.2727   8.2783   8.2799
     8.2823   8.2833   8.2886   8.3134   8.3188   8.3198   8.3381   8.3388
     8.4865   8.4945   8.4951   8.4958   8.4963   8.4974   8.4986   8.4995
     8.4997   8.5072   8.5365   8.5380   8.6388   8.6406   8.8100

     occupation numbers 
     1.0000   1.0000   1.0000   1.0000   1.0000   1.0000   1.0000   1.0000
     1.0000   1.0000   1.0000   1.0000   1.0000   1.0000   1.0000   1.0000
     1.0000   1.0000   1.0000   1.0000   1.0000   1.0000   1.0000   1.0000
     1.0000   1.0000   1.0000   1.0000   1.0000   1.0000   1.0000   1.0000
     1.0000   1.0000   1.0000   1.0000   1.0000   1.0000   1.0000   1.0000
     1.0000   1.0000   1.0000   1.0000   1.0000   1.0000   1.0000   1.0000
     1.0000   1.0000   1.0000   1.0000   1.0000   1.0000   1.0000   1.0000
     1.0000   1.0000   1.0000   1.0000   1.0000   1.0000   1.0000   1.0000
     1.0000   1.0000   1.0000   1.0000   1.0000   1.0000   1.0000   1.0000
     1.0000   1.0000   1.0000   1.0000   1.0000   1.0000   1.0000   1.0000
     1.0000   1.0000   1.0000   1.0000   1.0000   1.0000   1.0000   1.0000
     1.0000   1.0000   1.0000   1.0000   1.0000   1.0000   1.0000   1.0000
     1.0000   1.0000   1.0000   1.0000   1.0000   1.0000   1.0000   1.0000
     1.0000   1.0000   1.0000   1.0000   1.0000   1.0000   1.0000   1.0000
     1.0000   1.0000   1.0000   1.0000   1.0000   1.0000   1.0000   1.0000
     1.0000   1.0000   1.0000   1.0000   1.0000   1.0000   1.0000   1.0000
     1.0000   1.0000   1.0000   1.0000   1.0000   1.0000   1.0000   1.0000
     1.0000   1.0000   1.0000   1.0000   1.0000   1.0000   1.0000   1.0000
     1.0000   1.0000   1.0000   1.0000   1.0000   1.0000   1.0000   1.0000
     1.0000   1.0000   1.0000   1.0000   1.0000   1.0000   1.0000   1.0000
     1.0000   1.0000   1.0000   1.0000   1.0000   1.0000   1.0000   1.0000
     1.0000   1.0000   1.0000   1.0000   1.0000   1.0000   1.0000   1.0000
     1.0000   1.0000   1.0000   1.0000   1.0000   1.0000   1.0000   1.0000
     1.0000   1.0000   1.0000   1.0000   1.0000   1.0000   1.0000   1.0000
     1.0000   1.0000   1.0000   1.0000   1.0000   1.0000   1.0000   1.0000
     1.0000   1.0000   1.0000   1.0000   1.0000   1.0000   1.0000   1.0000
     1.0000   1.0000   1.0000   1.0000   1.0000   1.0000   1.0000   1.0000
     1.0000   1.0000   1.0000   1.0000   1.0000   1.0000   1.0000   1.0000
     1.0000   1.0000   1.0000   1.0000   1.0000   1.0000   1.0000   1.0000
     1.0000   1.0000   1.0000   1.0000   1.0000   1.0000   1.0000   1.0000
     1.0000   1.0000   1.0000   1.0000   1.0000   1.0000   1.0000   1.0000
     1.0000   1.0000   1.0000   1.0000   1.0000   1.0000   1.0000   1.0000
     1.0000   1.0000   1.0000   1.0000   1.0000   1.0000   0.9999   0.9999
     0.9998   0.9998   0.0001   0.0001   0.0001   0.0001   0.0000   0.0000
     0.0000   0.0000   0.0000   0.0000   0.0000   0.0000   0.0000   0.0000
     0.0000   0.0000   0.0000   0.0000   0.0000   0.0000   0.0000   0.0000
     0.0000   0.0000   0.0000   0.0000   0.0000   0.0000   0.0000   0.0000
     0.0000   0.0000   0.0000   0.0000   0.0000   0.0000   0.0000   0.0000
     0.0000   0.0000   0.0000   0.0000   0.0000   0.0000   0.0000   0.0000
     0.0000   0.0000   0.0000   0.0000   0.0000   0.0000   0.0000

          k = 0.3536-0.3536-0.3536 ( 60452 PWs)   bands (ev):

   -18.2081 -18.0943 -18.0940 -18.0405 -18.0404 -18.0186 -18.0185 -17.9637
   -17.9635 -17.8982  -5.6647  -5.5847  -5.2063  -5.0675  -5.0464  -5.0457
    -5.0438  -5.0427  -4.6572  -4.5584  -4.5366  -4.5351  -4.5338  -4.5327
    -4.1736  -4.0928  -4.0446  -4.0210  -3.9948  -3.9925  -3.9916  -3.9899
    -3.6911  -3.6677  -3.5671  -3.5646  -3.5645  -3.5639  -3.5623  -3.5611
    -3.5605  -3.5605  -3.5593  -3.5589  -3.3958  -3.3894  -3.3573  -3.3569
    -3.3565  -3.3561  -2.9259  -2.8705  -2.8529  -2.8523  -2.8518  -2.8498
    -2.5536  -2.5344  -2.4890  -2.4877  -2.4872  -2.4853  -2.3727  -2.3661
    -2.3098  -2.3092  -2.3086  -2.3063  -2.3062  -2.3051  -2.3040  -2.3032
    -2.3022  -2.3017  -0.9153  -0.8255  -0.7516  -0.7499  -0.7488  -0.7480
    -0.7465  -0.7460  -0.7452  -0.7443  -0.7431  -0.7414  -0.6714  -0.6628
    -0.6453  -0.6426  -0.6406  -0.6406  -0.6030  -0.5965  -0.5944  -0.5883
    -0.5883  -0.5875  -0.5061  -0.4734  -0.4676  -0.4654  -0.4648  -0.4629
     0.1925   0.2152   0.2715   0.3060   0.3290   0.3334   0.3340   0.3345
     0.3355   0.3358   0.3368   0.3385   0.3391   0.3402   1.1917   1.2364
     1.2468   1.2479   1.2496   1.2512   1.5161   1.5437   1.5458   1.5496
     1.5504   1.5516   2.0730   2.0757   2.0788   2.0823   2.0829   2.0835
     2.0838   2.0843   2.0849   2.0853   2.0857   2.0871   2.1453   2.1533
     2.1552   2.1560   2.1563   2.1579   2.7153   2.7164   2.7175   2.7201
     2.7212   2.7222   2.8246   2.8264   2.8297   2.8339   2.8352   2.8355
     2.8368   2.8372   2.8379   2.8392   2.8402   2.8415   2.9256   2.9546
     2.9550   2.9578   2.9583   2.9638   3.1956   3.1960   3.1979   3.2000
     3.2000   3.2007   3.2017   3.2020   3.2023   3.2025   3.2032   3.2041
     3.4873   3.4894   3.4913   3.4921   3.4928   3.4931   3.4936   3.4944
     3.4958   3.4965   3.4965   3.4970   3.8473   3.8553   3.8574   3.8577
     3.8588   3.8614   3.8846   3.8894   3.8920   3.8942   3.8960   3.8974
     3.9664   3.9684   3.9702   3.9707   3.9733   3.9754   4.2427   4.2437
     4.2450   4.2452   4.2463   4.2471   4.2478   4.2482   4.2490   4.2496
     4.2499   4.2540   4.2954   4.2961   4.2964   4.2978   4.2986   4.2994
     4.5766   4.5899   4.6218   4.6227   4.6240   4.6242   4.6277   4.6313
     4.8624   4.8651   4.8658   4.8664   4.8725   4.8735   4.9291   4.9392
     4.9396   4.9405   4.9410   4.9541   5.1036   5.1040   5.1092   5.1110
     5.4180   5.4191   5.4202   5.4225   5.4291   5.4325   5.9033   5.9038
     5.9174   5.9193   6.9795   6.9815   6.9835   6.9881   6.9969   7.0046
     7.4475   7.4581   7.4605   7.4615   7.4661   7.4715   7.7706   7.7872
     7.9345   7.9446   7.9464   7.9512   7.9600   7.9678   8.0655   8.0685
     8.0697   8.0802   8.0848   8.0879   8.2706   8.2758   8.2801   8.2810
     8.2825   8.2844   8.3000   8.3144   8.3148   8.3150   8.3213   8.3458
     8.4922   8.4937   8.4954   8.4959   8.4963   8.4981   8.4990   8.5035
     8.5038   8.5133   8.5242   8.5362   8.6389   8.6393   8.8240

     occupation numbers 
     1.0000   1.0000   1.0000   1.0000   1.0000   1.0000   1.0000   1.0000
     1.0000   1.0000   1.0000   1.0000   1.0000   1.0000   1.0000   1.0000
     1.0000   1.0000   1.0000   1.0000   1.0000   1.0000   1.0000   1.0000
     1.0000   1.0000   1.0000   1.0000   1.0000   1.0000   1.0000   1.0000
     1.0000   1.0000   1.0000   1.0000   1.0000   1.0000   1.0000   1.0000
     1.0000   1.0000   1.0000   1.0000   1.0000   1.0000   1.0000   1.0000
     1.0000   1.0000   1.0000   1.0000   1.0000   1.0000   1.0000   1.0000
     1.0000   1.0000   1.0000   1.0000   1.0000   1.0000   1.0000   1.0000
     1.0000   1.0000   1.0000   1.0000   1.0000   1.0000   1.0000   1.0000
     1.0000   1.0000   1.0000   1.0000   1.0000   1.0000   1.0000   1.0000
     1.0000   1.0000   1.0000   1.0000   1.0000   1.0000   1.0000   1.0000
     1.0000   1.0000   1.0000   1.0000   1.0000   1.0000   1.0000   1.0000
     1.0000   1.0000   1.0000   1.0000   1.0000   1.0000   1.0000   1.0000
     1.0000   1.0000   1.0000   1.0000   1.0000   1.0000   1.0000   1.0000
     1.0000   1.0000   1.0000   1.0000   1.0000   1.0000   1.0000   1.0000
     1.0000   1.0000   1.0000   1.0000   1.0000   1.0000   1.0000   1.0000
     1.0000   1.0000   1.0000   1.0000   1.0000   1.0000   1.0000   1.0000
     1.0000   1.0000   1.0000   1.0000   1.0000   1.0000   1.0000   1.0000
     1.0000   1.0000   1.0000   1.0000   1.0000   1.0000   1.0000   1.0000
     1.0000   1.0000   1.0000   1.0000   1.0000   1.0000   1.0000   1.0000
     1.0000   1.0000   1.0000   1.0000   1.0000   1.0000   1.0000   1.0000
     1.0000   1.0000   1.0000   1.0000   1.0000   1.0000   1.0000   1.0000
     1.0000   1.0000   1.0000   1.0000   1.0000   1.0000   1.0000   1.0000
     1.0000   1.0000   1.0000   1.0000   1.0000   1.0000   1.0000   1.0000
     1.0000   1.0000   1.0000   1.0000   1.0000   1.0000   1.0000   1.0000
     1.0000   1.0000   1.0000   1.0000   1.0000   1.0000   1.0000   1.0000
     1.0000   1.0000   1.0000   1.0000   1.0000   1.0000   1.0000   1.0000
     1.0000   1.0000   1.0000   1.0000   1.0000   1.0000   1.0000   1.0000
     1.0000   1.0000   1.0000   1.0000   1.0000   1.0000   1.0000   1.0000
     1.0000   1.0000   1.0000   1.0000   1.0000   1.0000   1.0000   1.0000
     1.0000   1.0000   1.0000   1.0000   1.0000   1.0000   1.0000   1.0000
     1.0000   1.0000   1.0000   1.0000   1.0000   1.0000   1.0000   1.0000
     1.0000   1.0000   1.0000   1.0000   1.0000   1.0000   0.9999   0.9999
     0.9998   0.9998   0.0001   0.0001   0.0001   0.0001   0.0000   0.0000
     0.0000   0.0000   0.0000   0.0000   0.0000   0.0000   0.0000   0.0000
     0.0000   0.0000   0.0000   0.0000   0.0000   0.0000   0.0000   0.0000
     0.0000   0.0000   0.0000   0.0000   0.0000   0.0000   0.0000   0.0000
     0.0000   0.0000   0.0000   0.0000   0.0000   0.0000   0.0000   0.0000
     0.0000   0.0000   0.0000   0.0000   0.0000   0.0000   0.0000   0.0000
     0.0000   0.0000   0.0000   0.0000   0.0000   0.0000   0.0000

          k =-0.3536 0.3536-0.3536 ( 60452 PWs)   bands (ev):

   -18.2081 -18.0943 -18.0939 -18.0405 -18.0404 -18.0186 -18.0185 -17.9637
   -17.9635 -17.8982  -5.6657  -5.5832  -5.2072  -5.0666  -5.0461  -5.0449
    -5.0444  -5.0442  -4.6571  -4.5578  -4.5370  -4.5347  -4.5336  -4.5325
    -4.1745  -4.0914  -4.0459  -4.0207  -3.9946  -3.9936  -3.9907  -3.9890
    -3.6933  -3.6685  -3.5681  -3.5655  -3.5645  -3.5629  -3.5618  -3.5610
    -3.5604  -3.5599  -3.5589  -3.5569  -3.3978  -3.3906  -3.3591  -3.3562
    -3.3556  -3.3538  -2.9264  -2.8710  -2.8538  -2.8513  -2.8506  -2.8490
    -2.5540  -2.5350  -2.4895  -2.4879  -2.4864  -2.4849  -2.3722  -2.3671
    -2.3110  -2.3091  -2.3076  -2.3067  -2.3056  -2.3043  -2.3040  -2.3038
    -2.3029  -2.3010  -0.9166  -0.8246  -0.7518  -0.7494  -0.7482  -0.7477
    -0.7464  -0.7456  -0.7448  -0.7438  -0.7429  -0.7415  -0.6722  -0.6637
    -0.6444  -0.6430  -0.6423  -0.6396  -0.6026  -0.5986  -0.5946  -0.5883
    -0.5868  -0.5850  -0.5068  -0.4722  -0.4683  -0.4673  -0.4653  -0.4635
     0.1918   0.2145   0.2715   0.3043   0.3272   0.3334   0.3344   0.3353
     0.3367   0.3373   0.3377   0.3385   0.3396   0.3408   1.1922   1.2361
     1.2460   1.2483   1.2486   1.2510   1.5166   1.5434   1.5452   1.5493
     1.5509   1.5517   2.0729   2.0763   2.0800   2.0808   2.0828   2.0834
     2.0838   2.0842   2.0851   2.0855   2.0858   2.0866   2.1458   2.1536
     2.1544   2.1560   2.1569   2.1581   2.7144   2.7156   2.7173   2.7206
     2.7217   2.7220   2.8241   2.8254   2.8295   2.8323   2.8357   2.8368
     2.8376   2.8383   2.8389   2.8395   2.8398   2.8412   2.9270   2.9546
     2.9548   2.9576   2.9591   2.9645   3.1940   3.1962   3.1975   3.1999
     3.2005   3.2009   3.2015   3.2020   3.2026   3.2027   3.2037   3.2042
     3.4866   3.4888   3.4896   3.4908   3.4937   3.4943   3.4947   3.4954
     3.4955   3.4968   3.4976   3.4979   3.8468   3.8556   3.8574   3.8585
     3.8587   3.8595   3.8849   3.8891   3.8906   3.8941   3.8948   3.8979
     3.9675   3.9696   3.9701   3.9715   3.9726   3.9740   4.2420   4.2436
     4.2439   4.2451   4.2460   4.2464   4.2471   4.2476   4.2490   4.2494
     4.2516   4.2530   4.2957   4.2960   4.2971   4.2978   4.2984   4.2997
     4.5752   4.5902   4.6219   4.6235   4.6254   4.6257   4.6272   4.6295
     4.8637   4.8640   4.8654   4.8677   4.8724   4.8739   4.9291   4.9361
     4.9386   4.9405   4.9419   4.9541   5.1046   5.1067   5.1075   5.1098
     5.4182   5.4210   5.4215   5.4234   5.4280   5.4311   5.9042   5.9070
     5.9154   5.9185   6.9792   6.9842   6.9855   6.9872   6.9959   7.0034
     7.4479   7.4594   7.4597   7.4626   7.4662   7.4701   7.7689   7.7891
     7.9360   7.9450   7.9464   7.9510   7.9598   7.9674   8.0659   8.0683
     8.0696   8.0802   8.0831   8.0881   8.2700   8.2758   8.2795   8.2820
     8.2827   8.2846   8.2985   8.3146   8.3155   8.3168   8.3218   8.3451
     8.4912   8.4942   8.4949   8.4961   8.4979   8.4983   8.4987   8.5033
     8.5043   8.5119   8.5242   8.5344   8.6377   8.6408   8.8247

     occupation numbers 
     1.0000   1.0000   1.0000   1.0000   1.0000   1.0000   1.0000   1.0000
     1.0000   1.0000   1.0000   1.0000   1.0000   1.0000   1.0000   1.0000
     1.0000   1.0000   1.0000   1.0000   1.0000   1.0000   1.0000   1.0000
     1.0000   1.0000   1.0000   1.0000   1.0000   1.0000   1.0000   1.0000
     1.0000   1.0000   1.0000   1.0000   1.0000   1.0000   1.0000   1.0000
     1.0000   1.0000   1.0000   1.0000   1.0000   1.0000   1.0000   1.0000
     1.0000   1.0000   1.0000   1.0000   1.0000   1.0000   1.0000   1.0000
     1.0000   1.0000   1.0000   1.0000   1.0000   1.0000   1.0000   1.0000
     1.0000   1.0000   1.0000   1.0000   1.0000   1.0000   1.0000   1.0000
     1.0000   1.0000   1.0000   1.0000   1.0000   1.0000   1.0000   1.0000
     1.0000   1.0000   1.0000   1.0000   1.0000   1.0000   1.0000   1.0000
     1.0000   1.0000   1.0000   1.0000   1.0000   1.0000   1.0000   1.0000
     1.0000   1.0000   1.0000   1.0000   1.0000   1.0000   1.0000   1.0000
     1.0000   1.0000   1.0000   1.0000   1.0000   1.0000   1.0000   1.0000
     1.0000   1.0000   1.0000   1.0000   1.0000   1.0000   1.0000   1.0000
     1.0000   1.0000   1.0000   1.0000   1.0000   1.0000   1.0000   1.0000
     1.0000   1.0000   1.0000   1.0000   1.0000   1.0000   1.0000   1.0000
     1.0000   1.0000   1.0000   1.0000   1.0000   1.0000   1.0000   1.0000
     1.0000   1.0000   1.0000   1.0000   1.0000   1.0000   1.0000   1.0000
     1.0000   1.0000   1.0000   1.0000   1.0000   1.0000   1.0000   1.0000
     1.0000   1.0000   1.0000   1.0000   1.0000   1.0000   1.0000   1.0000
     1.0000   1.0000   1.0000   1.0000   1.0000   1.0000   1.0000   1.0000
     1.0000   1.0000   1.0000   1.0000   1.0000   1.0000   1.0000   1.0000
     1.0000   1.0000   1.0000   1.0000   1.0000   1.0000   1.0000   1.0000
     1.0000   1.0000   1.0000   1.0000   1.0000   1.0000   1.0000   1.0000
     1.0000   1.0000   1.0000   1.0000   1.0000   1.0000   1.0000   1.0000
     1.0000   1.0000   1.0000   1.0000   1.0000   1.0000   1.0000   1.0000
     1.0000   1.0000   1.0000   1.0000   1.0000   1.0000   1.0000   1.0000
     1.0000   1.0000   1.0000   1.0000   1.0000   1.0000   1.0000   1.0000
     1.0000   1.0000   1.0000   1.0000   1.0000   1.0000   1.0000   1.0000
     1.0000   1.0000   1.0000   1.0000   1.0000   1.0000   1.0000   1.0000
     1.0000   1.0000   1.0000   1.0000   1.0000   1.0000   1.0000   1.0000
     1.0000   1.0000   1.0000   1.0000   1.0000   1.0000   0.9999   0.9999
     0.9998   0.9998   0.0001   0.0001   0.0001   0.0001   0.0000   0.0000
     0.0000   0.0000   0.0000   0.0000   0.0000   0.0000   0.0000   0.0000
     0.0000   0.0000   0.0000   0.0000   0.0000   0.0000   0.0000   0.0000
     0.0000   0.0000   0.0000   0.0000   0.0000   0.0000   0.0000   0.0000
     0.0000   0.0000   0.0000   0.0000   0.0000   0.0000   0.0000   0.0000
     0.0000   0.0000   0.0000   0.0000   0.0000   0.0000   0.0000   0.0000
     0.0000   0.0000   0.0000   0.0000   0.0000   0.0000   0.0000

          k = 0.0000-0.7071 0.0000 ( 60622 PWs)   bands (ev):

   -18.2081 -18.0943 -18.0939 -18.0405 -18.0404 -18.0186 -18.0185 -17.9637
   -17.9635 -17.8982  -5.6079  -5.5175  -5.3415  -5.2552  -5.2482  -5.2456
    -4.6685  -4.4987  -4.4575  -4.4566  -4.4561  -4.4549  -4.4542  -4.4526
    -4.3057  -4.2634  -4.2293  -4.2282  -4.2271  -4.2259  -4.2247  -4.2237
    -3.7225  -3.6583  -3.6072  -3.6059  -3.6053  -3.6042  -3.6029  -3.6023
    -3.4095  -3.4027  -3.2611  -3.2433  -3.1905  -3.1892  -3.1877  -3.1871
    -3.1856  -3.1847  -2.9699  -2.9531  -2.9054  -2.9042  -2.9029  -2.9023
    -2.9020  -2.8998  -2.7060  -2.7021  -2.6603  -2.6584  -2.6577  -2.6565
    -2.6562  -2.6552  -2.0734  -2.0697  -2.0405  -2.0396  -1.6197  -1.6000
    -1.5536  -1.5530  -1.5527  -1.5520  -1.5516  -1.5497  -1.0819  -1.0627
    -1.0444  -1.0421  -0.6916  -0.6449  -0.6249  -0.6243  -0.6199  -0.6186
    -0.6172  -0.6154  -0.4478  -0.4129  -0.3856  -0.3838  -0.3831  -0.3819
    -0.3816  -0.3813  -0.2447  -0.2300  -0.2206  -0.2186  -0.2150  -0.2147
    -0.2128  -0.2114   0.1668   0.1997   0.2231   0.2247   0.2261   0.2265
     0.2273   0.2283   0.4333   0.4388   0.8453   0.8748   0.8817   0.8829
     0.8842   0.8871   0.8874   0.8883   1.8338   1.8342   1.8366   1.8380
     1.8382   1.8863   1.8945   1.8954   1.8966   1.8980   1.8987   1.9008
     1.9081   1.9106   1.9109   1.9135   1.9145   1.9150   1.9153   1.9161
     2.6966   2.7033   2.7058   2.7067   2.7074   2.7093   2.7106   2.7112
     2.7357   2.7365   2.7371   2.7378   2.7388   2.7405   2.7409   2.7410
     2.7901   2.7904   2.7906   2.7929   2.7932   2.7940   2.7953   2.7959
     3.4026   3.4033   3.4046   3.4048   3.4052   3.4059   3.4063   3.4069
     3.4415   3.4435   3.4465   3.4468   3.4478   3.4490   3.4496   3.4519
     3.4753   3.4988   3.5031   3.5060   3.5670   3.5677   3.5700   3.5707
     3.5795   3.5802   3.5807   3.5819   3.5822   3.5828   3.5832   3.5844
     3.6983   3.7047   3.7076   3.7085   3.7093   3.7097   3.7105   3.7117
     3.7508   3.7526   3.7537   3.7552   4.0119   4.0129   4.0130   4.0141
     4.0147   4.0152   4.0168   4.0174   4.3293   4.3365   4.3416   4.3419
     4.3435   4.3443   4.3450   4.3497   4.5401   4.5416   4.5425   4.5521
     4.5945   4.5955   4.5972   4.5981   4.5987   4.5997   4.6018   4.6047
     4.7527   4.7548   4.7550   4.7556   4.7566   4.7580   4.7589   4.7655
     4.8467   4.8678   4.9219   4.9227   4.9233   4.9239   4.9252   4.9296
     4.9306   4.9318   5.3779   5.3810   5.3867   5.3905   5.9047   5.9073
     5.9145   5.9150   6.7102   6.7142   7.2944   7.2957   7.3050   7.3062
     7.6285   7.6322   8.0520   8.0583   8.0590   8.0603   8.0641   8.0647
     8.0666   8.0683   8.0712   8.0730   8.0745   8.0760   8.0850   8.0864
     8.1026   8.1063   8.1414   8.1528   8.3520   8.3644   8.3685   8.3697
     8.3706   8.3723   8.3748   8.3932   8.4530   8.4828   8.4861   8.4886
     8.4889   8.4910   8.4929   8.5234   8.5709   8.5737   8.5754   8.5763
     8.5817   8.5817   8.5916   8.5966   8.7473   8.7543   8.7620

     occupation numbers 
     1.0000   1.0000   1.0000   1.0000   1.0000   1.0000   1.0000   1.0000
     1.0000   1.0000   1.0000   1.0000   1.0000   1.0000   1.0000   1.0000
     1.0000   1.0000   1.0000   1.0000   1.0000   1.0000   1.0000   1.0000
     1.0000   1.0000   1.0000   1.0000   1.0000   1.0000   1.0000   1.0000
     1.0000   1.0000   1.0000   1.0000   1.0000   1.0000   1.0000   1.0000
     1.0000   1.0000   1.0000   1.0000   1.0000   1.0000   1.0000   1.0000
     1.0000   1.0000   1.0000   1.0000   1.0000   1.0000   1.0000   1.0000
     1.0000   1.0000   1.0000   1.0000   1.0000   1.0000   1.0000   1.0000
     1.0000   1.0000   1.0000   1.0000   1.0000   1.0000   1.0000   1.0000
     1.0000   1.0000   1.0000   1.0000   1.0000   1.0000   1.0000   1.0000
     1.0000   1.0000   1.0000   1.0000   1.0000   1.0000   1.0000   1.0000
     1.0000   1.0000   1.0000   1.0000   1.0000   1.0000   1.0000   1.0000
     1.0000   1.0000   1.0000   1.0000   1.0000   1.0000   1.0000   1.0000
     1.0000   1.0000   1.0000   1.0000   1.0000   1.0000   1.0000   1.0000
     1.0000   1.0000   1.0000   1.0000   1.0000   1.0000   1.0000   1.0000
     1.0000   1.0000   1.0000   1.0000   1.0000   1.0000   1.0000   1.0000
     1.0000   1.0000   1.0000   1.0000   1.0000   1.0000   1.0000   1.0000
     1.0000   1.0000   1.0000   1.0000   1.0000   1.0000   1.0000   1.0000
     1.0000   1.0000   1.0000   1.0000   1.0000   1.0000   1.0000   1.0000
     1.0000   1.0000   1.0000   1.0000   1.0000   1.0000   1.0000   1.0000
     1.0000   1.0000   1.0000   1.0000   1.0000   1.0000   1.0000   1.0000
     1.0000   1.0000   1.0000   1.0000   1.0000   1.0000   1.0000   1.0000
     1.0000   1.0000   1.0000   1.0000   1.0000   1.0000   1.0000   1.0000
     1.0000   1.0000   1.0000   1.0000   1.0000   1.0000   1.0000   1.0000
     1.0000   1.0000   1.0000   1.0000   1.0000   1.0000   1.0000   1.0000
     1.0000   1.0000   1.0000   1.0000   1.0000   1.0000   1.0000   1.0000
     1.0000   1.0000   1.0000   1.0000   1.0000   1.0000   1.0000   1.0000
     1.0000   1.0000   1.0000   1.0000   1.0000   1.0000   1.0000   1.0000
     1.0000   1.0000   1.0000   1.0000   1.0000   1.0000   1.0000   1.0000
     1.0000   1.0000   1.0000   1.0000   1.0000   1.0000   1.0000   1.0000
     1.0000   1.0000   1.0000   1.0000   1.0000   1.0000   1.0000   1.0000
     1.0000   1.0000   1.0000   1.0000   1.0000   1.0000   1.0000   1.0000
     1.0000   1.0000   1.0000   1.0000   1.0000   1.0000   0.9999   0.9999
     0.9998   0.9998   0.0260   0.0243   0.0000   0.0000   0.0000   0.0000
     0.0000   0.0000   0.0000   0.0000   0.0000   0.0000   0.0000   0.0000
     0.0000   0.0000   0.0000   0.0000   0.0000   0.0000   0.0000   0.0000
     0.0000   0.0000   0.0000   0.0000   0.0000   0.0000   0.0000   0.0000
     0.0000   0.0000   0.0000   0.0000   0.0000   0.0000   0.0000   0.0000
     0.0000   0.0000   0.0000   0.0000   0.0000   0.0000   0.0000   0.0000
     0.0000   0.0000   0.0000   0.0000   0.0000   0.0000   0.0000

[...]
     atom   77 type  1   force =   0.00000000E+00  0.00000000E+00  0.00000000E+00
     atom   78 type  1   force =   0.00000000E+00  0.00000000E+00  0.00000000E+00
     atom   79 type  1   force =   0.00000000E+00  0.00000000E+00  0.00000000E+00
     atom   80 type  1   force =   0.00000000E+00  0.00000000E+00  0.00000000E+00
     atom   81 type  1   force =   0.00000000E+00  0.00000000E+00  0.00000000E+00
     atom   82 type  1   force =   0.00000000E+00  0.00000000E+00  0.00000000E+00
     atom   83 type  1   force =   0.00000000E+00  0.00000000E+00  0.00000000E+00
     atom   84 type  1   force =   0.00000000E+00  0.00000000E+00  0.00000000E+00
     atom   85 type  1   force =   0.00000000E+00  0.00000000E+00  0.00000000E+00
     atom   86 type  1   force =   0.00000000E+00  0.00000000E+00  0.00000000E+00
     atom   87 type  1   force =   0.00000000E+00  0.00000000E+00  0.00000000E+00
     atom   88 type  1   force =   0.00000000E+00  0.00000000E+00  0.00000000E+00
     atom   89 type  1   force =   0.00000000E+00  0.00000000E+00  0.00000000E+00
     atom   90 type  1   force =   0.00000000E+00  0.00000000E+00  0.00000000E+00
     atom   91 type  1   force =   0.00000000E+00  0.00000000E+00  0.00000000E+00
     atom   92 type  1   force =   0.00000000E+00  0.00000000E+00  0.00000000E+00
     atom   93 type  1   force =   0.00000000E+00  0.00000000E+00  0.00000000E+00
     atom   94 type  1   force =   0.00000000E+00  0.00000000E+00  0.00000000E+00
     atom   95 type  1   force =   0.00000000E+00  0.00000000E+00  0.00000000E+00
     atom   96 type  1   force =   0.00000000E+00  0.00000000E+00  0.00000000E+00
     atom   97 type  1   force =   0.00000000E+00  0.00000000E+00  0.00000000E+00
     atom   98 type  1   force =   0.00000000E+00  0.00000000E+00  0.00000000E+00
     atom   99 type  1   force =   0.00000000E+00  0.00000000E+00  0.00000000E+00
     atom  100 type  1   force =   0.00000000E+00  0.00000000E+00  0.00000000E+00
     atom  101 type  1   force =   0.00000000E+00  0.00000000E+00  0.00000000E+00
     atom  102 type  1   force =   0.00000000E+00  0.00000000E+00  0.00000000E+00
     atom  103 type  1   force =   0.00000000E+00  0.00000000E+00  0.00000000E+00
     atom  104 type  1   force =   0.00000000E+00  0.00000000E+00  0.00000000E+00
     atom  105 type  1   force =   0.00000000E+00  0.00000000E+00  0.00000000E+00
     atom  106 type  1   force =   0.00000000E+00  0.00000000E+00  0.00000000E+00
     atom  107 type  1   force =   0.00000000E+00  0.00000000E+00  0.00000000E+00
     atom  108 type  1   force =   0.00000000E+00  0.00000000E+00  0.00000000E+00
     atom  109 type  1   force =   0.00000000E+00  0.00000000E+00  0.00000000E+00
     atom  110 type  1   force =   0.00000000E+00  0.00000000E+00  0.00000000E+00
     atom  111 type  1   force =   0.00000000E+00  0.00000000E+00  0.00000000E+00
     atom  112 type  1   force =   0.00000000E+00  0.00000000E+00  0.00000000E+00
     atom  113 type  1   force =   0.00000000E+00  0.00000000E+00  0.00000000E+00
     atom  114 type  1   force =   0.00000000E+00  0.00000000E+00  0.00000000E+00
     atom  115 type  1   force =   0.00000000E+00  0.00000000E+00  0.00000000E+00
     atom  116 type  1   force =   0.00000000E+00  0.00000000E+00  0.00000000E+00
     atom  117 type  1   force =   0.00000000E+00  0.00000000E+00  0.00000000E+00
     atom  118 type  1   force =   0.00000000E+00  0.00000000E+00  0.00000000E+00
     atom  119 type  1   force =   0.00000000E+00  0.00000000E+00  0.00000000E+00
     atom  120 type  1   force =   0.00000000E+00  0.00000000E+00  0.00000000E+00
     atom  121 type  1   force =   0.00000000E+00  0.00000000E+00  0.00000000E+00
     atom  122 type  1   force =   0.00000000E+00  0.00000000E+00  0.00000000E+00
     atom  123 type  1   force =   0.00000000E+00  0.00000000E+00  0.00000000E+00
     atom  124 type  1   force =   0.00000000E+00  0.00000000E+00  0.00000000E+00
     atom  125 type  1   force =   0.00000000E+00  0.00000000E+00  0.00000000E+00
     atom  126 type  1   force =   0.00000000E+00  0.00000000E+00  0.00000000E+00
     atom  127 type  1   force =   0.00000000E+00  0.00000000E+00  0.00000000E+00
     atom  128 type  1   force =   0.00000000E+00  0.00000000E+00  0.00000000E+00
     The SCF correction term to forces
     atom    1 type  2   force =   0.93148254E-05  0.10410444E-04  0.10414294E-04
     atom    2 type  2   force =  -0.10629861E-04 -0.10086957E-04 -0.97605373E-05
     atom    3 type  1   force =  -0.18658668E-05 -0.17105274E-05  0.18658993E-05
     atom    4 type  1   force =   0.38123609E-07 -0.77281810E-07  0.15393783E-06
     atom    5 type  1   force =   0.71990552E-06  0.59307679E-06  0.69386161E-06
     atom    6 type  1   force =  -0.36017694E-06 -0.53581577E-06 -0.76337091E-07
     atom    7 type  1   force =   0.11319083E-06  0.66379916E-07  0.44918774E-06
     atom    8 type  1   force =   0.16570124E-05  0.16096509E-05 -0.15797802E-05
     atom    9 type  1   force =  -0.17404875E-05  0.16925810E-05 -0.17641073E-05
     atom   10 type  1   force =   0.80752729E-07  0.42236016E-07 -0.32676139E-06
     atom   11 type  1   force =   0.13537052E-05  0.25466754E-06  0.25085079E-06
     atom   12 type  1   force =   0.15589430E-05 -0.73271241E-06 -0.73576205E-06
     atom   13 type  1   force =   0.46965686E-06 -0.14356110E-05  0.18652235E-06
     atom   14 type  1   force =   0.34064335E-07 -0.15160198E-05  0.70161614E-07
     atom   15 type  1   force =  -0.43844773E-06 -0.67159281E-07 -0.57005239E-06
     atom   16 type  1   force =   0.60942413E-07  0.47518776E-06 -0.28552681E-06
     atom   17 type  1   force =   0.80900605E-06  0.28650446E-06  0.25803927E-06
     atom   18 type  1   force =  -0.11552172E-06 -0.73524022E-07 -0.55611194E-06
     atom   19 type  1   force =   0.58279227E-06  0.17636761E-06 -0.15761642E-05
     atom   20 type  1   force =   0.12523517E-06  0.14713163E-06 -0.16047050E-05
     atom   21 type  1   force =  -0.54889494E-06 -0.88131060E-06 -0.82310105E-06
     atom   22 type  1   force =  -0.19111454E-07  0.32809518E-06  0.40221400E-06
     atom   23 type  1   force =  -0.14717468E-06 -0.22706424E-06  0.10363986E-05
     atom   24 type  1   force =  -0.31778779E-06 -0.10304619E-06  0.13031309E-05
     atom   25 type  1   force =   0.19069364E-06  0.38516868E-06  0.84052170E-07
     atom   26 type  1   force =   0.16040825E-05 -0.16133268E-05  0.17367186E-05
     atom   27 type  1   force =  -0.43317502E-06 -0.51816097E-06 -0.72594491E-07
     atom   28 type  1   force =  -0.53358087E-07 -0.12592150E-06  0.55450272E-06
     atom   29 type  1   force =  -0.31521542E-06  0.10608499E-05 -0.28430585E-06
     atom   30 type  1   force =  -0.32828978E-06  0.14671217E-05  0.18587749E-06
     atom   31 type  1   force =  -0.12743934E-05  0.84420553E-06  0.80615671E-06
     atom   32 type  1   force =  -0.98487803E-06 -0.93951399E-08  0.65340336E-07
     atom   33 type  1   force =   0.16067608E-05 -0.18286242E-05 -0.19435678E-05
     atom   34 type  1   force =  -0.31145618E-07 -0.16859918E-06 -0.46287141E-06
     atom   35 type  1   force =   0.27051422E-06  0.11210884E-05 -0.48351038E-07
     atom   36 type  1   force =  -0.45334117E-06  0.13254411E-05 -0.10595918E-05
     atom   37 type  1   force =  -0.11597053E-05  0.37294090E-06  0.20101664E-07
     atom   38 type  1   force =  -0.11520669E-05 -0.11364811E-06 -0.24681920E-07
     atom   39 type  1   force =   0.66161876E-07 -0.41545752E-06 -0.67317356E-06
     atom   40 type  1   force =   0.57264601E-06  0.88314418E-07 -0.33548615E-06
     atom   41 type  1   force =   0.37556005E-06  0.25681049E-07  0.76944570E-06
     atom   42 type  1   force =  -0.31076268E-06 -0.92096460E-06  0.10886028E-05
     atom   43 type  1   force =   0.62465592E-06 -0.84629358E-07 -0.33762490E-06
     atom   44 type  1   force =   0.89519846E-06  0.40749172E-06  0.20940067E-06
     atom   45 type  1   force =  -0.26218357E-06 -0.42248039E-06  0.67080650E-06
     atom   46 type  1   force =   0.26551008E-06  0.24936329E-06  0.21037372E-05
     atom   47 type  1   force =  -0.68747323E-07 -0.10737115E-06  0.12960400E-05
     atom   48 type  1   force =  -0.22250135E-06 -0.36780574E-06  0.23221187E-05
     atom   49 type  1   force =  -0.96897597E-06 -0.55607972E-07  0.34109291E-06
     atom   50 type  1   force =  -0.94340837E-06 -0.80903381E-07  0.13269971E-06
     atom   51 type  1   force =   0.71428496E-07  0.88558990E-06 -0.39725602E-06
     atom   52 type  1   force =   0.37302467E-06  0.21197399E-05  0.44299615E-06
     atom   53 type  1   force =  -0.19889531E-06  0.14217170E-05  0.16907333E-05
     atom   54 type  1   force =  -0.94284453E-06  0.15625135E-05  0.19040004E-05
     atom   55 type  1   force =  -0.10823953E-05 -0.10056967E-07  0.23059278E-05
     atom   56 type  1   force =  -0.20162864E-05 -0.12374315E-06  0.12763497E-05
     atom   57 type  1   force =   0.16201843E-06 -0.65341912E-06 -0.27408442E-06
     atom   58 type  1   force =   0.51600962E-06 -0.11076131E-06  0.90569658E-07
     atom   59 type  1   force =  -0.98759884E-07  0.15487128E-05  0.39092344E-07
     atom   60 type  1   force =  -0.27451875E-06  0.25371010E-05 -0.17135776E-06
     atom   61 type  1   force =  -0.11883406E-05  0.22665492E-05  0.35670307E-06
     atom   62 type  1   force =  -0.21613840E-05  0.10734467E-05  0.62106640E-07
     atom   63 type  1   force =  -0.22499664E-05  0.19614737E-06  0.39822984E-06
     atom   64 type  1   force =  -0.14659100E-05 -0.78507574E-07 -0.12507393E-06
     atom   65 type  1   force =   0.14984081E-06  0.62708949E-06  0.33263294E-06
     atom   66 type  1   force =  -0.39662819E-06 -0.25659752E-06 -0.58431552E-06
     atom   67 type  1   force =   0.50648039E-07  0.62449410E-06 -0.15897244E-05
     atom   68 type  1   force =   0.79804226E-07  0.63623163E-08 -0.14747547E-05
     atom   69 type  1   force =  -0.51214302E-06 -0.49072280E-06 -0.10303805E-05
     atom   70 type  1   force =   0.78055471E-06  0.67540283E-07  0.42258159E-06
     atom   71 type  1   force =  -0.58365653E-07 -0.26053169E-06  0.98273128E-06
     atom   72 type  1   force =   0.11560396E-07 -0.41071113E-06  0.13203548E-05
     atom   73 type  1   force =   0.53717321E-07 -0.13332397E-05  0.59203997E-06
     atom   74 type  1   force =   0.22707851E-06 -0.12289754E-05  0.21487137E-06
     atom   75 type  1   force =   0.10793011E-05 -0.33199467E-06 -0.31433831E-06
     atom   76 type  1   force =   0.24988536E-05  0.32256545E-06  0.59416777E-06
     atom   77 type  1   force =   0.17795576E-05 -0.14062336E-06  0.16349579E-05
     atom   78 type  1   force =   0.15852782E-05 -0.90565078E-06  0.20296732E-05
     atom   79 type  1   force =  -0.21126945E-07 -0.11415432E-05  0.24316479E-05
     atom   80 type  1   force =  -0.21549133E-06 -0.22308154E-05  0.15002744E-05
     atom   81 type  1   force =  -0.50177745E-06 -0.75362460E-06 -0.11153434E-06
     atom   82 type  1   force =   0.95504353E-06  0.66321051E-06  0.38513598E-06
     atom   83 type  1   force =   0.18076437E-05  0.15158187E-05  0.19009755E-06
     atom   84 type  1   force =   0.16439779E-05  0.16460478E-05 -0.71252770E-06
     atom   85 type  1   force =   0.57893987E-06  0.64229625E-06  0.97692375E-06
     atom   86 type  1   force =  -0.87200404E-06 -0.75365861E-06 -0.44775435E-06
     atom   87 type  1   force =  -0.16725019E-05 -0.16171358E-05  0.11040585E-05
     atom   88 type  1   force =  -0.16108641E-05 -0.16921786E-05  0.16140906E-07
     atom   89 type  1   force =  -0.70804083E-07  0.13792002E-05 -0.33771485E-06
     atom   90 type  1   force =  -0.13294981E-06  0.15751118E-05 -0.74622309E-06
     atom   91 type  1   force =   0.28371904E-07  0.23522955E-05 -0.12406657E-05
     atom   92 type  1   force =  -0.21450989E-06  0.13015981E-05 -0.24208621E-05
     atom   93 type  1   force =  -0.17530938E-05  0.77236364E-06 -0.16352081E-05
     atom   94 type  1   force =  -0.16682880E-05 -0.20443514E-06 -0.18589844E-05
     atom   95 type  1   force =  -0.21700017E-05 -0.53995955E-06 -0.64810066E-06
     atom   96 type  1   force =  -0.82873901E-06  0.18095933E-06 -0.15305983E-06
     atom   97 type  1   force =   0.64894380E-07  0.34212418E-06  0.18924974E-06
     atom   98 type  1   force =  -0.18993323E-05  0.18662499E-05  0.17838413E-05
     atom   99 type  1   force =  -0.91201102E-06 -0.21610198E-06  0.62358352E-07
     atom  100 type  1   force =  -0.24744781E-06  0.28972211E-06  0.79334325E-06
     atom  101 type  1   force =   0.10820906E-05  0.69533894E-08 -0.67978066E-07
     atom  102 type  1   force =   0.14183896E-05 -0.34125440E-06  0.46832764E-06
     atom  103 type  1   force =   0.84050181E-06 -0.12237295E-05  0.97519446E-06
     atom  104 type  1   force =  -0.18173186E-06 -0.10112047E-05  0.29947971E-06
     atom  105 type  1   force =  -0.71708425E-06  0.13691732E-06 -0.58373677E-07
     atom  106 type  1   force =  -0.23404797E-07  0.68216510E-06  0.46069696E-06
     atom  107 type  1   force =   0.16921037E-05  0.10443582E-06  0.45174708E-06
     atom  108 type  1   force =   0.26769342E-05 -0.10954541E-06  0.10261088E-06
     atom  109 type  1   force =   0.23580427E-05 -0.11299275E-05  0.61128010E-06
     atom  110 type  1   force =   0.10337644E-05 -0.22150639E-05  0.22328928E-06
     atom  111 type  1   force =   0.21449053E-07 -0.24708504E-05  0.65445998E-06
     atom  112 type  1   force =  -0.37261723E-06 -0.16718593E-05  0.22308541E-06
     atom  113 type  1   force =   0.14585978E-05  0.73096662E-07  0.59081574E-07
     atom  114 type  1   force =   0.15168591E-05  0.11724318E-07 -0.55628833E-06
     atom  115 type  1   force =   0.22361964E-05  0.23951662E-06 -0.10118566E-05
     atom  116 type  1   force =   0.10259742E-05  0.13833378E-06 -0.21792185E-05
     atom  117 type  1   force =   0.55760860E-06 -0.15312651E-05 -0.14394899E-05
     atom  118 type  1   force =  -0.58002982E-06 -0.14997959E-05 -0.15852076E-05
     atom  119 type  1   force =  -0.78512833E-06 -0.22739952E-05 -0.43260103E-06
     atom  120 type  1   force =   0.17507085E-06 -0.78056402E-06  0.20738928E-06
     atom  121 type  1   force =   0.64860645E-06  0.10528802E-05 -0.16768181E-05
     atom  122 type  1   force =  -0.14387105E-06  0.24418833E-06 -0.12255305E-05
     atom  123 type  1   force =   0.45481200E-07  0.46229078E-06 -0.25859751E-05
     atom  124 type  1   force =  -0.42606384E-06  0.48910330E-07 -0.17138256E-05
     atom  125 type  1   force =  -0.81390737E-06 -0.37079285E-06 -0.22500846E-05
     atom  126 type  1   force =  -0.86883918E-07  0.29189757E-06 -0.93052226E-06
     atom  127 type  1   force =  -0.68199895E-06 -0.33493497E-06 -0.60090323E-06
     atom  128 type  1   force =  -0.19425179E-06  0.18255985E-06 -0.22186319E-06

     Total force =     0.050812     Total SCF correction =     0.000032


     entering subroutine stress ...

          total   stress  (Ry/bohr**3)                   (kbar)     P=    2.11
   0.0000143487  -0.0000002691   0.0000003026          2.11     -0.04      0.04
  -0.0000002691   0.0000143487   0.0000000248         -0.04      2.11      0.00
   0.0000003026   0.0000000248   0.0000143553          0.04      0.00      2.11

     kinetic stress (kbar)   2335.65      0.05     -0.01
                                0.05   2335.65      0.02
                               -0.01      0.02   2335.65

     local   stress (kbar)   -796.61   -243.39   -243.33
                             -243.39   -797.64   -244.82
                             -243.33   -244.82   -797.75

     nonloc. stress (kbar)   1962.78     -0.12     -0.05
                               -0.12   1962.78     -0.09
                               -0.05     -0.09   1962.78

     hartree stress (kbar)    934.21    116.97    116.65
                              116.97    934.68    117.37
                              116.65    117.37    934.74

     exc-cor stress (kbar)   1324.62     -0.00     -0.00
                               -0.00   1324.62     -0.00
                               -0.00     -0.00   1324.62

     corecor stress (kbar)  -2476.00      0.00     -0.01
                                0.00  -2476.00      0.00
                               -0.01      0.00  -2476.00

     ewald   stress (kbar)  -3282.53    126.45    126.78
                              126.45  -3281.98    127.53
                              126.78    127.53  -3281.93

     hubbard stress (kbar)      0.00      0.00      0.00
                                0.00      0.00      0.00
                                0.00      0.00      0.00

     london  stress (kbar)      0.00      0.00      0.00
                                0.00      0.00      0.00
                                0.00      0.00      0.00

     XDM     stress (kbar)      0.00      0.00      0.00
                                0.00      0.00      0.00
                                0.00      0.00      0.00

     dft-nl  stress (kbar)      0.00      0.00      0.00
                                0.00      0.00      0.00
                                0.00      0.00      0.00



     Writing output data file Si_diamond.scf.in.super.444.GeGe.011.save

     init_run     :    462.71s CPU    400.15s WALL (       1 calls)
     electrons    :  14930.29s CPU  13506.66s WALL (       1 calls)
     forces       :    299.85s CPU    241.53s WALL (       1 calls)
     stress       :   1378.17s CPU   1370.11s WALL (       1 calls)

     Called by init_run:
     wfcinit      :    422.67s CPU    359.55s WALL (       1 calls)
     potinit      :      0.90s CPU      1.00s WALL (       1 calls)

     Called by electrons:
     c_bands      :  12498.52s CPU  11146.73s WALL (      16 calls)
     sum_band     :   1954.03s CPU   1872.72s WALL (      16 calls)
     v_of_rho     :      7.33s CPU      8.42s WALL (      16 calls)
     v_h          :      0.47s CPU      0.60s WALL (      16 calls)
     v_xc         :      7.50s CPU      8.63s WALL (      18 calls)
     newd         :    494.57s CPU    500.97s WALL (      16 calls)
     mix_rho      :     11.50s CPU     12.98s WALL (      16 calls)

     Called by c_bands:
     init_us_2    :     44.79s CPU     45.73s WALL (     280 calls)
     cegterg      :  12295.67s CPU  10939.23s WALL (     128 calls)

     Called by sum_band:
     sum_band:bec :      7.36s CPU      7.41s WALL (     128 calls)
     addusdens    :    373.86s CPU    376.19s WALL (      16 calls)

     Called by *egterg:
     h_psi        :   6922.24s CPU   6362.39s WALL (     607 calls)
     s_psi        :   1857.90s CPU   1310.60s WALL (     607 calls)
     g_psi        :      3.21s CPU      3.33s WALL (     471 calls)
     cdiaghg      :   1839.46s CPU   1889.93s WALL (     591 calls)
     cegterg:over :    928.33s CPU    768.83s WALL (     471 calls)
     cegterg:upda :    429.33s CPU    323.25s WALL (     471 calls)
     cegterg:last :    259.72s CPU    187.52s WALL (     131 calls)

     Called by h_psi:
     h_psi:vloc   :   3038.93s CPU   3562.27s WALL (     607 calls)
     h_psi:vnl    :   3875.35s CPU   2791.90s WALL (     607 calls)
     add_vuspsi   :   1852.79s CPU   1307.89s WALL (     607 calls)

     General routines
     calbec       :   3143.14s CPU   2357.26s WALL (     751 calls)
     fft          :    116.32s CPU    118.41s WALL (     281 calls)
     ffts         :      7.40s CPU      8.36s WALL (     400 calls)
     fftw         :   3329.28s CPU   3963.50s WALL (  245530 calls)
     interpolate  :      1.75s CPU      2.15s WALL (      32 calls)

     Parallel routines
     fft_scatter  :   2023.75s CPU   2418.56s WALL (  246211 calls)

     PWSCF        :     4h44m CPU        4h18m WALL


   This run was terminated on:  22:58:57  18Jan2017            

=------------------------------------------------------------------------------=
   JOB DONE.
=------------------------------------------------------------------------------=
