
     Program PWSCF v.5.1 starts on 28Sep2017 at 11:50:41 

     This program is part of the open-source Quantum ESPRESSO suite
     for quantum simulation of materials; please cite
         "P. Giannozzi et al., J. Phys.:Condens. Matter 21 395502 (2009);
          URL http://www.quantum-espresso.org", 
     in publications or presentations arising from this work. More details at
     http://www.quantum-espresso.org/quote

     Parallel version (MPI), running on     8 processors
     R & G space division:  proc/nbgrp/npool/nimage =       8
     Reading input from /tmp/Si_diamond.scf.in.super.222.x008.960/Si_diamond.scf.in.super.222.x008.t
Warning: card &IONS ignored
Warning: card   ION_DYNAMICS='BFGS', ignored
Warning: card / ignored
Warning: card &CELL ignored
Warning: card  CELL_DYNAMICS = 'BFGS' ignored
Warning: card / ignored
     Message from routine read_cards :
     DEPRECATED: no units specified in CELL_PARAMETERS card

     Current dimensions of program PWSCF are:
     Max number of different atomic species (ntypx) = 10
     Max number of k-points (npk) =  40000
     Max angular momentum in pseudopotentials (lmaxx) =  3
 kfg - two_fermi_energies  F

     Subspace diagonalization in iterative solution of the eigenvalue problem:
     a serial algorithm will be used


     Parallelization info
     --------------------
     sticks:   dense  smooth     PW     G-vecs:    dense   smooth      PW
     Min         363     256     71                12921     7555    1109
     Max         364     257     73                12925     7568    1110
     Sum        2905    2053    571               103379    60495    8873



     bravais-lattice index     =            0
     lattice parameter (alat)  =    14.515605984  a.u.
     unit-cell volume          =    2162.6713 (a.u.)^3
     number of atoms/cell      =           16
     number of atomic types    =            1
     number of electrons       =        64.00
     number of Kohn-Sham states=           38
     kinetic-energy cutoff     =      35.0000  Ry
     charge density cutoff     =     200.0000  Ry
     convergence threshold     =      1.0E-09
     mixing beta               =       0.3000
     number of iterations used =            8  local-TF  mixing
     Exchange-correlation      = SLA  PW   PSX  PSC ( 1  4 10  8 0)
     A smooth kinetic-energy cutoff is imposed at      34.5000 Ry
     height of the smooth step-function =             800.0000 Ry
     width of the smooth step-function  =               1.0000 Ry


     celldm(1)=  14.515606  celldm(2)=   0.000000  celldm(3)=   0.000000
     celldm(4)=   0.000000  celldm(5)=   0.000000  celldm(6)=   0.000000

     crystal axes: (cart. coord. in units of alat)
               a(1) = (  -0.000000000000   0.707106781187   0.707106781187 )  
               a(2) = (   0.707106781187  -0.000000000000   0.707106781187 )  
               a(3) = (   0.707106781187   0.707106781187  -0.000000000000 )  

     reciprocal axes: (cart. coord. in units 2 pi/alat)
               b(1) = ( -0.707107  0.707107  0.707107 )  
               b(2) = (  0.707107 -0.707107  0.707107 )  
               b(3) = (  0.707107  0.707107 -0.707107 )  


     PseudoPot. # 1 for Si read from file:
     /users/kfg/psuedo/gbrv_1.5/si.pbesol.UPF
     MD5 check sum: ef58ba74faed4df802eb8a9742fc00a8
     Pseudo is Ultrasoft + core correction, Zval =  4.0
     Generated by new atomic code, or converted to UPF format
     Using radial grid of  899 points,  6 beta functions with: 
                l(1) =   0
                l(2) =   0
                l(3) =   1
                l(4) =   1
                l(5) =   2
                l(6) =   2
     Q(r) pseudized with  8 coefficients,  rinner =    0.900   0.900   0.900
                                                       0.900   0.900

     atomic species   valence    mass     pseudopotential
        Si             4.00    28.08550     Si( 1.00)

      2 Sym. Ops. (no inversion) found


                                    s                        frac. trans.

      isym =  1     identity                                     

 cryst.   s( 1) = (     1          0          0      )
                  (     0          1          0      )
                  (     0          0          1      )

 cart.    s( 1) = (  1.0000000  0.0000000  0.0000000 )
                  (  0.0000000  1.0000000  0.0000000 )
                  (  0.0000000  0.0000000  1.0000000 )


      isym =  2     inv. 180 deg rotation - cart. axis [1,-1,0]  

 cryst.   s( 2) = (     0          1          0      )
                  (     1          0          0      )
                  (     0          0          1      )

 cart.    s( 2) = (  0.0000000  1.0000000  0.0000000 )
                  (  1.0000000  0.0000000  0.0000000 )
                  (  0.0000000  0.0000000  1.0000000 )


     point group C_s (m)    
     there are  2 classes
     the character table:

       E     s    
A'     1.00  1.00
A''    1.00 -1.00

     the symmetry operations in each class:
     E        1
     s        2

   Cartesian axes

     site n.     atom                  positions (alat units)
         1           Si  tau(   1) = (    0.00565685425    0.00565685425    0.00000000000  )
         2           Si  tau(   2) = (    0.17677669530    0.17677669530    0.17677669530  )
         3           Si  tau(   3) = (    0.35355339059    0.35355339059    0.00000000000  )
         4           Si  tau(   4) = (    0.53033008589    0.53033008589    0.17677669530  )
         5           Si  tau(   5) = (    0.35355339059    0.00000000000    0.35355339059  )
         6           Si  tau(   6) = (    0.53033008589    0.17677669530    0.53033008589  )
         7           Si  tau(   7) = (    0.70710678119    0.35355339059    0.35355339059  )
         8           Si  tau(   8) = (    0.88388347648    0.53033008589    0.53033008589  )
         9           Si  tau(   9) = (    0.00000000000    0.35355339059    0.35355339059  )
        10           Si  tau(  10) = (    0.17677669530    0.53033008589    0.53033008589  )
        11           Si  tau(  11) = (    0.35355339059    0.70710678119    0.35355339059  )
        12           Si  tau(  12) = (    0.53033008589    0.88388347648    0.53033008589  )
        13           Si  tau(  13) = (    0.35355339059    0.35355339059    0.70710678119  )
        14           Si  tau(  14) = (    0.53033008589    0.53033008589    0.88388347648  )
        15           Si  tau(  15) = (    0.70710678119    0.70710678119    0.70710678119  )
        16           Si  tau(  16) = (    0.88388347648    0.88388347648    0.88388347648  )

   Crystallographic axes

     site n.     atom                  positions (cryst. coord.)
         1           Si  tau(   1) = (    0.00000000000    0.00000000000    0.00800000000  )
         2           Si  tau(   2) = (    0.12500000000    0.12500000000    0.12500000000  )
         3           Si  tau(   3) = (    0.00000000000    0.00000000000    0.50000000000  )
         4           Si  tau(   4) = (    0.12500000000    0.12500000000    0.62500000000  )
         5           Si  tau(   5) = (    0.00000000000    0.50000000000    0.00000000000  )
         6           Si  tau(   6) = (    0.12500000000    0.62500000000    0.12500000000  )
         7           Si  tau(   7) = (    0.00000000000    0.50000000000    0.50000000000  )
         8           Si  tau(   8) = (    0.12500000000    0.62500000000    0.62500000000  )
         9           Si  tau(   9) = (    0.50000000000    0.00000000000    0.00000000000  )
        10           Si  tau(  10) = (    0.62500000000    0.12500000000    0.12500000000  )
        11           Si  tau(  11) = (    0.50000000000    0.00000000000    0.50000000000  )
        12           Si  tau(  12) = (    0.62500000000    0.12500000000    0.62500000000  )
        13           Si  tau(  13) = (    0.50000000000    0.50000000000    0.00000000000  )
        14           Si  tau(  14) = (    0.62500000000    0.62500000000    0.12500000000  )
        15           Si  tau(  15) = (    0.50000000000    0.50000000000    0.50000000000  )
        16           Si  tau(  16) = (    0.62500000000    0.62500000000    0.62500000000  )

     number of k points=    24  gaussian smearing, width (Ry)=  0.0150
                       cart. coord. in units 2pi/alat
        k(    1) = (   0.0000000   0.0000000   0.0000000), wk =   0.0312500
        k(    2) = (   0.1767767   0.1767767  -0.1767767), wk =   0.0625000
        k(    3) = (  -0.3535534  -0.3535534   0.3535534), wk =   0.0312500
        k(    4) = (   0.3535534   0.0000000   0.0000000), wk =   0.1250000
        k(    5) = (  -0.1767767  -0.5303301   0.5303301), wk =   0.1250000
        k(    6) = (   0.0000000  -0.3535534   0.3535534), wk =   0.1250000
        k(    7) = (  -0.7071068   0.0000000   0.0000000), wk =   0.0625000
        k(    8) = (  -0.7071068   0.3535534   0.0000000), wk =   0.1250000
        k(    9) = (  -0.1767767   0.1767767   0.1767767), wk =   0.1250000
        k(   10) = (   0.1767767   0.1767767   0.1767767), wk =   0.0625000
        k(   11) = (   0.3535534  -0.3535534  -0.3535534), wk =   0.0625000
        k(   12) = (  -0.3535534  -0.3535534  -0.3535534), wk =   0.0312500
        k(   13) = (   0.0000000   0.0000000   0.3535534), wk =   0.0625000
        k(   14) = (   0.1767767  -0.5303301  -0.5303301), wk =   0.1250000
        k(   15) = (  -0.1767767   0.5303301  -0.5303301), wk =   0.1250000
        k(   16) = (  -0.5303301  -0.1767767  -0.5303301), wk =   0.1250000
        k(   17) = (   0.5303301   0.5303301  -0.1767767), wk =   0.0625000
        k(   18) = (  -0.5303301   0.5303301   0.1767767), wk =   0.1250000
        k(   19) = (  -0.5303301  -0.5303301  -0.1767767), wk =   0.0625000
        k(   20) = (   0.0000000  -0.3535534  -0.3535534), wk =   0.1250000
        k(   21) = (   0.3535534   0.3535534   0.0000000), wk =   0.0625000
        k(   22) = (  -0.3535534   0.3535534   0.0000000), wk =   0.0625000
        k(   23) = (   0.0000000   0.0000000  -0.7071068), wk =   0.0312500
        k(   24) = (   0.7071068   0.0000000   0.3535534), wk =   0.0625000

                       cryst. coord.
        k(    1) = (   0.0000000   0.0000000   0.0000000), wk =   0.0312500
        k(    2) = (   0.0000000   0.0000000   0.2500000), wk =   0.0625000
        k(    3) = (   0.0000000   0.0000000  -0.5000000), wk =   0.0312500
        k(    4) = (   0.0000000   0.2500000   0.2500000), wk =   0.1250000
        k(    5) = (   0.0000000   0.2500000  -0.5000000), wk =   0.1250000
        k(    6) = (   0.0000000   0.2500000  -0.2500000), wk =   0.1250000
        k(    7) = (   0.0000000  -0.5000000  -0.5000000), wk =   0.0625000
        k(    8) = (   0.2500000  -0.5000000  -0.2500000), wk =   0.1250000
        k(    9) = (   0.2500000   0.0000000   0.0000000), wk =   0.1250000
        k(   10) = (   0.2500000   0.2500000   0.2500000), wk =   0.0625000
        k(   11) = (  -0.5000000   0.0000000   0.0000000), wk =   0.0625000
        k(   12) = (  -0.5000000  -0.5000000  -0.5000000), wk =   0.0312500
        k(   13) = (   0.2500000   0.2500000   0.0000000), wk =   0.0625000
        k(   14) = (  -0.7500000  -0.2500000  -0.2500000), wk =   0.1250000
        k(   15) = (   0.0000000  -0.5000000   0.2500000), wk =   0.1250000
        k(   16) = (  -0.5000000  -0.7500000  -0.5000000), wk =   0.1250000
        k(   17) = (   0.2500000   0.2500000   0.7500000), wk =   0.0625000
        k(   18) = (   0.5000000  -0.2500000   0.0000000), wk =   0.1250000
        k(   19) = (  -0.5000000  -0.5000000  -0.7500000), wk =   0.0625000
        k(   20) = (  -0.5000000  -0.2500000  -0.2500000), wk =   0.1250000
        k(   21) = (   0.2500000   0.2500000   0.5000000), wk =   0.0625000
        k(   22) = (   0.2500000  -0.2500000   0.0000000), wk =   0.0625000
        k(   23) = (  -0.5000000  -0.5000000   0.0000000), wk =   0.0312500
        k(   24) = (   0.2500000   0.7500000   0.5000000), wk =   0.0625000

     Dense  grid:   103379 G-vectors     FFT dimensions: (  72,  72,  72)

     Smooth grid:    60495 G-vectors     FFT dimensions: (  60,  60,  60)

     Largest allocated arrays     est. size (Mb)     dimensions
        Kohn-Sham Wavefunctions         0.56 Mb     (     974,   38)
        NL pseudopotentials             4.28 Mb     (     974,  288)
        Each V/rho on FFT grid          0.71 Mb     (   46656)
        Each G-vector array             0.10 Mb     (   12923)
        G-vector shells                 0.01 Mb     (     706)
     Largest temporary arrays     est. size (Mb)     dimensions
        Auxiliary wavefunctions         2.26 Mb     (     974,  152)
        Each subspace H/S matrix        0.35 Mb     (     152,  152)
        Each <psi_i|beta_j> matrix      0.17 Mb     (     288,   38)
        Arrays for rho mixing           5.70 Mb     (   46656,    8)

     Initial potential from superposition of free atoms

     starting charge   63.98963, renormalised to   64.00000
     Starting wfc are   64 randomized atomic wfcs

     total cpu time spent up to now is       13.2 secs

     per-process dynamical memory:    30.7 Mb

     Self-consistent Calculation

     iteration #  1     ecut=    35.00 Ry     beta=0.30
     Davidson diagonalization with overlap
     ethr =  1.00E-02,  avg # of iterations =  3.3

     Threshold (ethr) on eigenvalues was too large:
     Diagonalizing with lowered threshold

     Davidson diagonalization with overlap
     ethr =  6.90E-04,  avg # of iterations =  1.1

     total cpu time spent up to now is       63.1 secs

     total energy              =    -153.02688461 Ry
     Harris-Foulkes estimate   =    -153.07301904 Ry
     estimated scf accuracy    <       0.43542679 Ry

     iteration #  2     ecut=    35.00 Ry     beta=0.30
     Davidson diagonalization with overlap
     ethr =  6.80E-04,  avg # of iterations =  1.0

     total cpu time spent up to now is       83.3 secs

     total energy              =    -152.93558998 Ry
     Harris-Foulkes estimate   =    -153.02896125 Ry
     estimated scf accuracy    <       0.27066060 Ry

     iteration #  3     ecut=    35.00 Ry     beta=0.30
     Davidson diagonalization with overlap
     ethr =  4.23E-04,  avg # of iterations =  1.3

     total cpu time spent up to now is      104.6 secs

     total energy              =    -152.95299553 Ry
     Harris-Foulkes estimate   =    -152.95229593 Ry
     estimated scf accuracy    <       0.00312239 Ry

     iteration #  4     ecut=    35.00 Ry     beta=0.30
     Davidson diagonalization with overlap
     ethr =  4.88E-06,  avg # of iterations = 11.3

     total cpu time spent up to now is      158.5 secs

     total energy              =    -152.95513488 Ry
     Harris-Foulkes estimate   =    -152.95502063 Ry
     estimated scf accuracy    <       0.00121379 Ry

     iteration #  5     ecut=    35.00 Ry     beta=0.30
     Davidson diagonalization with overlap
     ethr =  1.90E-06,  avg # of iterations =  1.8

     total cpu time spent up to now is      180.7 secs

     total energy              =    -152.95521109 Ry
     Harris-Foulkes estimate   =    -152.95521160 Ry
     estimated scf accuracy    <       0.00004240 Ry

     iteration #  6     ecut=    35.00 Ry     beta=0.30
     Davidson diagonalization with overlap
     ethr =  6.62E-08,  avg # of iterations =  3.0

     total cpu time spent up to now is      207.8 secs

     total energy              =    -152.95522375 Ry
     Harris-Foulkes estimate   =    -152.95522911 Ry
     estimated scf accuracy    <       0.00002252 Ry

     iteration #  7     ecut=    35.00 Ry     beta=0.30
     Davidson diagonalization with overlap
     ethr =  3.52E-08,  avg # of iterations =  2.0

     total cpu time spent up to now is      231.4 secs

     total energy              =    -152.95522628 Ry
     Harris-Foulkes estimate   =    -152.95522594 Ry
     estimated scf accuracy    <       0.00000058 Ry

     iteration #  8     ecut=    35.00 Ry     beta=0.30
     Davidson diagonalization with overlap
     ethr =  9.07E-10,  avg # of iterations =  3.0

     total cpu time spent up to now is      258.2 secs

     total energy              =    -152.95522644 Ry
     Harris-Foulkes estimate   =    -152.95522643 Ry
     estimated scf accuracy    <       0.00000007 Ry

     iteration #  9     ecut=    35.00 Ry     beta=0.30
     Davidson diagonalization with overlap
     ethr =  1.08E-10,  avg # of iterations =  2.2

     total cpu time spent up to now is      280.2 secs

     total energy              =    -152.95522646 Ry
     Harris-Foulkes estimate   =    -152.95522645 Ry
     estimated scf accuracy    <       0.00000001 Ry

     iteration # 10     ecut=    35.00 Ry     beta=0.30
     Davidson diagonalization with overlap
     ethr =  1.94E-11,  avg # of iterations =  2.7

     total cpu time spent up to now is      307.6 secs

     total energy              =    -152.95522646 Ry
     Harris-Foulkes estimate   =    -152.95522646 Ry
     estimated scf accuracy    <          4.0E-09 Ry

     iteration # 11     ecut=    35.00 Ry     beta=0.30
     Davidson diagonalization with overlap
     ethr =  6.25E-12,  avg # of iterations =  1.2

     total cpu time spent up to now is      332.2 secs

     total energy              =    -152.95522646 Ry
     Harris-Foulkes estimate   =    -152.95522646 Ry
     estimated scf accuracy    <          1.2E-09 Ry

     iteration # 12     ecut=    35.00 Ry     beta=0.30
     Davidson diagonalization with overlap
     ethr =  1.92E-12,  avg # of iterations =  2.5

     total cpu time spent up to now is      356.3 secs

     End of self-consistent calculation

          k = 0.0000 0.0000 0.0000 (  7631 PWs)   bands (ev):

    -5.8420  -3.5286  -3.4944  -3.4938  -3.4649  -1.7416  -1.6890  -1.6846
    -1.6838  -1.6800  -1.6321  -0.8972  -0.8671  -0.8669  -0.8321   3.2483
     3.2680   3.2703   3.2707   3.2735   3.2924   4.8748   4.9230   4.9345
     4.9347   4.9447   4.9449   4.9582   5.0033   6.1100   6.1440   6.1837
     6.7052   6.7234   6.7425   6.7433   6.7612   6.7781

     occupation numbers 
     1.0000   1.0000   1.0000   1.0000   1.0000   1.0000   1.0000   1.0000
     1.0000   1.0000   1.0000   1.0000   1.0000   1.0000   1.0000   1.0000
     1.0000   1.0000   1.0000   1.0000   1.0000   1.0000   1.0000   1.0000
     1.0000   1.0000   1.0000   1.0000   1.0000   0.9659   0.9439   0.9054
     0.0107   0.0076   0.0052   0.0052   0.0036   0.0025

          k = 0.1768 0.1768-0.1768 (  7564 PWs)   bands (ev):

    -5.6378  -4.1467  -3.4265  -3.4090  -3.3841  -2.5564  -2.5379  -2.5154
    -0.7350  -0.6985  -0.6867  -0.6550  -0.6385  -0.6313   0.1848   2.6681
     2.6742   2.6924   3.4222   3.4384   3.4407   3.8377   3.8491   3.8863
     4.5327   4.5649   4.5662   4.5679   5.0315   5.0592   5.8259   5.8545
     6.9098   6.9154   6.9392   7.7268   8.0034   8.0300

     occupation numbers 
     1.0000   1.0000   1.0000   1.0000   1.0000   1.0000   1.0000   1.0000
     1.0000   1.0000   1.0000   1.0000   1.0000   1.0000   1.0000   1.0000
     1.0000   1.0000   1.0000   1.0000   1.0000   1.0000   1.0000   1.0000
     1.0000   1.0000   1.0000   1.0000   1.0000   1.0000   0.9999   0.9998
     0.0001   0.0001   0.0000   0.0000   0.0000   0.0000

          k =-0.3536-0.3536 0.3536 (  7570 PWs)   bands (ev):

    -5.0623  -5.0204  -3.1594  -3.1179  -3.1147  -3.1065  -3.1039  -3.0509
    -0.3261  -0.2701  -0.2647  -0.2501  -0.2489  -0.2422   2.1932   2.2193
     2.5589   2.5596   2.5678   2.5830   2.5967   2.6554   3.8637   3.8980
     3.9094   3.9294   3.9393   3.9423   5.3203   5.3763   5.3927   5.3932
     7.5189   7.5197   7.5628   7.5714   7.5761   7.5818

     occupation numbers 
     1.0000   1.0000   1.0000   1.0000   1.0000   1.0000   1.0000   1.0000
     1.0000   1.0000   1.0000   1.0000   1.0000   1.0000   1.0000   1.0000
     1.0000   1.0000   1.0000   1.0000   1.0000   1.0000   1.0000   1.0000
     1.0000   1.0000   1.0000   1.0000   1.0000   1.0000   1.0000   1.0000
     0.0000   0.0000   0.0000   0.0000   0.0000   0.0000

          k = 0.3536 0.0000 0.0000 (  7563 PWs)   bands (ev):

    -5.5685  -3.6928  -3.6589  -3.6542  -3.6281  -3.4356  -1.6382  -1.6041
    -1.6033  -1.5727  -0.2986  -0.2684  -0.2638  -0.2321   0.3940   2.6726
     2.6834   2.6910   2.7007   3.5050   3.5246   3.6297   3.6532   3.6609
     3.6853   4.7946   4.8380   4.8680   4.8752   4.9119   5.3134   5.3473
     6.6544   7.5687   7.9928   8.0154   8.0237   8.0476

     occupation numbers 
     1.0000   1.0000   1.0000   1.0000   1.0000   1.0000   1.0000   1.0000
     1.0000   1.0000   1.0000   1.0000   1.0000   1.0000   1.0000   1.0000
     1.0000   1.0000   1.0000   1.0000   1.0000   1.0000   1.0000   1.0000
     1.0000   1.0000   1.0000   1.0000   1.0000   1.0000   1.0000   1.0000
     0.0257   0.0000   0.0000   0.0000   0.0000   0.0000

          k =-0.1768-0.5303 0.5303 (  7554 PWs)   bands (ev):

    -5.1001  -4.5894  -4.0447  -3.6251  -3.5956  -2.9085  -2.3691  -2.3388
    -0.8206  -0.7938  -0.5118   0.2535   0.2836   1.1880   1.5154   2.0340
     2.0465   2.1212   2.7782   2.7959   2.9232   3.1341   3.1504   3.4625
     3.7994   3.9048   4.1857   4.2211   4.2352   4.7984   4.8836   5.3522
     7.3918   7.8792   8.2163   8.4225   8.4499   8.7929

     occupation numbers 
     1.0000   1.0000   1.0000   1.0000   1.0000   1.0000   1.0000   1.0000
     1.0000   1.0000   1.0000   1.0000   1.0000   1.0000   1.0000   1.0000
     1.0000   1.0000   1.0000   1.0000   1.0000   1.0000   1.0000   1.0000
     1.0000   1.0000   1.0000   1.0000   1.0000   1.0000   1.0000   1.0000
     0.0000   0.0000   0.0000   0.0000   0.0000   0.0000

          k = 0.0000-0.3536 0.3536 (  7592 PWs)   bands (ev):

    -5.3011  -4.2994  -4.2628  -3.2517  -3.2231  -2.9652  -2.9328  -2.1058
    -1.0777  -0.7000  -0.6678   0.1487   0.1760   0.8241   0.8580   1.7923
     2.6546   2.6800   2.7387   2.7524   3.3455   3.3774   3.4689   3.6891
     3.9446   3.9627   4.2854   4.3114   4.4814   4.5191   4.5537   5.8302
     7.2280   7.9894   8.0147   8.2892   8.3218   8.6786

     occupation numbers 
     1.0000   1.0000   1.0000   1.0000   1.0000   1.0000   1.0000   1.0000
     1.0000   1.0000   1.0000   1.0000   1.0000   1.0000   1.0000   1.0000
     1.0000   1.0000   1.0000   1.0000   1.0000   1.0000   1.0000   1.0000
     1.0000   1.0000   1.0000   1.0000   1.0000   1.0000   1.0000   0.9999
     0.0000   0.0000   0.0000   0.0000   0.0000   0.0000

          k =-0.7071 0.0000 0.0000 (  7528 PWs)   bands (ev):

    -4.7764  -4.7388  -3.8223  -3.7927  -3.7855  -3.7571  -1.5493  -1.5152
    -1.5141  -1.4832   0.6176   0.6489   0.6531   0.6831   2.2234   2.2358
     2.2411   2.2502   2.3302   2.3404   2.3487   2.3608   2.6181   2.6310
     4.2010   4.2253   4.2477   4.2692   4.7722   4.8045   4.8111   4.8503
     7.1736   7.1916   8.4804   8.5109   8.5161   8.5435

     occupation numbers 
     1.0000   1.0000   1.0000   1.0000   1.0000   1.0000   1.0000   1.0000
     1.0000   1.0000   1.0000   1.0000   1.0000   1.0000   1.0000   1.0000
     1.0000   1.0000   1.0000   1.0000   1.0000   1.0000   1.0000   1.0000
     1.0000   1.0000   1.0000   1.0000   1.0000   1.0000   1.0000   1.0000
     0.0000   0.0000   0.0000   0.0000   0.0000   0.0000

          k =-0.7071 0.3536 0.0000 (  7564 PWs)   bands (ev):

    -4.5442  -4.5076  -4.5071  -4.4745  -2.7479  -2.7107  -2.7082  -2.6724
    -0.4673  -0.4411  -0.4279  -0.4033   1.7908   1.8328   1.8444   1.8479
     1.8565   1.8620   1.8780   1.9129   3.3629   3.3877   3.3963   3.4172
     3.5124   3.5174   3.5478   3.5559   4.6719   4.7026   4.7036   4.7383
     8.4913   8.5153   8.5256   8.5444   8.9029   8.9273

     occupation numbers 
     1.0000   1.0000   1.0000   1.0000   1.0000   1.0000   1.0000   1.0000
     1.0000   1.0000   1.0000   1.0000   1.0000   1.0000   1.0000   1.0000
     1.0000   1.0000   1.0000   1.0000   1.0000   1.0000   1.0000   1.0000
     1.0000   1.0000   1.0000   1.0000   1.0000   1.0000   1.0000   1.0000
     0.0000   0.0000   0.0000   0.0000   0.0000   0.0000

          k =-0.1768 0.1768 0.1768 (  7564 PWs)   bands (ev):

    -5.6374  -4.1419  -3.4356  -3.4087  -3.3854  -2.5664  -2.5382  -2.5103
    -0.7432  -0.6960  -0.6830  -0.6529  -0.6368  -0.5911   0.1645   2.6529
     2.6678   2.6818   3.4266   3.4409   3.4556   3.8213   3.8408   3.8586
     4.5185   4.5603   4.5707   4.5946   5.0296   5.0771   5.8272   5.8810
     6.9097   6.9307   6.9503   7.7337   7.9906   8.0168

     occupation numbers 
     1.0000   1.0000   1.0000   1.0000   1.0000   1.0000   1.0000   1.0000
     1.0000   1.0000   1.0000   1.0000   1.0000   1.0000   1.0000   1.0000
     1.0000   1.0000   1.0000   1.0000   1.0000   1.0000   1.0000   1.0000
     1.0000   1.0000   1.0000   1.0000   1.0000   1.0000   0.9999   0.9997
     0.0001   0.0001   0.0000   0.0000   0.0000   0.0000

          k = 0.1768 0.1768 0.1768 (  7564 PWs)   bands (ev):

    -5.6371  -4.1354  -3.4380  -3.4093  -3.3951  -2.5608  -2.5389  -2.5216
    -0.7097  -0.6947  -0.6838  -0.6421  -0.6365  -0.5929   0.1454   2.6421
     2.6608   2.6678   3.4410   3.4440   3.4563   3.7936   3.8321   3.8432
     4.5095   4.5739   4.5797   4.6004   5.0450   5.0723   5.8497   5.8833
     6.9228   6.9456   6.9507   7.7410   7.9905   8.0078

     occupation numbers 
     1.0000   1.0000   1.0000   1.0000   1.0000   1.0000   1.0000   1.0000
     1.0000   1.0000   1.0000   1.0000   1.0000   1.0000   1.0000   1.0000
     1.0000   1.0000   1.0000   1.0000   1.0000   1.0000   1.0000   1.0000
     1.0000   1.0000   1.0000   1.0000   1.0000   1.0000   0.9999   0.9997
     0.0001   0.0000   0.0000   0.0000   0.0000   0.0000

          k = 0.3536-0.3536-0.3536 (  7570 PWs)   bands (ev):

    -5.0413  -5.0387  -3.1696  -3.1174  -3.1111  -3.1107  -3.1054  -3.0555
    -0.3260  -0.2705  -0.2562  -0.2562  -0.2424  -0.1873   2.1887   2.1924
     2.5327   2.5592   2.5683   2.5684   2.5766   2.6065   3.8928   3.9208
     3.9217   3.9223   3.9241   3.9525   5.3316   5.3771   5.3802   5.4322
     7.5212   7.5623   7.5656   7.5656   7.5676   7.6040

     occupation numbers 
     1.0000   1.0000   1.0000   1.0000   1.0000   1.0000   1.0000   1.0000
     1.0000   1.0000   1.0000   1.0000   1.0000   1.0000   1.0000   1.0000
     1.0000   1.0000   1.0000   1.0000   1.0000   1.0000   1.0000   1.0000
     1.0000   1.0000   1.0000   1.0000   1.0000   1.0000   1.0000   1.0000
     0.0000   0.0000   0.0000   0.0000   0.0000   0.0000

          k =-0.3536-0.3536-0.3536 (  7570 PWs)   bands (ev):

    -5.0592  -5.0167  -3.1751  -3.1186  -3.1162  -3.1072  -3.1049  -3.0675
    -0.2695  -0.2634  -0.2631  -0.2474  -0.2417  -0.1856   2.1505   2.1897
     2.5000   2.5376   2.5533   2.5685   2.5766   2.5767   3.9018   3.9047
     3.9150   3.9341   3.9494   3.9802   5.3634   5.3646   5.3832   5.4413
     7.5486   7.5550   7.5595   7.5684   7.6081   7.6107

     occupation numbers 
     1.0000   1.0000   1.0000   1.0000   1.0000   1.0000   1.0000   1.0000
     1.0000   1.0000   1.0000   1.0000   1.0000   1.0000   1.0000   1.0000
     1.0000   1.0000   1.0000   1.0000   1.0000   1.0000   1.0000   1.0000
     1.0000   1.0000   1.0000   1.0000   1.0000   1.0000   1.0000   1.0000
     0.0000   0.0000   0.0000   0.0000   0.0000   0.0000

          k = 0.0000 0.0000 0.3536 (  7563 PWs)   bands (ev):

    -5.5684  -3.6973  -3.6567  -3.6563  -3.6224  -3.4378  -1.6421  -1.6072
    -1.6006  -1.5659  -0.3038  -0.2660  -0.2657  -0.2292   0.3940   2.6717
     2.6720   2.7000   2.7016   3.5163   3.5172   3.6195   3.6563   3.6567
     3.6930   4.7909   4.8512   4.8706   4.8893   4.8919   5.3279   5.3305
     6.6547   7.5682   7.9968   8.0008   8.0389   8.0416

     occupation numbers 
     1.0000   1.0000   1.0000   1.0000   1.0000   1.0000   1.0000   1.0000
     1.0000   1.0000   1.0000   1.0000   1.0000   1.0000   1.0000   1.0000
     1.0000   1.0000   1.0000   1.0000   1.0000   1.0000   1.0000   1.0000
     1.0000   1.0000   1.0000   1.0000   1.0000   1.0000   1.0000   1.0000
     0.0255   0.0000   0.0000   0.0000   0.0000   0.0000

          k = 0.1768-0.5303-0.5303 (  7554 PWs)   bands (ev):

    -5.0990  -4.5873  -4.0425  -3.6329  -3.6042  -2.8923  -2.3750  -2.3461
    -0.8072  -0.7819  -0.5420   0.2821   0.3130   1.1840   1.4901   2.0226
     2.0329   2.1084   2.7784   2.8015   2.9135   3.1413   3.1581   3.4423
     3.7955   3.9274   4.1553   4.1967   4.2551   4.8272   4.8657   5.3904
     7.4096   7.9055   8.2243   8.4223   8.4506   8.8061

     occupation numbers 
     1.0000   1.0000   1.0000   1.0000   1.0000   1.0000   1.0000   1.0000
     1.0000   1.0000   1.0000   1.0000   1.0000   1.0000   1.0000   1.0000
     1.0000   1.0000   1.0000   1.0000   1.0000   1.0000   1.0000   1.0000
     1.0000   1.0000   1.0000   1.0000   1.0000   1.0000   1.0000   1.0000
     0.0000   0.0000   0.0000   0.0000   0.0000   0.0000

          k =-0.1768 0.5303-0.5303 (  7554 PWs)   bands (ev):

    -5.0983  -4.5895  -4.0458  -3.6254  -3.5958  -2.9153  -2.3696  -2.3399
    -0.8182  -0.7922  -0.4915   0.2563   0.2859   1.2057   1.5027   2.0279
     2.0396   2.1033   2.7680   2.7892   2.8996   3.1399   3.1546   3.4418
     3.8133   3.9074   4.1900   4.2289   4.2371   4.7983   4.9145   5.3482
     7.3945   7.8786   8.2163   8.4382   8.4632   8.7965

     occupation numbers 
     1.0000   1.0000   1.0000   1.0000   1.0000   1.0000   1.0000   1.0000
     1.0000   1.0000   1.0000   1.0000   1.0000   1.0000   1.0000   1.0000
     1.0000   1.0000   1.0000   1.0000   1.0000   1.0000   1.0000   1.0000
     1.0000   1.0000   1.0000   1.0000   1.0000   1.0000   1.0000   1.0000
     0.0000   0.0000   0.0000   0.0000   0.0000   0.0000

          k =-0.5303-0.1768-0.5303 (  7554 PWs)   bands (ev):

    -5.0985  -4.5839  -4.0462  -3.6329  -3.6041  -2.9004  -2.3759  -2.3470
    -0.8021  -0.7786  -0.5242   0.2847   0.3155   1.2025   1.4752   2.0091
     2.0278   2.0997   2.7678   2.7869   2.8918   3.1459   3.1643   3.4224
     3.8089   3.9272   4.1703   4.2006   4.2603   4.8236   4.8925   5.3870
     7.4119   7.9077   8.2260   8.4382   8.4630   8.8114

     occupation numbers 
     1.0000   1.0000   1.0000   1.0000   1.0000   1.0000   1.0000   1.0000
     1.0000   1.0000   1.0000   1.0000   1.0000   1.0000   1.0000   1.0000
     1.0000   1.0000   1.0000   1.0000   1.0000   1.0000   1.0000   1.0000
     1.0000   1.0000   1.0000   1.0000   1.0000   1.0000   1.0000   1.0000
     0.0000   0.0000   0.0000   0.0000   0.0000   0.0000

          k = 0.5303 0.5303-0.1768 (  7554 PWs)   bands (ev):

    -5.1001  -4.5891  -4.0414  -3.6172  -3.6142  -2.8961  -2.3568  -2.3557
    -0.8033  -0.8004  -0.5367   0.2809   0.2824   1.1758   1.5107   2.0359
     2.0405   2.1175   2.7911   2.7949   2.9326   3.1385   3.1473   3.4646
     3.7892   3.9155   4.1851   4.1877   4.2453   4.8152   4.8595   5.3717
     7.4008   7.8936   8.2198   8.4277   8.4286   8.7970

     occupation numbers 
     1.0000   1.0000   1.0000   1.0000   1.0000   1.0000   1.0000   1.0000
     1.0000   1.0000   1.0000   1.0000   1.0000   1.0000   1.0000   1.0000
     1.0000   1.0000   1.0000   1.0000   1.0000   1.0000   1.0000   1.0000
     1.0000   1.0000   1.0000   1.0000   1.0000   1.0000   1.0000   1.0000
     0.0000   0.0000   0.0000   0.0000   0.0000   0.0000

          k =-0.5303 0.5303 0.1768 (  7554 PWs)   bands (ev):

    -5.0985  -4.5881  -4.0460  -3.6324  -3.5950  -2.9053  -2.3734  -2.3407
    -0.8234  -0.7740  -0.5178   0.2538   0.3130   1.1954   1.4963   2.0197
     2.0374   2.1104   2.7647   2.7980   2.9101   3.1314   3.1627   3.4421
     3.8031   3.9219   4.1825   4.2054   4.2477   4.8108   4.8904   5.3699
     7.4019   7.8911   8.2202   8.4231   8.4633   8.8003

     occupation numbers 
     1.0000   1.0000   1.0000   1.0000   1.0000   1.0000   1.0000   1.0000
     1.0000   1.0000   1.0000   1.0000   1.0000   1.0000   1.0000   1.0000
     1.0000   1.0000   1.0000   1.0000   1.0000   1.0000   1.0000   1.0000
     1.0000   1.0000   1.0000   1.0000   1.0000   1.0000   1.0000   1.0000
     0.0000   0.0000   0.0000   0.0000   0.0000   0.0000

          k =-0.5303-0.5303-0.1768 (  7554 PWs)   bands (ev):

    -5.0978  -4.5858  -4.0462  -3.6175  -3.6145  -2.9109  -2.3583  -2.3578
    -0.7959  -0.7957  -0.4985   0.2864   0.2871   1.2116   1.4835   2.0173
     2.0258   2.0924   2.7673   2.7775   2.8868   3.1512   3.1554   3.4239
     3.8164   3.9181   4.1949   4.2117   4.2495   4.8103   4.9183   5.3643
     7.4057   7.8952   8.2216   8.4564   8.4573   8.8059

     occupation numbers 
     1.0000   1.0000   1.0000   1.0000   1.0000   1.0000   1.0000   1.0000
     1.0000   1.0000   1.0000   1.0000   1.0000   1.0000   1.0000   1.0000
     1.0000   1.0000   1.0000   1.0000   1.0000   1.0000   1.0000   1.0000
     1.0000   1.0000   1.0000   1.0000   1.0000   1.0000   1.0000   1.0000
     0.0000   0.0000   0.0000   0.0000   0.0000   0.0000

          k = 0.0000-0.3536-0.3536 (  7592 PWs)   bands (ev):

    -5.2997  -4.2966  -4.2599  -3.2586  -3.2294  -2.9742  -2.9448  -2.0791
    -1.1119  -0.6727  -0.6443   0.1715   0.2000   0.8104   0.8447   1.7782
     2.6251   2.6566   2.7349   2.7499   3.3252   3.3588   3.4311   3.7101
     3.9588   3.9789   4.2696   4.2927   4.4927   4.5353   4.5856   5.8767
     7.2546   7.9987   8.0220   8.3103   8.3387   8.6767

     occupation numbers 
     1.0000   1.0000   1.0000   1.0000   1.0000   1.0000   1.0000   1.0000
     1.0000   1.0000   1.0000   1.0000   1.0000   1.0000   1.0000   1.0000
     1.0000   1.0000   1.0000   1.0000   1.0000   1.0000   1.0000   1.0000
     1.0000   1.0000   1.0000   1.0000   1.0000   1.0000   1.0000   0.9997
     0.0000   0.0000   0.0000   0.0000   0.0000   0.0000

          k = 0.3536 0.3536 0.0000 (  7592 PWs)   bands (ev):

    -5.3007  -4.2833  -4.2750  -3.2474  -3.2392  -2.9548  -2.9497  -2.0915
    -1.0969  -0.6705  -0.6700   0.1737   0.1741   0.8129   0.8556   1.7869
     2.6479   2.6534   2.7442   2.7493   3.3488   3.3524   3.4485   3.7000
     3.9618   3.9627   4.2660   4.3113   4.4973   4.5410   4.5491   5.8524
     7.2425   8.0052   8.0064   8.3132   8.3198   8.6912

     occupation numbers 
     1.0000   1.0000   1.0000   1.0000   1.0000   1.0000   1.0000   1.0000
     1.0000   1.0000   1.0000   1.0000   1.0000   1.0000   1.0000   1.0000
     1.0000   1.0000   1.0000   1.0000   1.0000   1.0000   1.0000   1.0000
     1.0000   1.0000   1.0000   1.0000   1.0000   1.0000   1.0000   0.9998
     0.0000   0.0000   0.0000   0.0000   0.0000   0.0000

          k =-0.3536 0.3536 0.0000 (  7592 PWs)   bands (ev):

    -5.3003  -4.2821  -4.2786  -3.2591  -3.2201  -2.9674  -2.9407  -2.0941
    -1.0949  -0.6982  -0.6436   0.1458   0.2013   0.8339   0.8352   1.7855
     2.6534   2.6577   2.7356   2.7498   3.3389   3.3656   3.4483   3.7019
     3.9403   3.9762   4.2883   4.2901   4.4784   4.5449   4.5666   5.8542
     7.2402   7.9822   8.0291   8.3099   8.3164   8.6898

     occupation numbers 
     1.0000   1.0000   1.0000   1.0000   1.0000   1.0000   1.0000   1.0000
     1.0000   1.0000   1.0000   1.0000   1.0000   1.0000   1.0000   1.0000
     1.0000   1.0000   1.0000   1.0000   1.0000   1.0000   1.0000   1.0000
     1.0000   1.0000   1.0000   1.0000   1.0000   1.0000   1.0000   0.9998
     0.0000   0.0000   0.0000   0.0000   0.0000   0.0000

          k = 0.0000 0.0000-0.7071 (  7528 PWs)   bands (ev):

    -4.7591  -4.7560  -3.8302  -3.7892  -3.7888  -3.7500  -1.5523  -1.5154
    -1.5144  -1.4774   0.6190   0.6504   0.6513   0.6800   2.2182   2.2288
     2.2418   2.2538   2.3292   2.3450   2.3507   2.3575   2.6221   2.6282
     4.2350   4.2372   4.2372   4.2416   4.7857   4.8077   4.8115   4.8320
     7.1820   7.1843   8.5009   8.5102   8.5137   8.5253

     occupation numbers 
     1.0000   1.0000   1.0000   1.0000   1.0000   1.0000   1.0000   1.0000
     1.0000   1.0000   1.0000   1.0000   1.0000   1.0000   1.0000   1.0000
     1.0000   1.0000   1.0000   1.0000   1.0000   1.0000   1.0000   1.0000
     1.0000   1.0000   1.0000   1.0000   1.0000   1.0000   1.0000   1.0000
     0.0000   0.0000   0.0000   0.0000   0.0000   0.0000

          k = 0.7071 0.0000 0.3536 (  7564 PWs)   bands (ev):

    -4.5494  -4.5103  -4.5043  -4.4689  -2.7397  -2.7148  -2.7039  -2.6817
    -0.4731  -0.4385  -0.4304  -0.3976   1.7970   1.8336   1.8427   1.8529
     1.8576   1.8619   1.8732   1.9084   3.3801   3.3892   3.3962   3.4036
     3.5116   3.5237   3.5374   3.5537   4.6609   4.6956   4.7100   4.7494
     8.4958   8.5181   8.5215   8.5404   8.9051   8.9245

     occupation numbers 
     1.0000   1.0000   1.0000   1.0000   1.0000   1.0000   1.0000   1.0000
     1.0000   1.0000   1.0000   1.0000   1.0000   1.0000   1.0000   1.0000
     1.0000   1.0000   1.0000   1.0000   1.0000   1.0000   1.0000   1.0000
     1.0000   1.0000   1.0000   1.0000   1.0000   1.0000   1.0000   1.0000
     0.0000   0.0000   0.0000   0.0000   0.0000   0.0000

     the Fermi energy is     6.3732 ev

!    total energy              =    -152.95522647 Ry
     Harris-Foulkes estimate   =    -152.95522646 Ry
     estimated scf accuracy    <          1.5E-10 Ry

     The total energy is the sum of the following terms:

     one-electron contribution =      40.84263456 Ry
     hartree contribution      =       8.76739453 Ry
     xc contribution           =     -68.21728298 Ry
     ewald contribution        =    -134.34769463 Ry
     smearing contrib. (-TS)   =      -0.00027794 Ry

     convergence has been achieved in  12 iterations

     Forces acting on atoms (Ry/au):

     atom    1 type  1   force =  -0.22979044E-01 -0.22979044E-01 -0.24290911E-02
     atom    2 type  1   force =   0.10615111E-01  0.10615111E-01  0.90481549E-02
     atom    3 type  1   force =   0.15946345E-02  0.15946345E-02  0.13960027E-04
     atom    4 type  1   force =   0.90460317E-02  0.90460317E-02 -0.69075142E-02
     atom    5 type  1   force =   0.78383360E-03 -0.14147150E-02  0.79854933E-03
     atom    6 type  1   force =   0.20039964E-02  0.17903391E-02  0.18626401E-03
     atom    7 type  1   force =  -0.14141604E-02  0.76368371E-03 -0.84234127E-03
     atom    8 type  1   force =  -0.47745514E-03 -0.46203979E-03 -0.32424800E-06
     atom    9 type  1   force =  -0.14147150E-02  0.78383360E-03  0.79854933E-03
     atom   10 type  1   force =   0.17903391E-02  0.20039964E-02  0.18626401E-03
     atom   11 type  1   force =   0.76368371E-03 -0.14141604E-02 -0.84234127E-03
     atom   12 type  1   force =  -0.46203979E-03 -0.47745514E-03 -0.32424800E-06
     atom   13 type  1   force =  -0.46684968E-04 -0.46684968E-04 -0.19196476E-04
     atom   14 type  1   force =  -0.29449770E-04 -0.29449770E-04 -0.43957100E-03
     atom   15 type  1   force =   0.24923838E-03  0.24923838E-03  0.19861109E-05
     atom   16 type  1   force =  -0.23320241E-04 -0.23320241E-04  0.44697607E-03
     The non-local contrib.  to forces
     atom    1 type  1   force =  -0.22547919E-01 -0.22547919E-01 -0.26169899E-02
     atom    2 type  1   force =   0.11261991E-01  0.11261991E-01  0.14022726E-01
     atom    3 type  1   force =   0.72115104E-03  0.72115104E-03 -0.12833368E-03
     atom    4 type  1   force =   0.98588016E-02  0.98588016E-02 -0.11875662E-01
     atom    5 type  1   force =   0.58024797E-03  0.14556550E-02  0.87949273E-04
     atom    6 type  1   force =  -0.19575990E-02 -0.27424887E-02  0.37092358E-03
     atom    7 type  1   force =   0.14894619E-02  0.63608636E-03 -0.14359874E-03
     atom    8 type  1   force =   0.60113056E-03  0.60176129E-03  0.38973054E-05
     atom    9 type  1   force =   0.14556550E-02  0.58024797E-03  0.87949273E-04
     atom   10 type  1   force =  -0.27424887E-02 -0.19575990E-02  0.37092358E-03
     atom   11 type  1   force =   0.63608636E-03  0.14894619E-02 -0.14359874E-03
     atom   12 type  1   force =   0.60176129E-03  0.60113056E-03  0.38973054E-05
     atom   13 type  1   force =   0.49133630E-03  0.49133630E-03  0.23722836E-04
     atom   14 type  1   force =  -0.48258125E-04 -0.48258125E-04  0.65758220E-03
     atom   15 type  1   force =  -0.34736238E-03 -0.34736238E-03  0.29445165E-05
     atom   16 type  1   force =  -0.59176376E-04 -0.59176376E-04 -0.65201042E-03
     The ionic contribution  to forces
     atom    1 type  1   force =  -0.76372616E-01 -0.76372616E-01 -0.59727714E-02
     atom    2 type  1   force =   0.35295485E-01  0.35295485E-01  0.62140625E-01
     atom    3 type  1   force =   0.27938799E-01  0.27938799E-01 -0.82156504E-14
     atom    4 type  1   force =   0.34667230E-01  0.34667230E-01 -0.57595447E-01
     atom    5 type  1   force =   0.10348161E-01 -0.54430918E-02  0.17563156E-01
     atom    6 type  1   force =  -0.23842058E-01 -0.25731276E-01  0.10103674E-02
     atom    7 type  1   force =  -0.54430918E-02  0.10348161E-01 -0.17563156E-01
     atom    8 type  1   force =   0.89788777E-02  0.93994373E-02 -0.28846012E-03
     atom    9 type  1   force =  -0.54430918E-02  0.10348161E-01  0.17563156E-01
     atom   10 type  1   force =  -0.25731276E-01 -0.23842058E-01  0.10103674E-02
     atom   11 type  1   force =   0.10348161E-01 -0.54430918E-02 -0.17563156E-01
     atom   12 type  1   force =   0.93994373E-02  0.89788777E-02 -0.28846012E-03
     atom   13 type  1   force =  -0.72098060E-02 -0.72098060E-02 -0.19984014E-14
     atom   14 type  1   force =   0.91869211E-03  0.91869211E-03  0.81863945E-02
     atom   15 type  1   force =   0.50882619E-02  0.50882619E-02 -0.44408921E-15
     atom   16 type  1   force =   0.10588359E-02  0.10588359E-02 -0.82026165E-02
     The local contribution  to forces
     atom    1 type  1   force =   0.73950061E-01  0.73950061E-01  0.59262527E-02
     atom    2 type  1   force =  -0.34868255E-01 -0.34868255E-01 -0.65736842E-01
     atom    3 type  1   force =  -0.27013384E-01 -0.27013384E-01  0.13272920E-03
     atom    4 type  1   force =  -0.34524462E-01 -0.34524462E-01  0.61381255E-01
     atom    5 type  1   force =  -0.10101482E-01  0.26930063E-02 -0.16849091E-01
     atom    6 type  1   force =   0.27576630E-01  0.29967179E-01 -0.11619381E-02
     atom    7 type  1   force =   0.26625496E-02 -0.10171687E-01  0.16855847E-01
     atom    8 type  1   force =  -0.10010108E-01 -0.10415567E-01  0.28400925E-03
     atom    9 type  1   force =   0.26930063E-02 -0.10101482E-01 -0.16849091E-01
     atom   10 type  1   force =   0.29967179E-01  0.27576630E-01 -0.11619381E-02
     atom   11 type  1   force =  -0.10171687E-01  0.26625496E-02  0.16855847E-01
     atom   12 type  1   force =  -0.10415567E-01 -0.10010108E-01  0.28400925E-03
     atom   13 type  1   force =   0.67115770E-02  0.67115770E-02 -0.40525408E-04
     atom   14 type  1   force =  -0.90329617E-03 -0.90329617E-03 -0.92323458E-02
     atom   15 type  1   force =  -0.45212058E-02 -0.45212058E-02 -0.91854126E-06
     atom   16 type  1   force =  -0.10267636E-02 -0.10267636E-02  0.92505139E-02
     The core correction contribution to forces
     atom    1 type  1   force =   0.19914335E-02  0.19914335E-02  0.23500990E-03
     atom    2 type  1   force =  -0.10743869E-02 -0.10743869E-02 -0.13785126E-02
     atom    3 type  1   force =  -0.51954007E-04 -0.51954007E-04  0.96570552E-05
     atom    4 type  1   force =  -0.95510396E-03 -0.95510396E-03  0.11825696E-02
     atom    5 type  1   force =  -0.42878226E-04 -0.12081871E-03 -0.44710776E-05
     atom    6 type  1   force =   0.22730000E-03  0.29716337E-03 -0.33005037E-04
     atom    7 type  1   force =  -0.12342796E-03 -0.47941320E-04  0.89480346E-05
     atom    8 type  1   force =  -0.47943875E-04 -0.48046118E-04 -0.21420979E-06
     atom    9 type  1   force =  -0.12081871E-03 -0.42878226E-04 -0.44710776E-05
     atom   10 type  1   force =   0.29716337E-03  0.22730000E-03 -0.33005037E-04
     atom   11 type  1   force =  -0.47941320E-04 -0.12342796E-03  0.89480346E-05
     atom   12 type  1   force =  -0.48046118E-04 -0.47943875E-04 -0.21420980E-06
     atom   13 type  1   force =  -0.38638214E-04 -0.38638214E-04 -0.21594456E-05
     atom   14 type  1   force =   0.32214784E-05  0.32214784E-05 -0.51696440E-04
     atom   15 type  1   force =   0.28270581E-04  0.28270581E-04 -0.22971839E-06
     atom   16 type  1   force =   0.40044399E-05  0.40044399E-05  0.51511616E-04
     The Hubbard contrib.    to forces
     atom    1 type  1   force =   0.00000000E+00  0.00000000E+00  0.00000000E+00
     atom    2 type  1   force =   0.00000000E+00  0.00000000E+00  0.00000000E+00
     atom    3 type  1   force =   0.00000000E+00  0.00000000E+00  0.00000000E+00
     atom    4 type  1   force =   0.00000000E+00  0.00000000E+00  0.00000000E+00
     atom    5 type  1   force =   0.00000000E+00  0.00000000E+00  0.00000000E+00
     atom    6 type  1   force =   0.00000000E+00  0.00000000E+00  0.00000000E+00
     atom    7 type  1   force =   0.00000000E+00  0.00000000E+00  0.00000000E+00
     atom    8 type  1   force =   0.00000000E+00  0.00000000E+00  0.00000000E+00
     atom    9 type  1   force =   0.00000000E+00  0.00000000E+00  0.00000000E+00
     atom   10 type  1   force =   0.00000000E+00  0.00000000E+00  0.00000000E+00
     atom   11 type  1   force =   0.00000000E+00  0.00000000E+00  0.00000000E+00
     atom   12 type  1   force =   0.00000000E+00  0.00000000E+00  0.00000000E+00
     atom   13 type  1   force =   0.00000000E+00  0.00000000E+00  0.00000000E+00
     atom   14 type  1   force =   0.00000000E+00  0.00000000E+00  0.00000000E+00
     atom   15 type  1   force =   0.00000000E+00  0.00000000E+00  0.00000000E+00
     atom   16 type  1   force =   0.00000000E+00  0.00000000E+00  0.00000000E+00
     The SCF correction term to forces
     atom    1 type  1   force =  -0.75865993E-08 -0.75865993E-08 -0.66488324E-06
     atom    2 type  1   force =   0.27226752E-06  0.27226752E-06  0.84957434E-07
     atom    3 type  1   force =   0.17886968E-07  0.17886968E-07 -0.16508665E-06
     atom    4 type  1   force =  -0.43796705E-06 -0.43796705E-06 -0.30318063E-06
     atom    5 type  1   force =  -0.21991674E-06  0.52951296E-06  0.93416069E-06
     atom    6 type  1   force =  -0.28094488E-06 -0.24306748E-06 -0.15635138E-06
     atom    7 type  1   force =   0.34316170E-06 -0.94009336E-06 -0.45408654E-06
     atom    8 type  1   force =   0.58369343E-06  0.37009043E-06  0.37099117E-06
     atom    9 type  1   force =   0.52951296E-06 -0.21991674E-06  0.93416069E-06
     atom   10 type  1   force =  -0.24306748E-06 -0.28094488E-06 -0.15635138E-06
     atom   11 type  1   force =  -0.94009336E-06  0.34316170E-06 -0.45408654E-06
     atom   12 type  1   force =   0.37009043E-06  0.58369343E-06  0.37099117E-06
     atom   13 type  1   force =  -0.11587428E-05 -0.11587428E-05 -0.30699123E-06
     atom   14 type  1   force =   0.18627629E-06  0.18627629E-06  0.42206547E-06
     atom   15 type  1   force =   0.12694601E-05  0.12694601E-05  0.11732077E-06
     atom   16 type  1   force =  -0.22524694E-06 -0.22524694E-06 -0.49507083E-06

     Total force =     0.040183     Total SCF correction =     0.000004


     entering subroutine stress ...

          total   stress  (Ry/bohr**3)                   (kbar)     P=    0.59
   0.0000036412   0.0000014589   0.0000147443          0.54      0.21      2.17
   0.0000014589   0.0000036412   0.0000147443          0.21      0.54      2.17
   0.0000147443   0.0000147443   0.0000048223          2.17      2.17      0.71

     kinetic stress (kbar)   2190.17      0.02     -1.45
                                0.02   2190.17     -1.45
                               -1.45     -1.45   2190.17

     local   stress (kbar)   -287.48     -0.13    -17.23
                               -0.13   -287.48    -17.23
                              -17.23    -17.23   -288.42

     nonloc. stress (kbar)   1939.86      0.06      2.01
                                0.06   1939.86      2.01
                                2.01      2.01   1939.97

     hartree stress (kbar)    198.74     -0.03      2.01
                               -0.03    198.74      2.01
                                2.01      2.01    198.88

     exc-cor stress (kbar)    993.76      0.00      0.02
                                0.00    993.76      0.02
                                0.02      0.02    993.76

     corecor stress (kbar)  -1988.11     -0.01     -0.24
                               -0.01  -1988.11     -0.24
                               -0.24     -0.24  -1988.12

     ewald   stress (kbar)  -3046.41      0.30     17.05
                                0.30  -3046.41     17.05
                               17.05     17.05  -3045.53

     hubbard stress (kbar)      0.00      0.00      0.00
                                0.00      0.00      0.00
                                0.00      0.00      0.00

     london  stress (kbar)      0.00      0.00      0.00
                                0.00      0.00      0.00
                                0.00      0.00      0.00

     XDM     stress (kbar)      0.00      0.00      0.00
                                0.00      0.00      0.00
                                0.00      0.00      0.00

     dft-nl  stress (kbar)      0.00      0.00      0.00
                                0.00      0.00      0.00
                                0.00      0.00      0.00



     Writing output data file Si_diamond.scf.in.super.222.x008.save

     init_run     :     12.30s CPU     12.90s WALL (       1 calls)
     electrons    :    328.97s CPU    343.19s WALL (       1 calls)
     forces       :      5.55s CPU      4.33s WALL (       1 calls)
     stress       :     11.40s CPU     11.11s WALL (       1 calls)

     Called by init_run:
     wfcinit      :     11.17s CPU     11.75s WALL (       1 calls)
     potinit      :      0.13s CPU      0.14s WALL (       1 calls)

     Called by electrons:
     c_bands      :    268.76s CPU    281.99s WALL (      13 calls)
     sum_band     :     50.38s CPU     51.13s WALL (      13 calls)
     v_of_rho     :      1.29s CPU      1.34s WALL (      13 calls)
     v_h          :      0.09s CPU      0.10s WALL (      13 calls)
     v_xc         :      1.36s CPU      1.40s WALL (      15 calls)
     newd         :      7.83s CPU      7.97s WALL (      13 calls)
     mix_rho      :      1.18s CPU      1.18s WALL (      13 calls)

     Called by c_bands:
     init_us_2    :      3.33s CPU      3.42s WALL (     696 calls)
     cegterg      :    253.25s CPU    265.74s WALL (     312 calls)

     Called by sum_band:
     sum_band:bec :      0.30s CPU      0.28s WALL (     312 calls)
     addusdens    :      8.35s CPU      8.52s WALL (      13 calls)

     Called by *egterg:
     h_psi        :    172.15s CPU    175.70s WALL (    1206 calls)
     s_psi        :     15.98s CPU     14.65s WALL (    1206 calls)
     g_psi        :      0.36s CPU      0.41s WALL (     870 calls)
     cdiaghg      :     13.34s CPU     14.70s WALL (    1158 calls)
     cegterg:over :     28.69s CPU     32.41s WALL (     870 calls)
     cegterg:upda :      6.32s CPU      8.20s WALL (     870 calls)
     cegterg:last :      2.85s CPU      2.90s WALL (     332 calls)

     Called by h_psi:
     h_psi:vloc   :    125.64s CPU    128.76s WALL (    1206 calls)
     h_psi:vnl    :     46.19s CPU     46.58s WALL (    1206 calls)
     add_vuspsi   :     16.16s CPU     15.52s WALL (    1206 calls)

     General routines
     calbec       :     42.74s CPU     43.01s WALL (    1566 calls)
     fft          :      1.58s CPU      1.62s WALL (     233 calls)
     ffts         :      0.66s CPU      0.64s WALL (     225 calls)
     fftw         :    134.27s CPU    137.70s WALL (   75054 calls)
     interpolate  :      0.25s CPU      0.28s WALL (      26 calls)

     Parallel routines
     fft_scatter  :     72.72s CPU     74.72s WALL (   75512 calls)

     PWSCF        :  5m59.30s CPU     6m13.01s WALL


   This run was terminated on:  11:56:54  28Sep2017            

=------------------------------------------------------------------------------=
   JOB DONE.
=------------------------------------------------------------------------------=
