
     Program PWSCF v.5.1 starts on 28Sep2017 at 11:50:41 

     This program is part of the open-source Quantum ESPRESSO suite
     for quantum simulation of materials; please cite
         "P. Giannozzi et al., J. Phys.:Condens. Matter 21 395502 (2009);
          URL http://www.quantum-espresso.org", 
     in publications or presentations arising from this work. More details at
     http://www.quantum-espresso.org/quote

     Parallel version (MPI), running on     8 processors
     R & G space division:  proc/nbgrp/npool/nimage =       8
     Reading input from /tmp/Si_diamond.scf.in.super.222.x005.22256/Si_diamond.scf.in.super.222.x005.t
Warning: card &IONS ignored
Warning: card   ION_DYNAMICS='BFGS', ignored
Warning: card / ignored
Warning: card &CELL ignored
Warning: card  CELL_DYNAMICS = 'BFGS' ignored
Warning: card / ignored
     Message from routine read_cards :
     DEPRECATED: no units specified in CELL_PARAMETERS card

     Current dimensions of program PWSCF are:
     Max number of different atomic species (ntypx) = 10
     Max number of k-points (npk) =  40000
     Max angular momentum in pseudopotentials (lmaxx) =  3
 kfg - two_fermi_energies  F

     Subspace diagonalization in iterative solution of the eigenvalue problem:
     a serial algorithm will be used


     Parallelization info
     --------------------
     sticks:   dense  smooth     PW     G-vecs:    dense   smooth      PW
     Min         363     256     71                12921     7555    1109
     Max         364     257     73                12925     7568    1110
     Sum        2905    2053    571               103379    60495    8873



     bravais-lattice index     =            0
     lattice parameter (alat)  =    14.515605984  a.u.
     unit-cell volume          =    2162.6713 (a.u.)^3
     number of atoms/cell      =           16
     number of atomic types    =            1
     number of electrons       =        64.00
     number of Kohn-Sham states=           38
     kinetic-energy cutoff     =      35.0000  Ry
     charge density cutoff     =     200.0000  Ry
     convergence threshold     =      1.0E-09
     mixing beta               =       0.3000
     number of iterations used =            8  local-TF  mixing
     Exchange-correlation      = SLA  PW   PSX  PSC ( 1  4 10  8 0)
     A smooth kinetic-energy cutoff is imposed at      34.5000 Ry
     height of the smooth step-function =             800.0000 Ry
     width of the smooth step-function  =               1.0000 Ry


     celldm(1)=  14.515606  celldm(2)=   0.000000  celldm(3)=   0.000000
     celldm(4)=   0.000000  celldm(5)=   0.000000  celldm(6)=   0.000000

     crystal axes: (cart. coord. in units of alat)
               a(1) = (  -0.000000000000   0.707106781187   0.707106781187 )  
               a(2) = (   0.707106781187  -0.000000000000   0.707106781187 )  
               a(3) = (   0.707106781187   0.707106781187  -0.000000000000 )  

     reciprocal axes: (cart. coord. in units 2 pi/alat)
               b(1) = ( -0.707107  0.707107  0.707107 )  
               b(2) = (  0.707107 -0.707107  0.707107 )  
               b(3) = (  0.707107  0.707107 -0.707107 )  


     PseudoPot. # 1 for Si read from file:
     /users/kfg/psuedo/gbrv_1.5/si.pbesol.UPF
     MD5 check sum: ef58ba74faed4df802eb8a9742fc00a8
     Pseudo is Ultrasoft + core correction, Zval =  4.0
     Generated by new atomic code, or converted to UPF format
     Using radial grid of  899 points,  6 beta functions with: 
                l(1) =   0
                l(2) =   0
                l(3) =   1
                l(4) =   1
                l(5) =   2
                l(6) =   2
     Q(r) pseudized with  8 coefficients,  rinner =    0.900   0.900   0.900
                                                       0.900   0.900

     atomic species   valence    mass     pseudopotential
        Si             4.00    28.08550     Si( 1.00)

      2 Sym. Ops. (no inversion) found


                                    s                        frac. trans.

      isym =  1     identity                                     

 cryst.   s( 1) = (     1          0          0      )
                  (     0          1          0      )
                  (     0          0          1      )

 cart.    s( 1) = (  1.0000000  0.0000000  0.0000000 )
                  (  0.0000000  1.0000000  0.0000000 )
                  (  0.0000000  0.0000000  1.0000000 )


      isym =  2     inv. 180 deg rotation - cart. axis [1,-1,0]  

 cryst.   s( 2) = (     0          1          0      )
                  (     1          0          0      )
                  (     0          0          1      )

 cart.    s( 2) = (  0.0000000  1.0000000  0.0000000 )
                  (  1.0000000  0.0000000  0.0000000 )
                  (  0.0000000  0.0000000  1.0000000 )


     point group C_s (m)    
     there are  2 classes
     the character table:

       E     s    
A'     1.00  1.00
A''    1.00 -1.00

     the symmetry operations in each class:
     E        1
     s        2

   Cartesian axes

     site n.     atom                  positions (alat units)
         1           Si  tau(   1) = (    0.00353553391    0.00353553391    0.00000000000  )
         2           Si  tau(   2) = (    0.17677669530    0.17677669530    0.17677669530  )
         3           Si  tau(   3) = (    0.35355339059    0.35355339059    0.00000000000  )
         4           Si  tau(   4) = (    0.53033008589    0.53033008589    0.17677669530  )
         5           Si  tau(   5) = (    0.35355339059    0.00000000000    0.35355339059  )
         6           Si  tau(   6) = (    0.53033008589    0.17677669530    0.53033008589  )
         7           Si  tau(   7) = (    0.70710678119    0.35355339059    0.35355339059  )
         8           Si  tau(   8) = (    0.88388347648    0.53033008589    0.53033008589  )
         9           Si  tau(   9) = (    0.00000000000    0.35355339059    0.35355339059  )
        10           Si  tau(  10) = (    0.17677669530    0.53033008589    0.53033008589  )
        11           Si  tau(  11) = (    0.35355339059    0.70710678119    0.35355339059  )
        12           Si  tau(  12) = (    0.53033008589    0.88388347648    0.53033008589  )
        13           Si  tau(  13) = (    0.35355339059    0.35355339059    0.70710678119  )
        14           Si  tau(  14) = (    0.53033008589    0.53033008589    0.88388347648  )
        15           Si  tau(  15) = (    0.70710678119    0.70710678119    0.70710678119  )
        16           Si  tau(  16) = (    0.88388347648    0.88388347648    0.88388347648  )

   Crystallographic axes

     site n.     atom                  positions (cryst. coord.)
         1           Si  tau(   1) = (    0.00000000000    0.00000000000    0.00500000000  )
         2           Si  tau(   2) = (    0.12500000000    0.12500000000    0.12500000000  )
         3           Si  tau(   3) = (    0.00000000000    0.00000000000    0.50000000000  )
         4           Si  tau(   4) = (    0.12500000000    0.12500000000    0.62500000000  )
         5           Si  tau(   5) = (    0.00000000000    0.50000000000    0.00000000000  )
         6           Si  tau(   6) = (    0.12500000000    0.62500000000    0.12500000000  )
         7           Si  tau(   7) = (    0.00000000000    0.50000000000    0.50000000000  )
         8           Si  tau(   8) = (    0.12500000000    0.62500000000    0.62500000000  )
         9           Si  tau(   9) = (    0.50000000000    0.00000000000    0.00000000000  )
        10           Si  tau(  10) = (    0.62500000000    0.12500000000    0.12500000000  )
        11           Si  tau(  11) = (    0.50000000000    0.00000000000    0.50000000000  )
        12           Si  tau(  12) = (    0.62500000000    0.12500000000    0.62500000000  )
        13           Si  tau(  13) = (    0.50000000000    0.50000000000    0.00000000000  )
        14           Si  tau(  14) = (    0.62500000000    0.62500000000    0.12500000000  )
        15           Si  tau(  15) = (    0.50000000000    0.50000000000    0.50000000000  )
        16           Si  tau(  16) = (    0.62500000000    0.62500000000    0.62500000000  )

     number of k points=    24  gaussian smearing, width (Ry)=  0.0150
                       cart. coord. in units 2pi/alat
        k(    1) = (   0.0000000   0.0000000   0.0000000), wk =   0.0312500
        k(    2) = (   0.1767767   0.1767767  -0.1767767), wk =   0.0625000
        k(    3) = (  -0.3535534  -0.3535534   0.3535534), wk =   0.0312500
        k(    4) = (   0.3535534   0.0000000   0.0000000), wk =   0.1250000
        k(    5) = (  -0.1767767  -0.5303301   0.5303301), wk =   0.1250000
        k(    6) = (   0.0000000  -0.3535534   0.3535534), wk =   0.1250000
        k(    7) = (  -0.7071068   0.0000000   0.0000000), wk =   0.0625000
        k(    8) = (  -0.7071068   0.3535534   0.0000000), wk =   0.1250000
        k(    9) = (  -0.1767767   0.1767767   0.1767767), wk =   0.1250000
        k(   10) = (   0.1767767   0.1767767   0.1767767), wk =   0.0625000
        k(   11) = (   0.3535534  -0.3535534  -0.3535534), wk =   0.0625000
        k(   12) = (  -0.3535534  -0.3535534  -0.3535534), wk =   0.0312500
        k(   13) = (   0.0000000   0.0000000   0.3535534), wk =   0.0625000
        k(   14) = (   0.1767767  -0.5303301  -0.5303301), wk =   0.1250000
        k(   15) = (  -0.1767767   0.5303301  -0.5303301), wk =   0.1250000
        k(   16) = (  -0.5303301  -0.1767767  -0.5303301), wk =   0.1250000
        k(   17) = (   0.5303301   0.5303301  -0.1767767), wk =   0.0625000
        k(   18) = (  -0.5303301   0.5303301   0.1767767), wk =   0.1250000
        k(   19) = (  -0.5303301  -0.5303301  -0.1767767), wk =   0.0625000
        k(   20) = (   0.0000000  -0.3535534  -0.3535534), wk =   0.1250000
        k(   21) = (   0.3535534   0.3535534   0.0000000), wk =   0.0625000
        k(   22) = (  -0.3535534   0.3535534   0.0000000), wk =   0.0625000
        k(   23) = (   0.0000000   0.0000000  -0.7071068), wk =   0.0312500
        k(   24) = (   0.7071068   0.0000000   0.3535534), wk =   0.0625000

                       cryst. coord.
        k(    1) = (   0.0000000   0.0000000   0.0000000), wk =   0.0312500
        k(    2) = (   0.0000000   0.0000000   0.2500000), wk =   0.0625000
        k(    3) = (   0.0000000   0.0000000  -0.5000000), wk =   0.0312500
        k(    4) = (   0.0000000   0.2500000   0.2500000), wk =   0.1250000
        k(    5) = (   0.0000000   0.2500000  -0.5000000), wk =   0.1250000
        k(    6) = (   0.0000000   0.2500000  -0.2500000), wk =   0.1250000
        k(    7) = (   0.0000000  -0.5000000  -0.5000000), wk =   0.0625000
        k(    8) = (   0.2500000  -0.5000000  -0.2500000), wk =   0.1250000
        k(    9) = (   0.2500000   0.0000000   0.0000000), wk =   0.1250000
        k(   10) = (   0.2500000   0.2500000   0.2500000), wk =   0.0625000
        k(   11) = (  -0.5000000   0.0000000   0.0000000), wk =   0.0625000
        k(   12) = (  -0.5000000  -0.5000000  -0.5000000), wk =   0.0312500
        k(   13) = (   0.2500000   0.2500000   0.0000000), wk =   0.0625000
        k(   14) = (  -0.7500000  -0.2500000  -0.2500000), wk =   0.1250000
        k(   15) = (   0.0000000  -0.5000000   0.2500000), wk =   0.1250000
        k(   16) = (  -0.5000000  -0.7500000  -0.5000000), wk =   0.1250000
        k(   17) = (   0.2500000   0.2500000   0.7500000), wk =   0.0625000
        k(   18) = (   0.5000000  -0.2500000   0.0000000), wk =   0.1250000
        k(   19) = (  -0.5000000  -0.5000000  -0.7500000), wk =   0.0625000
        k(   20) = (  -0.5000000  -0.2500000  -0.2500000), wk =   0.1250000
        k(   21) = (   0.2500000   0.2500000   0.5000000), wk =   0.0625000
        k(   22) = (   0.2500000  -0.2500000   0.0000000), wk =   0.0625000
        k(   23) = (  -0.5000000  -0.5000000   0.0000000), wk =   0.0312500
        k(   24) = (   0.2500000   0.7500000   0.5000000), wk =   0.0625000

     Dense  grid:   103379 G-vectors     FFT dimensions: (  72,  72,  72)

     Smooth grid:    60495 G-vectors     FFT dimensions: (  60,  60,  60)

     Largest allocated arrays     est. size (Mb)     dimensions
        Kohn-Sham Wavefunctions         0.56 Mb     (     974,   38)
        NL pseudopotentials             4.28 Mb     (     974,  288)
        Each V/rho on FFT grid          0.71 Mb     (   46656)
        Each G-vector array             0.10 Mb     (   12923)
        G-vector shells                 0.01 Mb     (     706)
     Largest temporary arrays     est. size (Mb)     dimensions
        Auxiliary wavefunctions         2.26 Mb     (     974,  152)
        Each subspace H/S matrix        0.35 Mb     (     152,  152)
        Each <psi_i|beta_j> matrix      0.17 Mb     (     288,   38)
        Arrays for rho mixing           5.70 Mb     (   46656,    8)

     Initial potential from superposition of free atoms

     starting charge   63.98963, renormalised to   64.00000
     Starting wfc are   64 randomized atomic wfcs

     total cpu time spent up to now is       13.1 secs

     per-process dynamical memory:    31.2 Mb

     Self-consistent Calculation

     iteration #  1     ecut=    35.00 Ry     beta=0.30
     Davidson diagonalization with overlap
     ethr =  1.00E-02,  avg # of iterations =  3.1

     Threshold (ethr) on eigenvalues was too large:
     Diagonalizing with lowered threshold

     Davidson diagonalization with overlap
     ethr =  6.90E-04,  avg # of iterations =  1.2

     total cpu time spent up to now is       62.9 secs

     total energy              =    -153.02800023 Ry
     Harris-Foulkes estimate   =    -153.07410652 Ry
     estimated scf accuracy    <       0.43527899 Ry

     iteration #  2     ecut=    35.00 Ry     beta=0.30
     Davidson diagonalization with overlap
     ethr =  6.80E-04,  avg # of iterations =  1.0

     total cpu time spent up to now is       83.4 secs

     total energy              =    -152.93677338 Ry
     Harris-Foulkes estimate   =    -153.03007502 Ry
     estimated scf accuracy    <       0.27056053 Ry

     iteration #  3     ecut=    35.00 Ry     beta=0.30
     Davidson diagonalization with overlap
     ethr =  4.23E-04,  avg # of iterations =  1.2

     total cpu time spent up to now is      104.7 secs

     total energy              =    -152.95414068 Ry
     Harris-Foulkes estimate   =    -152.95343032 Ry
     estimated scf accuracy    <       0.00311627 Ry

     iteration #  4     ecut=    35.00 Ry     beta=0.30
     Davidson diagonalization with overlap
     c_bands:  1 eigenvalues not converged
     ethr =  4.87E-06,  avg # of iterations = 10.8

     total cpu time spent up to now is      157.9 secs

     total energy              =    -152.95628559 Ry
     Harris-Foulkes estimate   =    -152.95617563 Ry
     estimated scf accuracy    <       0.00120569 Ry

     iteration #  5     ecut=    35.00 Ry     beta=0.30
     Davidson diagonalization with overlap
     ethr =  1.88E-06,  avg # of iterations =  1.4

     total cpu time spent up to now is      179.7 secs

     total energy              =    -152.95636025 Ry
     Harris-Foulkes estimate   =    -152.95636150 Ry
     estimated scf accuracy    <       0.00004373 Ry

     iteration #  6     ecut=    35.00 Ry     beta=0.30
     Davidson diagonalization with overlap
     ethr =  6.83E-08,  avg # of iterations =  3.0

     total cpu time spent up to now is      207.1 secs

     total energy              =    -152.95637291 Ry
     Harris-Foulkes estimate   =    -152.95637891 Ry
     estimated scf accuracy    <       0.00002427 Ry

     iteration #  7     ecut=    35.00 Ry     beta=0.30
     Davidson diagonalization with overlap
     ethr =  3.79E-08,  avg # of iterations =  2.0

     total cpu time spent up to now is      230.2 secs

     total energy              =    -152.95637549 Ry
     Harris-Foulkes estimate   =    -152.95637525 Ry
     estimated scf accuracy    <       0.00000038 Ry

     iteration #  8     ecut=    35.00 Ry     beta=0.30
     Davidson diagonalization with overlap
     ethr =  5.94E-10,  avg # of iterations =  3.0

     total cpu time spent up to now is      258.5 secs

     total energy              =    -152.95637566 Ry
     Harris-Foulkes estimate   =    -152.95637564 Ry
     estimated scf accuracy    <       0.00000003 Ry

     iteration #  9     ecut=    35.00 Ry     beta=0.30
     Davidson diagonalization with overlap
     ethr =  4.78E-11,  avg # of iterations =  2.6

     total cpu time spent up to now is      283.6 secs

     total energy              =    -152.95637568 Ry
     Harris-Foulkes estimate   =    -152.95637567 Ry
     estimated scf accuracy    <          6.4E-09 Ry

     iteration # 10     ecut=    35.00 Ry     beta=0.30
     Davidson diagonalization with overlap
     ethr =  1.00E-11,  avg # of iterations =  2.0

     total cpu time spent up to now is      309.9 secs

     total energy              =    -152.95637568 Ry
     Harris-Foulkes estimate   =    -152.95637568 Ry
     estimated scf accuracy    <          1.4E-09 Ry

     iteration # 11     ecut=    35.00 Ry     beta=0.30
     Davidson diagonalization with overlap
     ethr =  2.13E-12,  avg # of iterations =  1.6

     total cpu time spent up to now is      335.4 secs

     End of self-consistent calculation

          k = 0.0000 0.0000 0.0000 (  7631 PWs)   bands (ev):

    -5.8413  -3.5150  -3.4941  -3.4939  -3.4752  -1.7195  -1.6871  -1.6843
    -1.6840  -1.6815  -1.6509  -0.8865  -0.8672  -0.8671  -0.8459   3.2571
     3.2694   3.2709   3.2710   3.2727   3.2847   4.8995   4.9293   4.9368
     4.9369   4.9431   4.9432   4.9513   4.9800   6.1222   6.1442   6.1683
     6.7196   6.7309   6.7428   6.7431   6.7545   6.7653

     occupation numbers 
     1.0000   1.0000   1.0000   1.0000   1.0000   1.0000   1.0000   1.0000
     1.0000   1.0000   1.0000   1.0000   1.0000   1.0000   1.0000   1.0000
     1.0000   1.0000   1.0000   1.0000   1.0000   1.0000   1.0000   1.0000
     1.0000   1.0000   1.0000   1.0000   1.0000   0.9583   0.9429   0.9210
     0.0080   0.0065   0.0051   0.0051   0.0040   0.0032

          k = 0.1768 0.1768-0.1768 (  7564 PWs)   bands (ev):

    -5.6368  -4.1437  -3.4193  -3.4088  -3.3928  -2.5494  -2.5380  -2.5239
    -0.7166  -0.6962  -0.6883  -0.6527  -0.6396  -0.6354   0.1768   2.6684
     2.6723   2.6837   3.4301   3.4398   3.4412   3.8389   3.8460   3.8695
     4.5396   4.5601   4.5672   4.5694   5.0391   5.0563   5.8350   5.8534
     6.9183   6.9218   6.9366   7.7306   8.0094   8.0256

     occupation numbers 
     1.0000   1.0000   1.0000   1.0000   1.0000   1.0000   1.0000   1.0000
     1.0000   1.0000   1.0000   1.0000   1.0000   1.0000   1.0000   1.0000
     1.0000   1.0000   1.0000   1.0000   1.0000   1.0000   1.0000   1.0000
     1.0000   1.0000   1.0000   1.0000   1.0000   1.0000   0.9999   0.9998
     0.0001   0.0001   0.0000   0.0000   0.0000   0.0000

          k =-0.3536-0.3536 0.3536 (  7570 PWs)   bands (ev):

    -5.0531  -5.0269  -3.1406  -3.1152  -3.1133  -3.1081  -3.1065  -3.0730
    -0.3000  -0.2649  -0.2615  -0.2522  -0.2516  -0.2475   2.1934   2.2111
     2.5625   2.5629   2.5680   2.5776   2.5863   2.6209   3.8858   3.9069
     3.9145   3.9269   3.9331   3.9350   5.3418   5.3771   5.3875   5.3879
     7.5368   7.5376   7.5641   7.5695   7.5724   7.5760

     occupation numbers 
     1.0000   1.0000   1.0000   1.0000   1.0000   1.0000   1.0000   1.0000
     1.0000   1.0000   1.0000   1.0000   1.0000   1.0000   1.0000   1.0000
     1.0000   1.0000   1.0000   1.0000   1.0000   1.0000   1.0000   1.0000
     1.0000   1.0000   1.0000   1.0000   1.0000   1.0000   1.0000   1.0000
     0.0000   0.0000   0.0000   0.0000   0.0000   0.0000

          k = 0.3536 0.0000 0.0000 (  7563 PWs)   bands (ev):

    -5.5676  -3.6782  -3.6579  -3.6549  -3.6377  -3.4379  -1.6248  -1.6039
    -1.6035  -1.5839  -0.2864  -0.2674  -0.2645  -0.2448   0.3931   2.6785
     2.6851   2.6898   2.6960   3.5105   3.5227   3.6393   3.6543   3.6590
     3.6742   4.8013   4.8485   4.8692   4.8737   4.8968   5.3177   5.3387
     6.6552   7.5707   8.0045   8.0226   8.0304   8.0914

     occupation numbers 
     1.0000   1.0000   1.0000   1.0000   1.0000   1.0000   1.0000   1.0000
     1.0000   1.0000   1.0000   1.0000   1.0000   1.0000   1.0000   1.0000
     1.0000   1.0000   1.0000   1.0000   1.0000   1.0000   1.0000   1.0000
     1.0000   1.0000   1.0000   1.0000   1.0000   1.0000   1.0000   1.0000
     0.0249   0.0000   0.0000   0.0000   0.0000   0.0000

          k =-0.1768-0.5303 0.5303 (  7554 PWs)   bands (ev):

    -5.0984  -4.5881  -4.0436  -3.6208  -3.6024  -2.9064  -2.3645  -2.3457
    -0.8118  -0.7954  -0.5141   0.2649   0.2838   1.1907   1.5089   2.0338
     2.0422   2.1133   2.7813   2.7925   2.9156   3.1395   3.1500   3.4549
     3.8018   3.9102   4.1891   4.2111   4.2372   4.8039   4.8842   5.3573
     7.3969   7.8853   8.2193   8.4314   8.4483   8.7969

     occupation numbers 
     1.0000   1.0000   1.0000   1.0000   1.0000   1.0000   1.0000   1.0000
     1.0000   1.0000   1.0000   1.0000   1.0000   1.0000   1.0000   1.0000
     1.0000   1.0000   1.0000   1.0000   1.0000   1.0000   1.0000   1.0000
     1.0000   1.0000   1.0000   1.0000   1.0000   1.0000   1.0000   1.0000
     0.0000   0.0000   0.0000   0.0000   0.0000   0.0000

          k = 0.0000-0.3536 0.3536 (  7592 PWs)   bands (ev):

    -5.2999  -4.2911  -4.2683  -3.2464  -3.2285  -2.9612  -2.9412  -2.1007
    -1.0840  -0.6885  -0.6688   0.1580   0.1753   0.8278   0.8490   1.7902
     2.6561   2.6732   2.7390   2.7479   3.3486   3.3688   3.4604   3.6940
     3.9509   3.9625   4.2871   4.3030   4.4862   4.5256   4.5503   5.8379
     7.2341   7.9970   8.0125   8.3000   8.3199   8.6896

     occupation numbers 
     1.0000   1.0000   1.0000   1.0000   1.0000   1.0000   1.0000   1.0000
     1.0000   1.0000   1.0000   1.0000   1.0000   1.0000   1.0000   1.0000
     1.0000   1.0000   1.0000   1.0000   1.0000   1.0000   1.0000   1.0000
     1.0000   1.0000   1.0000   1.0000   1.0000   1.0000   1.0000   0.9999
     0.0000   0.0000   0.0000   0.0000   0.0000   0.0000

          k =-0.7071 0.0000 0.0000 (  7528 PWs)   bands (ev):

    -4.7682  -4.7447  -3.8096  -3.7912  -3.7867  -3.7688  -1.5360  -1.5149
    -1.5145  -1.4947   0.6303   0.6497   0.6524   0.6713   2.2309   2.2381
     2.2416   2.2474   2.3344   2.3410   2.3462   2.3536   2.6193   2.6273
     4.2150   4.2299   4.2439   4.2577   4.7846   4.8057   4.8097   4.8335
     7.1779   7.1892   8.4936   8.5123   8.5156   8.5331

     occupation numbers 
     1.0000   1.0000   1.0000   1.0000   1.0000   1.0000   1.0000   1.0000
     1.0000   1.0000   1.0000   1.0000   1.0000   1.0000   1.0000   1.0000
     1.0000   1.0000   1.0000   1.0000   1.0000   1.0000   1.0000   1.0000
     1.0000   1.0000   1.0000   1.0000   1.0000   1.0000   1.0000   1.0000
     0.0000   0.0000   0.0000   0.0000   0.0000   0.0000

          k =-0.7071 0.3536 0.0000 (  7564 PWs)   bands (ev):

    -4.5297  -4.5073  -4.5070  -4.4862  -2.7333  -2.7102  -2.7086  -2.6860
    -0.4548  -0.4386  -0.4303  -0.4148   1.8127   1.8387   1.8446   1.8512
     1.8549   1.8620   1.8716   1.8913   3.3761   3.3916   3.3963   3.4102
     3.5177   3.5211   3.5402   3.5449   4.6830   4.7027   4.7032   4.7245
     8.5037   8.5180   8.5245   8.5367   8.9132   8.9303

     occupation numbers 
     1.0000   1.0000   1.0000   1.0000   1.0000   1.0000   1.0000   1.0000
     1.0000   1.0000   1.0000   1.0000   1.0000   1.0000   1.0000   1.0000
     1.0000   1.0000   1.0000   1.0000   1.0000   1.0000   1.0000   1.0000
     1.0000   1.0000   1.0000   1.0000   1.0000   1.0000   1.0000   1.0000
     0.0000   0.0000   0.0000   0.0000   0.0000   0.0000

          k =-0.1768 0.1768 0.1768 (  7564 PWs)   bands (ev):

    -5.6366  -4.1405  -3.4251  -3.4087  -3.3938  -2.5558  -2.5382  -2.5207
    -0.7216  -0.6947  -0.6839  -0.6510  -0.6387  -0.6126   0.1642   2.6590
     2.6682   2.6770   3.4324   3.4414   3.4505   3.8287   3.8408   3.8521
     4.5257   4.5631   4.5712   4.5850   5.0375   5.0673   5.8359   5.8695
     6.9184   6.9313   6.9437   7.7350   8.0013   8.0175

     occupation numbers 
     1.0000   1.0000   1.0000   1.0000   1.0000   1.0000   1.0000   1.0000
     1.0000   1.0000   1.0000   1.0000   1.0000   1.0000   1.0000   1.0000
     1.0000   1.0000   1.0000   1.0000   1.0000   1.0000   1.0000   1.0000
     1.0000   1.0000   1.0000   1.0000   1.0000   1.0000   0.9999   0.9998
     0.0001   0.0001   0.0000   0.0000   0.0000   0.0000

          k = 0.1768 0.1768 0.1768 (  7564 PWs)   bands (ev):

    -5.6364  -4.1366  -3.4265  -3.4090  -3.3998  -2.5524  -2.5386  -2.5276
    -0.7031  -0.6938  -0.6851  -0.6420  -0.6384  -0.6131   0.1521   2.6522
     2.6638   2.6681   3.4415   3.4432   3.4514   3.8113   3.8354   3.8424
     4.5173   4.5731   4.5764   4.5895   5.0475   5.0646   5.8504   5.8708
     6.9263   6.9407   6.9439   7.7395   8.0010   8.0142

     occupation numbers 
     1.0000   1.0000   1.0000   1.0000   1.0000   1.0000   1.0000   1.0000
     1.0000   1.0000   1.0000   1.0000   1.0000   1.0000   1.0000   1.0000
     1.0000   1.0000   1.0000   1.0000   1.0000   1.0000   1.0000   1.0000
     1.0000   1.0000   1.0000   1.0000   1.0000   1.0000   0.9998   0.9997
     0.0001   0.0000   0.0000   0.0000   0.0000   0.0000

          k = 0.3536-0.3536-0.3536 (  7570 PWs)   bands (ev):

    -5.0395  -5.0385  -3.1473  -3.1149  -3.1110  -3.1109  -3.1074  -3.0760
    -0.2997  -0.2650  -0.2561  -0.2561  -0.2474  -0.2129   2.1912   2.1927
     2.5457   2.5627   2.5683   2.5683   2.5736   2.5919   3.9039   3.9215
     3.9222   3.9224   3.9235   3.9413   5.3486   5.3778   5.3797   5.4115
     7.5387   7.5640   7.5658   7.5658   7.5672   7.5906

     occupation numbers 
     1.0000   1.0000   1.0000   1.0000   1.0000   1.0000   1.0000   1.0000
     1.0000   1.0000   1.0000   1.0000   1.0000   1.0000   1.0000   1.0000
     1.0000   1.0000   1.0000   1.0000   1.0000   1.0000   1.0000   1.0000
     1.0000   1.0000   1.0000   1.0000   1.0000   1.0000   1.0000   1.0000
     0.0000   0.0000   0.0000   0.0000   0.0000   0.0000

          k =-0.3536-0.3536-0.3536 (  7570 PWs)   bands (ev):

    -5.0511  -5.0246  -3.1506  -3.1157  -3.1142  -3.1087  -3.1071  -3.0833
    -0.2645  -0.2606  -0.2603  -0.2507  -0.2471  -0.2120   2.1684   2.1912
     2.5232   2.5494   2.5589   2.5685   2.5735   2.5737   3.9097   3.9116
     3.9179   3.9300   3.9391   3.9588   5.3693   5.3700   5.3813   5.4174
     7.5553   7.5592   7.5621   7.5676   7.5928   7.5942

     occupation numbers 
     1.0000   1.0000   1.0000   1.0000   1.0000   1.0000   1.0000   1.0000
     1.0000   1.0000   1.0000   1.0000   1.0000   1.0000   1.0000   1.0000
     1.0000   1.0000   1.0000   1.0000   1.0000   1.0000   1.0000   1.0000
     1.0000   1.0000   1.0000   1.0000   1.0000   1.0000   1.0000   1.0000
     0.0000   0.0000   0.0000   0.0000   0.0000   0.0000

          k = 0.0000 0.0000 0.3536 (  7563 PWs)   bands (ev):

    -5.5676  -3.6811  -3.6564  -3.6563  -3.6343  -3.4387  -1.6277  -1.6058
    -1.6017  -1.5800  -0.2894  -0.2659  -0.2658  -0.2427   0.3931   2.6781
     2.6781   2.6957   2.6965   3.5172   3.5175   3.6331   3.6563   3.6565
     3.6794   4.7987   4.8588   4.8711   4.8792   4.8842   5.3272   5.3282
     6.6553   7.5705   8.0074   8.0093   8.0341   8.0348

     occupation numbers 
     1.0000   1.0000   1.0000   1.0000   1.0000   1.0000   1.0000   1.0000
     1.0000   1.0000   1.0000   1.0000   1.0000   1.0000   1.0000   1.0000
     1.0000   1.0000   1.0000   1.0000   1.0000   1.0000   1.0000   1.0000
     1.0000   1.0000   1.0000   1.0000   1.0000   1.0000   1.0000   1.0000
     0.0248   0.0000   0.0000   0.0000   0.0000   0.0000

          k = 0.1768-0.5303-0.5303 (  7554 PWs)   bands (ev):

    -5.0978  -4.5863  -4.0425  -3.6257  -3.6077  -2.8964  -2.3684  -2.3502
    -0.8032  -0.7874  -0.5334   0.2830   0.3021   1.1882   1.4927   2.0265
     2.0330   2.1066   2.7811   2.7954   2.9097   3.1444   3.1546   3.4423
     3.7992   3.9242   4.1697   4.1959   4.2512   4.8219   4.8723   5.3811
     7.4079   7.9021   8.2246   8.4313   8.4485   8.8055

     occupation numbers 
     1.0000   1.0000   1.0000   1.0000   1.0000   1.0000   1.0000   1.0000
     1.0000   1.0000   1.0000   1.0000   1.0000   1.0000   1.0000   1.0000
     1.0000   1.0000   1.0000   1.0000   1.0000   1.0000   1.0000   1.0000
     1.0000   1.0000   1.0000   1.0000   1.0000   1.0000   1.0000   1.0000
     0.0000   0.0000   0.0000   0.0000   0.0000   0.0000

          k =-0.1768 0.5303-0.5303 (  7554 PWs)   bands (ev):

    -5.0974  -4.5877  -4.0446  -3.6210  -3.6025  -2.9108  -2.3649  -2.3464
    -0.8102  -0.7940  -0.5017   0.2666   0.2853   1.2018   1.5007   2.0301
     2.0371   2.1031   2.7744   2.7880   2.9010   3.1432   3.1527   3.4420
     3.8104   3.9116   4.1918   4.2186   4.2369   4.8032   4.9032   5.3548
     7.3985   7.8852   8.2194   8.4409   8.4569   8.7993

     occupation numbers 
     1.0000   1.0000   1.0000   1.0000   1.0000   1.0000   1.0000   1.0000
     1.0000   1.0000   1.0000   1.0000   1.0000   1.0000   1.0000   1.0000
     1.0000   1.0000   1.0000   1.0000   1.0000   1.0000   1.0000   1.0000
     1.0000   1.0000   1.0000   1.0000   1.0000   1.0000   1.0000   1.0000
     0.0000   0.0000   0.0000   0.0000   0.0000   0.0000

          k =-0.5303-0.1768-0.5303 (  7554 PWs)   bands (ev):

    -5.0973  -4.5846  -4.0445  -3.6258  -3.6077  -2.9013  -2.3689  -2.3507
    -0.8005  -0.7854  -0.5219   0.2845   0.3038   1.1998   1.4837   2.0186
     2.0297   2.1003   2.7750   2.7868   2.8958   3.1472   3.1585   3.4297
     3.8076   3.9244   4.1787   4.1984   4.2536   4.8198   4.8897   5.3789
     7.4094   7.9031   8.2254   8.4409   8.4567   8.8085

     occupation numbers 
     1.0000   1.0000   1.0000   1.0000   1.0000   1.0000   1.0000   1.0000
     1.0000   1.0000   1.0000   1.0000   1.0000   1.0000   1.0000   1.0000
     1.0000   1.0000   1.0000   1.0000   1.0000   1.0000   1.0000   1.0000
     1.0000   1.0000   1.0000   1.0000   1.0000   1.0000   1.0000   1.0000
     0.0000   0.0000   0.0000   0.0000   0.0000   0.0000

          k = 0.5303 0.5303-0.1768 (  7554 PWs)   bands (ev):

    -5.0984  -4.5877  -4.0419  -3.6152  -3.6141  -2.8988  -2.3570  -2.3564
    -0.8009  -0.7995  -0.5299   0.2822   0.2830   1.1833   1.5056   2.0349
     2.0381   2.1126   2.7890   2.7922   2.9210   3.1428   3.1478   3.4558
     3.7956   3.9168   4.1874   4.1906   4.2443   4.8140   4.8690   5.3698
     7.4021   7.8941   8.2217   8.4348   8.4352   8.7997

     occupation numbers 
     1.0000   1.0000   1.0000   1.0000   1.0000   1.0000   1.0000   1.0000
     1.0000   1.0000   1.0000   1.0000   1.0000   1.0000   1.0000   1.0000
     1.0000   1.0000   1.0000   1.0000   1.0000   1.0000   1.0000   1.0000
     1.0000   1.0000   1.0000   1.0000   1.0000   1.0000   1.0000   1.0000
     0.0000   0.0000   0.0000   0.0000   0.0000   0.0000

          k =-0.5303 0.5303 0.1768 (  7554 PWs)   bands (ev):

    -5.0975  -4.5869  -4.0443  -3.6256  -3.6022  -2.9041  -2.3674  -2.3470
    -0.8137  -0.7828  -0.5179   0.2654   0.3024   1.1953   1.4967   2.0254
     2.0361   2.1068   2.7731   2.7940   2.9068   3.1384   3.1580   3.4422
     3.8042   3.9197   4.1869   4.2013   4.2455   4.8117   4.8879   5.3682
     7.4031   7.8933   8.2220   8.4317   8.4568   8.8020

     occupation numbers 
     1.0000   1.0000   1.0000   1.0000   1.0000   1.0000   1.0000   1.0000
     1.0000   1.0000   1.0000   1.0000   1.0000   1.0000   1.0000   1.0000
     1.0000   1.0000   1.0000   1.0000   1.0000   1.0000   1.0000   1.0000
     1.0000   1.0000   1.0000   1.0000   1.0000   1.0000   1.0000   1.0000
     0.0000   0.0000   0.0000   0.0000   0.0000   0.0000

          k =-0.5303-0.5303-0.1768 (  7554 PWs)   bands (ev):

    -5.0970  -4.5856  -4.0449  -3.6154  -3.6142  -2.9081  -2.3578  -2.3577
    -0.7965  -0.7963  -0.5059   0.2855   0.2861   1.2059   1.4884   2.0238
     2.0285   2.0965   2.7747   2.7805   2.8924   3.1503   3.1535   3.4302
     3.8127   3.9184   4.1954   4.2042   4.2465   4.8110   4.9057   5.3652
     7.4052   7.8951   8.2226   8.4527   8.4532   8.8052

     occupation numbers 
     1.0000   1.0000   1.0000   1.0000   1.0000   1.0000   1.0000   1.0000
     1.0000   1.0000   1.0000   1.0000   1.0000   1.0000   1.0000   1.0000
     1.0000   1.0000   1.0000   1.0000   1.0000   1.0000   1.0000   1.0000
     1.0000   1.0000   1.0000   1.0000   1.0000   1.0000   1.0000   1.0000
     0.0000   0.0000   0.0000   0.0000   0.0000   0.0000

          k = 0.0000-0.3536-0.3536 (  7592 PWs)   bands (ev):

    -5.2990  -4.2894  -4.2665  -3.2507  -3.2325  -2.9672  -2.9484  -2.0839
    -1.1053  -0.6719  -0.6536   0.1724   0.1901   0.8192   0.8407   1.7813
     2.6379   2.6573   2.7373   2.7467   3.3361   3.3569   3.4368   3.7071
     3.9600   3.9724   4.2768   4.2916   4.4915   4.5388   4.5693   5.8669
     7.2507   8.0026   8.0173   8.3127   8.3310   8.6938

     occupation numbers 
     1.0000   1.0000   1.0000   1.0000   1.0000   1.0000   1.0000   1.0000
     1.0000   1.0000   1.0000   1.0000   1.0000   1.0000   1.0000   1.0000
     1.0000   1.0000   1.0000   1.0000   1.0000   1.0000   1.0000   1.0000
     1.0000   1.0000   1.0000   1.0000   1.0000   1.0000   1.0000   0.9998
     0.0000   0.0000   0.0000   0.0000   0.0000   0.0000

          k = 0.3536 0.3536 0.0000 (  7592 PWs)   bands (ev):

    -5.2995  -4.2812  -4.2761  -3.2422  -3.2390  -2.9547  -2.9527  -2.0919
    -1.0955  -0.6704  -0.6702   0.1738   0.1740   0.8208   0.8476   1.7864
     2.6535   2.6558   2.7429   2.7450   3.3515   3.3529   3.4480   3.7007
     3.9617   3.9620   4.2748   4.3035   4.4927   4.5423   4.5473   5.8520
     7.2429   8.0070   8.0074   8.3144   8.3186   8.6924

     occupation numbers 
     1.0000   1.0000   1.0000   1.0000   1.0000   1.0000   1.0000   1.0000
     1.0000   1.0000   1.0000   1.0000   1.0000   1.0000   1.0000   1.0000
     1.0000   1.0000   1.0000   1.0000   1.0000   1.0000   1.0000   1.0000
     1.0000   1.0000   1.0000   1.0000   1.0000   1.0000   1.0000   0.9998
     0.0000   0.0000   0.0000   0.0000   0.0000   0.0000

          k =-0.3536 0.3536 0.0000 (  7592 PWs)   bands (ev):

    -5.2994  -4.2798  -4.2784  -3.2513  -3.2269  -2.9627  -2.9461  -2.0929
    -1.0947  -0.6877  -0.6535   0.1564   0.1911   0.8340   0.8345   1.7859
     2.6553   2.6581   2.7378   2.7467   3.3445   3.3612   3.4479   3.7015
     3.9491   3.9715   4.2890   4.2897   4.4844   4.5448   4.5542   5.8527
     7.2420   7.9925   8.0218   8.3139   8.3165   8.6937

     occupation numbers 
     1.0000   1.0000   1.0000   1.0000   1.0000   1.0000   1.0000   1.0000
     1.0000   1.0000   1.0000   1.0000   1.0000   1.0000   1.0000   1.0000
     1.0000   1.0000   1.0000   1.0000   1.0000   1.0000   1.0000   1.0000
     1.0000   1.0000   1.0000   1.0000   1.0000   1.0000   1.0000   0.9998
     0.0000   0.0000   0.0000   0.0000   0.0000   0.0000

          k = 0.0000 0.0000-0.7071 (  7528 PWs)   bands (ev):

    -4.7570  -4.7558  -3.8144  -3.7890  -3.7888  -3.7642  -1.5382  -1.5150
    -1.5145  -1.4914   0.6314   0.6508   0.6512   0.6696   2.2277   2.2353
     2.2419   2.2500   2.3342   2.3438   2.3461   2.3521   2.6223   2.6247
     4.2363   4.2372   4.2372   4.2389   4.7936   4.8077   4.8092   4.8226
     7.1833   7.1842   8.5064   8.5126   8.5140   8.5213

     occupation numbers 
     1.0000   1.0000   1.0000   1.0000   1.0000   1.0000   1.0000   1.0000
     1.0000   1.0000   1.0000   1.0000   1.0000   1.0000   1.0000   1.0000
     1.0000   1.0000   1.0000   1.0000   1.0000   1.0000   1.0000   1.0000
     1.0000   1.0000   1.0000   1.0000   1.0000   1.0000   1.0000   1.0000
     0.0000   0.0000   0.0000   0.0000   0.0000   0.0000

          k = 0.7071 0.0000 0.3536 (  7564 PWs)   bands (ev):

    -4.5330  -4.5090  -4.5053  -4.4828  -2.7280  -2.7127  -2.7059  -2.6918
    -0.4584  -0.4370  -0.4319  -0.4112   1.8161   1.8391   1.8441   1.8518
     1.8590   1.8612   1.8686   1.8880   3.3871   3.3920   3.3964   3.4009
     3.5174   3.5256   3.5341   3.5440   4.6760   4.6983   4.7073   4.7314
     8.5065   8.5203   8.5217   8.5342   8.9142   8.9265

     occupation numbers 
     1.0000   1.0000   1.0000   1.0000   1.0000   1.0000   1.0000   1.0000
     1.0000   1.0000   1.0000   1.0000   1.0000   1.0000   1.0000   1.0000
     1.0000   1.0000   1.0000   1.0000   1.0000   1.0000   1.0000   1.0000
     1.0000   1.0000   1.0000   1.0000   1.0000   1.0000   1.0000   1.0000
     0.0000   0.0000   0.0000   0.0000   0.0000   0.0000

     the Fermi energy is     6.3721 ev

!    total energy              =    -152.95637569 Ry
     Harris-Foulkes estimate   =    -152.95637568 Ry
     estimated scf accuracy    <          2.4E-10 Ry

     The total energy is the sum of the following terms:

     one-electron contribution =      40.84694939 Ry
     hartree contribution      =       8.76555935 Ry
     xc contribution           =     -68.21709875 Ry
     ewald contribution        =    -134.35151562 Ry
     smearing contrib. (-TS)   =      -0.00027006 Ry

     convergence has been achieved in  11 iterations

     Forces acting on atoms (Ry/au):

     atom    1 type  1   force =  -0.14347226E-01 -0.14347226E-01 -0.94826713E-03
     atom    2 type  1   force =   0.64437049E-02  0.64437049E-02  0.53795708E-02
     atom    3 type  1   force =   0.99676099E-03  0.99676099E-03  0.55144580E-05
     atom    4 type  1   force =   0.58308776E-02  0.58308776E-02 -0.45443965E-02
     atom    5 type  1   force =   0.48761934E-03 -0.88550014E-03  0.50444939E-03
     atom    6 type  1   force =   0.12280067E-02  0.11443119E-02  0.72880130E-04
     atom    7 type  1   force =  -0.88542452E-03  0.47970069E-03 -0.52163701E-03
     atom    8 type  1   force =  -0.29625192E-03 -0.29026859E-03 -0.76342535E-07
     atom    9 type  1   force =  -0.88550014E-03  0.48761934E-03  0.50444939E-03
     atom   10 type  1   force =   0.11443119E-02  0.12280067E-02  0.72880130E-04
     atom   11 type  1   force =   0.47970069E-03 -0.88542452E-03 -0.52163701E-03
     atom   12 type  1   force =  -0.29026859E-03 -0.29625192E-03 -0.76342535E-07
     atom   13 type  1   force =  -0.29344647E-04 -0.29344647E-04 -0.75557581E-05
     atom   14 type  1   force =  -0.17497588E-04 -0.17497588E-04 -0.27537651E-03
     atom   15 type  1   force =   0.15564074E-03  0.15564074E-03  0.78573284E-06
     atom   16 type  1   force =  -0.15109516E-04 -0.15109516E-04  0.27849263E-03
     The non-local contrib.  to forces
     atom    1 type  1   force =  -0.14076380E-01 -0.14076380E-01 -0.10219468E-02
     atom    2 type  1   force =   0.68683325E-02  0.68683325E-02  0.84956613E-02
     atom    3 type  1   force =   0.45219625E-03  0.45219625E-03 -0.50165108E-04
     atom    4 type  1   force =   0.63199835E-02  0.63199835E-02 -0.76573462E-02
     atom    5 type  1   force =   0.36911256E-03  0.91613253E-03  0.61901358E-04
     atom    6 type  1   force =  -0.13195499E-02 -0.16263862E-02  0.14494375E-03
     atom    7 type  1   force =   0.92932666E-03  0.39105804E-03 -0.83503704E-04
     atom    8 type  1   force =   0.37598742E-03  0.37627981E-03  0.14835826E-05
     atom    9 type  1   force =   0.91613253E-03  0.36911256E-03  0.61901358E-04
     atom   10 type  1   force =  -0.16263862E-02 -0.13195499E-02  0.14494375E-03
     atom   11 type  1   force =   0.39105804E-03  0.92932666E-03 -0.83503704E-04
     atom   12 type  1   force =   0.37627981E-03  0.37598742E-03  0.14835826E-05
     atom   13 type  1   force =   0.30705874E-03  0.30705874E-03  0.92771866E-05
     atom   14 type  1   force =  -0.31791980E-04 -0.31791980E-04  0.41091381E-03
     atom   15 type  1   force =  -0.21669089E-03 -0.21669089E-03  0.11369332E-05
     atom   16 type  1   force =  -0.35987699E-04 -0.35987699E-04 -0.40887653E-03
     The ionic contribution  to forces
     atom    1 type  1   force =  -0.47720301E-01 -0.47720301E-01 -0.23331141E-02
     atom    2 type  1   force =   0.21991704E-01  0.21991704E-01  0.38283899E-01
     atom    3 type  1   force =   0.17456194E-01  0.17456194E-01  0.42188475E-14
     atom    4 type  1   force =   0.21745809E-01  0.21745809E-01 -0.36508832E-01
     atom    5 type  1   force =   0.64701549E-02 -0.34014521E-02  0.10979330E-01
     atom    6 type  1   force =  -0.15134010E-01 -0.15872375E-01  0.39487166E-03
     atom    7 type  1   force =  -0.34014521E-02  0.64701549E-02 -0.10979330E-01
     atom    8 type  1   force =   0.56607215E-02  0.58249893E-02 -0.11267814E-03
     atom    9 type  1   force =  -0.34014521E-02  0.64701549E-02  0.10979330E-01
     atom   10 type  1   force =  -0.15872375E-01 -0.15134010E-01  0.39487166E-03
     atom   11 type  1   force =   0.64701549E-02 -0.34014521E-02 -0.10979330E-01
     atom   12 type  1   force =   0.58249893E-02  0.56607215E-02 -0.11267814E-03
     atom   13 type  1   force =  -0.45079080E-02 -0.45079080E-02  0.19095836E-13
     atom   14 type  1   force =   0.59123086E-03  0.59123086E-03  0.51196421E-02
     atom   15 type  1   force =   0.31805599E-02  0.31805599E-02  0.99920072E-14
     atom   16 type  1   force =   0.64598027E-03  0.64598027E-03 -0.51259820E-02
     The local contribution  to forces
     atom    1 type  1   force =   0.46202044E-01  0.46202044E-01  0.23149382E-02
     atom    2 type  1   force =  -0.21759010E-01 -0.21759010E-01 -0.40563064E-01
     atom    3 type  1   force =  -0.16875396E-01 -0.16875396E-01  0.51668139E-04
     atom    4 type  1   force =  -0.21624353E-01 -0.21624353E-01  0.38861520E-01
     atom    5 type  1   force =  -0.63240292E-02  0.16757114E-02 -0.10529900E-01
     atom    6 type  1   force =   0.17531356E-01  0.18465656E-01 -0.45418005E-03
     atom    7 type  1   force =   0.16639165E-02 -0.63521660E-02  0.10532501E-01
     atom    8 type  1   force =  -0.63036671E-02 -0.64620193E-02  0.11121705E-03
     atom    9 type  1   force =   0.16757114E-02 -0.63240292E-02 -0.10529900E-01
     atom   10 type  1   force =   0.18465656E-01  0.17531356E-01 -0.45418005E-03
     atom   11 type  1   force =  -0.63521660E-02  0.16639165E-02  0.10532501E-01
     atom   12 type  1   force =  -0.64620193E-02 -0.63036671E-02  0.11121705E-03
     atom   13 type  1   force =   0.41921315E-02  0.41921315E-02 -0.15943630E-04
     atom   14 type  1   force =  -0.57888857E-03 -0.57888857E-03 -0.57743480E-02
     atom   15 type  1   force =  -0.28225121E-02 -0.28225121E-02 -0.25007614E-06
     atom   16 type  1   force =  -0.62754805E-03 -0.62754805E-03  0.57816846E-02
     The core correction contribution to forces
     atom    1 type  1   force =   0.12435329E-02  0.12435329E-02  0.91473787E-04
     atom    2 type  1   force =  -0.65714457E-03 -0.65714457E-03 -0.83725865E-03
     atom    3 type  1   force =  -0.32565905E-04 -0.32565905E-04  0.37737203E-05
     atom    4 type  1   force =  -0.61052139E-03 -0.61052139E-03  0.76073465E-03
     atom    5 type  1   force =  -0.27394461E-04 -0.76007613E-04 -0.33397144E-05
     atom    6 type  1   force =   0.15064595E-03  0.17795545E-03 -0.12898507E-04
     atom    7 type  1   force =  -0.77025398E-04 -0.29385185E-04  0.50756918E-05
     atom    8 type  1   force =  -0.30010453E-04 -0.30054886E-04 -0.79651894E-07
     atom    9 type  1   force =  -0.76007613E-04 -0.27394461E-04 -0.33397144E-05
     atom   10 type  1   force =   0.17795545E-03  0.15064595E-03 -0.12898507E-04
     atom   11 type  1   force =  -0.29385185E-04 -0.77025398E-04  0.50756918E-05
     atom   12 type  1   force =  -0.30054886E-04 -0.30010453E-04 -0.79651894E-07
     atom   13 type  1   force =  -0.24161490E-04 -0.24161490E-04 -0.84481489E-06
     atom   14 type  1   force =   0.21316278E-05  0.21316278E-05 -0.32340606E-04
     atom   15 type  1   force =   0.17644091E-04  0.17644091E-04 -0.88207907E-07
     atom   16 type  1   force =   0.24301450E-05  0.24301450E-05  0.32279214E-04
     The Hubbard contrib.    to forces
     atom    1 type  1   force =   0.00000000E+00  0.00000000E+00  0.00000000E+00
     atom    2 type  1   force =   0.00000000E+00  0.00000000E+00  0.00000000E+00
     atom    3 type  1   force =   0.00000000E+00  0.00000000E+00  0.00000000E+00
     atom    4 type  1   force =   0.00000000E+00  0.00000000E+00  0.00000000E+00
     atom    5 type  1   force =   0.00000000E+00  0.00000000E+00  0.00000000E+00
     atom    6 type  1   force =   0.00000000E+00  0.00000000E+00  0.00000000E+00
     atom    7 type  1   force =   0.00000000E+00  0.00000000E+00  0.00000000E+00
     atom    8 type  1   force =   0.00000000E+00  0.00000000E+00  0.00000000E+00
     atom    9 type  1   force =   0.00000000E+00  0.00000000E+00  0.00000000E+00
     atom   10 type  1   force =   0.00000000E+00  0.00000000E+00  0.00000000E+00
     atom   11 type  1   force =   0.00000000E+00  0.00000000E+00  0.00000000E+00
     atom   12 type  1   force =   0.00000000E+00  0.00000000E+00  0.00000000E+00
     atom   13 type  1   force =   0.00000000E+00  0.00000000E+00  0.00000000E+00
     atom   14 type  1   force =   0.00000000E+00  0.00000000E+00  0.00000000E+00
     atom   15 type  1   force =   0.00000000E+00  0.00000000E+00  0.00000000E+00
     atom   16 type  1   force =   0.00000000E+00  0.00000000E+00  0.00000000E+00
     The SCF correction term to forces
     atom    1 type  1   force =   0.38771015E-05  0.38771015E-05  0.33068250E-06
     atom    2 type  1   force =  -0.17855863E-06 -0.17855863E-06  0.28226040E-06
     atom    3 type  1   force =  -0.36685919E-05 -0.36685919E-05  0.18661190E-06
     atom    4 type  1   force =  -0.42348804E-07 -0.42348804E-07 -0.52342031E-06
     atom    5 type  1   force =  -0.22615239E-06  0.11398705E-06 -0.35938190E-05
     atom    6 type  1   force =  -0.43660771E-06 -0.54021509E-06  0.92185435E-07
     atom    7 type  1   force =  -0.19177788E-06  0.37247449E-07  0.35695641E-05
     atom    8 type  1   force =   0.71503422E-06  0.53481836E-06 -0.70273559E-07
     atom    9 type  1   force =   0.11398705E-06 -0.22615239E-06 -0.35938190E-05
     atom   10 type  1   force =  -0.54021509E-06 -0.43660771E-06  0.92185435E-07
     atom   11 type  1   force =   0.37247449E-07 -0.19177788E-06  0.35695641E-05
     atom   12 type  1   force =   0.53481836E-06  0.71503422E-06 -0.70273559E-07
     atom   13 type  1   force =   0.35329446E-05  0.35329446E-05 -0.95594154E-07
     atom   14 type  1   force =  -0.18120390E-06 -0.18120390E-06  0.70506019E-06
     atom   15 type  1   force =  -0.33619857E-05 -0.33619857E-05 -0.64011009E-07
     atom   16 type  1   force =   0.14144882E-07  0.14144882E-07 -0.66377804E-06

     Total force =     0.025030     Total SCF correction =     0.000013


     entering subroutine stress ...

          total   stress  (Ry/bohr**3)                   (kbar)     P=    0.48
   0.0000031164   0.0000005708   0.0000091856          0.46      0.08      1.35
   0.0000005708   0.0000031164   0.0000091856          0.08      0.46      1.35
   0.0000091856   0.0000091856   0.0000035763          1.35      1.35      0.53

     kinetic stress (kbar)   2190.13      0.01     -0.91
                                0.01   2190.13     -0.91
                               -0.91     -0.91   2190.13

     local   stress (kbar)   -287.54     -0.05    -10.78
                               -0.05   -287.54    -10.78
                              -10.78    -10.78   -287.91

     nonloc. stress (kbar)   1939.81      0.02      1.26
                                0.02   1939.81      1.26
                                1.26      1.26   1939.85

     hartree stress (kbar)    198.73     -0.01      1.25
                               -0.01    198.73      1.25
                                1.25      1.25    198.78

     exc-cor stress (kbar)    993.76      0.00      0.02
                                0.00    993.76      0.02
                                0.02      0.02    993.76

     corecor stress (kbar)  -1988.11     -0.00     -0.15
                               -0.00  -1988.11     -0.15
                               -0.15     -0.15  -1988.11

     ewald   stress (kbar)  -3046.31      0.12     10.66
                                0.12  -3046.31     10.66
                               10.66     10.66  -3045.97

     hubbard stress (kbar)      0.00      0.00      0.00
                                0.00      0.00      0.00
                                0.00      0.00      0.00

     london  stress (kbar)      0.00      0.00      0.00
                                0.00      0.00      0.00
                                0.00      0.00      0.00

     XDM     stress (kbar)      0.00      0.00      0.00
                                0.00      0.00      0.00
                                0.00      0.00      0.00

     dft-nl  stress (kbar)      0.00      0.00      0.00
                                0.00      0.00      0.00
                                0.00      0.00      0.00



     Writing output data file Si_diamond.scf.in.super.222.x005.save

     init_run     :     12.41s CPU     12.80s WALL (       1 calls)
     electrons    :    306.02s CPU    322.43s WALL (       1 calls)
     forces       :      4.73s CPU      4.34s WALL (       1 calls)
     stress       :     17.15s CPU     16.94s WALL (       1 calls)

     Called by init_run:
     wfcinit      :     11.30s CPU     11.66s WALL (       1 calls)
     potinit      :      0.14s CPU      0.14s WALL (       1 calls)

     Called by electrons:
     c_bands      :    250.42s CPU    265.07s WALL (      12 calls)
     sum_band     :     46.43s CPU     48.00s WALL (      12 calls)
     v_of_rho     :      1.23s CPU      1.26s WALL (      12 calls)
     v_h          :      0.07s CPU      0.08s WALL (      12 calls)
     v_xc         :      1.35s CPU      1.37s WALL (      14 calls)
     newd         :      7.37s CPU      7.50s WALL (      12 calls)
     mix_rho      :      1.03s CPU      1.06s WALL (      12 calls)

     Called by c_bands:
     init_us_2    :      3.33s CPU      3.38s WALL (     648 calls)
     cegterg      :    235.97s CPU    249.96s WALL (     288 calls)

     Called by sum_band:
     sum_band:bec :      0.25s CPU      0.24s WALL (     288 calls)
     addusdens    :      7.88s CPU      8.10s WALL (      12 calls)

     Called by *egterg:
     h_psi        :    162.57s CPU    166.47s WALL (    1105 calls)
     s_psi        :     14.49s CPU     13.71s WALL (    1105 calls)
     g_psi        :      0.32s CPU      0.35s WALL (     793 calls)
     cdiaghg      :     12.23s CPU     13.66s WALL (    1057 calls)
     cegterg:over :     26.59s CPU     30.16s WALL (     793 calls)
     cegterg:upda :      5.51s CPU      7.53s WALL (     793 calls)
     cegterg:last :      2.46s CPU      2.93s WALL (     308 calls)

     Called by h_psi:
     h_psi:vloc   :    119.41s CPU    122.57s WALL (    1105 calls)
     h_psi:vnl    :     42.77s CPU     43.55s WALL (    1105 calls)
     add_vuspsi   :     14.78s CPU     14.58s WALL (    1105 calls)

     General routines
     calbec       :     40.83s CPU     41.94s WALL (    1441 calls)
     fft          :      1.62s CPU      1.64s WALL (     217 calls)
     ffts         :      0.56s CPU      0.55s WALL (     204 calls)
     fftw         :    125.62s CPU    129.15s WALL (   70166 calls)
     interpolate  :      0.30s CPU      0.30s WALL (      24 calls)

     Parallel routines
     fft_scatter  :     68.02s CPU     69.64s WALL (   70587 calls)

     PWSCF        :  5m41.35s CPU     5m57.95s WALL


   This run was terminated on:  11:56:39  28Sep2017            

=------------------------------------------------------------------------------=
   JOB DONE.
=------------------------------------------------------------------------------=
