
     Program PWSCF v.5.1 starts on 14Feb2017 at  6:15:24 

     This program is part of the open-source Quantum ESPRESSO suite
     for quantum simulation of materials; please cite
         "P. Giannozzi et al., J. Phys.:Condens. Matter 21 395502 (2009);
          URL http://www.quantum-espresso.org", 
     in publications or presentations arising from this work. More details at
     http://www.quantum-espresso.org/quote

     Parallel version (MPI), running on    16 processors
     R & G space division:  proc/nbgrp/npool/nimage =      16
     Reading input from /tmp/Si_diamond.scf.in.super.444.a.03.4700/Si_diamond.scf.in.super.444.a.03.t
Warning: card &IONS ignored
Warning: card   ION_DYNAMICS='BFGS', ignored
Warning: card / ignored
Warning: card &CELL ignored
Warning: card  CELL_DYNAMICS = 'BFGS' ignored
Warning: card / ignored
     Message from routine read_cards :
     DEPRECATED: no units specified in CELL_PARAMETERS card

     Current dimensions of program PWSCF are:
     Max number of different atomic species (ntypx) = 10
     Max number of k-points (npk) =  40000
     Max angular momentum in pseudopotentials (lmaxx) =  3

     Subspace diagonalization in iterative solution of the eigenvalue problem:
     a serial algorithm will be used


     Parallelization info
     --------------------
     sticks:   dense  smooth     PW     G-vecs:    dense   smooth      PW
     Min         726     508    134                51681    30247    4089
     Max         727     509    135                51684    30277    4090
     Sum       11629    8137   2149               826925   484169   65427



     bravais-lattice index     =            0
     lattice parameter (alat)  =    29.031211967  a.u.
     unit-cell volume          =   17301.3703 (a.u.)^3
     number of atoms/cell      =          128
     number of atomic types    =            1
     number of electrons       =       512.00
     number of Kohn-Sham states=          307
     kinetic-energy cutoff     =      35.0000  Ry
     charge density cutoff     =     200.0000  Ry
     convergence threshold     =      1.0E-09
     mixing beta               =       0.3000
     number of iterations used =            8  local-TF  mixing
     Exchange-correlation      = SLA  PW   PSX  PSC ( 1  4 10  8 0)
     A smooth kinetic-energy cutoff is imposed at      34.5000 Ry
     height of the smooth step-function =             800.0000 Ry
     width of the smooth step-function  =               1.0000 Ry


     celldm(1)=  29.031212  celldm(2)=   0.000000  celldm(3)=   0.000000
     celldm(4)=   0.000000  celldm(5)=   0.000000  celldm(6)=   0.000000

     crystal axes: (cart. coord. in units of alat)
               a(1) = (   0.000000000000   0.707106781187   0.707106781187 )  
               a(2) = (   0.707106781187  -0.000000000000   0.707106781187 )  
               a(3) = (   0.707106781187   0.707106781187   0.000000000000 )  

     reciprocal axes: (cart. coord. in units 2 pi/alat)
               b(1) = ( -0.707107  0.707107  0.707107 )  
               b(2) = (  0.707107 -0.707107  0.707107 )  
               b(3) = (  0.707107  0.707107 -0.707107 )  


     PseudoPot. # 1 for Si read from file:
     /users/kfg/psuedo/gbrv_1.5/si.pbesol.UPF
     MD5 check sum: ef58ba74faed4df802eb8a9742fc00a8
     Pseudo is Ultrasoft + core correction, Zval =  4.0
     Generated by new atomic code, or converted to UPF format
     Using radial grid of  899 points,  6 beta functions with: 
                l(1) =   0
                l(2) =   0
                l(3) =   1
                l(4) =   1
                l(5) =   2
                l(6) =   2
     Q(r) pseudized with  8 coefficients,  rinner =    0.900   0.900   0.900
                                                       0.900   0.900

     atomic species   valence    mass     pseudopotential
        Si             4.00    28.08550     Si( 1.00)

     No symmetry found


                                    s                        frac. trans.

      isym =  1     identity                                     

 cryst.   s( 1) = (     1          0          0      )
                  (     0          1          0      )
                  (     0          0          1      )

 cart.    s( 1) = (  1.0000000  0.0000000  0.0000000 )
                  (  0.0000000  1.0000000  0.0000000 )
                  (  0.0000000  0.0000000  1.0000000 )


     point group C_1 (1)    
     there are  1 classes
     the character table:

       E    
A      1.00

     the symmetry operations in each class:
     E        1

   Cartesian axes

     site n.     atom                  positions (alat units)
         1           Si  tau(   1) = (    0.00132192512   -0.00054820502    0.00051470797  )
         2           Si  tau(   2) = (    0.08619175857    0.08644875543    0.08638792282  )
         3           Si  tau(   3) = (    0.17382551662    0.17495286968    0.00335982304  )
         4           Si  tau(   4) = (    0.26856142908    0.26577315020    0.08881167077  )
         5           Si  tau(   5) = (    0.35034131154    0.35209495225    0.00181241741  )
         6           Si  tau(   6) = (    0.44292991033    0.44296402343    0.09179245649  )
         7           Si  tau(   7) = (    0.53154125236    0.52837606798   -0.00208752815  )
         8           Si  tau(   8) = (    0.61811429904    0.62184962062    0.08969311511  )
         9           Si  tau(   9) = (    0.18008071798    0.00079670228    0.17747755611  )
        10           Si  tau(  10) = (    0.26788115376    0.08803758021    0.26206040551  )
        11           Si  tau(  11) = (    0.35284683318    0.17368029555    0.17345827162  )
        12           Si  tau(  12) = (    0.44107864453    0.26625304331    0.26642231042  )
        13           Si  tau(  13) = (    0.53036704968    0.35675070856    0.18005734382  )
        14           Si  tau(  14) = (    0.62139231404    0.44116101914    0.26253087322  )
        15           Si  tau(  15) = (    0.70452013776    0.53181448812    0.17558841293  )
        16           Si  tau(  16) = (    0.79547124334    0.61654409649    0.26614450865  )
        17           Si  tau(  17) = (    0.35123866861   -0.00196110405    0.35490267727  )
        18           Si  tau(  18) = (    0.44355823458    0.08878004253    0.44401237448  )
        19           Si  tau(  19) = (    0.53116403121    0.17348881896    0.35304150102  )
        20           Si  tau(  20) = (    0.61585786092    0.26407340719    0.44204936376  )
        21           Si  tau(  21) = (    0.70434259033    0.35600562950    0.35685595363  )
        22           Si  tau(  22) = (    0.79564177203    0.44156972645    0.43936299966  )
        23           Si  tau(  23) = (    0.88155481917    0.53117753701    0.35166180929  )
        24           Si  tau(  24) = (    0.97252188594    0.61742454675    0.44509183648  )
        25           Si  tau(  25) = (    0.53053449018   -0.00068790477    0.52943814775  )
        26           Si  tau(  26) = (    0.61734344317    0.09066633410    0.61990390804  )
        27           Si  tau(  27) = (    0.71011931115    0.17861019415    0.52947851408  )
        28           Si  tau(  28) = (    0.79838515278    0.26221561022    0.62055850689  )
        29           Si  tau(  29) = (    0.88722181448    0.35584175421    0.53191969452  )
        30           Si  tau(  30) = (    0.97017348736    0.44451158490    0.61843345953  )
        31           Si  tau(  31) = (    1.05884184178    0.52942857161    0.52964025145  )
        32           Si  tau(  32) = (    1.14652229431    0.61921970666    0.62127115679  )
        33           Si  tau(  33) = (   -0.00108967873    0.17465297825    0.17420032512  )
        34           Si  tau(  34) = (    0.08512753254    0.26400762598    0.26610588999  )
        35           Si  tau(  35) = (    0.17883899892    0.35293579079    0.17675693990  )
        36           Si  tau(  36) = (    0.26343048996    0.44015252898    0.26530751631  )
        37           Si  tau(  37) = (    0.35293899369    0.53222286270    0.17953052051  )
        38           Si  tau(  38) = (    0.44437012509    0.62193543985    0.26525220369  )
        39           Si  tau(  39) = (    0.52734089732    0.70976974162    0.17691911097  )
        40           Si  tau(  40) = (    0.61896890494    0.79588228346    0.26423002587  )
        41           Si  tau(  41) = (    0.17487850382    0.18003864243    0.35238355230  )
        42           Si  tau(  42) = (    0.26325417649    0.26844931899    0.44334256527  )
        43           Si  tau(  43) = (    0.35633154485    0.35538676807    0.35668243562  )
        44           Si  tau(  44) = (    0.44435805395    0.44443471438    0.44423372309  )
        45           Si  tau(  45) = (    0.53157971065    0.52814681933    0.35013606770  )
        46           Si  tau(  46) = (    0.61790141220    0.61817847383    0.44442000934  )
        47           Si  tau(  47) = (    0.70866886875    0.70918600667    0.35196017917  )
        48           Si  tau(  48) = (    0.79857814659    0.79753030922    0.44441149029  )
        49           Si  tau(  49) = (    0.35367635432    0.17648170207    0.52934975210  )
        50           Si  tau(  50) = (    0.44448782149    0.26341711479    0.61813236457  )
        51           Si  tau(  51) = (    0.53161718427    0.35698107840    0.53346502610  )
        52           Si  tau(  52) = (    0.61725800314    0.44274465819    0.62178583315  )
        53           Si  tau(  53) = (    0.70585913678    0.53344838483    0.52718127424  )
        54           Si  tau(  54) = (    0.79853805078    0.61657262774    0.61703003155  )
        55           Si  tau(  55) = (    0.88461055731    0.70492606701    0.53067568556  )
        56           Si  tau(  56) = (    0.97524999591    0.79628224654    0.61763998491  )
        57           Si  tau(  57) = (    0.53123913143    0.17602242863    0.70786566577  )
        58           Si  tau(  58) = (    0.61540340438    0.26743222496    0.79379766107  )
        59           Si  tau(  59) = (    0.70789711762    0.35681016998    0.70873167133  )
        60           Si  tau(  60) = (    0.79266718389    0.44464116012    0.79247277980  )
        61           Si  tau(  61) = (    0.88621389594    0.52993113707    0.70975324517  )
        62           Si  tau(  62) = (    0.96944257499    0.61752405725    0.79374978639  )
        63           Si  tau(  63) = (    1.05851155379    0.70898288125    0.70962990350  )
        64           Si  tau(  64) = (    1.15057839571    0.79312661643    0.79559344229  )
        65           Si  tau(  65) = (    0.00178207713    0.35193848975    0.35214110921  )
        66           Si  tau(  66) = (    0.08533840274    0.43978285284    0.44409233790  )
        67           Si  tau(  67) = (    0.17868446575    0.53034373737    0.35571668837  )
        68           Si  tau(  68) = (    0.26689702130    0.62128097776    0.44253034231  )
        69           Si  tau(  69) = (    0.35615407269    0.70824155256    0.35171175267  )
        70           Si  tau(  70) = (    0.44033705722    0.79260388776    0.44271911175  )
        71           Si  tau(  71) = (    0.52746499148    0.88635629934    0.35652674794  )
        72           Si  tau(  72) = (    0.61856564309    0.97250292868    0.44003862860  )
        73           Si  tau(  73) = (    0.17708951459    0.35528230873    0.52798255966  )
        74           Si  tau(  74) = (    0.26199534372    0.43906719930    0.62017772129  )
        75           Si  tau(  75) = (    0.35652728874    0.52728897033    0.53161241663  )
        76           Si  tau(  76) = (    0.44348159645    0.62144596156    0.62040847187  )
        77           Si  tau(  77) = (    0.53087080669    0.70651777489    0.52940154767  )
        78           Si  tau(  78) = (    0.61729669457    0.79260675832    0.62087277305  )
        79           Si  tau(  79) = (    0.70640843729    0.88493695439    0.52808679840  )
        80           Si  tau(  80) = (    0.79259533028    0.97093268879    0.62083474223  )
        81           Si  tau(  81) = (    0.35630514975    0.35309981220    0.70747578437  )
        82           Si  tau(  82) = (    0.44536285398    0.44067731901    0.79775599580  )
        83           Si  tau(  83) = (    0.52897751036    0.53340478305    0.71023202257  )
        84           Si  tau(  84) = (    0.61754161656    0.62076276612    0.79648890125  )
        85           Si  tau(  85) = (    0.70869099422    0.70524358012    0.70366344555  )
        86           Si  tau(  86) = (    0.79273241281    0.79794755924    0.79822146286  )
        87           Si  tau(  87) = (    0.88564314073    0.88610583519    0.70859770466  )
        88           Si  tau(  88) = (    0.97169681324    0.97294892320    0.79635077892  )
        89           Si  tau(  89) = (    0.53094999483    0.35350190283    0.88050361639  )
        90           Si  tau(  90) = (    0.61564360200    0.43952678612    0.97163719402  )
        91           Si  tau(  91) = (    0.70867308552    0.52978541122    0.88430521123  )
        92           Si  tau(  92) = (    0.79819072179    0.61931392058    0.97348844506  )
        93           Si  tau(  93) = (    0.88083061023    0.71039103603    0.88692399193  )
        94           Si  tau(  94) = (    0.97359054541    0.79676461929    0.97275398163  )
        95           Si  tau(  95) = (    1.05771840305    0.88439456741    0.88222980546  )
        96           Si  tau(  96) = (    1.14848643435    0.97557917062    0.96951068449  )
        97           Si  tau(  97) = (   -0.00163425697    0.52799742311    0.53281621690  )
        98           Si  tau(  98) = (    0.09031824649    0.62120394308    0.62015145287  )
        99           Si  tau(  99) = (    0.17623620657    0.70895915631    0.53049457345  )
       100           Si  tau( 100) = (    0.26181881743    0.79441885341    0.61543537348  )
       101           Si  tau( 101) = (    0.35274883611    0.88505901004    0.53153806555  )
       102           Si  tau( 102) = (    0.44013760131    0.97319447417    0.61675386984  )
       103           Si  tau( 103) = (    0.53272144951    1.06267095751    0.52867498473  )
       104           Si  tau( 104) = (    0.61629029675    1.15100549707    0.61817443543  )
       105           Si  tau( 105) = (    0.17685151562    0.53164736719    0.70486994591  )
       106           Si  tau( 106) = (    0.26322346696    0.61597735269    0.79585725082  )
       107           Si  tau( 107) = (    0.35627172463    0.71013913364    0.70555307756  )
       108           Si  tau( 108) = (    0.43898230132    0.79887594875    0.79795308863  )
       109           Si  tau( 109) = (    0.52929567119    0.88644264859    0.70725139880  )
       110           Si  tau( 110) = (    0.61787090136    0.96966347219    0.79222286197  )
       111           Si  tau( 111) = (    0.70917921147    1.05905312707    0.70997497487  )
       112           Si  tau( 112) = (    0.79788042293    1.14650283080    0.79854590370  )
       113           Si  tau( 113) = (    0.35608239769    0.53079442634    0.88122388451  )
       114           Si  tau( 114) = (    0.44232403559    0.61798123951    0.97234022028  )
       115           Si  tau( 115) = (    0.52937175348    0.70955671463    0.88149037412  )
       116           Si  tau( 116) = (    0.61633881023    0.79551355892    0.97468475864  )
       117           Si  tau( 117) = (    0.70552488521    0.88691818317    0.88487574153  )
       118           Si  tau( 118) = (    0.79649661986    0.96959690579    0.97040692423  )
       119           Si  tau( 119) = (    0.88124274838    1.06055772682    0.88503738239  )
       120           Si  tau( 120) = (    0.97385414380    1.14859767113    0.97018568423  )
       121           Si  tau( 121) = (    0.52934753641    0.53247918692    1.06055119390  )
       122           Si  tau( 122) = (    0.61646113560    0.61864629459    1.15218156599  )
       123           Si  tau( 123) = (    0.70874082599    0.70942653294    1.05819334234  )
       124           Si  tau( 124) = (    0.79854821954    0.79484218475    1.15173662364  )
       125           Si  tau( 125) = (    0.88387666535    0.88067887421    1.06311820497  )
       126           Si  tau( 126) = (    0.97484354937    0.97269371729    1.14841635039  )
       127           Si  tau( 127) = (    1.05760642234    1.05731571277    1.06048583304  )
       128           Si  tau( 128) = (    1.15158136756    1.14734234345    1.15063715247  )

   Crystallographic axes

     site n.     atom                  positions (cryst. coord.)
         1           Si  tau(   1) = (   -0.00095842820    0.00168633520    0.00018314923  )
         2           Si  tau(   2) = (    0.06126721026    0.06090376181    0.06098979213  )
         3           Si  tau(   3) = (    0.00317291265    0.00157859466    0.24424780843  )
         4           Si  tau(   4) = (    0.06082772375    0.06477094555    0.31503226978  )
         5           Si  tau(   5) = (    0.00252158388    0.00004156141    0.49541587284  )
         6           Si  tau(   6) = (    0.06493119005    0.06488294684    0.56151453953  )
         7           Si  tau(   7) = (   -0.00371422865    0.00076201803    0.75095083002  )
         8           Si  tau(   8) = (    0.06606388113    0.06078133870    0.81336428610  )
         9           Si  tau(   9) = (   -0.00127735982    0.25226852669    0.00240406699  )
        10           Si  tau(  10) = (    0.05813607941    0.31247330023    0.06636786052  )
        11           Si  tau(  11) = (   -0.00403635360    0.24934339384    0.24965738309  )
        12           Si  tau(  12) = (    0.06476865421    0.31200939051    0.31177001066  )
        13           Si  tau(  13) = (    0.00455447668    0.25008506095    0.49996721375  )
        14           Si  tau(  14) = (    0.05819458992    0.31308013153    0.56570130654  )
        15           Si  tau(  15) = (    0.00203842147    0.24628109349    0.75006084030  )
        16           Si  tau(  16) = (    0.06167198797    0.31471318572    0.81025303508  )
        17           Si  tau(  17) = (    0.00120413540    0.50070404412   -0.00397755534  )
        18           Si  tau(  18) = (    0.06309809551    0.56483022634    0.06245584470  )
        19           Si  tau(  19) = (   -0.00327652864    0.50255260746    0.24862676933  )
        20           Si  tau(  20) = (    0.06382692999    0.56132527548    0.30962926392  )
        21           Si  tau(  21) = (    0.00602383757    0.49864669186    0.49744415195  )
        22           Si  tau(  22) = (    0.06030981201    0.56104330092    0.56416408387  )
        23           Si  tau(  23) = (    0.00090829784    0.49641660222    0.75029017903  )
        24           Si  tau(  24) = (    0.06363571931    0.56581919235    0.80953444845  )
        25           Si  tau(  25) = (   -0.00126165330    0.75000026228    0.00028880904  )
        26           Si  tau(  26) = (    0.06592130174    0.81075521238    0.06230025759  )
        27           Si  tau(  27) = (   -0.00143585310    0.75023154870    0.25402881204  )
        28           Si  tau(  28) = (    0.05967200894    0.81793024775    0.31115686331  )
        29           Si  tau(  29) = (    0.00038157904    0.75186646704    0.50285465582  )
        30           Si  tau(  30) = (    0.06559939711    0.80899758878    0.56303491489  )
        31           Si  tau(  31) = (    0.00016050000    0.74886392677    0.74856456628  )
        32           Si  tau(  32) = (    0.06644581246    0.81216428338    0.80926309479  )
        33           Si  tau(  33) = (    0.24744705567   -0.00109059332   -0.00045044512  )
        34           Si  tau(  34) = (    0.31465260641    0.06167795223    0.05871055881  )
        35           Si  tau(  35) = (    0.24809105294    0.00188100871    0.25103552904  )
        36           Si  tau(  36) = (    0.31256209606    0.06263939170    0.30990757994  )
        37           Si  tau(  37) = (    0.25372008802    0.00017440895    0.49895670262  )
        38           Si  tau(  38) = (    0.31311927012    0.06200399379    0.56643026383  )
        39           Si  tau(  39) = (    0.25409737598   -0.00389596980    0.74966861878  )
        40           Si  tau(  40) = (    0.31193549271    0.06174219346    0.81361202660  )
        41           Si  tau(  41) = (    0.25282156841    0.24552403041    0.00179152147  )
        42           Si  tau(  42) = (    0.31716405478    0.30981701380    0.06248061294  )
        43           Si  tau(  43) = (    0.25154451089    0.25288062703    0.25104827641  )
        44           Si  tau(  44) = (    0.31417488514    0.31406647092    0.31435071552  )
        45           Si  tau(  45) = (    0.24515616707    0.25001100855    0.50175622774  )
        46           Si  tau(  46) = (    0.31444831446    0.31405649013    0.55978806720  )
        47           Si  tau(  47) = (    0.24923910112    0.24850775767    0.75370136775  )
        48           Si  tau(  48) = (    0.31350544551    0.31498731133    0.81437273418  )
        49           Si  tau(  49) = (    0.24901125914    0.49960233952    0.00057155744  )
        50           Si  tau(  50) = (    0.30904926208    0.56512191124    0.06347879422  )
        51           Si  tau(  51) = (    0.25373036279    0.50070311218    0.25111711980  )
        52           Si  tau(  52) = (    0.31626940944    0.56306854869    0.30986609084  )
        53           Si  tau(  53) = (    0.25086064208    0.49468626578    0.50354929858  )
        54           Si  tau(  54) = (    0.30763713492    0.56497510408    0.56432823741  )
        55           Si  tau(  55) = (    0.24818825431    0.50230049744    0.74872775013  )
        56           Si  tau(  56) = (    0.31018811247    0.56328673085    0.81592504007  )
        57           Si  tau(  57) = (    0.24936047310    0.75171275178   -0.00042716724  )
        58           Si  tau(  58) = (    0.31524692840    0.80735248966    0.06295935115  )
        59           Si  tau(  59) = (    0.25289300938    0.74940493230    0.25171277221  )
        60           Si  tau(  60) = (    0.31427131506    0.80645443795    0.31454624396  )
        61           Si  tau(  61) = (    0.24994137781    0.75380128745    0.49949442335  )
        62           Si  tau(  62) = (    0.31242188621    0.81010982684    0.56088901065  )
        63           Si  tau(  63) = (    0.25463002232    0.74893821147    0.74802318383  )
        64           Si  tau(  64) = (    0.30981294103    0.81532609519    0.81183747660  )
        65           Si  tau(  65) = (    0.49659934009    0.00140339242    0.00111684523  )
        66           Si  tau(  66) = (    0.56465077782    0.06339062939    0.05729609716  )
        67           Si  tau(  67) = (    0.50019033816    0.00286902690    0.24982896795  )
        68           Si  tau(  68) = (    0.56350350469    0.06232890717    0.31512048011  )
        69           Si  tau(  69) = (    0.49766120992   -0.00026567925    0.50394359914  )
        70           Si  tau(  70) = (    0.56213995074    0.06395942142    0.55877121691  )
        71           Si  tau(  71) = (    0.50587695864   -0.00167199636    0.74762014098  )
        72           Si  tau(  72) = (    0.56142575302    0.06088284351    0.81390107817  )
        73           Si  tau(  73) = (    0.49934138138    0.24733871519    0.00310367810  )
        74           Si  tau(  74) = (    0.56374058211    0.31332316243    0.05719420594  )
        75           Si  tau(  75) = (    0.49665348778    0.25516000174    0.24904572535  )
        76           Si  tau(  76) = (    0.56453484694    0.31285522819    0.31432246018  )
        77           Si  tau(  77) = (    0.49854458664    0.25014226202    0.50062243267  )
        78           Si  tau(  78) = (    0.56298628296    0.31506041319    0.55792894429  )
        79           Si  tau(  79) = (    0.49965248128    0.24717503113    0.75183736147  )
        80           Si  tau(  80) = (    0.56510001177    0.31289290069    0.80800616487  )
        81           Si  tau(  81) = (    0.49799440874    0.50252744057    0.00136413455  )
        82           Si  tau(  82) = (    0.56078550081    0.56741184791    0.06242634037  )
        83           Si  tau(  83) = (    0.50534043391    0.49907932484    0.24900784450  )
        84           Si  tau(  84) = (    0.56548039991    0.56092500652    0.31241072295  )
        85           Si  tau(  85) = (    0.49512750413    0.50000288391    0.50223753165  )
        86           Si  tau(  86) = (    0.56811547468    0.56074014387    0.56035278566  )
        87           Si  tau(  87) = (    0.50138141649    0.50072706771    0.75176147333  )
        88           Si  tau(  88) = (    0.56399041143    0.56221966054    0.81196715126  )
        89           Si  tau(  89) = (    0.49713532884    0.74808482717    0.00279185646  )
        90           Si  tau(  90) = (    0.56251785396    0.81158464354    0.05906688801  )
        91           Si  tau(  91) = (    0.49880552393    0.75179089907    0.25042418977  )
        92           Si  tau(  92) = (    0.56187528177    0.81484528004    0.31396686407  )
        93           Si  tau(  93) = (    0.50663099039    0.74766894780    0.49801364735  )
        94           Si  tau(  94) = (    0.56280612539    0.81287574829    0.56398920523  )
        95           Si  tau(  95) = (    0.50127221849    0.74638913753    0.74945057323  )
        96           Si  tau(  96) = (    0.56328368074    0.80781147814    0.81639361352  )
        97           Si  tau(  97) = (    0.75126411261    0.00225180758   -0.00456299595  )
        98           Si  tau(  98) = (    0.81390617378    0.06312042159    0.06460886752  )
        99           Si  tau(  99) = (    0.75180832052   -0.00157569999    0.25081133349  )
       100           Si  tau( 100) = (    0.81178362307    0.05857342887    0.31169429363  )
       101           Si  tau( 101) = (    0.75225430429   -0.00054596307    0.49940815121  )
       102           Si  tau( 102) = (    0.81303897324    0.05918271413    0.56326585096  )
       103           Si  tau( 103) = (    0.74856055754   -0.00090122405    0.75428312291  )
       104           Si  tau( 104) = (    0.81521607940    0.05901459109    0.81255150493  )
       105           Si  tau( 105) = (    0.74929687119    0.24753976603    0.00256604589  )
       106           Si  tau( 106) = (    0.81219072361    0.31332139422    0.05893280269  )
       107           Si  tau( 107) = (    0.74912341018    0.24867932108    0.25516498378  )
       108           Si  tau( 108) = (    0.81872127865    0.30975480144    0.31105992273  )
       109           Si  tau( 109) = (    0.75264330970    0.24756121050    0.50097590621  )
       110           Si  tau( 110) = (    0.80894107031    0.31143124550    0.56237016299  )
       111           Si  tau( 111) = (    0.74942633749    0.25462990091    0.74830095809  )
       112           Si  tau( 112) = (    0.81117049227    0.31814395492    0.81022936035  )
       113           Si  tau( 113) = (    0.74665944469    0.49957932426    0.00399723187  )
       114           Si  tau( 114) = (    0.81175676343    0.56333996333    0.06220068677  )
       115           Si  tau( 115) = (    0.75071782898    0.49589781319    0.25274690011  )
       116           Si  tau( 116) = (    0.81590188217    0.56251052254    0.30912418191  )
       117           Si  tau( 117) = (    0.75396606840    0.49743720630    0.50032565496  )
       118           Si  tau( 118) = (    0.80858170264    0.56378093063    0.56263539156  )
       119           Si  tau( 119) = (    0.75261077192    0.49902109747    0.74724434903  )
       120           Si  tau( 120) = (    0.80958720947    0.56246254318    0.81477519475  )
       121           Si  tau( 121) = (    0.75213735231    0.74770852970    0.00090193551  )
       122           Si  tau( 122) = (    0.81626053921    0.81317025772    0.05863744091  )
       123           Si  tau( 123) = (    0.74874055621    0.74777082014    0.25454006818  )
       124           Si  tau( 124) = (    0.81178021438    0.81702133905    0.31229638324  )
       125           Si  tau( 125) = (    0.74947691214    0.75399927174    0.49599109587  )
       126           Si  tau( 126) = (    0.81053282815    0.81357314982    0.56506381888  )
       127           Si  tau( 127) = (    0.74967116119    0.75008228660    0.74559905953  )
       128           Si  tau( 128) = (    0.81062589050    0.81662077589    0.81196121229  )

     number of k points=     8  gaussian smearing, width (Ry)=  0.0150
                       cart. coord. in units 2pi/alat
        k(    1) = (   0.0000000   0.0000000   0.0000000), wk =   0.2500000
        k(    2) = (  -0.3535534  -0.3535534   0.3535534), wk =   0.2500000
        k(    3) = (  -0.7071068   0.0000000   0.0000000), wk =   0.2500000
        k(    4) = (   0.3535534   0.3535534   0.3535534), wk =   0.2500000
        k(    5) = (   0.3535534  -0.3535534  -0.3535534), wk =   0.2500000
        k(    6) = (  -0.3535534   0.3535534  -0.3535534), wk =   0.2500000
        k(    7) = (   0.0000000  -0.7071068   0.0000000), wk =   0.2500000
        k(    8) = (   0.0000000   0.0000000  -0.7071068), wk =   0.2500000

                       cryst. coord.
        k(    1) = (   0.0000000   0.0000000   0.0000000), wk =   0.2500000
        k(    2) = (   0.0000000   0.0000000  -0.5000000), wk =   0.2500000
        k(    3) = (   0.0000000  -0.5000000  -0.5000000), wk =   0.2500000
        k(    4) = (   0.5000000   0.5000000   0.5000000), wk =   0.2500000
        k(    5) = (  -0.5000000   0.0000000   0.0000000), wk =   0.2500000
        k(    6) = (   0.0000000  -0.5000000   0.0000000), wk =   0.2500000
        k(    7) = (  -0.5000000   0.0000000  -0.5000000), wk =   0.2500000
        k(    8) = (  -0.5000000  -0.5000000   0.0000000), wk =   0.2500000

     Dense  grid:   826925 G-vectors     FFT dimensions: ( 135, 135, 135)

     Smooth grid:   484169 G-vectors     FFT dimensions: ( 120, 120, 120)

     Largest allocated arrays     est. size (Mb)     dimensions
        Kohn-Sham Wavefunctions        17.73 Mb     (    3784,  307)
        NL pseudopotentials           133.03 Mb     (    3784, 2304)
        Each V/rho on FFT grid          2.50 Mb     (  164025)
        Each G-vector array             0.39 Mb     (   51681)
        G-vector shells                 0.02 Mb     (    2817)
     Largest temporary arrays     est. size (Mb)     dimensions
        Auxiliary wavefunctions        70.90 Mb     (    3784, 1228)
        Each subspace H/S matrix       23.01 Mb     (    1228, 1228)
        Each <psi_i|beta_j> matrix     10.79 Mb     (    2304,  307)
        Arrays for rho mixing          20.02 Mb     (  164025,    8)

     Initial potential from superposition of free atoms

     starting charge  511.91704, renormalised to  512.00000
     Starting wfc are  512 randomized atomic wfcs

     total cpu time spent up to now is      453.0 secs

     Self-consistent Calculation

     iteration #  1     ecut=    35.00 Ry     beta=0.30
     Davidson diagonalization with overlap
     ethr =  1.00E-02,  avg # of iterations =  3.9

     Threshold (ethr) on eigenvalues was too large:
     Diagonalizing with lowered threshold

     Davidson diagonalization with overlap
     ethr =  6.95E-04,  avg # of iterations =  4.3

     total cpu time spent up to now is     2394.2 secs

     total energy              =   -1224.04812093 Ry
     Harris-Foulkes estimate   =   -1224.42172703 Ry
     estimated scf accuracy    <       3.50814088 Ry

     iteration #  2     ecut=    35.00 Ry     beta=0.30
     Davidson diagonalization with overlap
     ethr =  6.85E-04,  avg # of iterations =  2.4

     total cpu time spent up to now is     3138.4 secs

     total energy              =   -1223.30726269 Ry
     Harris-Foulkes estimate   =   -1224.06470480 Ry
     estimated scf accuracy    <       2.18081250 Ry

     iteration #  3     ecut=    35.00 Ry     beta=0.30
     Davidson diagonalization with overlap
     ethr =  4.26E-04,  avg # of iterations =  7.3

     total cpu time spent up to now is     4087.2 secs

     total energy              =   -1223.45079425 Ry
     Harris-Foulkes estimate   =   -1223.44627271 Ry
     estimated scf accuracy    <       0.02608451 Ry

     iteration #  4     ecut=    35.00 Ry     beta=0.30
     Davidson diagonalization with overlap
     c_bands:  1 eigenvalues not converged
     ethr =  5.09E-06,  avg # of iterations = 15.8

     total cpu time spent up to now is     6073.6 secs

     total energy              =   -1223.46813640 Ry
     Harris-Foulkes estimate   =   -1223.46664021 Ry
     estimated scf accuracy    <       0.01037871 Ry

     iteration #  5     ecut=    35.00 Ry     beta=0.30
     Davidson diagonalization with overlap
     c_bands:  1 eigenvalues not converged
     ethr =  2.03E-06,  avg # of iterations =  5.3

     total cpu time spent up to now is     6861.2 secs

     total energy              =   -1223.46876138 Ry
     Harris-Foulkes estimate   =   -1223.46870169 Ry
     estimated scf accuracy    <       0.00050951 Ry

     iteration #  6     ecut=    35.00 Ry     beta=0.30
     Davidson diagonalization with overlap
     ethr =  9.95E-08,  avg # of iterations =  5.0

     total cpu time spent up to now is     7953.4 secs

     total energy              =   -1223.46887270 Ry
     Harris-Foulkes estimate   =   -1223.46888829 Ry
     estimated scf accuracy    <       0.00013239 Ry

     iteration #  7     ecut=    35.00 Ry     beta=0.30
     Davidson diagonalization with overlap
     ethr =  2.59E-08,  avg # of iterations =  2.0

     total cpu time spent up to now is     8818.3 secs

     total energy              =   -1223.46888912 Ry
     Harris-Foulkes estimate   =   -1223.46888729 Ry
     estimated scf accuracy    <       0.00004589 Ry

     iteration #  8     ecut=    35.00 Ry     beta=0.30
     Davidson diagonalization with overlap
     ethr =  8.96E-09,  avg # of iterations =  1.6

     total cpu time spent up to now is     9627.7 secs

     total energy              =   -1223.46888517 Ry
     Harris-Foulkes estimate   =   -1223.46889136 Ry
     estimated scf accuracy    <       0.00002661 Ry

     iteration #  9     ecut=    35.00 Ry     beta=0.30
     Davidson diagonalization with overlap
     ethr =  5.20E-09,  avg # of iterations =  2.0

     total cpu time spent up to now is    10549.1 secs

     total energy              =   -1223.46888703 Ry
     Harris-Foulkes estimate   =   -1223.46888745 Ry
     estimated scf accuracy    <       0.00000258 Ry

     iteration # 10     ecut=    35.00 Ry     beta=0.30
     Davidson diagonalization with overlap
     ethr =  5.03E-10,  avg # of iterations =  2.1

     total cpu time spent up to now is    11391.3 secs

     total energy              =   -1223.46888717 Ry
     Harris-Foulkes estimate   =   -1223.46888726 Ry
     estimated scf accuracy    <       0.00000064 Ry

     iteration # 11     ecut=    35.00 Ry     beta=0.30
     Davidson diagonalization with overlap
     ethr =  1.26E-10,  avg # of iterations =  2.8

     total cpu time spent up to now is    12341.2 secs

     total energy              =   -1223.46888723 Ry
     Harris-Foulkes estimate   =   -1223.46888727 Ry
     estimated scf accuracy    <       0.00000021 Ry

     iteration # 12     ecut=    35.00 Ry     beta=0.30
     Davidson diagonalization with overlap
     ethr =  4.13E-11,  avg # of iterations =  2.8

     total cpu time spent up to now is    13224.2 secs

     total energy              =   -1223.46888726 Ry
     Harris-Foulkes estimate   =   -1223.46888725 Ry
     estimated scf accuracy    <          8.1E-09 Ry

     iteration # 13     ecut=    35.00 Ry     beta=0.30
     Davidson diagonalization with overlap
     ethr =  1.59E-12,  avg # of iterations =  3.0

     total cpu time spent up to now is    14250.1 secs

     total energy              =   -1223.46888727 Ry
     Harris-Foulkes estimate   =   -1223.46888726 Ry
     estimated scf accuracy    <          3.8E-09 Ry

     iteration # 14     ecut=    35.00 Ry     beta=0.30
     Davidson diagonalization with overlap
     ethr =  7.42E-13,  avg # of iterations =  2.1

     total cpu time spent up to now is    15115.0 secs

     End of self-consistent calculation

          k = 0.0000 0.0000 0.0000 ( 60495 PWs)   bands (ev):

    -5.8564  -5.1118  -5.0968  -5.0747  -5.0586  -5.0564  -5.0498  -5.0265
    -5.0047  -4.8185  -4.7903  -4.7825  -4.7566  -4.7332  -4.7256  -3.9286
    -3.8764  -3.8640  -3.8299  -3.8184  -3.8099  -3.7958  -3.7892  -3.7710
    -3.7632  -3.7437  -3.7247  -3.5711  -3.5174  -3.4914  -3.4766  -3.2338
    -3.2292  -3.2163  -3.2024  -3.1799  -3.1689  -3.1575  -3.1547  -3.1415
    -3.1321  -3.1246  -3.1147  -3.1050  -3.0951  -3.0897  -3.0860  -3.0806
    -3.0697  -3.0648  -3.0485  -3.0333  -3.0146  -3.0124  -2.9921  -1.7647
    -1.7258  -1.7060  -1.6929  -1.6875  -1.6530  -1.5976  -1.5752  -1.5648
    -1.5518  -1.5353  -1.5191  -1.5088  -1.4961  -1.4875  -1.4765  -1.4509
    -1.4268  -0.9108  -0.8952  -0.8690  -0.8210  -0.3798  -0.3652  -0.3518
    -0.3338  -0.3212  -0.3158  -0.3084  -0.3018  -0.2933  -0.2787  -0.2769
    -0.2680  -0.2558  -0.2527  -0.2454  -0.2293  -0.2186  -0.2068  -0.2064
    -0.1899  -0.1847  -0.1602  -0.1334  -0.1131   0.5682   0.5934   0.5948
     0.6247   0.6421   0.6461   0.6645   0.6746   0.6901   0.6963   0.7091
     0.7207   2.0913   2.1048   2.1158   2.1337   2.1369   2.1477   2.1625
     2.1815   2.1929   2.1998   2.2109   2.2131   2.2200   2.2231   2.2361
     2.2411   2.2535   2.2592   2.2622   2.2815   2.2978   2.2987   2.3016
     2.3053   2.3264   2.3304   2.3444   2.3539   2.3721   2.3817   2.3866
     2.4047   2.4731   2.4823   2.4998   2.5072   2.5152   2.5256   2.5340
     2.5380   2.5440   2.5510   2.5552   2.5600   2.5645   2.5690   2.5786
     2.5864   2.5909   2.5987   2.6097   2.6176   2.6215   2.6267   2.6394
     2.6417   2.6573   2.6665   2.6811   2.7030   2.7090   2.7465   3.2427
     3.2578   3.2671   3.2776   3.2877   3.2931   3.8283   3.8452   3.8456
     3.8542   3.8626   3.8694   3.8765   3.8805   3.8900   3.8946   3.9090
     3.9115   3.9155   3.9206   3.9299   3.9371   3.9394   3.9453   3.9508
     3.9703   3.9779   3.9835   3.9965   4.0291   4.1717   4.1858   4.2115
     4.2161   4.2303   4.2422   4.2570   4.2657   4.2701   4.2843   4.2904
     4.3205   4.7220   4.7406   4.7533   4.7713   4.7856   4.8020   4.8102
     4.8174   4.8341   4.8493   4.8553   4.8744   4.8812   4.8951   4.9240
     4.9651   4.9792   4.9850   4.9919   5.0310   5.2881   5.3055   5.3315
     5.3404   5.3516   5.3706   5.3809   5.3897   5.4029   5.4094   5.4199
     5.4388   5.4546   5.4568   5.5018   5.5269   6.1236   6.1563   6.2204
     6.6770   6.6934   6.7108   6.7367   6.7593   6.7785   7.1205   7.1365
     7.1546   7.1684   7.1694   7.2038   7.4484   7.4714   7.4769   7.4803
     7.4894   7.4961   7.5007   7.5158   7.5245   7.5286   7.5357   7.5430
     7.5467   7.5587   7.5606   7.5702   7.5717   7.5771   7.5841   7.5917
     7.6077   7.6187   7.6227   7.6269   7.6368   7.6618   7.6683   7.6870
     8.0593   8.0670   8.0747   8.0847   8.0961   8.1100   8.1144   8.1298
     8.4406   8.4440   8.4596

     occupation numbers 
     1.0000   1.0000   1.0000   1.0000   1.0000   1.0000   1.0000   1.0000
     1.0000   1.0000   1.0000   1.0000   1.0000   1.0000   1.0000   1.0000
     1.0000   1.0000   1.0000   1.0000   1.0000   1.0000   1.0000   1.0000
     1.0000   1.0000   1.0000   1.0000   1.0000   1.0000   1.0000   1.0000
     1.0000   1.0000   1.0000   1.0000   1.0000   1.0000   1.0000   1.0000
     1.0000   1.0000   1.0000   1.0000   1.0000   1.0000   1.0000   1.0000
     1.0000   1.0000   1.0000   1.0000   1.0000   1.0000   1.0000   1.0000
     1.0000   1.0000   1.0000   1.0000   1.0000   1.0000   1.0000   1.0000
     1.0000   1.0000   1.0000   1.0000   1.0000   1.0000   1.0000   1.0000
     1.0000   1.0000   1.0000   1.0000   1.0000   1.0000   1.0000   1.0000
     1.0000   1.0000   1.0000   1.0000   1.0000   1.0000   1.0000   1.0000
     1.0000   1.0000   1.0000   1.0000   1.0000   1.0000   1.0000   1.0000
     1.0000   1.0000   1.0000   1.0000   1.0000   1.0000   1.0000   1.0000
     1.0000   1.0000   1.0000   1.0000   1.0000   1.0000   1.0000   1.0000
     1.0000   1.0000   1.0000   1.0000   1.0000   1.0000   1.0000   1.0000
     1.0000   1.0000   1.0000   1.0000   1.0000   1.0000   1.0000   1.0000
     1.0000   1.0000   1.0000   1.0000   1.0000   1.0000   1.0000   1.0000
     1.0000   1.0000   1.0000   1.0000   1.0000   1.0000   1.0000   1.0000
     1.0000   1.0000   1.0000   1.0000   1.0000   1.0000   1.0000   1.0000
     1.0000   1.0000   1.0000   1.0000   1.0000   1.0000   1.0000   1.0000
     1.0000   1.0000   1.0000   1.0000   1.0000   1.0000   1.0000   1.0000
     1.0000   1.0000   1.0000   1.0000   1.0000   1.0000   1.0000   1.0000
     1.0000   1.0000   1.0000   1.0000   1.0000   1.0000   1.0000   1.0000
     1.0000   1.0000   1.0000   1.0000   1.0000   1.0000   1.0000   1.0000
     1.0000   1.0000   1.0000   1.0000   1.0000   1.0000   1.0000   1.0000
     1.0000   1.0000   1.0000   1.0000   1.0000   1.0000   1.0000   1.0000
     1.0000   1.0000   1.0000   1.0000   1.0000   1.0000   1.0000   1.0000
     1.0000   1.0000   1.0000   1.0000   1.0000   1.0000   1.0000   1.0000
     1.0000   1.0000   1.0000   1.0000   1.0000   1.0000   1.0000   1.0000
     1.0000   1.0000   1.0000   1.0000   1.0000   1.0000   1.0000   1.0000
     1.0000   1.0000   1.0000   1.0000   1.0000   1.0000   1.0000   1.0000
     1.0000   1.0000   1.0000   1.0000   1.0000   0.9596   0.9357   0.8589
     0.0184   0.0138   0.0101   0.0062   0.0039   0.0026   0.0000   0.0000
     0.0000   0.0000   0.0000   0.0000   0.0000   0.0000   0.0000   0.0000
     0.0000   0.0000   0.0000   0.0000   0.0000   0.0000   0.0000   0.0000
     0.0000   0.0000   0.0000   0.0000   0.0000   0.0000   0.0000   0.0000
     0.0000   0.0000   0.0000   0.0000   0.0000   0.0000   0.0000   0.0000
     0.0000   0.0000   0.0000   0.0000   0.0000   0.0000   0.0000   0.0000
     0.0000   0.0000   0.0000

          k =-0.3536-0.3536 0.3536 ( 60452 PWs)   bands (ev):

    -5.6616  -5.6450  -5.1667  -5.1419  -5.1244  -5.1012  -5.0882  -5.0666
    -4.6741  -4.6326  -4.6076  -4.5884  -4.5828  -4.5461  -4.1994  -4.1459
    -4.1199  -4.0935  -4.0678  -4.0507  -4.0449  -4.0184  -3.7051  -3.6895
    -3.6776  -3.6605  -3.6453  -3.6316  -3.6223  -3.6044  -3.5912  -3.5685
    -3.5605  -3.5454  -3.4500  -3.4296  -3.4220  -3.3835  -3.3653  -3.3603
    -2.9700  -2.9507  -2.9438  -2.9156  -2.9026  -2.8839  -2.6189  -2.5852
    -2.5565  -2.5310  -2.5285  -2.4815  -2.4478  -2.4332  -2.4095  -2.3951
    -2.3655  -2.3640  -2.3527  -2.3284  -2.3004  -2.2945  -2.2795  -2.2620
    -0.9169  -0.9012  -0.8919  -0.8733  -0.8466  -0.8369  -0.8192  -0.8134
    -0.8007  -0.7959  -0.7786  -0.7557  -0.7430  -0.7298  -0.7210  -0.6997
    -0.6881  -0.6603  -0.6548  -0.6427  -0.6346  -0.6135  -0.6000  -0.5682
    -0.5581  -0.5268  -0.5069  -0.4540  -0.4128  -0.3640   0.1446   0.1813
     0.1892   0.2099   0.2325   0.2475   0.2551   0.2620   0.2848   0.2917
     0.3123   0.3351   0.3421   0.3799   1.1362   1.1564   1.2053   1.2274
     1.2414   1.2663   1.4463   1.4538   1.4791   1.5058   1.5272   1.5363
     1.9698   1.9734   1.9782   1.9998   2.0006   2.0189   2.0220   2.0262
     2.0392   2.0500   2.0618   2.0676   2.0814   2.0898   2.0948   2.1071
     2.1347   2.1454   2.6264   2.6435   2.6539   2.6747   2.6906   2.6983
     2.7121   2.7160   2.7330   2.7433   2.7512   2.7576   2.7685   2.7805
     2.7841   2.8026   2.8054   2.8161   2.8444   2.8673   2.8900   2.8997
     2.9179   2.9353   3.0945   3.0995   3.1140   3.1271   3.1363   3.1387
     3.1511   3.1633   3.1708   3.1804   3.1821   3.2061   3.3685   3.3896
     3.3959   3.4046   3.4197   3.4268   3.4393   3.4473   3.4530   3.4619
     3.4746   3.4949   3.7319   3.7562   3.7805   3.7940   3.8057   3.8259
     3.8295   3.8475   3.8676   3.8774   3.8896   3.8978   3.9069   3.9148
     3.9231   3.9355   3.9554   3.9608   4.1239   4.1421   4.1642   4.1680
     4.1759   4.1950   4.2068   4.2172   4.2286   4.2386   4.2466   4.2534
     4.2566   4.2727   4.2791   4.2913   4.2966   4.3129   4.4893   4.5151
     4.5462   4.5586   4.5726   4.5922   4.6092   4.6210   4.7541   4.7759
     4.8006   4.8115   4.8157   4.8406   4.8731   4.9071   4.9131   4.9657
     4.9958   5.0202   5.0383   5.0459   5.0619   5.1083   5.2938   5.3161
     5.3617   5.3830   5.4088   5.4275   5.7842   5.8371   5.8506   5.9323
     6.8485   6.8680   6.8982   6.9201   6.9293   6.9512   7.3118   7.3410
     7.3829   7.3999   7.4034   7.4318   7.6878   7.7203   7.8156   7.8285
     7.8513   7.8638   7.8796   7.9090   7.9656   7.9850   7.9988   8.0069
     8.0231   8.0413   8.1515   8.1753   8.1826   8.1862   8.2056   8.2144
     8.2221   8.2333   8.2503   8.2707   8.2872   8.2997   8.3764   8.3919
     8.4020   8.4106   8.4291   8.4395   8.4473   8.4531   8.4662   8.4846
     8.5092   8.5127   8.5541

     occupation numbers 
     1.0000   1.0000   1.0000   1.0000   1.0000   1.0000   1.0000   1.0000
     1.0000   1.0000   1.0000   1.0000   1.0000   1.0000   1.0000   1.0000
     1.0000   1.0000   1.0000   1.0000   1.0000   1.0000   1.0000   1.0000
     1.0000   1.0000   1.0000   1.0000   1.0000   1.0000   1.0000   1.0000
     1.0000   1.0000   1.0000   1.0000   1.0000   1.0000   1.0000   1.0000
     1.0000   1.0000   1.0000   1.0000   1.0000   1.0000   1.0000   1.0000
     1.0000   1.0000   1.0000   1.0000   1.0000   1.0000   1.0000   1.0000
     1.0000   1.0000   1.0000   1.0000   1.0000   1.0000   1.0000   1.0000
     1.0000   1.0000   1.0000   1.0000   1.0000   1.0000   1.0000   1.0000
     1.0000   1.0000   1.0000   1.0000   1.0000   1.0000   1.0000   1.0000
     1.0000   1.0000   1.0000   1.0000   1.0000   1.0000   1.0000   1.0000
     1.0000   1.0000   1.0000   1.0000   1.0000   1.0000   1.0000   1.0000
     1.0000   1.0000   1.0000   1.0000   1.0000   1.0000   1.0000   1.0000
     1.0000   1.0000   1.0000   1.0000   1.0000   1.0000   1.0000   1.0000
     1.0000   1.0000   1.0000   1.0000   1.0000   1.0000   1.0000   1.0000
     1.0000   1.0000   1.0000   1.0000   1.0000   1.0000   1.0000   1.0000
     1.0000   1.0000   1.0000   1.0000   1.0000   1.0000   1.0000   1.0000
     1.0000   1.0000   1.0000   1.0000   1.0000   1.0000   1.0000   1.0000
     1.0000   1.0000   1.0000   1.0000   1.0000   1.0000   1.0000   1.0000
     1.0000   1.0000   1.0000   1.0000   1.0000   1.0000   1.0000   1.0000
     1.0000   1.0000   1.0000   1.0000   1.0000   1.0000   1.0000   1.0000
     1.0000   1.0000   1.0000   1.0000   1.0000   1.0000   1.0000   1.0000
     1.0000   1.0000   1.0000   1.0000   1.0000   1.0000   1.0000   1.0000
     1.0000   1.0000   1.0000   1.0000   1.0000   1.0000   1.0000   1.0000
     1.0000   1.0000   1.0000   1.0000   1.0000   1.0000   1.0000   1.0000
     1.0000   1.0000   1.0000   1.0000   1.0000   1.0000   1.0000   1.0000
     1.0000   1.0000   1.0000   1.0000   1.0000   1.0000   1.0000   1.0000
     1.0000   1.0000   1.0000   1.0000   1.0000   1.0000   1.0000   1.0000
     1.0000   1.0000   1.0000   1.0000   1.0000   1.0000   1.0000   1.0000
     1.0000   1.0000   1.0000   1.0000   1.0000   1.0000   1.0000   1.0000
     1.0000   1.0000   1.0000   1.0000   1.0000   1.0000   1.0000   1.0000
     1.0000   1.0000   1.0000   1.0000   1.0000   0.9999   0.9999   0.9989
     0.0005   0.0003   0.0001   0.0001   0.0001   0.0000   0.0000   0.0000
     0.0000   0.0000   0.0000   0.0000   0.0000   0.0000   0.0000   0.0000
     0.0000   0.0000   0.0000   0.0000   0.0000   0.0000   0.0000   0.0000
     0.0000   0.0000   0.0000   0.0000   0.0000   0.0000   0.0000   0.0000
     0.0000   0.0000   0.0000   0.0000   0.0000   0.0000   0.0000   0.0000
     0.0000   0.0000   0.0000   0.0000   0.0000   0.0000   0.0000   0.0000
     0.0000   0.0000   0.0000

          k =-0.7071 0.0000 0.0000 ( 60622 PWs)   bands (ev):

    -5.5935  -5.5773  -5.3387  -5.3257  -5.3037  -5.2955  -4.5982  -4.5646
    -4.5642  -4.5435  -4.5298  -4.5149  -4.4877  -4.4615  -4.3547  -4.3230
    -4.3136  -4.3076  -4.2940  -4.2480  -4.2352  -4.2291  -3.7571  -3.7063
    -3.6839  -3.6774  -3.6502  -3.6406  -3.6348  -3.6301  -3.4875  -3.4255
    -3.3111  -3.2965  -3.2780  -3.2589  -3.2386  -3.2253  -3.2042  -3.1935
    -3.0275  -3.0025  -2.9907  -2.9622  -2.9567  -2.9397  -2.9315  -2.8984
    -2.7679  -2.7480  -2.7209  -2.7042  -2.6910  -2.6799  -2.6740  -2.6494
    -2.1350  -2.1032  -2.0982  -2.0691  -1.6878  -1.6630  -1.6297  -1.6228
    -1.6095  -1.5736  -1.5544  -1.5422  -1.1183  -1.1113  -1.1081  -1.0783
    -0.7362  -0.7228  -0.7053  -0.6968  -0.6835  -0.6592  -0.6522  -0.6193
    -0.5145  -0.4803  -0.4593  -0.4510  -0.4372  -0.4316  -0.4042  -0.3723
    -0.3123  -0.3007  -0.2820  -0.2667  -0.2548  -0.2327  -0.2016  -0.1873
     0.1147   0.1480   0.1556   0.1733   0.1814   0.1911   0.1976   0.2475
     0.3791   0.4178   0.7802   0.7896   0.8073   0.8266   0.8414   0.8582
     0.8695   0.8979   1.7248   1.7374   1.7563   1.7620   1.7707   1.7777
     1.7966   1.8062   1.8215   1.8391   1.8464   1.8630   1.8681   1.8738
     1.8809   1.8934   1.8981   1.9038   1.9182   1.9380   2.5915   2.6036
     2.6100   2.6248   2.6315   2.6413   2.6422   2.6564   2.6582   2.6601
     2.6735   2.6841   2.6875   2.6943   2.7081   2.7200   2.7281   2.7378
     2.7428   2.7462   2.7587   2.7641   2.7789   2.7966   3.2703   3.2819
     3.2873   3.2974   3.3158   3.3308   3.3387   3.3451   3.3567   3.3590
     3.3676   3.3771   3.3791   3.3991   3.4050   3.4119   3.4304   3.4476
     3.4605   3.4665   3.4927   3.5039   3.5067   3.5126   3.5205   3.5250
     3.5344   3.5445   3.5551   3.5586   3.5680   3.5760   3.6095   3.6157
     3.6545   3.6687   3.6748   3.6836   3.6933   3.6967   3.7196   3.7292
     3.7394   3.7461   3.9363   3.9427   3.9490   3.9607   3.9628   3.9765
     3.9910   4.0150   4.2418   4.2566   4.2731   4.2797   4.2908   4.2995
     4.3255   4.3355   4.4538   4.4728   4.4791   4.4844   4.4985   4.5108
     4.5240   4.5403   4.5532   4.5711   4.5818   4.5871   4.6700   4.6752
     4.6913   4.7061   4.7190   4.7300   4.7488   4.7758   4.8174   4.8399
     4.8496   4.8636   4.8650   4.8982   4.9041   4.9290   4.9514   4.9804
     5.3111   5.3326   5.3509   5.3898   5.8397   5.8720   5.8825   5.9050
     6.6278   6.6521   7.1964   7.2151   7.2265   7.2443   7.5299   7.5608
     7.8937   7.9192   7.9331   7.9400   7.9514   7.9724   7.9741   7.9834
     7.9909   7.9949   8.0192   8.0253   8.0323   8.0428   8.0639   8.0703
     8.0905   8.1005   8.2412   8.2588   8.2749   8.2854   8.2930   8.2939
     8.3307   8.3423   8.3726   8.3936   8.4056   8.4108   8.4196   8.4327
     8.4445   8.4635   8.4860   8.4944   8.5012   8.5184   8.5251   8.5268
     8.5430   8.5516   8.6494

     occupation numbers 
     1.0000   1.0000   1.0000   1.0000   1.0000   1.0000   1.0000   1.0000
     1.0000   1.0000   1.0000   1.0000   1.0000   1.0000   1.0000   1.0000
     1.0000   1.0000   1.0000   1.0000   1.0000   1.0000   1.0000   1.0000
     1.0000   1.0000   1.0000   1.0000   1.0000   1.0000   1.0000   1.0000
     1.0000   1.0000   1.0000   1.0000   1.0000   1.0000   1.0000   1.0000
     1.0000   1.0000   1.0000   1.0000   1.0000   1.0000   1.0000   1.0000
     1.0000   1.0000   1.0000   1.0000   1.0000   1.0000   1.0000   1.0000
     1.0000   1.0000   1.0000   1.0000   1.0000   1.0000   1.0000   1.0000
     1.0000   1.0000   1.0000   1.0000   1.0000   1.0000   1.0000   1.0000
     1.0000   1.0000   1.0000   1.0000   1.0000   1.0000   1.0000   1.0000
     1.0000   1.0000   1.0000   1.0000   1.0000   1.0000   1.0000   1.0000
     1.0000   1.0000   1.0000   1.0000   1.0000   1.0000   1.0000   1.0000
     1.0000   1.0000   1.0000   1.0000   1.0000   1.0000   1.0000   1.0000
     1.0000   1.0000   1.0000   1.0000   1.0000   1.0000   1.0000   1.0000
     1.0000   1.0000   1.0000   1.0000   1.0000   1.0000   1.0000   1.0000
     1.0000   1.0000   1.0000   1.0000   1.0000   1.0000   1.0000   1.0000
     1.0000   1.0000   1.0000   1.0000   1.0000   1.0000   1.0000   1.0000
     1.0000   1.0000   1.0000   1.0000   1.0000   1.0000   1.0000   1.0000
     1.0000   1.0000   1.0000   1.0000   1.0000   1.0000   1.0000   1.0000
     1.0000   1.0000   1.0000   1.0000   1.0000   1.0000   1.0000   1.0000
     1.0000   1.0000   1.0000   1.0000   1.0000   1.0000   1.0000   1.0000
     1.0000   1.0000   1.0000   1.0000   1.0000   1.0000   1.0000   1.0000
     1.0000   1.0000   1.0000   1.0000   1.0000   1.0000   1.0000   1.0000
     1.0000   1.0000   1.0000   1.0000   1.0000   1.0000   1.0000   1.0000
     1.0000   1.0000   1.0000   1.0000   1.0000   1.0000   1.0000   1.0000
     1.0000   1.0000   1.0000   1.0000   1.0000   1.0000   1.0000   1.0000
     1.0000   1.0000   1.0000   1.0000   1.0000   1.0000   1.0000   1.0000
     1.0000   1.0000   1.0000   1.0000   1.0000   1.0000   1.0000   1.0000
     1.0000   1.0000   1.0000   1.0000   1.0000   1.0000   1.0000   1.0000
     1.0000   1.0000   1.0000   1.0000   1.0000   1.0000   1.0000   1.0000
     1.0000   1.0000   1.0000   1.0000   1.0000   1.0000   1.0000   1.0000
     1.0000   1.0000   1.0000   1.0000   0.9999   0.9998   0.9997   0.9994
     0.0403   0.0277   0.0000   0.0000   0.0000   0.0000   0.0000   0.0000
     0.0000   0.0000   0.0000   0.0000   0.0000   0.0000   0.0000   0.0000
     0.0000   0.0000   0.0000   0.0000   0.0000   0.0000   0.0000   0.0000
     0.0000   0.0000   0.0000   0.0000   0.0000   0.0000   0.0000   0.0000
     0.0000   0.0000   0.0000   0.0000   0.0000   0.0000   0.0000   0.0000
     0.0000   0.0000   0.0000   0.0000   0.0000   0.0000   0.0000   0.0000
     0.0000   0.0000   0.0000

          k = 0.3536 0.3536 0.3536 ( 60452 PWs)   bands (ev):

    -5.6684  -5.6369  -5.1570  -5.1372  -5.1237  -5.1032  -5.0950  -5.0820
    -4.6573  -4.6475  -4.6228  -4.5856  -4.5714  -4.5478  -4.1919  -4.1638
    -4.0992  -4.0894  -4.0614  -4.0410  -4.0265  -3.9985  -3.7350  -3.6973
    -3.6880  -3.6570  -3.6428  -3.6348  -3.6137  -3.6022  -3.6009  -3.5789
    -3.5654  -3.5543  -3.4695  -3.4411  -3.4120  -3.3928  -3.3842  -3.3753
    -2.9482  -2.9434  -2.9264  -2.8988  -2.8851  -2.8480  -2.6208  -2.5907
    -2.5620  -2.5364  -2.5254  -2.5014  -2.4392  -2.4080  -2.3931  -2.3858
    -2.3772  -2.3657  -2.3608  -2.3388  -2.3274  -2.3179  -2.2763  -2.2581
    -0.9184  -0.8912  -0.8797  -0.8762  -0.8601  -0.8366  -0.8256  -0.8039
    -0.7922  -0.7860  -0.7721  -0.7409  -0.7326  -0.7181  -0.7062  -0.6916
    -0.6810  -0.6646  -0.6470  -0.6363  -0.6215  -0.6063  -0.5996  -0.5751
    -0.5500  -0.5276  -0.5161  -0.4941  -0.4760  -0.4340   0.1359   0.1550
     0.2096   0.2296   0.2357   0.2427   0.2618   0.2775   0.2884   0.3204
     0.3279   0.3411   0.3572   0.3960   1.1233   1.1478   1.1632   1.1790
     1.2040   1.2592   1.4397   1.4708   1.4920   1.5077   1.5206   1.5444
     1.9632   1.9808   1.9902   1.9934   2.0105   2.0140   2.0194   2.0232
     2.0365   2.0476   2.0604   2.0674   2.0775   2.0862   2.1092   2.1382
     2.1400   2.1613   2.6173   2.6376   2.6401   2.6481   2.6599   2.6647
     2.7032   2.7239   2.7352   2.7523   2.7664   2.7761   2.7895   2.7954
     2.8062   2.8194   2.8314   2.8398   2.8581   2.8878   2.9060   2.9210
     2.9506   2.9816   3.0882   3.0988   3.1162   3.1261   3.1355   3.1453
     3.1502   3.1582   3.1630   3.1802   3.1829   3.2016   3.3920   3.4017
     3.4036   3.4108   3.4257   3.4335   3.4475   3.4548   3.4677   3.4828
     3.4963   3.5040   3.7340   3.7540   3.7659   3.7782   3.7843   3.7936
     3.8178   3.8222   3.8419   3.8527   3.8644   3.8804   3.9001   3.9094
     3.9176   3.9385   3.9434   3.9566   4.1233   4.1265   4.1358   4.1558
     4.1602   4.1789   4.1901   4.1998   4.2076   4.2131   4.2145   4.2359
     4.2514   4.2560   4.2593   4.2743   4.2823   4.3375   4.5109   4.5280
     4.5592   4.5652   4.5789   4.5954   4.6029   4.6131   4.7687   4.7846
     4.8003   4.8178   4.8327   4.8417   4.8716   4.8769   4.9007   4.9287
     4.9369   4.9644   5.0322   5.0576   5.0985   5.1060   5.3204   5.3552
     5.3866   5.4079   5.4341   5.4402   5.8294   5.8462   5.9218   5.9280
     6.8687   6.8995   6.9121   6.9183   6.9423   6.9638   7.3303   7.3671
     7.3852   7.3947   7.4153   7.4395   7.7012   7.7253   7.8256   7.8395
     7.8535   7.8665   7.8903   7.9284   7.9676   7.9714   7.9832   7.9889
     8.0277   8.0390   8.1625   8.1787   8.1884   8.2039   8.2108   8.2259
     8.2267   8.2493   8.2653   8.2743   8.2808   8.2919   8.3626   8.3830
     8.3863   8.3948   8.4200   8.4272   8.4346   8.4371   8.4593   8.4653
     8.4860   8.5010   8.5846

     occupation numbers 
     1.0000   1.0000   1.0000   1.0000   1.0000   1.0000   1.0000   1.0000
     1.0000   1.0000   1.0000   1.0000   1.0000   1.0000   1.0000   1.0000
     1.0000   1.0000   1.0000   1.0000   1.0000   1.0000   1.0000   1.0000
     1.0000   1.0000   1.0000   1.0000   1.0000   1.0000   1.0000   1.0000
     1.0000   1.0000   1.0000   1.0000   1.0000   1.0000   1.0000   1.0000
     1.0000   1.0000   1.0000   1.0000   1.0000   1.0000   1.0000   1.0000
     1.0000   1.0000   1.0000   1.0000   1.0000   1.0000   1.0000   1.0000
     1.0000   1.0000   1.0000   1.0000   1.0000   1.0000   1.0000   1.0000
     1.0000   1.0000   1.0000   1.0000   1.0000   1.0000   1.0000   1.0000
     1.0000   1.0000   1.0000   1.0000   1.0000   1.0000   1.0000   1.0000
     1.0000   1.0000   1.0000   1.0000   1.0000   1.0000   1.0000   1.0000
     1.0000   1.0000   1.0000   1.0000   1.0000   1.0000   1.0000   1.0000
     1.0000   1.0000   1.0000   1.0000   1.0000   1.0000   1.0000   1.0000
     1.0000   1.0000   1.0000   1.0000   1.0000   1.0000   1.0000   1.0000
     1.0000   1.0000   1.0000   1.0000   1.0000   1.0000   1.0000   1.0000
     1.0000   1.0000   1.0000   1.0000   1.0000   1.0000   1.0000   1.0000
     1.0000   1.0000   1.0000   1.0000   1.0000   1.0000   1.0000   1.0000
     1.0000   1.0000   1.0000   1.0000   1.0000   1.0000   1.0000   1.0000
     1.0000   1.0000   1.0000   1.0000   1.0000   1.0000   1.0000   1.0000
     1.0000   1.0000   1.0000   1.0000   1.0000   1.0000   1.0000   1.0000
     1.0000   1.0000   1.0000   1.0000   1.0000   1.0000   1.0000   1.0000
     1.0000   1.0000   1.0000   1.0000   1.0000   1.0000   1.0000   1.0000
     1.0000   1.0000   1.0000   1.0000   1.0000   1.0000   1.0000   1.0000
     1.0000   1.0000   1.0000   1.0000   1.0000   1.0000   1.0000   1.0000
     1.0000   1.0000   1.0000   1.0000   1.0000   1.0000   1.0000   1.0000
     1.0000   1.0000   1.0000   1.0000   1.0000   1.0000   1.0000   1.0000
     1.0000   1.0000   1.0000   1.0000   1.0000   1.0000   1.0000   1.0000
     1.0000   1.0000   1.0000   1.0000   1.0000   1.0000   1.0000   1.0000
     1.0000   1.0000   1.0000   1.0000   1.0000   1.0000   1.0000   1.0000
     1.0000   1.0000   1.0000   1.0000   1.0000   1.0000   1.0000   1.0000
     1.0000   1.0000   1.0000   1.0000   1.0000   1.0000   1.0000   1.0000
     1.0000   1.0000   1.0000   1.0000   0.9999   0.9999   0.9992   0.9990
     0.0003   0.0001   0.0001   0.0001   0.0000   0.0000   0.0000   0.0000
     0.0000   0.0000   0.0000   0.0000   0.0000   0.0000   0.0000   0.0000
     0.0000   0.0000   0.0000   0.0000   0.0000   0.0000   0.0000   0.0000
     0.0000   0.0000   0.0000   0.0000   0.0000   0.0000   0.0000   0.0000
     0.0000   0.0000   0.0000   0.0000   0.0000   0.0000   0.0000   0.0000
     0.0000   0.0000   0.0000   0.0000   0.0000   0.0000   0.0000   0.0000
     0.0000   0.0000   0.0000

          k = 0.3536-0.3536-0.3536 ( 60452 PWs)   bands (ev):

    -5.6582  -5.6479  -5.1605  -5.1411  -5.1273  -5.1065  -5.0923  -5.0667
    -4.6633  -4.6393  -4.6078  -4.5848  -4.5734  -4.5659  -4.1788  -4.1633
    -4.1240  -4.0839  -4.0611  -4.0465  -4.0316  -3.9998  -3.7135  -3.7063
    -3.6838  -3.6655  -3.6560  -3.6430  -3.6071  -3.6058  -3.5981  -3.5714
    -3.5507  -3.5394  -3.4689  -3.4485  -3.4318  -3.3940  -3.3691  -3.3568
    -2.9541  -2.9433  -2.9336  -2.8931  -2.8800  -2.8567  -2.6310  -2.5848
    -2.5603  -2.5469  -2.5300  -2.5076  -2.4733  -2.4348  -2.3942  -2.3928
    -2.3750  -2.3506  -2.3251  -2.3162  -2.3133  -2.3043  -2.2904  -2.2575
    -0.9323  -0.9108  -0.8842  -0.8688  -0.8518  -0.8412  -0.8191  -0.8092
    -0.7931  -0.7872  -0.7716  -0.7545  -0.7323  -0.7090  -0.7057  -0.6854
    -0.6735  -0.6617  -0.6540  -0.6335  -0.6183  -0.6058  -0.5908  -0.5823
    -0.5648  -0.5465  -0.5048  -0.4679  -0.4621  -0.4321   0.1428   0.1505
     0.2011   0.2080   0.2352   0.2622   0.2730   0.2906   0.3010   0.3134
     0.3266   0.3375   0.3460   0.3734   1.1198   1.1476   1.1716   1.1805
     1.2240   1.2574   1.4450   1.4637   1.4824   1.5031   1.5235   1.5400
     1.9656   1.9749   1.9860   1.9884   2.0012   2.0088   2.0118   2.0318
     2.0364   2.0527   2.0626   2.0709   2.0795   2.1067   2.1110   2.1221
     2.1376   2.1716   2.6130   2.6271   2.6559   2.6621   2.6673   2.6809
     2.7167   2.7314   2.7417   2.7457   2.7497   2.7740   2.7780   2.7828
     2.7968   2.8085   2.8247   2.8390   2.8657   2.8927   2.9044   2.9198
     2.9457   2.9652   3.1010   3.1062   3.1120   3.1218   3.1300   3.1366
     3.1449   3.1555   3.1668   3.1815   3.1901   3.2168   3.3821   3.3859
     3.4130   3.4152   3.4294   3.4333   3.4485   3.4508   3.4582   3.4787
     3.5008   3.5074   3.7193   3.7506   3.7611   3.7713   3.7730   3.8124
     3.8194   3.8363   3.8508   3.8624   3.8626   3.8872   3.8924   3.9056
     3.9121   3.9244   3.9330   3.9803   4.1023   4.1125   4.1380   4.1594
     4.1670   4.1756   4.1917   4.2089   4.2232   4.2249   4.2307   4.2529
     4.2548   4.2594   4.2706   4.2850   4.2917   4.3012   4.5089   4.5330
     4.5483   4.5744   4.5800   4.5923   4.5968   4.6172   4.7578   4.7759
     4.8068   4.8160   4.8330   4.8490   4.8527   4.8849   4.9004   4.9283
     4.9376   4.9969   5.0268   5.0558   5.0800   5.1300   5.3316   5.3602
     5.3688   5.3910   5.4108   5.4682   5.8274   5.8483   5.8737   5.9536
     6.8624   6.8869   6.9214   6.9283   6.9422   6.9572   7.3353   7.3672
     7.3735   7.3945   7.4051   7.4444   7.7091   7.7255   7.8258   7.8459
     7.8538   7.8695   7.8993   7.9222   7.9477   7.9814   7.9857   8.0108
     8.0284   8.0340   8.1585   8.1858   8.1916   8.1993   8.2051   8.2057
     8.2181   8.2364   8.2463   8.2677   8.2826   8.3098   8.3535   8.3718
     8.3848   8.3986   8.4165   8.4249   8.4487   8.4515   8.4675   8.4725
     8.4832   8.5000   8.5660

     occupation numbers 
     1.0000   1.0000   1.0000   1.0000   1.0000   1.0000   1.0000   1.0000
     1.0000   1.0000   1.0000   1.0000   1.0000   1.0000   1.0000   1.0000
     1.0000   1.0000   1.0000   1.0000   1.0000   1.0000   1.0000   1.0000
     1.0000   1.0000   1.0000   1.0000   1.0000   1.0000   1.0000   1.0000
     1.0000   1.0000   1.0000   1.0000   1.0000   1.0000   1.0000   1.0000
     1.0000   1.0000   1.0000   1.0000   1.0000   1.0000   1.0000   1.0000
     1.0000   1.0000   1.0000   1.0000   1.0000   1.0000   1.0000   1.0000
     1.0000   1.0000   1.0000   1.0000   1.0000   1.0000   1.0000   1.0000
     1.0000   1.0000   1.0000   1.0000   1.0000   1.0000   1.0000   1.0000
     1.0000   1.0000   1.0000   1.0000   1.0000   1.0000   1.0000   1.0000
     1.0000   1.0000   1.0000   1.0000   1.0000   1.0000   1.0000   1.0000
     1.0000   1.0000   1.0000   1.0000   1.0000   1.0000   1.0000   1.0000
     1.0000   1.0000   1.0000   1.0000   1.0000   1.0000   1.0000   1.0000
     1.0000   1.0000   1.0000   1.0000   1.0000   1.0000   1.0000   1.0000
     1.0000   1.0000   1.0000   1.0000   1.0000   1.0000   1.0000   1.0000
     1.0000   1.0000   1.0000   1.0000   1.0000   1.0000   1.0000   1.0000
     1.0000   1.0000   1.0000   1.0000   1.0000   1.0000   1.0000   1.0000
     1.0000   1.0000   1.0000   1.0000   1.0000   1.0000   1.0000   1.0000
     1.0000   1.0000   1.0000   1.0000   1.0000   1.0000   1.0000   1.0000
     1.0000   1.0000   1.0000   1.0000   1.0000   1.0000   1.0000   1.0000
     1.0000   1.0000   1.0000   1.0000   1.0000   1.0000   1.0000   1.0000
     1.0000   1.0000   1.0000   1.0000   1.0000   1.0000   1.0000   1.0000
     1.0000   1.0000   1.0000   1.0000   1.0000   1.0000   1.0000   1.0000
     1.0000   1.0000   1.0000   1.0000   1.0000   1.0000   1.0000   1.0000
     1.0000   1.0000   1.0000   1.0000   1.0000   1.0000   1.0000   1.0000
     1.0000   1.0000   1.0000   1.0000   1.0000   1.0000   1.0000   1.0000
     1.0000   1.0000   1.0000   1.0000   1.0000   1.0000   1.0000   1.0000
     1.0000   1.0000   1.0000   1.0000   1.0000   1.0000   1.0000   1.0000
     1.0000   1.0000   1.0000   1.0000   1.0000   1.0000   1.0000   1.0000
     1.0000   1.0000   1.0000   1.0000   1.0000   1.0000   1.0000   1.0000
     1.0000   1.0000   1.0000   1.0000   1.0000   1.0000   1.0000   1.0000
     1.0000   1.0000   1.0000   1.0000   0.9999   0.9999   0.9997   0.9983
     0.0004   0.0002   0.0001   0.0001   0.0000   0.0000   0.0000   0.0000
     0.0000   0.0000   0.0000   0.0000   0.0000   0.0000   0.0000   0.0000
     0.0000   0.0000   0.0000   0.0000   0.0000   0.0000   0.0000   0.0000
     0.0000   0.0000   0.0000   0.0000   0.0000   0.0000   0.0000   0.0000
     0.0000   0.0000   0.0000   0.0000   0.0000   0.0000   0.0000   0.0000
     0.0000   0.0000   0.0000   0.0000   0.0000   0.0000   0.0000   0.0000
     0.0000   0.0000   0.0000

          k =-0.3536 0.3536-0.3536 ( 60452 PWs)   bands (ev):

    -5.6678  -5.6369  -5.1506  -5.1360  -5.1218  -5.1188  -5.1064  -5.0704
    -4.6604  -4.6196  -4.6140  -4.5911  -4.5858  -4.5482  -4.1912  -4.1587
    -4.1047  -4.0870  -4.0718  -4.0488  -4.0241  -4.0037  -3.7326  -3.6884
    -3.6808  -3.6692  -3.6472  -3.6332  -3.6204  -3.6094  -3.5985  -3.5914
    -3.5726  -3.5266  -3.4641  -3.4487  -3.4050  -3.4017  -3.3843  -3.3542
    -2.9474  -2.9307  -2.9101  -2.8940  -2.8872  -2.8732  -2.6221  -2.6031
    -2.5613  -2.5580  -2.5220  -2.4763  -2.4653  -2.4192  -2.4121  -2.3955
    -2.3847  -2.3656  -2.3426  -2.3239  -2.3201  -2.2844  -2.2770  -2.2632
    -0.9255  -0.9091  -0.8909  -0.8652  -0.8610  -0.8244  -0.8188  -0.7960
    -0.7914  -0.7820  -0.7663  -0.7503  -0.7370  -0.7095  -0.6952  -0.6919
    -0.6801  -0.6604  -0.6480  -0.6345  -0.6155  -0.6079  -0.5804  -0.5670
    -0.5612  -0.5400  -0.5176  -0.5135  -0.4888  -0.4438   0.1259   0.1502
     0.1981   0.2335   0.2369   0.2606   0.2714   0.2931   0.2969   0.3142
     0.3299   0.3404   0.3681   0.3788   1.1171   1.1409   1.1612   1.1995
     1.2177   1.2277   1.4379   1.4594   1.4695   1.5089   1.5215   1.5528
     1.9641   1.9797   1.9851   1.9970   2.0068   2.0147   2.0246   2.0283
     2.0386   2.0474   2.0558   2.0727   2.0812   2.1066   2.1292   2.1369
     2.1447   2.1557   2.6178   2.6249   2.6320   2.6433   2.6600   2.6760
     2.7013   2.7266   2.7416   2.7479   2.7578   2.7663   2.7843   2.7884
     2.7959   2.8056   2.8208   2.8527   2.8740   2.8965   2.9145   2.9359
     2.9489   2.9699   3.0995   3.1081   3.1185   3.1198   3.1379   3.1480
     3.1540   3.1627   3.1661   3.1772   3.1903   3.2002   3.3777   3.3967
     3.4155   3.4232   3.4284   3.4446   3.4531   3.4654   3.4696   3.4783
     3.4902   3.5121   3.7201   3.7469   3.7528   3.7787   3.7840   3.7964
     3.8081   3.8379   3.8406   3.8472   3.8642   3.8725   3.8914   3.8994
     3.9225   3.9307   3.9464   3.9619   4.1101   4.1203   4.1296   4.1495
     4.1565   4.1774   4.1860   4.2010   4.2065   4.2093   4.2207   4.2420
     4.2501   4.2577   4.2631   4.2794   4.2876   4.3233   4.4938   4.5278
     4.5527   4.5570   4.5682   4.5985   4.6176   4.6507   4.7880   4.7972
     4.8038   4.8179   4.8219   4.8465   4.8505   4.8660   4.8894   4.9054
     4.9151   4.9482   5.0466   5.0649   5.0855   5.1258   5.3309   5.3599
     5.3939   5.4104   5.4383   5.4512   5.8299   5.8623   5.8963   5.9610
     6.8539   6.8956   6.9146   6.9315   6.9465   6.9864   7.3297   7.3550
     7.3840   7.3932   7.4242   7.4456   7.6991   7.7355   7.8284   7.8451
     7.8686   7.8791   7.8954   7.9427   7.9524   7.9653   7.9818   7.9940
     8.0213   8.0313   8.1593   8.1683   8.1815   8.1931   8.2119   8.2155
     8.2409   8.2464   8.2655   8.2739   8.2804   8.3125   8.3492   8.3704
     8.3765   8.3964   8.4068   8.4198   8.4269   8.4372   8.4654   8.4672
     8.4823   8.4881   8.5783

     occupation numbers 
     1.0000   1.0000   1.0000   1.0000   1.0000   1.0000   1.0000   1.0000
     1.0000   1.0000   1.0000   1.0000   1.0000   1.0000   1.0000   1.0000
     1.0000   1.0000   1.0000   1.0000   1.0000   1.0000   1.0000   1.0000
     1.0000   1.0000   1.0000   1.0000   1.0000   1.0000   1.0000   1.0000
     1.0000   1.0000   1.0000   1.0000   1.0000   1.0000   1.0000   1.0000
     1.0000   1.0000   1.0000   1.0000   1.0000   1.0000   1.0000   1.0000
     1.0000   1.0000   1.0000   1.0000   1.0000   1.0000   1.0000   1.0000
     1.0000   1.0000   1.0000   1.0000   1.0000   1.0000   1.0000   1.0000
     1.0000   1.0000   1.0000   1.0000   1.0000   1.0000   1.0000   1.0000
     1.0000   1.0000   1.0000   1.0000   1.0000   1.0000   1.0000   1.0000
     1.0000   1.0000   1.0000   1.0000   1.0000   1.0000   1.0000   1.0000
     1.0000   1.0000   1.0000   1.0000   1.0000   1.0000   1.0000   1.0000
     1.0000   1.0000   1.0000   1.0000   1.0000   1.0000   1.0000   1.0000
     1.0000   1.0000   1.0000   1.0000   1.0000   1.0000   1.0000   1.0000
     1.0000   1.0000   1.0000   1.0000   1.0000   1.0000   1.0000   1.0000
     1.0000   1.0000   1.0000   1.0000   1.0000   1.0000   1.0000   1.0000
     1.0000   1.0000   1.0000   1.0000   1.0000   1.0000   1.0000   1.0000
     1.0000   1.0000   1.0000   1.0000   1.0000   1.0000   1.0000   1.0000
     1.0000   1.0000   1.0000   1.0000   1.0000   1.0000   1.0000   1.0000
     1.0000   1.0000   1.0000   1.0000   1.0000   1.0000   1.0000   1.0000
     1.0000   1.0000   1.0000   1.0000   1.0000   1.0000   1.0000   1.0000
     1.0000   1.0000   1.0000   1.0000   1.0000   1.0000   1.0000   1.0000
     1.0000   1.0000   1.0000   1.0000   1.0000   1.0000   1.0000   1.0000
     1.0000   1.0000   1.0000   1.0000   1.0000   1.0000   1.0000   1.0000
     1.0000   1.0000   1.0000   1.0000   1.0000   1.0000   1.0000   1.0000
     1.0000   1.0000   1.0000   1.0000   1.0000   1.0000   1.0000   1.0000
     1.0000   1.0000   1.0000   1.0000   1.0000   1.0000   1.0000   1.0000
     1.0000   1.0000   1.0000   1.0000   1.0000   1.0000   1.0000   1.0000
     1.0000   1.0000   1.0000   1.0000   1.0000   1.0000   1.0000   1.0000
     1.0000   1.0000   1.0000   1.0000   1.0000   1.0000   1.0000   1.0000
     1.0000   1.0000   1.0000   1.0000   1.0000   1.0000   1.0000   1.0000
     1.0000   1.0000   1.0000   1.0000   0.9999   0.9998   0.9996   0.9980
     0.0005   0.0002   0.0001   0.0001   0.0000   0.0000   0.0000   0.0000
     0.0000   0.0000   0.0000   0.0000   0.0000   0.0000   0.0000   0.0000
     0.0000   0.0000   0.0000   0.0000   0.0000   0.0000   0.0000   0.0000
     0.0000   0.0000   0.0000   0.0000   0.0000   0.0000   0.0000   0.0000
     0.0000   0.0000   0.0000   0.0000   0.0000   0.0000   0.0000   0.0000
     0.0000   0.0000   0.0000   0.0000   0.0000   0.0000   0.0000   0.0000
     0.0000   0.0000   0.0000

          k = 0.0000-0.7071 0.0000 ( 60622 PWs)   bands (ev):

    -5.5936  -5.5770  -5.3456  -5.3210  -5.3051  -5.2908  -4.6237  -4.5813
    -4.5530  -4.5322  -4.5225  -4.5095  -4.4848  -4.4675  -4.3426  -4.3218
    -4.3003  -4.2868  -4.2807  -4.2673  -4.2488  -4.2408  -3.7479  -3.7330
    -3.6960  -3.6787  -3.6767  -3.6422  -3.6226  -3.6041  -3.4618  -3.4523
    -3.3063  -3.2821  -3.2644  -3.2536  -3.2501  -3.2283  -3.2199  -3.1830
    -3.0176  -3.0007  -2.9711  -2.9675  -2.9587  -2.9393  -2.9340  -2.9177
    -2.7752  -2.7378  -2.7252  -2.7244  -2.6851  -2.6809  -2.6669  -2.6521
    -2.1338  -2.1146  -2.0992  -2.0561  -1.6612  -1.6492  -1.6253  -1.6118
    -1.6035  -1.5933  -1.5807  -1.5456  -1.1364  -1.1215  -1.0927  -1.0789
    -0.7405  -0.7212  -0.7161  -0.6948  -0.6772  -0.6715  -0.6569  -0.6144
    -0.4961  -0.4692  -0.4648  -0.4448  -0.4412  -0.4193  -0.3991  -0.3721
    -0.3213  -0.3052  -0.2750  -0.2708  -0.2389  -0.2354  -0.2117  -0.1941
     0.1286   0.1401   0.1522   0.1589   0.1711   0.2013   0.2053   0.2315
     0.3930   0.4015   0.7820   0.8075   0.8145   0.8238   0.8462   0.8518
     0.8599   0.8935   1.7301   1.7410   1.7561   1.7661   1.7831   1.7945
     1.7976   1.8094   1.8184   1.8239   1.8406   1.8488   1.8637   1.8722
     1.8854   1.8912   1.8992   1.9081   1.9324   1.9456   2.5748   2.6005
     2.6063   2.6170   2.6302   2.6371   2.6394   2.6524   2.6587   2.6702
     2.6776   2.6823   2.6855   2.6925   2.7033   2.7165   2.7378   2.7471
     2.7502   2.7597   2.7632   2.7682   2.7727   2.7786   3.2804   3.2905
     3.3000   3.3167   3.3201   3.3257   3.3395   3.3434   3.3491   3.3560
     3.3696   3.3726   3.3803   3.3912   3.4054   3.4122   3.4149   3.4292
     3.4435   3.4566   3.4866   3.4920   3.5005   3.5161   3.5261   3.5275
     3.5452   3.5513   3.5535   3.5563   3.5744   3.5795   3.6134   3.6334
     3.6409   3.6511   3.6642   3.6721   3.6907   3.7057   3.7146   3.7249
     3.7422   3.7536   3.9294   3.9431   3.9464   3.9542   3.9656   3.9710
     3.9995   4.0110   4.2548   4.2634   4.2713   4.2811   4.2892   4.3044
     4.3278   4.3440   4.4387   4.4595   4.4725   4.4933   4.5011   4.5164
     4.5407   4.5530   4.5625   4.5702   4.5722   4.6108   4.6802   4.6857
     4.7019   4.7042   4.7177   4.7329   4.7476   4.7733   4.8204   4.8373
     4.8513   4.8704   4.8787   4.8813   4.9021   4.9226   4.9458   4.9509
     5.3162   5.3369   5.3689   5.3776   5.8119   5.8577   5.8724   5.9352
     6.6385   6.6476   7.1915   7.2212   7.2252   7.2568   7.5417   7.5512
     7.9164   7.9218   7.9387   7.9448   7.9563   7.9657   7.9772   7.9835
     7.9891   8.0016   8.0048   8.0137   8.0262   8.0409   8.0469   8.0590
     8.0842   8.1016   8.2449   8.2732   8.2861   8.2925   8.2973   8.3105
     8.3177   8.3282   8.3724   8.3916   8.4007   8.4144   8.4195   8.4294
     8.4358   8.4416   8.4864   8.4933   8.5084   8.5147   8.5203   8.5241
     8.5365   8.5490   8.6433

     occupation numbers 
     1.0000   1.0000   1.0000   1.0000   1.0000   1.0000   1.0000   1.0000
     1.0000   1.0000   1.0000   1.0000   1.0000   1.0000   1.0000   1.0000
     1.0000   1.0000   1.0000   1.0000   1.0000   1.0000   1.0000   1.0000
     1.0000   1.0000   1.0000   1.0000   1.0000   1.0000   1.0000   1.0000
     1.0000   1.0000   1.0000   1.0000   1.0000   1.0000   1.0000   1.0000
     1.0000   1.0000   1.0000   1.0000   1.0000   1.0000   1.0000   1.0000
     1.0000   1.0000   1.0000   1.0000   1.0000   1.0000   1.0000   1.0000
     1.0000   1.0000   1.0000   1.0000   1.0000   1.0000   1.0000   1.0000
     1.0000   1.0000   1.0000   1.0000   1.0000   1.0000   1.0000   1.0000
     1.0000   1.0000   1.0000   1.0000   1.0000   1.0000   1.0000   1.0000
     1.0000   1.0000   1.0000   1.0000   1.0000   1.0000   1.0000   1.0000
     1.0000   1.0000   1.0000   1.0000   1.0000   1.0000   1.0000   1.0000
     1.0000   1.0000   1.0000   1.0000   1.0000   1.0000   1.0000   1.0000
     1.0000   1.0000   1.0000   1.0000   1.0000   1.0000   1.0000   1.0000
     1.0000   1.0000   1.0000   1.0000   1.0000   1.0000   1.0000   1.0000
     1.0000   1.0000   1.0000   1.0000   1.0000   1.0000   1.0000   1.0000
     1.0000   1.0000   1.0000   1.0000   1.0000   1.0000   1.0000   1.0000
     1.0000   1.0000   1.0000   1.0000   1.0000   1.0000   1.0000   1.0000
     1.0000   1.0000   1.0000   1.0000   1.0000   1.0000   1.0000   1.0000
     1.0000   1.0000   1.0000   1.0000   1.0000   1.0000   1.0000   1.0000
     1.0000   1.0000   1.0000   1.0000   1.0000   1.0000   1.0000   1.0000
     1.0000   1.0000   1.0000   1.0000   1.0000   1.0000   1.0000   1.0000
     1.0000   1.0000   1.0000   1.0000   1.0000   1.0000   1.0000   1.0000
     1.0000   1.0000   1.0000   1.0000   1.0000   1.0000   1.0000   1.0000
     1.0000   1.0000   1.0000   1.0000   1.0000   1.0000   1.0000   1.0000
     1.0000   1.0000   1.0000   1.0000   1.0000   1.0000   1.0000   1.0000
     1.0000   1.0000   1.0000   1.0000   1.0000   1.0000   1.0000   1.0000
     1.0000   1.0000   1.0000   1.0000   1.0000   1.0000   1.0000   1.0000
     1.0000   1.0000   1.0000   1.0000   1.0000   1.0000   1.0000   1.0000
     1.0000   1.0000   1.0000   1.0000   1.0000   1.0000   1.0000   1.0000
     1.0000   1.0000   1.0000   1.0000   1.0000   1.0000   1.0000   1.0000
     1.0000   1.0000   1.0000   1.0000   1.0000   0.9998   0.9998   0.9989
     0.0342   0.0297   0.0000   0.0000   0.0000   0.0000   0.0000   0.0000
     0.0000   0.0000   0.0000   0.0000   0.0000   0.0000   0.0000   0.0000
     0.0000   0.0000   0.0000   0.0000   0.0000   0.0000   0.0000   0.0000
     0.0000   0.0000   0.0000   0.0000   0.0000   0.0000   0.0000   0.0000
     0.0000   0.0000   0.0000   0.0000   0.0000   0.0000   0.0000   0.0000
     0.0000   0.0000   0.0000   0.0000   0.0000   0.0000   0.0000   0.0000
     0.0000   0.0000   0.0000

          k = 0.0000 0.0000-0.7071 ( 60622 PWs)   bands (ev):

    -5.5996  -5.5702  -5.3402  -5.3215  -5.3042  -5.2987  -4.6022  -4.5762
    -4.5651  -4.5442  -4.5286  -4.4940  -4.4832  -4.4742  -4.3601  -4.3285
    -4.3143  -4.2908  -4.2681  -4.2563  -4.2537  -4.2234  -3.7460  -3.7247
    -3.7046  -3.6784  -3.6403  -3.6372  -3.6292  -3.6253  -3.4742  -3.4648
    -3.3108  -3.2826  -3.2648  -3.2485  -3.2404  -3.2260  -3.2209  -3.1906
    -3.0279  -3.0049  -2.9785  -2.9652  -2.9529  -2.9413  -2.9277  -2.9012
    -2.7610  -2.7415  -2.7269  -2.7171  -2.7017  -2.6900  -2.6654  -2.6375
    -2.1465  -2.1141  -2.0943  -2.0473  -1.6749  -1.6506  -1.6318  -1.6131
    -1.6030  -1.5936  -1.5674  -1.5613  -1.1321  -1.1006  -1.0912  -1.0724
    -0.7654  -0.7238  -0.7079  -0.7005  -0.6781  -0.6712  -0.6350  -0.6202
    -0.5145  -0.4870  -0.4617  -0.4352  -0.4275  -0.4108  -0.4035  -0.3631
    -0.3200  -0.2946  -0.2825  -0.2607  -0.2486  -0.2453  -0.2377  -0.1845
     0.1177   0.1316   0.1518   0.1668   0.1789   0.1904   0.2020   0.2647
     0.4056   0.4082   0.7754   0.7989   0.8130   0.8281   0.8332   0.8491
     0.8722   0.8899   1.7362   1.7432   1.7503   1.7636   1.7718   1.7845
     1.7904   1.7980   1.8243   1.8294   1.8392   1.8491   1.8554   1.8858
     1.8875   1.8969   1.9003   1.9065   1.9310   1.9459   2.5817   2.5984
     2.6145   2.6176   2.6277   2.6362   2.6461   2.6580   2.6661   2.6708
     2.6823   2.6869   2.6978   2.7020   2.7057   2.7155   2.7284   2.7319
     2.7382   2.7456   2.7559   2.7619   2.7772   2.7838   3.2623   3.2786
     3.2909   3.3091   3.3159   3.3255   3.3285   3.3493   3.3533   3.3666
     3.3706   3.3784   3.3854   3.3930   3.4023   3.4161   3.4236   3.4499
     3.4547   3.4849   3.4945   3.4991   3.5070   3.5109   3.5192   3.5265
     3.5366   3.5471   3.5516   3.5556   3.5688   3.5818   3.6137   3.6216
     3.6434   3.6545   3.6591   3.6798   3.6970   3.7009   3.7184   3.7302
     3.7341   3.7577   3.9302   3.9343   3.9505   3.9561   3.9753   3.9776
     3.9887   4.0199   4.2370   4.2532   4.2700   4.2882   4.2917   4.3019
     4.3230   4.3358   4.4444   4.4615   4.4717   4.4838   4.4951   4.5115
     4.5256   4.5336   4.5671   4.5799   4.5940   4.6252   4.6444   4.6817
     4.6986   4.7060   4.7361   4.7410   4.7566   4.7683   4.8060   4.8170
     4.8368   4.8663   4.8798   4.8994   4.9217   4.9269   4.9391   4.9691
     5.3014   5.3374   5.3524   5.3997   5.8251   5.8440   5.8701   5.9508
     6.6297   6.6485   7.1973   7.2047   7.2189   7.2653   7.5365   7.5543
     7.9126   7.9244   7.9451   7.9473   7.9549   7.9690   7.9708   7.9815
     7.9962   8.0008   8.0071   8.0209   8.0292   8.0486   8.0522   8.0593
[...]
     atom   77 type  1   force =   0.00000000E+00  0.00000000E+00  0.00000000E+00
     atom   78 type  1   force =   0.00000000E+00  0.00000000E+00  0.00000000E+00
     atom   79 type  1   force =   0.00000000E+00  0.00000000E+00  0.00000000E+00
     atom   80 type  1   force =   0.00000000E+00  0.00000000E+00  0.00000000E+00
     atom   81 type  1   force =   0.00000000E+00  0.00000000E+00  0.00000000E+00
     atom   82 type  1   force =   0.00000000E+00  0.00000000E+00  0.00000000E+00
     atom   83 type  1   force =   0.00000000E+00  0.00000000E+00  0.00000000E+00
     atom   84 type  1   force =   0.00000000E+00  0.00000000E+00  0.00000000E+00
     atom   85 type  1   force =   0.00000000E+00  0.00000000E+00  0.00000000E+00
     atom   86 type  1   force =   0.00000000E+00  0.00000000E+00  0.00000000E+00
     atom   87 type  1   force =   0.00000000E+00  0.00000000E+00  0.00000000E+00
     atom   88 type  1   force =   0.00000000E+00  0.00000000E+00  0.00000000E+00
     atom   89 type  1   force =   0.00000000E+00  0.00000000E+00  0.00000000E+00
     atom   90 type  1   force =   0.00000000E+00  0.00000000E+00  0.00000000E+00
     atom   91 type  1   force =   0.00000000E+00  0.00000000E+00  0.00000000E+00
     atom   92 type  1   force =   0.00000000E+00  0.00000000E+00  0.00000000E+00
     atom   93 type  1   force =   0.00000000E+00  0.00000000E+00  0.00000000E+00
     atom   94 type  1   force =   0.00000000E+00  0.00000000E+00  0.00000000E+00
     atom   95 type  1   force =   0.00000000E+00  0.00000000E+00  0.00000000E+00
     atom   96 type  1   force =   0.00000000E+00  0.00000000E+00  0.00000000E+00
     atom   97 type  1   force =   0.00000000E+00  0.00000000E+00  0.00000000E+00
     atom   98 type  1   force =   0.00000000E+00  0.00000000E+00  0.00000000E+00
     atom   99 type  1   force =   0.00000000E+00  0.00000000E+00  0.00000000E+00
     atom  100 type  1   force =   0.00000000E+00  0.00000000E+00  0.00000000E+00
     atom  101 type  1   force =   0.00000000E+00  0.00000000E+00  0.00000000E+00
     atom  102 type  1   force =   0.00000000E+00  0.00000000E+00  0.00000000E+00
     atom  103 type  1   force =   0.00000000E+00  0.00000000E+00  0.00000000E+00
     atom  104 type  1   force =   0.00000000E+00  0.00000000E+00  0.00000000E+00
     atom  105 type  1   force =   0.00000000E+00  0.00000000E+00  0.00000000E+00
     atom  106 type  1   force =   0.00000000E+00  0.00000000E+00  0.00000000E+00
     atom  107 type  1   force =   0.00000000E+00  0.00000000E+00  0.00000000E+00
     atom  108 type  1   force =   0.00000000E+00  0.00000000E+00  0.00000000E+00
     atom  109 type  1   force =   0.00000000E+00  0.00000000E+00  0.00000000E+00
     atom  110 type  1   force =   0.00000000E+00  0.00000000E+00  0.00000000E+00
     atom  111 type  1   force =   0.00000000E+00  0.00000000E+00  0.00000000E+00
     atom  112 type  1   force =   0.00000000E+00  0.00000000E+00  0.00000000E+00
     atom  113 type  1   force =   0.00000000E+00  0.00000000E+00  0.00000000E+00
     atom  114 type  1   force =   0.00000000E+00  0.00000000E+00  0.00000000E+00
     atom  115 type  1   force =   0.00000000E+00  0.00000000E+00  0.00000000E+00
     atom  116 type  1   force =   0.00000000E+00  0.00000000E+00  0.00000000E+00
     atom  117 type  1   force =   0.00000000E+00  0.00000000E+00  0.00000000E+00
     atom  118 type  1   force =   0.00000000E+00  0.00000000E+00  0.00000000E+00
     atom  119 type  1   force =   0.00000000E+00  0.00000000E+00  0.00000000E+00
     atom  120 type  1   force =   0.00000000E+00  0.00000000E+00  0.00000000E+00
     atom  121 type  1   force =   0.00000000E+00  0.00000000E+00  0.00000000E+00
     atom  122 type  1   force =   0.00000000E+00  0.00000000E+00  0.00000000E+00
     atom  123 type  1   force =   0.00000000E+00  0.00000000E+00  0.00000000E+00
     atom  124 type  1   force =   0.00000000E+00  0.00000000E+00  0.00000000E+00
     atom  125 type  1   force =   0.00000000E+00  0.00000000E+00  0.00000000E+00
     atom  126 type  1   force =   0.00000000E+00  0.00000000E+00  0.00000000E+00
     atom  127 type  1   force =   0.00000000E+00  0.00000000E+00  0.00000000E+00
     atom  128 type  1   force =   0.00000000E+00  0.00000000E+00  0.00000000E+00
     The SCF correction term to forces
     atom    1 type  1   force =   0.70602427E-06  0.68764579E-06  0.44236180E-06
     atom    2 type  1   force =   0.10685278E-05  0.50646857E-06 -0.81180895E-06
     atom    3 type  1   force =   0.30099048E-06  0.17601385E-06  0.32927662E-06
     atom    4 type  1   force =   0.14065634E-05 -0.10222108E-05  0.33294714E-06
     atom    5 type  1   force =   0.13926852E-05 -0.14667491E-05  0.29850982E-05
     atom    6 type  1   force =   0.38139305E-06 -0.21132400E-05 -0.21863745E-06
     atom    7 type  1   force =  -0.20501127E-06 -0.12459305E-05  0.95595410E-07
     atom    8 type  1   force =   0.14291321E-06 -0.58422093E-06 -0.27097771E-05
     atom    9 type  1   force =   0.62300812E-06  0.14127830E-05 -0.20520017E-05
     atom   10 type  1   force =   0.18274982E-05  0.14607184E-05 -0.24670806E-05
     atom   11 type  1   force =   0.96208824E-06  0.17819567E-05  0.41719548E-06
     atom   12 type  1   force =  -0.57923899E-06 -0.10122507E-05 -0.14122092E-05
     atom   13 type  1   force =  -0.37485998E-05 -0.22903656E-05 -0.13416620E-05
     atom   14 type  1   force =  -0.21772556E-05 -0.23712201E-05 -0.33165712E-05
     atom   15 type  1   force =  -0.19070888E-06  0.11628865E-05 -0.22509952E-05
     atom   16 type  1   force =   0.12567898E-05  0.15721290E-05 -0.28148723E-05
     atom   17 type  1   force =   0.19897555E-05  0.31329410E-05 -0.16354396E-05
     atom   18 type  1   force =   0.22271613E-05  0.78732927E-06 -0.17343203E-05
     atom   19 type  1   force =  -0.19092530E-05 -0.46726328E-06 -0.18551429E-05
     atom   20 type  1   force =  -0.16953900E-05 -0.34705127E-05 -0.46625475E-06
     atom   21 type  1   force =  -0.20659796E-05 -0.16707856E-05  0.54095318E-06
     atom   22 type  1   force =   0.58544879E-06 -0.16648046E-05  0.52351615E-06
     atom   23 type  1   force =   0.24791855E-07  0.10873902E-05 -0.19503008E-05
     atom   24 type  1   force =   0.22791889E-05  0.78757926E-06 -0.15521840E-05
     atom   25 type  1   force =   0.84928392E-06 -0.30618955E-06 -0.10008262E-05
     atom   26 type  1   force =   0.75852459E-06 -0.53919838E-06 -0.76822123E-06
     atom   27 type  1   force =  -0.10471077E-08  0.15337089E-06  0.18546437E-05
     atom   28 type  1   force =   0.24828942E-06 -0.15671692E-05  0.19684433E-05
     atom   29 type  1   force =  -0.61607351E-06 -0.34661559E-05  0.25863453E-05
     atom   30 type  1   force =   0.22327653E-05 -0.32010835E-05  0.19423739E-05
     atom   31 type  1   force =   0.30130039E-05  0.60910342E-07  0.16249613E-05
     atom   32 type  1   force =   0.27312321E-05 -0.21938466E-06  0.67824373E-06
     atom   33 type  1   force =   0.14056165E-06  0.76353589E-06 -0.68450469E-06
     atom   34 type  1   force =  -0.48351675E-06  0.10128561E-05 -0.11454827E-05
     atom   35 type  1   force =   0.12728584E-05 -0.10703133E-06  0.61845429E-06
     atom   36 type  1   force =  -0.19983065E-06 -0.97349188E-06  0.45340713E-06
     atom   37 type  1   force =  -0.96581160E-06 -0.34590130E-05 -0.64373420E-06
     atom   38 type  1   force =  -0.15205065E-05 -0.53251147E-06 -0.18094586E-05
     atom   39 type  1   force =   0.11766248E-05  0.11892143E-05 -0.82141983E-06
     atom   40 type  1   force =  -0.48895349E-06  0.34551106E-05 -0.18886752E-06
     atom   41 type  1   force =   0.12783499E-05  0.17964981E-05 -0.20567843E-05
     atom   42 type  1   force =   0.96186591E-06  0.16913723E-05 -0.16056018E-05
     atom   43 type  1   force =  -0.86758991E-06 -0.15747832E-05 -0.29340551E-05
     atom   44 type  1   force =  -0.32738726E-05 -0.21582545E-05 -0.83159482E-06
     atom   45 type  1   force =  -0.15516812E-05 -0.12310659E-05 -0.98303546E-06
     atom   46 type  1   force =  -0.95671751E-06  0.17645008E-05  0.97286189E-07
     atom   47 type  1   force =  -0.38020879E-06  0.21978845E-05 -0.21910567E-05
     atom   48 type  1   force =  -0.53198906E-06  0.25242907E-05 -0.11449557E-05
     atom   49 type  1   force =   0.94699890E-06  0.17519079E-06 -0.18092022E-05
     atom   50 type  1   force =   0.52930561E-06 -0.12205752E-05 -0.40686116E-06
     atom   51 type  1   force =  -0.17479229E-06 -0.17967548E-05  0.12411267E-06
     atom   52 type  1   force =  -0.28443138E-06 -0.19448942E-05  0.28528587E-05
     atom   53 type  1   force =  -0.16084226E-05 -0.15742292E-05  0.22891213E-06
     atom   54 type  1   force =  -0.76434068E-06  0.34377860E-06  0.16618027E-05
     atom   55 type  1   force =   0.15314969E-05  0.28596725E-05 -0.49654555E-06
     atom   56 type  1   force =   0.16073578E-05  0.15903533E-05  0.91132684E-06
     atom   57 type  1   force =   0.16508639E-05  0.54111370E-06  0.45574722E-06
     atom   58 type  1   force =   0.10094282E-05  0.49963080E-06  0.10285632E-05
     atom   59 type  1   force =   0.64127499E-06 -0.26268261E-05  0.13342596E-05
     atom   60 type  1   force =  -0.88398358E-06 -0.22714944E-05  0.26662573E-05
     atom   61 type  1   force =   0.12642557E-05 -0.23869123E-05  0.40885402E-05
     atom   62 type  1   force =   0.13533701E-05 -0.50790069E-06  0.21972790E-05
     atom   63 type  1   force =   0.11806117E-05 -0.44879300E-06 -0.21146234E-07
     atom   64 type  1   force =   0.50866176E-06  0.37112949E-06 -0.57033169E-06
     atom   65 type  1   force =   0.10324393E-05  0.59329423E-06 -0.96615791E-06
     atom   66 type  1   force =   0.59812617E-06  0.88932808E-06 -0.10758468E-05
     atom   67 type  1   force =  -0.89890840E-06 -0.19820044E-05 -0.11399202E-05
     atom   68 type  1   force =  -0.15984582E-05 -0.21498810E-05  0.10108020E-06
     atom   69 type  1   force =  -0.67482183E-07  0.10135405E-06  0.59968343E-06
     atom   70 type  1   force =   0.10263177E-05  0.26850816E-05  0.75085879E-07
     atom   71 type  1   force =   0.34674377E-06  0.70448726E-06 -0.10264473E-05
     atom   72 type  1   force =  -0.76226226E-06 -0.52495819E-06 -0.16440134E-05
     atom   73 type  1   force =  -0.55827963E-06  0.75080062E-06 -0.16166339E-05
     atom   74 type  1   force =  -0.73553302E-06  0.44095647E-06 -0.17301549E-05
     atom   75 type  1   force =  -0.14079241E-05  0.19266284E-06  0.44672887E-06
     atom   76 type  1   force =  -0.18753507E-05  0.74184539E-06  0.17641511E-05
     atom   77 type  1   force =  -0.16588425E-05  0.16351884E-05  0.78636618E-06
     atom   78 type  1   force =  -0.14472813E-05  0.16293829E-05  0.43151538E-06
     atom   79 type  1   force =  -0.68516097E-06  0.17876984E-05 -0.13609021E-06
     atom   80 type  1   force =  -0.11793286E-06  0.10518340E-05 -0.46909195E-06
     atom   81 type  1   force =   0.10804503E-05  0.67768718E-06 -0.48639532E-06
     atom   82 type  1   force =   0.20471576E-05 -0.62058491E-07  0.59857008E-06
     atom   83 type  1   force =  -0.90579969E-06 -0.68630416E-07  0.13495358E-05
     atom   84 type  1   force =  -0.52477238E-06 -0.73179262E-06  0.20626290E-05
     atom   85 type  1   force =  -0.17223730E-05  0.14539758E-05  0.25037511E-05
     atom   86 type  1   force =  -0.20063603E-06 -0.21899534E-06  0.13212198E-06
     atom   87 type  1   force =  -0.50614827E-06 -0.63917864E-07 -0.12725914E-05
     atom   88 type  1   force =   0.78341848E-06 -0.10886605E-05 -0.15070113E-05
     atom   89 type  1   force =   0.15657910E-05 -0.10441469E-05  0.11556942E-06
     atom   90 type  1   force =   0.12552585E-05 -0.70183981E-06 -0.10563052E-05
     atom   91 type  1   force =   0.66700836E-06 -0.58209579E-06  0.17625125E-05
     atom   92 type  1   force =  -0.43001351E-06 -0.24059349E-05  0.70412999E-06
     atom   93 type  1   force =  -0.94445941E-06 -0.24978327E-05  0.40478831E-06
     atom   94 type  1   force =   0.78309810E-06 -0.11939266E-05 -0.77839105E-06
     atom   95 type  1   force =   0.27198199E-05  0.67425197E-07  0.32870914E-06
     atom   96 type  1   force =   0.32834740E-05 -0.77414212E-06  0.37403557E-06
     atom   97 type  1   force =  -0.60611594E-06  0.54633971E-07 -0.73678967E-06
     atom   98 type  1   force =  -0.12835887E-05  0.45802708E-06  0.17867198E-06
     atom   99 type  1   force =   0.18625430E-06  0.20248949E-06  0.17799030E-05
     atom  100 type  1   force =  -0.20814872E-06  0.91761996E-06  0.27794671E-05
     atom  101 type  1   force =   0.21667172E-06 -0.23768295E-06  0.20499346E-05
     atom  102 type  1   force =  -0.69896364E-06  0.26150081E-06  0.17624487E-05
     atom  103 type  1   force =   0.72688351E-06 -0.36687011E-06  0.15317218E-05
     atom  104 type  1   force =  -0.37086541E-06  0.11572537E-05  0.11854860E-05
     atom  105 type  1   force =   0.17417017E-06  0.17443357E-05 -0.24112589E-06
     atom  106 type  1   force =   0.22138400E-06  0.29195520E-05 -0.37670072E-06
     atom  107 type  1   force =  -0.13272136E-05  0.11432892E-05  0.84071010E-06
     atom  108 type  1   force =  -0.21257910E-05  0.15133784E-05  0.12744483E-05
     atom  109 type  1   force =  -0.19291020E-05  0.12959925E-05  0.14359629E-05
     atom  110 type  1   force =  -0.31359563E-05  0.14232050E-05  0.54122485E-06
     atom  111 type  1   force =  -0.20158287E-05  0.58789057E-06 -0.13332658E-05
     atom  112 type  1   force =  -0.16615975E-05  0.13884101E-05 -0.20603847E-05
     atom  113 type  1   force =   0.47650525E-06  0.19258655E-05 -0.17904800E-05
     atom  114 type  1   force =   0.93724387E-06  0.21712516E-05 -0.51183760E-06
     atom  115 type  1   force =  -0.40673081E-06  0.18456350E-05  0.10966220E-05
     atom  116 type  1   force =  -0.27963433E-05  0.28028434E-06  0.15596311E-05
     atom  117 type  1   force =  -0.37498182E-05 -0.12545329E-05 -0.20900225E-06
     atom  118 type  1   force =  -0.20295915E-05 -0.10442372E-05 -0.42918226E-07
     atom  119 type  1   force =   0.17923177E-07  0.10379322E-05 -0.13535461E-05
     atom  120 type  1   force =   0.13920443E-05  0.11804486E-05 -0.29599675E-06
     atom  121 type  1   force =   0.27260366E-05  0.13456167E-05  0.11034628E-06
     atom  122 type  1   force =   0.53425557E-06  0.94672978E-06  0.56946608E-06
     atom  123 type  1   force =  -0.20870578E-05 -0.16857346E-05 -0.13192738E-06
     atom  124 type  1   force =  -0.21803015E-05 -0.94674736E-06  0.19038424E-05
     atom  125 type  1   force =   0.39903549E-07 -0.95262399E-06  0.19632201E-05
     atom  126 type  1   force =   0.14643551E-05 -0.48371794E-06  0.23378450E-05
     atom  127 type  1   force =   0.24098066E-05 -0.16802535E-05  0.12341384E-06
     atom  128 type  1   force =   0.14254673E-05 -0.64070621E-06  0.57393871E-06

     Total force =     0.388550     Total SCF correction =     0.000029


     entering subroutine stress ...

          total   stress  (Ry/bohr**3)                   (kbar)     P=    2.79
   0.0000186591  -0.0000158859   0.0000170118          2.74     -2.34      2.50
  -0.0000158859   0.0000187549   0.0000093510         -2.34      2.76      1.38
   0.0000170118   0.0000093510   0.0000195521          2.50      1.38      2.88

     kinetic stress (kbar)   2190.96      1.47     -1.84
                                1.47   2190.95     -0.86
                               -1.84     -0.86   2190.99

     local   stress (kbar)   -290.25     18.14    -20.82
                               18.14   -289.39    -10.41
                              -20.82    -10.41   -290.92

     nonloc. stress (kbar)   1941.31     -2.12      2.48
                               -2.12   1941.31      1.24
                                2.48      1.24   1941.37

     hartree stress (kbar)    199.70     -2.18      2.24
                               -2.18    199.39      1.14
                                2.24      1.14    199.82

     exc-cor stress (kbar)    993.78     -0.03      0.03
                               -0.03    993.78      0.02
                                0.03      0.02    993.78

     corecor stress (kbar)  -1988.26      0.25     -0.29
                                0.25  -1988.26     -0.15
                               -0.29     -0.15  -1988.27

     ewald   stress (kbar)  -3044.49    -17.88     20.70
                              -17.88  -3045.03     10.39
                               20.70     10.39  -3043.89

     hubbard stress (kbar)      0.00      0.00      0.00
                                0.00      0.00      0.00
                                0.00      0.00      0.00

     london  stress (kbar)      0.00      0.00      0.00
                                0.00      0.00      0.00
                                0.00      0.00      0.00

     XDM     stress (kbar)      0.00      0.00      0.00
                                0.00      0.00      0.00
                                0.00      0.00      0.00

     dft-nl  stress (kbar)      0.00      0.00      0.00
                                0.00      0.00      0.00
                                0.00      0.00      0.00



     Writing output data file Si_diamond.scf.in.super.444.a.033.save

     init_run     :    496.73s CPU    451.24s WALL (       1 calls)
     electrons    :  15526.36s CPU  14662.28s WALL (       1 calls)
     forces       :    299.91s CPU    249.84s WALL (       1 calls)
     stress       :   1473.84s CPU   1529.08s WALL (       1 calls)

     Called by init_run:
     wfcinit      :    466.64s CPU    417.61s WALL (       1 calls)
     potinit      :      2.14s CPU      2.89s WALL (       1 calls)

     Called by electrons:
     c_bands      :  13010.85s CPU  12136.33s WALL (      15 calls)
     sum_band     :   2074.59s CPU   2065.63s WALL (      15 calls)
     v_of_rho     :      9.03s CPU     10.75s WALL (      15 calls)
     v_h          :      0.53s CPU      0.71s WALL (      15 calls)
     v_xc         :      9.65s CPU     11.72s WALL (      17 calls)
     newd         :    444.50s CPU    462.84s WALL (      15 calls)
     mix_rho      :     13.10s CPU     14.76s WALL (      15 calls)

     Called by c_bands:
     init_us_2    :     48.35s CPU     50.77s WALL (     264 calls)
     cegterg      :  12808.20s CPU  11920.97s WALL (     120 calls)

     Called by sum_band:
     sum_band:bec :      6.68s CPU      6.93s WALL (     120 calls)
     addusdens    :    326.12s CPU    348.11s WALL (      15 calls)

     Called by *egterg:
     h_psi        :   8055.83s CPU   7713.99s WALL (     625 calls)
     s_psi        :   1781.98s CPU   1233.82s WALL (     625 calls)
     g_psi        :      2.92s CPU      3.12s WALL (     497 calls)
     cdiaghg      :   1416.64s CPU   1708.12s WALL (     609 calls)
     cegterg:over :    893.40s CPU    744.20s WALL (     497 calls)
     cegterg:upda :    394.04s CPU    294.52s WALL (     497 calls)
     cegterg:last :    263.69s CPU    187.02s WALL (     127 calls)

     Called by h_psi:
     h_psi:vloc   :   4269.46s CPU   4991.23s WALL (     625 calls)
     h_psi:vnl    :   3779.11s CPU   2715.01s WALL (     625 calls)
     add_vuspsi   :   1795.44s CPU   1251.96s WALL (     625 calls)

     General routines
     calbec       :   2995.13s CPU   2248.52s WALL (     761 calls)
     fft          :     89.18s CPU     96.06s WALL (     265 calls)
     ffts         :      8.36s CPU      9.50s WALL (     267 calls)
     fftw         :   4793.94s CPU   5657.71s WALL (  226690 calls)
     interpolate  :      2.11s CPU      2.52s WALL (      30 calls)

     Parallel routines
     fft_scatter  :   3583.35s CPU   4198.13s WALL (  227222 calls)

     PWSCF        :     4h57m CPU        4h42m WALL


   This run was terminated on:  10:57:36  14Feb2017            

=------------------------------------------------------------------------------=
   JOB DONE.
=------------------------------------------------------------------------------=
