
     Program PWSCF v.5.1 starts on 27Oct2017 at 11:13:30 

     This program is part of the open-source Quantum ESPRESSO suite
     for quantum simulation of materials; please cite
         "P. Giannozzi et al., J. Phys.:Condens. Matter 21 395502 (2009);
          URL http://www.quantum-espresso.org", 
     in publications or presentations arising from this work. More details at
     http://www.quantum-espresso.org/quote

     Parallel version (MPI), running on     4 processors
     R & G space division:  proc/nbgrp/npool/nimage =       4
     Reading input from /tmp/Si_diamond.scf.in.sxsy.18810/Si_diamond.scf.in.sxsy.t
Warning: card &IONS ignored
Warning: card   ION_DYNAMICS='BFGS', ignored
Warning: card / ignored
Warning: card &CELL ignored
Warning: card  CELL_DYNAMICS = 'BFGS' ignored
Warning: card / ignored
     Message from routine read_cards :
     DEPRECATED: no units specified in CELL_PARAMETERS card

     Current dimensions of program PWSCF are:
     Max number of different atomic species (ntypx) = 10
     Max number of k-points (npk) =  40000
     Max angular momentum in pseudopotentials (lmaxx) =  3
 kfg - two_fermi_energies  F

     Subspace diagonalization in iterative solution of the eigenvalue problem:
     a serial algorithm will be used


     Parallelization info
     --------------------
     sticks:   dense  smooth     PW     G-vecs:    dense   smooth      PW
     Min         186     127     40                 3310     1935     348
     Max         187     128     41                 3312     1944     350
     Sum         745     511    163                13243     7759    1395



     bravais-lattice index     =            0
     lattice parameter (alat)  =     7.294182277  a.u.
     unit-cell volume          =     275.7676 (a.u.)^3
     number of atoms/cell      =            2
     number of atomic types    =            1
     number of electrons       =         8.00
     number of Kohn-Sham states=            8
     kinetic-energy cutoff     =      35.0000  Ry
     charge density cutoff     =     200.0000  Ry
     convergence threshold     =      1.0E-09
     mixing beta               =       0.3000
     number of iterations used =            8  local-TF  mixing
     Exchange-correlation      = SLA  PW   PSX  PSC ( 1  4 10  8 0)
     A smooth kinetic-energy cutoff is imposed at      34.5000 Ry
     height of the smooth step-function =             800.0000 Ry
     width of the smooth step-function  =               1.0000 Ry


     celldm(1)=   7.294182  celldm(2)=   0.000000  celldm(3)=   0.000000
     celldm(4)=   0.000000  celldm(5)=   0.000000  celldm(6)=   0.000000

     crystal axes: (cart. coord. in units of alat)
               a(1) = (   0.000000000000   0.710615930892   0.703580129596 )  
               a(2) = (   0.710615930892   0.000000000000   0.703580129596 )  
               a(3) = (   0.710615930892   0.710615930892   0.000000000000 )  

     reciprocal axes: (cart. coord. in units 2 pi/alat)
               b(1) = ( -0.703615  0.703615  0.710651 )  
               b(2) = (  0.703615 -0.703615  0.710651 )  
               b(3) = (  0.703615  0.703615 -0.710651 )  


     PseudoPot. # 1 for Si read from file:
     /users/kfg/psuedo/gbrv_1.5/si.pbesol.UPF
     MD5 check sum: ef58ba74faed4df802eb8a9742fc00a8
     Pseudo is Ultrasoft + core correction, Zval =  4.0
     Generated by new atomic code, or converted to UPF format
     Using radial grid of  899 points,  6 beta functions with: 
                l(1) =   0
                l(2) =   0
                l(3) =   1
                l(4) =   1
                l(5) =   2
                l(6) =   2
     Q(r) pseudized with  8 coefficients,  rinner =    0.900   0.900   0.900
                                                       0.900   0.900

     atomic species   valence    mass     pseudopotential
        Si             4.00    28.08550     Si( 1.00)

     16 Sym. Ops., with inversion, found ( 8 have fractional translation)


                                    s                        frac. trans.

      isym =  1     identity                                     

 cryst.   s( 1) = (     1          0          0      )
                  (     0          1          0      )
                  (     0          0          1      )

 cart.    s( 1) = (  1.0000000  0.0000000  0.0000000 )
                  (  0.0000000  1.0000000  0.0000000 )
                  (  0.0000000  0.0000000  1.0000000 )


      isym =  2     180 deg rotation - cart. axis [0,0,1]        

 cryst.   s( 2) = (     0          1         -1      )
                  (     1          0         -1      )
                  (     0          0         -1      )

 cart.    s( 2) = ( -1.0000000  0.0000000  0.0000000 )
                  (  0.0000000 -1.0000000  0.0000000 )
                  (  0.0000000  0.0000000  1.0000000 )


      isym =  3     180 deg rotation - cart. axis [0,1,0]        

 cryst.   s( 3) = (     0         -1          1      )
                  (     0         -1          0      )
                  (     1         -1          0      )

 cart.    s( 3) = ( -1.0000000  0.0000000  0.0000000 )
                  (  0.0000000  1.0000000  0.0000000 )
                  (  0.0000000  0.0000000 -1.0000000 )


      isym =  4     180 deg rotation - cart. axis [1,0,0]        

 cryst.   s( 4) = (    -1          0          0      )
                  (    -1          0          1      )
                  (    -1          1          0      )

 cart.    s( 4) = (  1.0000000  0.0000000  0.0000000 )
                  (  0.0000000 -1.0000000  0.0000000 )
                  (  0.0000000  0.0000000 -1.0000000 )


      isym =  5     180 deg rotation - cart. axis [1,1,0]        

 cryst.   s( 5) = (    -1          0          1      )    f =( -0.2500000 )
                  (     0         -1          1      )       ( -0.2500000 )
                  (     0          0          1      )       ( -0.2500000 )

 cart.    s( 5) = (  0.0000000  1.0000000  0.0000000 )    f =( -0.3553080 )
                  (  1.0000000  0.0000000  0.0000000 )       ( -0.3553080 )
                  (  0.0000000  0.0000000 -1.0000000 )       ( -0.3517901 )


      isym =  6     180 deg rotation - cart. axis [1,-1,0]       

 cryst.   s( 6) = (     0         -1          0      )    f =( -0.2500000 )
                  (    -1          0          0      )       ( -0.2500000 )
                  (     0          0         -1      )       ( -0.2500000 )

 cart.    s( 6) = (  0.0000000 -1.0000000  0.0000000 )    f =( -0.3553080 )
                  ( -1.0000000  0.0000000  0.0000000 )       ( -0.3553080 )
                  (  0.0000000  0.0000000 -1.0000000 )       ( -0.3517901 )


      isym =  7      90 deg rotation - cart. axis [0,0,-1]       

 cryst.   s( 7) = (     0          1          0      )    f =( -0.2500000 )
                  (     0          1         -1      )       ( -0.2500000 )
                  (    -1          1          0      )       ( -0.2500000 )

 cart.    s( 7) = (  0.0000000  1.0000000  0.0000000 )    f =( -0.3553080 )
                  ( -1.0000000  0.0000000  0.0000000 )       ( -0.3553080 )
                  (  0.0000000  0.0000000  1.0000000 )       ( -0.3517901 )


      isym =  8      90 deg rotation - cart. axis [0,0,1]        

 cryst.   s( 8) = (     1          0         -1      )    f =( -0.2500000 )
                  (     1          0          0      )       ( -0.2500000 )
                  (     1         -1          0      )       ( -0.2500000 )

 cart.    s( 8) = (  0.0000000 -1.0000000  0.0000000 )    f =( -0.3553080 )
                  (  1.0000000  0.0000000  0.0000000 )       ( -0.3553080 )
                  (  0.0000000  0.0000000  1.0000000 )       ( -0.3517901 )


      isym =  9     inversion                                    

 cryst.   s( 9) = (    -1          0          0      )    f =( -0.2500000 )
                  (     0         -1          0      )       ( -0.2500000 )
                  (     0          0         -1      )       ( -0.2500000 )

 cart.    s( 9) = ( -1.0000000  0.0000000  0.0000000 )    f =( -0.3553080 )
                  (  0.0000000 -1.0000000  0.0000000 )       ( -0.3553080 )
                  (  0.0000000  0.0000000 -1.0000000 )       ( -0.3517901 )


      isym = 10     inv. 180 deg rotation - cart. axis [0,0,1]   

 cryst.   s(10) = (     0         -1          1      )    f =( -0.2500000 )
                  (    -1          0          1      )       ( -0.2500000 )
                  (     0          0          1      )       ( -0.2500000 )

 cart.    s(10) = (  1.0000000  0.0000000  0.0000000 )    f =( -0.3553080 )
                  (  0.0000000  1.0000000  0.0000000 )       ( -0.3553080 )
                  (  0.0000000  0.0000000 -1.0000000 )       ( -0.3517901 )


      isym = 11     inv. 180 deg rotation - cart. axis [0,1,0]   

 cryst.   s(11) = (     0          1         -1      )    f =( -0.2500000 )
                  (     0          1          0      )       ( -0.2500000 )
                  (    -1          1          0      )       ( -0.2500000 )

 cart.    s(11) = (  1.0000000  0.0000000  0.0000000 )    f =( -0.3553080 )
                  (  0.0000000 -1.0000000  0.0000000 )       ( -0.3553080 )
                  (  0.0000000  0.0000000  1.0000000 )       ( -0.3517901 )


      isym = 12     inv. 180 deg rotation - cart. axis [1,0,0]   

 cryst.   s(12) = (     1          0          0      )    f =( -0.2500000 )
                  (     1          0         -1      )       ( -0.2500000 )
                  (     1         -1          0      )       ( -0.2500000 )

 cart.    s(12) = ( -1.0000000  0.0000000  0.0000000 )    f =( -0.3553080 )
                  (  0.0000000  1.0000000  0.0000000 )       ( -0.3553080 )
                  (  0.0000000  0.0000000  1.0000000 )       ( -0.3517901 )


      isym = 13     inv. 180 deg rotation - cart. axis [1,1,0]   

 cryst.   s(13) = (     1          0         -1      )
                  (     0          1         -1      )
                  (     0          0         -1      )

 cart.    s(13) = (  0.0000000 -1.0000000  0.0000000 )
                  ( -1.0000000  0.0000000  0.0000000 )
                  (  0.0000000  0.0000000  1.0000000 )


      isym = 14     inv. 180 deg rotation - cart. axis [1,-1,0]  

 cryst.   s(14) = (     0          1          0      )
                  (     1          0          0      )
                  (     0          0          1      )

 cart.    s(14) = (  0.0000000  1.0000000  0.0000000 )
                  (  1.0000000  0.0000000  0.0000000 )
                  (  0.0000000  0.0000000  1.0000000 )


      isym = 15     inv.  90 deg rotation - cart. axis [0,0,-1]  

 cryst.   s(15) = (     0         -1          0      )
                  (     0         -1          1      )
                  (     1         -1          0      )

 cart.    s(15) = (  0.0000000 -1.0000000  0.0000000 )
                  (  1.0000000  0.0000000  0.0000000 )
                  (  0.0000000  0.0000000 -1.0000000 )


      isym = 16     inv.  90 deg rotation - cart. axis [0,0,1]   

 cryst.   s(16) = (    -1          0          1      )
                  (    -1          0          0      )
                  (    -1          1          0      )

 cart.    s(16) = (  0.0000000  1.0000000  0.0000000 )
                  ( -1.0000000  0.0000000  0.0000000 )
                  (  0.0000000  0.0000000 -1.0000000 )


     point group D_4h(4/mmm)
     there are 10 classes
     the character table:

       E     2C4   C2    2C2'  2C2'' i     2S4   s_h   2s_v  2s_d 
A_1g   1.00  1.00  1.00  1.00  1.00  1.00  1.00  1.00  1.00  1.00
A_2g   1.00  1.00  1.00 -1.00 -1.00  1.00  1.00  1.00 -1.00 -1.00
B_1g   1.00 -1.00  1.00  1.00 -1.00  1.00 -1.00  1.00  1.00 -1.00
B_2g   1.00 -1.00  1.00 -1.00  1.00  1.00 -1.00  1.00 -1.00  1.00
E_g    2.00  0.00 -2.00  0.00  0.00  2.00  0.00 -2.00  0.00  0.00
A_1u   1.00  1.00  1.00  1.00  1.00 -1.00 -1.00 -1.00 -1.00 -1.00
A_2u   1.00  1.00  1.00 -1.00 -1.00 -1.00 -1.00 -1.00  1.00  1.00
B_1u   1.00 -1.00  1.00  1.00 -1.00 -1.00  1.00 -1.00 -1.00  1.00
B_2u   1.00 -1.00  1.00 -1.00  1.00 -1.00  1.00 -1.00  1.00 -1.00
E_u    2.00  0.00 -2.00  0.00  0.00 -2.00  0.00  2.00  0.00  0.00

     the symmetry operations in each class:
     E        1
     C2       2
     2C2'     3    4
     2C2''    5    6
     2C4      7    8
     i        9
     s_h     10
     2s_v    11   12
     2s_d    13   14
     2S4     15   16

   Cartesian axes

     site n.     atom                  positions (alat units)
         1           Si  tau(   1) = (    0.00000000000    0.00000000000    0.00000000000  )
         2           Si  tau(   2) = (    0.35530796545    0.35530796545    0.35179006480  )

   Crystallographic axes

     site n.     atom                  positions (cryst. coord.)
         1           Si  tau(   1) = (    0.00000000000    0.00000000000    0.00000000000  )
         2           Si  tau(   2) = (    0.25000000000    0.25000000000    0.25000000000  )

     number of k points=    59  gaussian smearing, width (Ry)=  0.0150
                       cart. coord. in units 2pi/alat
        k(    1) = (   0.0000000   0.0000000   0.0000000), wk =   0.0039063
        k(    2) = (   0.0879519   0.0879519  -0.0888314), wk =   0.0312500
        k(    3) = (   0.1759037   0.1759037  -0.1776628), wk =   0.0312500
        k(    4) = (   0.2638556   0.2638556  -0.2664942), wk =   0.0312500
        k(    5) = (  -0.3518075  -0.3518075   0.3553256), wk =   0.0156250
        k(    6) = (   0.1759037   0.0000000   0.0000000), wk =   0.0156250
        k(    7) = (   0.2638556   0.0879519  -0.0888314), wk =   0.0625000
        k(    8) = (   0.3518075   0.1759037  -0.1776628), wk =   0.0625000
        k(    9) = (  -0.2638556  -0.4397594   0.4441569), wk =   0.0625000
        k(   10) = (  -0.1759037  -0.3518075   0.3553256), wk =   0.0625000
        k(   11) = (  -0.0879519  -0.2638556   0.2664942), wk =   0.0625000
        k(   12) = (   0.0000000  -0.1759037   0.1776628), wk =   0.0312500
        k(   13) = (   0.3518075   0.0000000   0.0000000), wk =   0.0156250
        k(   14) = (   0.4397594   0.0879519  -0.0888314), wk =   0.0625000
        k(   15) = (  -0.1759037  -0.5277112   0.5329883), wk =   0.0625000
        k(   16) = (  -0.0879519  -0.4397594   0.4441569), wk =   0.0625000
        k(   17) = (   0.0000000  -0.3518075   0.3553256), wk =   0.0312500
        k(   18) = (   0.5277112   0.0000000   0.0000000), wk =   0.0156250
        k(   19) = (  -0.0879519  -0.6156631   0.6218197), wk =   0.0625000
        k(   20) = (   0.0000000  -0.5277112   0.5329883), wk =   0.0312500
        k(   21) = (  -0.7036150   0.0000000   0.0000000), wk =   0.0078125
        k(   22) = (   0.0000000   0.0000000   0.1776628), wk =   0.0078125
        k(   23) = (   0.1759037   0.1759037   0.0000000), wk =   0.0156250
        k(   24) = (   0.2638556   0.2638556  -0.0888314), wk =   0.0312500
        k(   25) = (  -0.3518075  -0.3518075   0.5329883), wk =   0.0312500
        k(   26) = (  -0.2638556  -0.2638556   0.4441569), wk =   0.0312500
        k(   27) = (  -0.1759037  -0.1759037   0.3553256), wk =   0.0312500
        k(   28) = (  -0.0879519  -0.0879519   0.2664942), wk =   0.0312500
        k(   29) = (   0.3518075   0.1759037   0.0000000), wk =   0.0312500
        k(   30) = (  -0.2638556  -0.4397594   0.6218197), wk =   0.0625000
        k(   31) = (  -0.1759037  -0.3518075   0.5329883), wk =   0.0625000
        k(   32) = (  -0.0879519  -0.2638556   0.4441569), wk =   0.0625000
        k(   33) = (   0.0000000  -0.1759037   0.3553256), wk =   0.0312500
        k(   34) = (   0.3518075   0.0000000   0.1776628), wk =   0.0312500
        k(   35) = (  -0.1759037  -0.5277112   0.7106511), wk =   0.0312500
        k(   36) = (  -0.0879519  -0.4397594   0.6218197), wk =   0.0625000
        k(   37) = (  -0.0000000  -0.3518075   0.5329883), wk =   0.0312500
        k(   38) = (  -0.2638556   0.6156631  -0.4441569), wk =   0.0625000
        k(   39) = (  -0.1759037   0.7036150  -0.5329883), wk =   0.0312500
        k(   40) = (  -0.7036150   0.1759037   0.0000000), wk =   0.0156250
        k(   41) = (  -0.1759037   0.5277112  -0.3553256), wk =   0.0312500
        k(   42) = (  -0.0879519   0.6156631  -0.4441569), wk =   0.0625000
        k(   43) = (  -0.7036150   0.0000000   0.1776628), wk =   0.0156250
        k(   44) = (   0.0000000   0.5277112  -0.3553256), wk =   0.0312500
        k(   45) = (   0.0000000   0.0000000   0.3553256), wk =   0.0078125
        k(   46) = (  -0.3518075  -0.3518075   0.7106511), wk =   0.0156250
        k(   47) = (  -0.2638556  -0.2638556   0.6218197), wk =   0.0312500
        k(   48) = (  -0.1759037  -0.1759037   0.5329883), wk =   0.0312500
        k(   49) = (  -0.0879519  -0.0879519   0.4441569), wk =   0.0312500
        k(   50) = (  -0.1759037  -0.3518075   0.7106511), wk =   0.0312500
        k(   51) = (  -0.0879519  -0.2638556   0.6218197), wk =   0.0625000
        k(   52) = (  -0.0000000  -0.1759037   0.5329883), wk =   0.0312500
        k(   53) = (  -0.7036150   0.3518075   0.0000000), wk =   0.0156250
        k(   54) = (  -0.7036150   0.0000000   0.3553256), wk =   0.0078125
        k(   55) = (   0.0000000   0.0000000   0.5329883), wk =   0.0078125
        k(   56) = (  -0.1759037  -0.1759037   0.7106511), wk =   0.0156250
        k(   57) = (  -0.0879519  -0.0879519   0.6218197), wk =   0.0312500
        k(   58) = (  -0.7036150   0.5277112  -0.0000000), wk =   0.0156250
        k(   59) = (   0.0000000   0.0000000  -0.7106511), wk =   0.0039063

                       cryst. coord.
        k(    1) = (   0.0000000   0.0000000   0.0000000), wk =   0.0039063
        k(    2) = (  -0.0000000  -0.0000000   0.1250000), wk =   0.0312500
        k(    3) = (  -0.0000000  -0.0000000   0.2500000), wk =   0.0312500
        k(    4) = (  -0.0000000  -0.0000000   0.3750000), wk =   0.0312500
        k(    5) = (   0.0000000   0.0000000  -0.5000000), wk =   0.0156250
        k(    6) = (   0.0000000   0.1250000   0.1250000), wk =   0.0156250
        k(    7) = (  -0.0000000   0.1250000   0.2500000), wk =   0.0625000
        k(    8) = (  -0.0000000   0.1250000   0.3750000), wk =   0.0625000
        k(    9) = (   0.0000000   0.1250000  -0.5000000), wk =   0.0625000
        k(   10) = (   0.0000000   0.1250000  -0.3750000), wk =   0.0625000
        k(   11) = (   0.0000000   0.1250000  -0.2500000), wk =   0.0625000
        k(   12) = (   0.0000000   0.1250000  -0.1250000), wk =   0.0312500
        k(   13) = (   0.0000000   0.2500000   0.2500000), wk =   0.0156250
        k(   14) = (  -0.0000000   0.2500000   0.3750000), wk =   0.0625000
        k(   15) = (   0.0000000   0.2500000  -0.5000000), wk =   0.0625000
        k(   16) = (   0.0000000   0.2500000  -0.3750000), wk =   0.0625000
        k(   17) = (   0.0000000   0.2500000  -0.2500000), wk =   0.0312500
        k(   18) = (   0.0000000   0.3750000   0.3750000), wk =   0.0156250
        k(   19) = (   0.0000000   0.3750000  -0.5000000), wk =   0.0625000
        k(   20) = (   0.0000000   0.3750000  -0.3750000), wk =   0.0312500
        k(   21) = (   0.0000000  -0.5000000  -0.5000000), wk =   0.0078125
        k(   22) = (   0.1250000   0.1250000   0.0000000), wk =   0.0078125
        k(   23) = (   0.1250000   0.1250000   0.2500000), wk =   0.0156250
        k(   24) = (   0.1250000   0.1250000   0.3750000), wk =   0.0312500
        k(   25) = (   0.1250000   0.1250000  -0.5000000), wk =   0.0312500
        k(   26) = (   0.1250000   0.1250000  -0.3750000), wk =   0.0312500
        k(   27) = (   0.1250000   0.1250000  -0.2500000), wk =   0.0312500
        k(   28) = (   0.1250000   0.1250000  -0.1250000), wk =   0.0312500
        k(   29) = (   0.1250000   0.2500000   0.3750000), wk =   0.0312500
        k(   30) = (   0.1250000   0.2500000  -0.5000000), wk =   0.0625000
        k(   31) = (   0.1250000   0.2500000  -0.3750000), wk =   0.0625000
        k(   32) = (   0.1250000   0.2500000  -0.2500000), wk =   0.0625000
        k(   33) = (   0.1250000   0.2500000  -0.1250000), wk =   0.0312500
        k(   34) = (   0.1250000   0.3750000   0.2500000), wk =   0.0312500
        k(   35) = (   0.1250000   0.3750000  -0.5000000), wk =   0.0312500
        k(   36) = (   0.1250000   0.3750000  -0.3750000), wk =   0.0625000
        k(   37) = (   0.1250000   0.3750000  -0.2500000), wk =   0.0312500
        k(   38) = (   0.1250000  -0.5000000   0.2500000), wk =   0.0625000
        k(   39) = (   0.1250000  -0.5000000   0.3750000), wk =   0.0312500
        k(   40) = (   0.1250000  -0.5000000  -0.3750000), wk =   0.0156250
        k(   41) = (   0.1250000  -0.3750000   0.2500000), wk =   0.0312500
        k(   42) = (   0.1250000  -0.3750000   0.3750000), wk =   0.0625000
        k(   43) = (   0.1250000  -0.3750000  -0.5000000), wk =   0.0156250
        k(   44) = (   0.1250000  -0.2500000   0.3750000), wk =   0.0312500
        k(   45) = (   0.2500000   0.2500000   0.0000000), wk =   0.0078125
        k(   46) = (   0.2500000   0.2500000  -0.5000000), wk =   0.0156250
        k(   47) = (   0.2500000   0.2500000  -0.3750000), wk =   0.0312500
        k(   48) = (   0.2500000   0.2500000  -0.2500000), wk =   0.0312500
        k(   49) = (   0.2500000   0.2500000  -0.1250000), wk =   0.0312500
        k(   50) = (   0.2500000   0.3750000  -0.3750000), wk =   0.0312500
        k(   51) = (   0.2500000   0.3750000  -0.2500000), wk =   0.0625000
        k(   52) = (   0.2500000   0.3750000  -0.1250000), wk =   0.0312500
        k(   53) = (   0.2500000  -0.5000000  -0.2500000), wk =   0.0156250
        k(   54) = (   0.2500000  -0.2500000  -0.5000000), wk =   0.0078125
        k(   55) = (   0.3750000   0.3750000   0.0000000), wk =   0.0078125
        k(   56) = (   0.3750000   0.3750000  -0.2500000), wk =   0.0156250
        k(   57) = (   0.3750000   0.3750000  -0.1250000), wk =   0.0312500
        k(   58) = (   0.3750000  -0.5000000  -0.1250000), wk =   0.0156250
        k(   59) = (  -0.5000000  -0.5000000   0.0000000), wk =   0.0039063

     Dense  grid:    13243 G-vectors     FFT dimensions: (  36,  36,  36)

     Smooth grid:     7759 G-vectors     FFT dimensions: (  27,  27,  27)

     Largest allocated arrays     est. size (Mb)     dimensions
        Kohn-Sham Wavefunctions         0.03 Mb     (     256,    8)
        NL pseudopotentials             0.14 Mb     (     256,   36)
        Each V/rho on FFT grid          0.18 Mb     (   11664)
        Each G-vector array             0.03 Mb     (    3312)
        G-vector shells                 0.01 Mb     (     836)
     Largest temporary arrays     est. size (Mb)     dimensions
        Auxiliary wavefunctions         0.13 Mb     (     256,   32)
        Each subspace H/S matrix        0.02 Mb     (      32,   32)
        Each <psi_i|beta_j> matrix      0.00 Mb     (      36,    8)
        Arrays for rho mixing           1.42 Mb     (   11664,    8)

     Initial potential from superposition of free atoms

     starting charge    7.99870, renormalised to    8.00000
     Starting wfc are    8 randomized atomic wfcs

     total cpu time spent up to now is        1.5 secs

     per-process dynamical memory:     7.9 Mb

     Self-consistent Calculation

     iteration #  1     ecut=    35.00 Ry     beta=0.30
     Davidson diagonalization with overlap
     ethr =  1.00E-02,  avg # of iterations =  3.6

     Threshold (ethr) on eigenvalues was too large:
     Diagonalizing with lowered threshold

     Davidson diagonalization with overlap
     ethr =  6.77E-04,  avg # of iterations =  1.1

     total cpu time spent up to now is        8.7 secs

     total energy              =     -19.12774689 Ry
     Harris-Foulkes estimate   =     -19.13329938 Ry
     estimated scf accuracy    <       0.05325771 Ry

     iteration #  2     ecut=    35.00 Ry     beta=0.30
     Davidson diagonalization with overlap
     ethr =  6.66E-04,  avg # of iterations =  1.0

     total cpu time spent up to now is       11.3 secs

     total energy              =     -19.11716034 Ry
     Harris-Foulkes estimate   =     -19.12800909 Ry
     estimated scf accuracy    <       0.03248253 Ry

     iteration #  3     ecut=    35.00 Ry     beta=0.30
     Davidson diagonalization with overlap
     ethr =  4.06E-04,  avg # of iterations =  1.0

     total cpu time spent up to now is       14.0 secs

     total energy              =     -19.11917006 Ry
     Harris-Foulkes estimate   =     -19.11904258 Ry
     estimated scf accuracy    <       0.00031849 Ry

     iteration #  4     ecut=    35.00 Ry     beta=0.30
     Davidson diagonalization with overlap
     ethr =  3.98E-06,  avg # of iterations =  3.8

     total cpu time spent up to now is       18.4 secs

     total energy              =     -19.11925010 Ry
     Harris-Foulkes estimate   =     -19.11928550 Ry
     estimated scf accuracy    <       0.00012745 Ry

     iteration #  5     ecut=    35.00 Ry     beta=0.30
     Davidson diagonalization with overlap
     ethr =  1.59E-06,  avg # of iterations =  1.0

     total cpu time spent up to now is       21.1 secs

     total energy              =     -19.11926067 Ry
     Harris-Foulkes estimate   =     -19.11925975 Ry
     estimated scf accuracy    <       0.00000152 Ry

     iteration #  6     ecut=    35.00 Ry     beta=0.30
     Davidson diagonalization with overlap
     ethr =  1.91E-08,  avg # of iterations =  2.5

     total cpu time spent up to now is       24.3 secs

     total energy              =     -19.11926103 Ry
     Harris-Foulkes estimate   =     -19.11926111 Ry
     estimated scf accuracy    <       0.00000037 Ry

     iteration #  7     ecut=    35.00 Ry     beta=0.30
     Davidson diagonalization with overlap
     ethr =  4.57E-09,  avg # of iterations =  1.2

     total cpu time spent up to now is       27.0 secs

     total energy              =     -19.11926107 Ry
     Harris-Foulkes estimate   =     -19.11926106 Ry
     estimated scf accuracy    <          2.3E-09 Ry

     iteration #  8     ecut=    35.00 Ry     beta=0.30
     Davidson diagonalization with overlap
     ethr =  2.83E-11,  avg # of iterations =  3.0

     total cpu time spent up to now is       30.6 secs

     End of self-consistent calculation

          k = 0.0000 0.0000 0.0000 (   941 PWs)   bands (ev):

    -5.9105   5.9156   5.9156   5.9842   8.4269   8.4626   8.4626   9.0156

     occupation numbers 
     1.0000   0.9661   0.9661   0.9117   0.0000   0.0000   0.0000   0.0000

          k = 0.0880 0.0880-0.0888 (   946 PWs)   bands (ev):

    -5.7093   4.3309   5.6248   5.6793   8.3216   8.8621   8.8789  10.4195

     occupation numbers 
     1.0000   1.0000   0.9999   0.9997   0.0000   0.0000   0.0000   0.0000

          k = 0.1759 0.1759-0.1777 (   955 PWs)   bands (ev):

    -5.1222   2.0234   5.1502   5.2218   7.8259   9.3705   9.3985  12.6103

     occupation numbers 
     1.0000   1.0000   1.0000   1.0000   0.0000   0.0000   0.0000   0.0000

          k = 0.2639 0.2639-0.2665 (   959 PWs)   bands (ev):

    -4.2415   0.0281   4.8193   4.9059   7.4569   9.3014   9.3725  13.5886

     occupation numbers 
     1.0000   1.0000   1.0000   1.0000   0.0000   0.0000   0.0000   0.0000

          k =-0.3518-0.3518 0.3553 (   972 PWs)   bands (ev):

    -3.6137  -0.9800   4.7058   4.7982   7.3277   9.1896   9.2692  13.4331

     occupation numbers 
     1.0000   1.0000   1.0000   1.0000   0.0000   0.0000   0.0000   0.0000

          k = 0.1759 0.0000 0.0000 (   946 PWs)   bands (ev):

    -5.6430   4.5594   5.1320   5.1748   7.9040   9.5316   9.6085  10.1015

     occupation numbers 
     1.0000   1.0000   1.0000   1.0000   0.0000   0.0000   0.0000   0.0000

          k = 0.2639 0.0880-0.0888 (   954 PWs)   bands (ev):

    -5.1824   2.7115   4.6413   4.6964   8.0355   9.5117  10.3342  10.5798

     occupation numbers 
     1.0000   1.0000   1.0000   1.0000   0.0000   0.0000   0.0000   0.0000

          k = 0.3518 0.1759-0.1777 (   962 PWs)   bands (ev):

    -4.3803   0.6825   4.0842   4.3916   8.1113   9.4471  10.3530  11.3181

     occupation numbers 
     1.0000   1.0000   1.0000   1.0000   0.0000   0.0000   0.0000   0.0000

          k =-0.2639-0.4398 0.4442 (   965 PWs)   bands (ev):

    -3.5306  -0.7618   3.6407   4.4173   8.0493   9.3256   9.9997  13.1906

     occupation numbers 
     1.0000   1.0000   1.0000   1.0000   0.0000   0.0000   0.0000   0.0000

          k =-0.1759-0.3518 0.3553 (   961 PWs)   bands (ev):

    -3.7663  -0.4027   3.4640   4.7108   8.2035   9.4465   9.7648  13.6319

     occupation numbers 
     1.0000   1.0000   1.0000   1.0000   0.0000   0.0000   0.0000   0.0000

          k =-0.0880-0.2639 0.2665 (   960 PWs)   bands (ev):

    -4.6755   1.3248   3.6200   5.1947   8.5488   9.5544   9.6946  12.0492

     occupation numbers 
     1.0000   1.0000   1.0000   1.0000   0.0000   0.0000   0.0000   0.0000

          k = 0.0000-0.1759 0.1777 (   954 PWs)   bands (ev):

    -5.3764   3.2470   4.3028   5.6664   8.8771   8.9914   9.1959  11.2957

     occupation numbers 
     1.0000   1.0000   1.0000   0.9998   0.0000   0.0000   0.0000   0.0000

          k = 0.3518 0.0000 0.0000 (   976 PWs)   bands (ev):

    -4.8499   2.3901   4.0770   4.0993   7.0229   8.9684  11.5216  11.6604

     occupation numbers 
     1.0000   1.0000   1.0000   1.0000   0.0000   0.0000   0.0000   0.0000

          k = 0.4398 0.0880-0.0888 (   974 PWs)   bands (ev):

    -4.1525   0.9984   3.2908   3.7766   7.2419   8.7582  11.7704  12.1346

     occupation numbers 
     1.0000   1.0000   1.0000   1.0000   0.0000   0.0000   0.0000   0.0000

          k =-0.1759-0.5277 0.5330 (   967 PWs)   bands (ev):

    -3.2403  -0.4120   2.4155   3.7819   7.4038  10.3248  11.4916  11.8083

     occupation numbers 
     1.0000   1.0000   1.0000   1.0000   0.0000   0.0000   0.0000   0.0000

          k =-0.0880-0.4398 0.4442 (   967 PWs)   bands (ev):

    -3.0299  -0.6725   1.9566   4.0979   7.7270  11.2065  11.3876  12.7975

     occupation numbers 
     1.0000   1.0000   1.0000   1.0000   0.0000   0.0000   0.0000   0.0000

          k = 0.0000-0.3518 0.3553 (   967 PWs)   bands (ev):

    -3.8920   0.4700   2.1955   4.6498   8.3257  10.6265  10.9447  11.8817

     occupation numbers 
     1.0000   1.0000   1.0000   1.0000   0.0000   0.0000   0.0000   0.0000

          k = 0.5277 0.0000 0.0000 (   974 PWs)   bands (ev):

    -3.5626   0.1920   3.3793   3.3890   6.5111   7.4130  13.7353  13.9344

     occupation numbers 
     1.0000   1.0000   1.0000   1.0000   0.0107   0.0000   0.0000   0.0000

          k =-0.0880-0.6157 0.6218 (   971 PWs)   bands (ev):

    -2.6806  -0.8720   2.5473   3.3102   6.7855   7.8578  13.9850  14.1999

     occupation numbers 
     1.0000   1.0000   1.0000   1.0000   0.0000   0.0000   0.0000   0.0000

          k = 0.0000-0.5277 0.5330 (   965 PWs)   bands (ev):

    -2.2404  -1.2607   1.6717   3.5655   7.0923  10.0120  13.2601  13.7910

     occupation numbers 
     1.0000   1.0000   1.0000   1.0000   0.0000   0.0000   0.0000   0.0000

          k =-0.7036 0.0000 0.0000 (   974 PWs)   bands (ev):

    -1.8450  -1.8450   3.1429   3.1429   6.6012   6.6012  15.8090  15.8090

     occupation numbers 
     1.0000   1.0000   1.0000   1.0000   0.0017   0.0017   0.0000   0.0000

          k = 0.0000 0.0000 0.1777 (   945 PWs)   bands (ev):

    -5.6383   4.6201   5.1115   5.1115   7.8491   9.5885   9.5885  10.1023

     occupation numbers 
     1.0000   1.0000   1.0000   1.0000   0.0000   0.0000   0.0000   0.0000

          k = 0.1759 0.1759 0.0000 (   955 PWs)   bands (ev):

    -5.3808   3.2514   4.3538   5.6120   8.8243   9.0122   9.2567  11.3203

     occupation numbers 
     1.0000   1.0000   1.0000   1.0000   0.0000   0.0000   0.0000   0.0000

          k = 0.2639 0.2639-0.0888 (   958 PWs)   bands (ev):

    -4.6834   1.3419   3.6758   5.1267   8.4975   9.5451   9.7483  12.0890

     occupation numbers 
     1.0000   1.0000   1.0000   1.0000   0.0000   0.0000   0.0000   0.0000

          k =-0.3518-0.3518 0.5330 (   961 PWs)   bands (ev):

    -3.7735  -0.3878   3.5306   4.6370   8.1337   9.5276   9.7207  13.6803

     occupation numbers 
     1.0000   1.0000   1.0000   1.0000   0.0000   0.0000   0.0000   0.0000

          k =-0.2639-0.2639 0.4442 (   965 PWs)   bands (ev):

    -3.5230  -0.7651   3.7104   4.3456   7.9777   9.4241   9.9425  13.0828

     occupation numbers 
     1.0000   1.0000   1.0000   1.0000   0.0000   0.0000   0.0000   0.0000

          k =-0.1759-0.1759 0.3553 (   960 PWs)   bands (ev):

    -4.3683   0.6747   4.1433   4.3268   8.0490   9.5319  10.3021  11.2485

     occupation numbers 
     1.0000   1.0000   1.0000   1.0000   0.0000   0.0000   0.0000   0.0000

          k =-0.0880-0.0880 0.2665 (   957 PWs)   bands (ev):

    -5.1734   2.7184   4.5990   4.7114   7.9666   9.5281  10.3275  10.6236

     occupation numbers 
     1.0000   1.0000   1.0000   1.0000   0.0000   0.0000   0.0000   0.0000

          k = 0.3518 0.1759 0.0000 (   955 PWs)   bands (ev):

    -4.6068   1.6615   3.2793   4.4941   8.3322   9.6746  10.0204  11.3881

     occupation numbers 
     1.0000   1.0000   1.0000   1.0000   0.0000   0.0000   0.0000   0.0000

          k =-0.2639-0.4398 0.6218 (   967 PWs)   bands (ev):

    -3.7330   0.1394   2.6674   3.9997   8.7349   9.3293  10.8561  11.8156

     occupation numbers 
     1.0000   1.0000   1.0000   1.0000   0.0000   0.0000   0.0000   0.0000

          k =-0.1759-0.3518 0.5330 (   965 PWs)   bands (ev):

    -3.0809  -0.8000   2.5178   3.7955   8.8443   8.9847  11.7783  12.8773

     occupation numbers 
     1.0000   1.0000   1.0000   1.0000   0.0000   0.0000   0.0000   0.0000

          k =-0.0880-0.2639 0.4442 (   961 PWs)   bands (ev):

    -3.7131   0.1227   2.6227   4.0451   8.6640   9.4016  10.7732  11.7987

     occupation numbers 
     1.0000   1.0000   1.0000   1.0000   0.0000   0.0000   0.0000   0.0000

          k = 0.0000-0.1759 0.3553 (   965 PWs)   bands (ev):

    -4.5901   1.6624   3.2154   4.5382   8.2462   9.6776  10.0748  11.3660

     occupation numbers 
     1.0000   1.0000   1.0000   1.0000   0.0000   0.0000   0.0000   0.0000

          k = 0.3518 0.0000 0.1777 (   963 PWs)   bands (ev):

    -4.6032   1.6440   3.2402   4.5323   8.3520   9.7658  10.0772  11.2609

     occupation numbers 
     1.0000   1.0000   1.0000   1.0000   0.0000   0.0000   0.0000   0.0000

          k =-0.1759-0.5277 0.7107 (   969 PWs)   bands (ev):

    -3.3663  -0.0064   2.6361   3.2052   7.8307   8.5090  11.4783  13.8673

     occupation numbers 
     1.0000   1.0000   1.0000   1.0000   0.0000   0.0000   0.0000   0.0000

          k =-0.0880-0.4398 0.6218 (   961 PWs)   bands (ev):

    -2.4995  -0.9548   1.9152   3.0261   8.2507  10.1388  11.0092  13.1269

     occupation numbers 
     1.0000   1.0000   1.0000   1.0000   0.0000   0.0000   0.0000   0.0000

          k =-0.0000-0.3518 0.5330 (   971 PWs)   bands (ev):

    -2.8279  -0.6014   1.7268   3.4099   8.7178  10.2971  10.9504  12.8669

     occupation numbers 
     1.0000   1.0000   1.0000   1.0000   0.0000   0.0000   0.0000   0.0000

          k =-0.2639 0.6157-0.4442 (   964 PWs)   bands (ev):

    -3.7282   0.1179   2.6219   4.0346   8.7824   9.4650  10.8914  11.6941

     occupation numbers 
     1.0000   1.0000   1.0000   1.0000   0.0000   0.0000   0.0000   0.0000

          k =-0.1759 0.7036-0.5330 (   965 PWs)   bands (ev):

    -3.3645  -0.0181   2.6076   3.2141   7.8586   8.5360  11.6719  13.6849

     occupation numbers 
     1.0000   1.0000   1.0000   1.0000   0.0000   0.0000   0.0000   0.0000

          k =-0.7036 0.1759 0.0000 (   968 PWs)   bands (ev):

    -1.7630  -1.7630   2.5750   2.5750   7.8487   7.8487  13.5257  13.5257

     occupation numbers 
     1.0000   1.0000   1.0000   1.0000   0.0000   0.0000   0.0000   0.0000

          k =-0.1759 0.5277-0.3553 (   962 PWs)   bands (ev):

    -3.0865  -0.8103   2.4845   3.8106   8.9852   9.0378  11.6599  13.0049

     occupation numbers 
     1.0000   1.0000   1.0000   1.0000   0.0000   0.0000   0.0000   0.0000

          k =-0.0880 0.6157-0.4442 (   964 PWs)   bands (ev):

    -2.5030  -0.9676   1.9050   3.0092   8.3057  10.1860  11.1885  13.3161

     occupation numbers 
     1.0000   1.0000   1.0000   1.0000   0.0000   0.0000   0.0000   0.0000

          k =-0.7036 0.0000 0.1777 (   968 PWs)   bands (ev):

    -1.7659  -1.7659   2.5608   2.5608   7.8789   7.8789  13.7411  13.7411

     occupation numbers 
     1.0000   1.0000   1.0000   1.0000   0.0000   0.0000   0.0000   0.0000

          k = 0.0000 0.5277-0.3553 (   966 PWs)   bands (ev):

    -2.8435  -0.6104   1.7369   3.3779   8.7921  10.4614  11.1115  12.8993

     occupation numbers 
     1.0000   1.0000   1.0000   1.0000   0.0000   0.0000   0.0000   0.0000

          k = 0.0000 0.0000 0.3553 (   978 PWs)   bands (ev):

    -4.8320   2.4573   4.0302   4.0302   6.9438   8.9831  11.6052  11.6052

     occupation numbers 
     1.0000   1.0000   1.0000   1.0000   0.0000   0.0000   0.0000   0.0000

          k =-0.3518-0.3518 0.7107 (   971 PWs)   bands (ev):

    -3.9044   0.5038   2.2495   4.5732   8.2352  10.6436  11.0042  11.9113

     occupation numbers 
     1.0000   1.0000   1.0000   1.0000   0.0000   0.0000   0.0000   0.0000

          k =-0.2639-0.2639 0.6218 (   965 PWs)   bands (ev):

    -3.0337  -0.6415   2.0081   4.0208   7.6419  11.2986  11.3156  12.6618

     occupation numbers 
     1.0000   1.0000   1.0000   1.0000   0.0000   0.0000   0.0000   0.0000

          k =-0.1759-0.1759 0.5330 (   965 PWs)   bands (ev):

    -3.2153  -0.4016   2.4515   3.7090   7.3313  10.2106  11.5603  11.7409

     occupation numbers 
     1.0000   1.0000   1.0000   1.0000   0.0000   0.0000   0.0000   0.0000

          k =-0.0880-0.0880 0.4442 (   964 PWs)   bands (ev):

    -4.1273   1.0345   3.2801   3.7105   7.1629   8.7124  11.8240  12.0901

     occupation numbers 
     1.0000   1.0000   1.0000   1.0000   0.0000   0.0000   0.0000   0.0000

          k =-0.1759-0.3518 0.7107 (   964 PWs)   bands (ev):

    -2.8449  -0.5731   1.7733   3.3438   8.6489  10.3941  11.0315  12.7309

     occupation numbers 
     1.0000   1.0000   1.0000   1.0000   0.0000   0.0000   0.0000   0.0000

          k =-0.0880-0.2639 0.6218 (   969 PWs)   bands (ev):

    -2.4779  -0.9378   1.9129   2.9816   8.1767  10.0449  11.0809  13.2363

     occupation numbers 
     1.0000   1.0000   1.0000   1.0000   0.0000   0.0000   0.0000   0.0000

          k =-0.0000-0.1759 0.5330 (   966 PWs)   bands (ev):

    -3.3332   0.0238   2.5683   3.1971   7.7378   8.4502  11.5591  13.8054

     occupation numbers 
     1.0000   1.0000   1.0000   1.0000   0.0000   0.0000   0.0000   0.0000

          k =-0.7036 0.3518 0.0000 (   960 PWs)   bands (ev):

    -1.6590  -1.6590   2.1210   2.1210  10.0785  10.0785  10.7713  10.7713

     occupation numbers 
     1.0000   1.0000   1.0000   1.0000   0.0000   0.0000   0.0000   0.0000

          k =-0.7036 0.0000 0.3553 (   952 PWs)   bands (ev):

    -1.6786  -1.6786   2.1159   2.1159  10.1956  10.1956  10.9024  10.9024

     occupation numbers 
     1.0000   1.0000   1.0000   1.0000   0.0000   0.0000   0.0000   0.0000

          k = 0.0000 0.0000 0.5330 (   970 PWs)   bands (ev):

    -3.5253   0.2616   3.3139   3.3139   6.4222   7.3723  13.8381  13.8381

     occupation numbers 
     1.0000   1.0000   1.0000   1.0000   0.0461   0.0000   0.0000   0.0000

          k =-0.1759-0.1759 0.7107 (   965 PWs)   bands (ev):

    -2.2243  -1.2091   1.6778   3.4888   7.0095   9.8829  13.2638  13.9501

     occupation numbers 
     1.0000   1.0000   1.0000   1.0000   0.0000   0.0000   0.0000   0.0000

          k =-0.0880-0.0880 0.6218 (   968 PWs)   bands (ev):

    -2.6371  -0.8177   2.5064   3.2360   6.7058   7.7646  14.0525  14.1245

     occupation numbers 
     1.0000   1.0000   1.0000   1.0000   0.0001   0.0000   0.0000   0.0000

          k =-0.7036 0.5277-0.0000 (   972 PWs)   bands (ev):

    -1.7195  -1.7195   2.5224   2.5224   7.7628   7.7628  13.6293  13.6293

     occupation numbers 
     1.0000   1.0000   1.0000   1.0000   0.0000   0.0000   0.0000   0.0000

          k = 0.0000 0.0000-0.7107 (   982 PWs)   bands (ev):

    -1.7875  -1.7875   3.0682   3.0682   6.5233   6.5233  15.8105  15.8105

     occupation numbers 
     1.0000   1.0000   1.0000   1.0000   0.0086   0.0086   0.0000   0.0000

     the Fermi energy is     6.1792 ev

!    total energy              =     -19.11926108 Ry
     Harris-Foulkes estimate   =     -19.11926107 Ry
     estimated scf accuracy    <          4.0E-10 Ry

     The total energy is the sum of the following terms:

     one-electron contribution =       4.95450380 Ry
     hartree contribution      =       1.11257713 Ry
     xc contribution           =      -8.50285146 Ry
     ewald contribution        =     -16.68346124 Ry
     smearing contrib. (-TS)   =      -0.00002931 Ry

     convergence has been achieved in   8 iterations

     Forces acting on atoms (Ry/au):

     atom    1 type  1   force =   0.00000000E+00  0.00000000E+00  0.00000000E+00
     atom    2 type  1   force =   0.00000000E+00  0.00000000E+00  0.00000000E+00
     The non-local contrib.  to forces
     atom    1 type  1   force =   0.00000000E+00  0.00000000E+00 -0.61639158E-18
     atom    2 type  1   force =   0.00000000E+00  0.00000000E+00  0.61639158E-18
     The ionic contribution  to forces
     atom    1 type  1   force =   0.88817842E-15  0.77715612E-15  0.44408921E-15
     atom    2 type  1   force =  -0.19984014E-14 -0.83266727E-15 -0.44408921E-15
     The local contribution  to forces
     atom    1 type  1   force =   0.23314684E-14  0.00000000E+00 -0.27755576E-15
     atom    2 type  1   force =  -0.24424907E-14 -0.13877788E-15  0.00000000E+00
     The core correction contribution to forces
     atom    1 type  1   force =   0.29143354E-15  0.83266727E-16 -0.41633363E-16
     atom    2 type  1   force =  -0.22204460E-15 -0.62450045E-16  0.27755576E-16
     The Hubbard contrib.    to forces
     atom    1 type  1   force =   0.00000000E+00  0.00000000E+00  0.00000000E+00
     atom    2 type  1   force =   0.00000000E+00  0.00000000E+00  0.00000000E+00
     The SCF correction term to forces
     atom    1 type  1   force =  -0.40272923E-16 -0.46700659E-16  0.77458357E-16
     atom    2 type  1   force =   0.22737382E-16  0.86817701E-17  0.59639378E-16

     Total force =     0.000000     Total SCF correction =     0.000000


     entering subroutine stress ...

          total   stress  (Ry/bohr**3)                   (kbar)     P=  -17.59
  -0.0001400929   0.0000000000  -0.0000000000        -20.61      0.00     -0.00
   0.0000000000  -0.0001400929  -0.0000000000          0.00    -20.61     -0.00
  -0.0000000000  -0.0000000000  -0.0000785068         -0.00     -0.00    -11.55

     kinetic stress (kbar)   2126.17      0.00     -0.00
                                0.00   2126.17      0.00
                               -0.00      0.00   2136.89

     local   stress (kbar)   -316.50      0.00     -0.00
                                0.00   -316.50     -0.00
                               -0.00     -0.00   -267.37

     nonloc. stress (kbar)   1892.73      0.00     -0.00
                                0.00   1892.73      0.00
                               -0.00      0.00   1889.63

     hartree stress (kbar)    200.29     -0.00      0.00
                               -0.00    200.29      0.00
                                0.00      0.00    192.91

     exc-cor stress (kbar)    977.34      0.00      0.00
                                0.00    977.34      0.00
                                0.00      0.00    977.26

     corecor stress (kbar)  -1947.65      0.00     -0.00
                                0.00  -1947.65     -0.00
                               -0.00     -0.00  -1947.25

     ewald   stress (kbar)  -2953.00      0.00      0.00
                                0.00  -2953.00      0.00
                                0.00      0.00  -2993.61

     hubbard stress (kbar)      0.00      0.00      0.00
                                0.00      0.00      0.00
                                0.00      0.00      0.00

     london  stress (kbar)      0.00      0.00      0.00
                                0.00      0.00      0.00
                                0.00      0.00      0.00

     XDM     stress (kbar)      0.00      0.00      0.00
                                0.00      0.00      0.00
                                0.00      0.00      0.00

     dft-nl  stress (kbar)      0.00      0.00      0.00
                                0.00      0.00      0.00
                                0.00      0.00      0.00



     Writing output data file Si_diamond.scf.in.sxsy.save

     init_run     :      1.33s CPU      1.32s WALL (       1 calls)
     electrons    :     30.13s CPU     29.11s WALL (       1 calls)
     forces       :      0.56s CPU      0.52s WALL (       1 calls)
     stress       :      0.90s CPU      0.87s WALL (       1 calls)

     Called by init_run:
     wfcinit      :      0.98s CPU      0.95s WALL (       1 calls)
     potinit      :      0.05s CPU      0.05s WALL (       1 calls)

     Called by electrons:
     c_bands      :     25.07s CPU     24.08s WALL (       9 calls)
     sum_band     :      4.54s CPU      4.49s WALL (       9 calls)
     v_of_rho     :      0.16s CPU      0.16s WALL (       9 calls)
     v_h          :      0.01s CPU      0.01s WALL (       9 calls)
     v_xc         :      0.18s CPU      0.18s WALL (      11 calls)
     newd         :      0.32s CPU      0.33s WALL (       9 calls)
     mix_rho      :      0.08s CPU      0.08s WALL (       9 calls)

     Called by c_bands:
     init_us_2    :      0.86s CPU      0.90s WALL (    1239 calls)
     cegterg      :     23.24s CPU     22.08s WALL (     531 calls)

     Called by sum_band:
     sum_band:bec :      0.02s CPU      0.03s WALL (     531 calls)
     addusdens    :      0.46s CPU      0.47s WALL (       9 calls)

     Called by *egterg:
     h_psi        :     17.02s CPU     16.66s WALL (    1659 calls)
     s_psi        :      2.48s CPU      1.87s WALL (    1659 calls)
     g_psi        :      0.07s CPU      0.08s WALL (    1069 calls)
     cdiaghg      :      1.03s CPU      1.22s WALL (    1541 calls)
     cegterg:over :      1.36s CPU      1.15s WALL (    1069 calls)
     cegterg:upda :      0.82s CPU      0.72s WALL (    1069 calls)
     cegterg:last :      0.52s CPU      0.36s WALL (     533 calls)

     Called by h_psi:
     h_psi:vloc   :     12.54s CPU     13.15s WALL (    1659 calls)
     h_psi:vnl    :      4.44s CPU      3.47s WALL (    1659 calls)
     add_vuspsi   :      2.33s CPU      1.94s WALL (    1659 calls)

     General routines
     calbec       :      2.93s CPU      2.23s WALL (    2308 calls)
     fft          :      0.14s CPU      0.14s WALL (     169 calls)
     ffts         :      0.04s CPU      0.05s WALL (     139 calls)
     fftw         :     13.95s CPU     14.65s WALL (   25964 calls)
     interpolate  :      0.03s CPU      0.03s WALL (      18 calls)

     Parallel routines
     fft_scatter  :      4.10s CPU      4.55s WALL (   26272 calls)

     PWSCF        :    33.47s CPU        32.46s WALL


   This run was terminated on:  11:14: 2  27Oct2017            

=------------------------------------------------------------------------------=
   JOB DONE.
=------------------------------------------------------------------------------=
