
     Program PWSCF v.5.1 starts on 18Jan2017 at 12:53:53 

     This program is part of the open-source Quantum ESPRESSO suite
     for quantum simulation of materials; please cite
         "P. Giannozzi et al., J. Phys.:Condens. Matter 21 395502 (2009);
          URL http://www.quantum-espresso.org", 
     in publications or presentations arising from this work. More details at
     http://www.quantum-espresso.org/quote

     Parallel version (MPI), running on    16 processors
     R & G space division:  proc/nbgrp/npool/nimage =      16
     Reading input from /tmp/Si_diamond.scf.in.super.444.Ge.18205/Si_diamond.scf.in.super.444.Ge.t
Warning: card &IONS ignored
Warning: card   ION_DYNAMICS='BFGS', ignored
Warning: card / ignored
Warning: card &CELL ignored
Warning: card  CELL_DYNAMICS = 'BFGS' ignored
Warning: card / ignored
     Message from routine read_cards :
     DEPRECATED: no units specified in CELL_PARAMETERS card

     Current dimensions of program PWSCF are:
     Max number of different atomic species (ntypx) = 10
     Max number of k-points (npk) =  40000
     Max angular momentum in pseudopotentials (lmaxx) =  3

     Subspace diagonalization in iterative solution of the eigenvalue problem:
     a serial algorithm will be used


     Parallelization info
     --------------------
     sticks:   dense  smooth     PW     G-vecs:    dense   smooth      PW
     Min         726     508    134                51681    30247    4089
     Max         727     509    135                51684    30277    4090
     Sum       11629    8137   2149               826925   484169   65427



     bravais-lattice index     =            0
     lattice parameter (alat)  =    29.031211967  a.u.
     unit-cell volume          =   17301.3703 (a.u.)^3
     number of atoms/cell      =          128
     number of atomic types    =            2
     number of electrons       =       522.00
     number of Kohn-Sham states=          313
     kinetic-energy cutoff     =      35.0000  Ry
     charge density cutoff     =     200.0000  Ry
     convergence threshold     =      1.0E-09
     mixing beta               =       0.3000
     number of iterations used =            8  local-TF  mixing
     Exchange-correlation      = SLA  PW   PSX  PSC ( 1  4 10  8 0)
     A smooth kinetic-energy cutoff is imposed at      34.5000 Ry
     height of the smooth step-function =             800.0000 Ry
     width of the smooth step-function  =               1.0000 Ry


     celldm(1)=  29.031212  celldm(2)=   0.000000  celldm(3)=   0.000000
     celldm(4)=   0.000000  celldm(5)=   0.000000  celldm(6)=   0.000000

     crystal axes: (cart. coord. in units of alat)
               a(1) = (  -0.000000000000   0.707106781187   0.707106781187 )  
               a(2) = (   0.707106781187  -0.000000000000   0.707106781187 )  
               a(3) = (   0.707106781187   0.707106781187  -0.000000000000 )  

     reciprocal axes: (cart. coord. in units 2 pi/alat)
               b(1) = ( -0.707107  0.707107  0.707107 )  
               b(2) = (  0.707107 -0.707107  0.707107 )  
               b(3) = (  0.707107  0.707107 -0.707107 )  


     PseudoPot. # 1 for Si read from file:
     /users/kfg/psuedo/gbrv_1.5/si.pbesol.UPF
     MD5 check sum: ef58ba74faed4df802eb8a9742fc00a8
     Pseudo is Ultrasoft + core correction, Zval =  4.0
     Generated by new atomic code, or converted to UPF format
     Using radial grid of  899 points,  6 beta functions with: 
                l(1) =   0
                l(2) =   0
                l(3) =   1
                l(4) =   1
                l(5) =   2
                l(6) =   2
     Q(r) pseudized with  8 coefficients,  rinner =    0.900   0.900   0.900
                                                       0.900   0.900

     PseudoPot. # 2 for Ge read from file:
     /users/kfg/psuedo/gbrv_1.5/ge.pbesol.UPF
     MD5 check sum: 7bed0412183f5e553a4d27ec7023354d
     Pseudo is Ultrasoft + core correction, Zval = 14.0
     Generated by new atomic code, or converted to UPF format
     Using radial grid of  873 points,  6 beta functions with: 
                l(1) =   0
                l(2) =   0
                l(3) =   1
                l(4) =   1
                l(5) =   2
                l(6) =   2
     Q(r) pseudized with  8 coefficients,  rinner =    1.400   1.400   1.400
                                                       1.400   1.400

     atomic species   valence    mass     pseudopotential
        Si             4.00    28.08550     Si( 1.00)
        Ge            14.00    69.00000     Ge( 1.00)

     24 Sym. Ops. (no inversion) found


                                    s                        frac. trans.

      isym =  1     identity                                     

 cryst.   s( 1) = (     1          0          0      )
                  (     0          1          0      )
                  (     0          0          1      )

 cart.    s( 1) = (  1.0000000  0.0000000  0.0000000 )
                  (  0.0000000  1.0000000  0.0000000 )
                  (  0.0000000  0.0000000  1.0000000 )


      isym =  2     180 deg rotation - cart. axis [0,0,1]        

 cryst.   s( 2) = (     0          1         -1      )
                  (     1          0         -1      )
                  (     0          0         -1      )

 cart.    s( 2) = ( -1.0000000  0.0000000  0.0000000 )
                  (  0.0000000 -1.0000000  0.0000000 )
                  (  0.0000000  0.0000000  1.0000000 )


      isym =  3     180 deg rotation - cart. axis [0,1,0]        

 cryst.   s( 3) = (     0         -1          1      )
                  (     0         -1          0      )
                  (     1         -1          0      )

 cart.    s( 3) = ( -1.0000000  0.0000000  0.0000000 )
                  (  0.0000000  1.0000000  0.0000000 )
                  (  0.0000000  0.0000000 -1.0000000 )


      isym =  4     180 deg rotation - cart. axis [1,0,0]        

 cryst.   s( 4) = (    -1          0          0      )
                  (    -1          0          1      )
                  (    -1          1          0      )

 cart.    s( 4) = (  1.0000000  0.0000000  0.0000000 )
                  (  0.0000000 -1.0000000  0.0000000 )
                  (  0.0000000  0.0000000 -1.0000000 )


      isym =  5     120 deg rotation - cart. axis [-1,-1,-1]     

 cryst.   s( 5) = (     0          0          1      )
                  (     1          0          0      )
                  (     0          1          0      )

 cart.    s( 5) = (  0.0000000  1.0000000  0.0000000 )
                  (  0.0000000  0.0000000  1.0000000 )
                  (  1.0000000  0.0000000  0.0000000 )


      isym =  6     120 deg rotation - cart. axis [-1,1,1]       

 cryst.   s( 6) = (     1         -1          0      )
                  (     0         -1          1      )
                  (     0         -1          0      )

 cart.    s( 6) = (  0.0000000 -1.0000000  0.0000000 )
                  (  0.0000000  0.0000000  1.0000000 )
                  ( -1.0000000  0.0000000  0.0000000 )


      isym =  7     120 deg rotation - cart. axis [1,1,-1]       

 cryst.   s( 7) = (    -1          1          0      )
                  (    -1          0          0      )
                  (    -1          0          1      )

 cart.    s( 7) = (  0.0000000  1.0000000  0.0000000 )
                  (  0.0000000  0.0000000 -1.0000000 )
                  ( -1.0000000  0.0000000  0.0000000 )


      isym =  8     120 deg rotation - cart. axis [1,-1,1]       

 cryst.   s( 8) = (     0          0         -1      )
                  (     0          1         -1      )
                  (     1          0         -1      )

 cart.    s( 8) = (  0.0000000 -1.0000000  0.0000000 )
                  (  0.0000000  0.0000000 -1.0000000 )
                  (  1.0000000  0.0000000  0.0000000 )


      isym =  9     120 deg rotation - cart. axis [1,1,1]        

 cryst.   s( 9) = (     0          1          0      )
                  (     0          0          1      )
                  (     1          0          0      )

 cart.    s( 9) = (  0.0000000  0.0000000  1.0000000 )
                  (  1.0000000  0.0000000  0.0000000 )
                  (  0.0000000  1.0000000  0.0000000 )


      isym = 10     120 deg rotation - cart. axis [-1,1,-1]      

 cryst.   s(10) = (    -1          0          1      )
                  (    -1          1          0      )
                  (    -1          0          0      )

 cart.    s(10) = (  0.0000000  0.0000000  1.0000000 )
                  ( -1.0000000  0.0000000  0.0000000 )
                  (  0.0000000 -1.0000000  0.0000000 )


      isym = 11     120 deg rotation - cart. axis [1,-1,-1]      

 cryst.   s(11) = (     1          0         -1      )
                  (     0          0         -1      )
                  (     0          1         -1      )

 cart.    s(11) = (  0.0000000  0.0000000 -1.0000000 )
                  ( -1.0000000  0.0000000  0.0000000 )
                  (  0.0000000  1.0000000  0.0000000 )


      isym = 12     120 deg rotation - cart. axis [-1,-1,1]      

 cryst.   s(12) = (     0         -1          0      )
                  (     1         -1          0      )
                  (     0         -1          1      )

 cart.    s(12) = (  0.0000000  0.0000000 -1.0000000 )
                  (  1.0000000  0.0000000  0.0000000 )
                  (  0.0000000 -1.0000000  0.0000000 )


      isym = 13     inv. 180 deg rotation - cart. axis [1,1,0]   

 cryst.   s(13) = (     1          0         -1      )
                  (     0          1         -1      )
                  (     0          0         -1      )

 cart.    s(13) = (  0.0000000 -1.0000000  0.0000000 )
                  ( -1.0000000  0.0000000  0.0000000 )
                  (  0.0000000  0.0000000  1.0000000 )


      isym = 14     inv. 180 deg rotation - cart. axis [1,-1,0]  

 cryst.   s(14) = (     0          1          0      )
                  (     1          0          0      )
                  (     0          0          1      )

 cart.    s(14) = (  0.0000000  1.0000000  0.0000000 )
                  (  1.0000000  0.0000000  0.0000000 )
                  (  0.0000000  0.0000000  1.0000000 )


      isym = 15     inv.  90 deg rotation - cart. axis [0,0,-1]  

 cryst.   s(15) = (     0         -1          0      )
                  (     0         -1          1      )
                  (     1         -1          0      )

 cart.    s(15) = (  0.0000000 -1.0000000  0.0000000 )
                  (  1.0000000  0.0000000  0.0000000 )
                  (  0.0000000  0.0000000 -1.0000000 )


      isym = 16     inv.  90 deg rotation - cart. axis [0,0,1]   

 cryst.   s(16) = (    -1          0          1      )
                  (    -1          0          0      )
                  (    -1          1          0      )

 cart.    s(16) = (  0.0000000  1.0000000  0.0000000 )
                  ( -1.0000000  0.0000000  0.0000000 )
                  (  0.0000000  0.0000000 -1.0000000 )


      isym = 17     inv. 180 deg rotation - cart. axis [1,0,1]   

 cryst.   s(17) = (     1         -1          0      )
                  (     0         -1          0      )
                  (     0         -1          1      )

 cart.    s(17) = (  0.0000000  0.0000000 -1.0000000 )
                  (  0.0000000  1.0000000  0.0000000 )
                  ( -1.0000000  0.0000000  0.0000000 )


      isym = 18     inv. 180 deg rotation - cart. axis [-1,0,1]  

 cryst.   s(18) = (     0          0          1      )
                  (     0          1          0      )
                  (     1          0          0      )

 cart.    s(18) = (  0.0000000  0.0000000  1.0000000 )
                  (  0.0000000  1.0000000  0.0000000 )
                  (  1.0000000  0.0000000  0.0000000 )


      isym = 19     inv.  90 deg rotation - cart. axis [0,1,0]   

 cryst.   s(19) = (     0          0         -1      )
                  (     1          0         -1      )
                  (     0          1         -1      )

 cart.    s(19) = (  0.0000000  0.0000000 -1.0000000 )
                  (  0.0000000 -1.0000000  0.0000000 )
                  (  1.0000000  0.0000000  0.0000000 )


      isym = 20     inv.  90 deg rotation - cart. axis [0,-1,0]  

 cryst.   s(20) = (    -1          1          0      )
                  (    -1          0          1      )
                  (    -1          0          0      )

 cart.    s(20) = (  0.0000000  0.0000000  1.0000000 )
                  (  0.0000000 -1.0000000  0.0000000 )
                  ( -1.0000000  0.0000000  0.0000000 )


      isym = 21     inv. 180 deg rotation - cart. axis [0,1,1]   

 cryst.   s(21) = (    -1          0          0      )
                  (    -1          1          0      )
                  (    -1          0          1      )

 cart.    s(21) = (  1.0000000  0.0000000  0.0000000 )
                  (  0.0000000  0.0000000 -1.0000000 )
                  (  0.0000000 -1.0000000  0.0000000 )


      isym = 22     inv. 180 deg rotation - cart. axis [0,1,-1]  

 cryst.   s(22) = (     1          0          0      )
                  (     0          0          1      )
                  (     0          1          0      )

 cart.    s(22) = (  1.0000000  0.0000000  0.0000000 )
                  (  0.0000000  0.0000000  1.0000000 )
                  (  0.0000000  1.0000000  0.0000000 )


      isym = 23     inv.  90 deg rotation - cart. axis [-1,0,0]  

 cryst.   s(23) = (     0          1         -1      )
                  (     0          0         -1      )
                  (     1          0         -1      )

 cart.    s(23) = ( -1.0000000  0.0000000  0.0000000 )
                  (  0.0000000  0.0000000 -1.0000000 )
                  (  0.0000000  1.0000000  0.0000000 )


      isym = 24     inv.  90 deg rotation - cart. axis [1,0,0]   

 cryst.   s(24) = (     0         -1          1      )
                  (     1         -1          0      )
                  (     0         -1          0      )

 cart.    s(24) = ( -1.0000000  0.0000000  0.0000000 )
                  (  0.0000000  0.0000000  1.0000000 )
                  (  0.0000000 -1.0000000  0.0000000 )


     point group T_d (-43m) 
     there are  5 classes
     the character table:

       E     8C3   3C2   6S4   6s_d 
A_1    1.00  1.00  1.00  1.00  1.00
A_2    1.00  1.00  1.00 -1.00 -1.00
E      2.00 -1.00  2.00  0.00  0.00
T_1    3.00  0.00 -1.00  1.00 -1.00
T_2    3.00  0.00 -1.00 -1.00  1.00

     the symmetry operations in each class:
     E        1
     3C2      2    3    4
     8C3      5    7    8    6   12    9   10   11
     6s_d    13   14   17   18   21   22
     6S4     15   16   20   19   23   24

   Cartesian axes

     site n.     atom                  positions (alat units)
         1           Ge  tau(   1) = (    0.00000000000    0.00000000000    0.00000000000  )
         2           Si  tau(   2) = (    0.08838834765    0.08838834765    0.08838834765  )
         3           Si  tau(   3) = (    0.17677669530    0.17677669530    0.00000000000  )
         4           Si  tau(   4) = (    0.26516504294    0.26516504294    0.08838834765  )
         5           Si  tau(   5) = (    0.35355339059    0.35355339059    0.00000000000  )
         6           Si  tau(   6) = (    0.44194173824    0.44194173824    0.08838834765  )
         7           Si  tau(   7) = (    0.53033008589    0.53033008589    0.00000000000  )
         8           Si  tau(   8) = (    0.61871843354    0.61871843354    0.08838834765  )
         9           Si  tau(   9) = (    0.17677669530    0.00000000000    0.17677669530  )
        10           Si  tau(  10) = (    0.26516504294    0.08838834765    0.26516504294  )
        11           Si  tau(  11) = (    0.35355339059    0.17677669530    0.17677669530  )
        12           Si  tau(  12) = (    0.44194173824    0.26516504294    0.26516504294  )
        13           Si  tau(  13) = (    0.53033008589    0.35355339059    0.17677669530  )
        14           Si  tau(  14) = (    0.61871843354    0.44194173824    0.26516504294  )
        15           Si  tau(  15) = (    0.70710678119    0.53033008589    0.17677669530  )
        16           Si  tau(  16) = (    0.79549512883    0.61871843354    0.26516504294  )
        17           Si  tau(  17) = (    0.35355339059    0.00000000000    0.35355339059  )
        18           Si  tau(  18) = (    0.44194173824    0.08838834765    0.44194173824  )
        19           Si  tau(  19) = (    0.53033008589    0.17677669530    0.35355339059  )
        20           Si  tau(  20) = (    0.61871843354    0.26516504294    0.44194173824  )
        21           Si  tau(  21) = (    0.70710678119    0.35355339059    0.35355339059  )
        22           Si  tau(  22) = (    0.79549512883    0.44194173824    0.44194173824  )
        23           Si  tau(  23) = (    0.88388347648    0.53033008589    0.35355339059  )
        24           Si  tau(  24) = (    0.97227182413    0.61871843354    0.44194173824  )
        25           Si  tau(  25) = (    0.53033008589    0.00000000000    0.53033008589  )
        26           Si  tau(  26) = (    0.61871843354    0.08838834765    0.61871843354  )
        27           Si  tau(  27) = (    0.70710678119    0.17677669530    0.53033008589  )
        28           Si  tau(  28) = (    0.79549512883    0.26516504294    0.61871843354  )
        29           Si  tau(  29) = (    0.88388347648    0.35355339059    0.53033008589  )
        30           Si  tau(  30) = (    0.97227182413    0.44194173824    0.61871843354  )
        31           Si  tau(  31) = (    1.06066017178    0.53033008589    0.53033008589  )
        32           Si  tau(  32) = (    1.14904851943    0.61871843354    0.61871843354  )
        33           Si  tau(  33) = (    0.00000000000    0.17677669530    0.17677669530  )
        34           Si  tau(  34) = (    0.08838834765    0.26516504294    0.26516504294  )
        35           Si  tau(  35) = (    0.17677669530    0.35355339059    0.17677669530  )
        36           Si  tau(  36) = (    0.26516504294    0.44194173824    0.26516504294  )
        37           Si  tau(  37) = (    0.35355339059    0.53033008589    0.17677669530  )
        38           Si  tau(  38) = (    0.44194173824    0.61871843354    0.26516504294  )
        39           Si  tau(  39) = (    0.53033008589    0.70710678119    0.17677669530  )
        40           Si  tau(  40) = (    0.61871843354    0.79549512883    0.26516504294  )
        41           Si  tau(  41) = (    0.17677669530    0.17677669530    0.35355339059  )
        42           Si  tau(  42) = (    0.26516504294    0.26516504294    0.44194173824  )
        43           Si  tau(  43) = (    0.35355339059    0.35355339059    0.35355339059  )
        44           Si  tau(  44) = (    0.44194173824    0.44194173824    0.44194173824  )
        45           Si  tau(  45) = (    0.53033008589    0.53033008589    0.35355339059  )
        46           Si  tau(  46) = (    0.61871843354    0.61871843354    0.44194173824  )
        47           Si  tau(  47) = (    0.70710678119    0.70710678119    0.35355339059  )
        48           Si  tau(  48) = (    0.79549512883    0.79549512883    0.44194173824  )
        49           Si  tau(  49) = (    0.35355339059    0.17677669530    0.53033008589  )
        50           Si  tau(  50) = (    0.44194173824    0.26516504294    0.61871843354  )
        51           Si  tau(  51) = (    0.53033008589    0.35355339059    0.53033008589  )
        52           Si  tau(  52) = (    0.61871843354    0.44194173824    0.61871843354  )
        53           Si  tau(  53) = (    0.70710678119    0.53033008589    0.53033008589  )
        54           Si  tau(  54) = (    0.79549512883    0.61871843354    0.61871843354  )
        55           Si  tau(  55) = (    0.88388347648    0.70710678119    0.53033008589  )
        56           Si  tau(  56) = (    0.97227182413    0.79549512883    0.61871843354  )
        57           Si  tau(  57) = (    0.53033008589    0.17677669530    0.70710678119  )
        58           Si  tau(  58) = (    0.61871843354    0.26516504294    0.79549512883  )
        59           Si  tau(  59) = (    0.70710678119    0.35355339059    0.70710678119  )
        60           Si  tau(  60) = (    0.79549512883    0.44194173824    0.79549512883  )
        61           Si  tau(  61) = (    0.88388347648    0.53033008589    0.70710678119  )
        62           Si  tau(  62) = (    0.97227182413    0.61871843354    0.79549512883  )
        63           Si  tau(  63) = (    1.06066017178    0.70710678119    0.70710678119  )
        64           Si  tau(  64) = (    1.14904851943    0.79549512883    0.79549512883  )
        65           Si  tau(  65) = (    0.00000000000    0.35355339059    0.35355339059  )
        66           Si  tau(  66) = (    0.08838834765    0.44194173824    0.44194173824  )
        67           Si  tau(  67) = (    0.17677669530    0.53033008589    0.35355339059  )
        68           Si  tau(  68) = (    0.26516504294    0.61871843354    0.44194173824  )
        69           Si  tau(  69) = (    0.35355339059    0.70710678119    0.35355339059  )
        70           Si  tau(  70) = (    0.44194173824    0.79549512883    0.44194173824  )
        71           Si  tau(  71) = (    0.53033008589    0.88388347648    0.35355339059  )
        72           Si  tau(  72) = (    0.61871843354    0.97227182413    0.44194173824  )
        73           Si  tau(  73) = (    0.17677669530    0.35355339059    0.53033008589  )
        74           Si  tau(  74) = (    0.26516504294    0.44194173824    0.61871843354  )
        75           Si  tau(  75) = (    0.35355339059    0.53033008589    0.53033008589  )
        76           Si  tau(  76) = (    0.44194173824    0.61871843354    0.61871843354  )
        77           Si  tau(  77) = (    0.53033008589    0.70710678119    0.53033008589  )
        78           Si  tau(  78) = (    0.61871843354    0.79549512883    0.61871843354  )
        79           Si  tau(  79) = (    0.70710678119    0.88388347648    0.53033008589  )
        80           Si  tau(  80) = (    0.79549512883    0.97227182413    0.61871843354  )
        81           Si  tau(  81) = (    0.35355339059    0.35355339059    0.70710678119  )
        82           Si  tau(  82) = (    0.44194173824    0.44194173824    0.79549512883  )
        83           Si  tau(  83) = (    0.53033008589    0.53033008589    0.70710678119  )
        84           Si  tau(  84) = (    0.61871843354    0.61871843354    0.79549512883  )
        85           Si  tau(  85) = (    0.70710678119    0.70710678119    0.70710678119  )
        86           Si  tau(  86) = (    0.79549512883    0.79549512883    0.79549512883  )
        87           Si  tau(  87) = (    0.88388347648    0.88388347648    0.70710678119  )
        88           Si  tau(  88) = (    0.97227182413    0.97227182413    0.79549512883  )
        89           Si  tau(  89) = (    0.53033008589    0.35355339059    0.88388347648  )
        90           Si  tau(  90) = (    0.61871843354    0.44194173824    0.97227182413  )
        91           Si  tau(  91) = (    0.70710678119    0.53033008589    0.88388347648  )
        92           Si  tau(  92) = (    0.79549512883    0.61871843354    0.97227182413  )
        93           Si  tau(  93) = (    0.88388347648    0.70710678119    0.88388347648  )
        94           Si  tau(  94) = (    0.97227182413    0.79549512883    0.97227182413  )
        95           Si  tau(  95) = (    1.06066017178    0.88388347648    0.88388347648  )
        96           Si  tau(  96) = (    1.14904851943    0.97227182413    0.97227182413  )
        97           Si  tau(  97) = (    0.00000000000    0.53033008589    0.53033008589  )
        98           Si  tau(  98) = (    0.08838834765    0.61871843354    0.61871843354  )
        99           Si  tau(  99) = (    0.17677669530    0.70710678119    0.53033008589  )
       100           Si  tau( 100) = (    0.26516504294    0.79549512883    0.61871843354  )
       101           Si  tau( 101) = (    0.35355339059    0.88388347648    0.53033008589  )
       102           Si  tau( 102) = (    0.44194173824    0.97227182413    0.61871843354  )
       103           Si  tau( 103) = (    0.53033008589    1.06066017178    0.53033008589  )
       104           Si  tau( 104) = (    0.61871843354    1.14904851943    0.61871843354  )
       105           Si  tau( 105) = (    0.17677669530    0.53033008589    0.70710678119  )
       106           Si  tau( 106) = (    0.26516504294    0.61871843354    0.79549512883  )
       107           Si  tau( 107) = (    0.35355339059    0.70710678119    0.70710678119  )
       108           Si  tau( 108) = (    0.44194173824    0.79549512883    0.79549512883  )
       109           Si  tau( 109) = (    0.53033008589    0.88388347648    0.70710678119  )
       110           Si  tau( 110) = (    0.61871843354    0.97227182413    0.79549512883  )
       111           Si  tau( 111) = (    0.70710678119    1.06066017178    0.70710678119  )
       112           Si  tau( 112) = (    0.79549512883    1.14904851943    0.79549512883  )
       113           Si  tau( 113) = (    0.35355339059    0.53033008589    0.88388347648  )
       114           Si  tau( 114) = (    0.44194173824    0.61871843354    0.97227182413  )
       115           Si  tau( 115) = (    0.53033008589    0.70710678119    0.88388347648  )
       116           Si  tau( 116) = (    0.61871843354    0.79549512883    0.97227182413  )
       117           Si  tau( 117) = (    0.70710678119    0.88388347648    0.88388347648  )
       118           Si  tau( 118) = (    0.79549512883    0.97227182413    0.97227182413  )
       119           Si  tau( 119) = (    0.88388347648    1.06066017178    0.88388347648  )
       120           Si  tau( 120) = (    0.97227182413    1.14904851943    0.97227182413  )
       121           Si  tau( 121) = (    0.53033008589    0.53033008589    1.06066017178  )
       122           Si  tau( 122) = (    0.61871843354    0.61871843354    1.14904851943  )
       123           Si  tau( 123) = (    0.70710678119    0.70710678119    1.06066017178  )
       124           Si  tau( 124) = (    0.79549512883    0.79549512883    1.14904851943  )
       125           Si  tau( 125) = (    0.88388347648    0.88388347648    1.06066017178  )
       126           Si  tau( 126) = (    0.97227182413    0.97227182413    1.14904851943  )
       127           Si  tau( 127) = (    1.06066017178    1.06066017178    1.06066017178  )
       128           Si  tau( 128) = (    1.14904851943    1.14904851943    1.14904851943  )

   Crystallographic axes

     site n.     atom                  positions (cryst. coord.)
         1           Ge  tau(   1) = (    0.00000000000    0.00000000000    0.00000000000  )
         2           Si  tau(   2) = (    0.06250000000    0.06250000000    0.06250000000  )
         3           Si  tau(   3) = (    0.00000000000    0.00000000000    0.25000000000  )
         4           Si  tau(   4) = (    0.06250000000    0.06250000000    0.31250000000  )
         5           Si  tau(   5) = (    0.00000000000    0.00000000000    0.50000000000  )
         6           Si  tau(   6) = (    0.06250000000    0.06250000000    0.56250000000  )
         7           Si  tau(   7) = (    0.00000000000    0.00000000000    0.75000000000  )
         8           Si  tau(   8) = (    0.06250000000    0.06250000000    0.81250000000  )
         9           Si  tau(   9) = (    0.00000000000    0.25000000000    0.00000000000  )
        10           Si  tau(  10) = (    0.06250000000    0.31250000000    0.06250000000  )
        11           Si  tau(  11) = (    0.00000000000    0.25000000000    0.25000000000  )
        12           Si  tau(  12) = (    0.06250000000    0.31250000000    0.31250000000  )
        13           Si  tau(  13) = (    0.00000000000    0.25000000000    0.50000000000  )
        14           Si  tau(  14) = (    0.06250000000    0.31250000000    0.56250000000  )
        15           Si  tau(  15) = (    0.00000000000    0.25000000000    0.75000000000  )
        16           Si  tau(  16) = (    0.06250000000    0.31250000000    0.81250000000  )
        17           Si  tau(  17) = (    0.00000000000    0.50000000000    0.00000000000  )
        18           Si  tau(  18) = (    0.06250000000    0.56250000000    0.06250000000  )
        19           Si  tau(  19) = (    0.00000000000    0.50000000000    0.25000000000  )
        20           Si  tau(  20) = (    0.06250000000    0.56250000000    0.31250000000  )
        21           Si  tau(  21) = (    0.00000000000    0.50000000000    0.50000000000  )
        22           Si  tau(  22) = (    0.06250000000    0.56250000000    0.56250000000  )
        23           Si  tau(  23) = (    0.00000000000    0.50000000000    0.75000000000  )
        24           Si  tau(  24) = (    0.06250000000    0.56250000000    0.81250000000  )
        25           Si  tau(  25) = (    0.00000000000    0.75000000000    0.00000000000  )
        26           Si  tau(  26) = (    0.06250000000    0.81250000000    0.06250000000  )
        27           Si  tau(  27) = (    0.00000000000    0.75000000000    0.25000000000  )
        28           Si  tau(  28) = (    0.06250000000    0.81250000000    0.31250000000  )
        29           Si  tau(  29) = (    0.00000000000    0.75000000000    0.50000000000  )
        30           Si  tau(  30) = (    0.06250000000    0.81250000000    0.56250000000  )
        31           Si  tau(  31) = (    0.00000000000    0.75000000000    0.75000000000  )
        32           Si  tau(  32) = (    0.06250000000    0.81250000000    0.81250000000  )
        33           Si  tau(  33) = (    0.25000000000    0.00000000000    0.00000000000  )
        34           Si  tau(  34) = (    0.31250000000    0.06250000000    0.06250000000  )
        35           Si  tau(  35) = (    0.25000000000    0.00000000000    0.25000000000  )
        36           Si  tau(  36) = (    0.31250000000    0.06250000000    0.31250000000  )
        37           Si  tau(  37) = (    0.25000000000    0.00000000000    0.50000000000  )
        38           Si  tau(  38) = (    0.31250000000    0.06250000000    0.56250000000  )
        39           Si  tau(  39) = (    0.25000000000    0.00000000000    0.75000000000  )
        40           Si  tau(  40) = (    0.31250000000    0.06250000000    0.81250000000  )
        41           Si  tau(  41) = (    0.25000000000    0.25000000000    0.00000000000  )
        42           Si  tau(  42) = (    0.31250000000    0.31250000000    0.06250000000  )
        43           Si  tau(  43) = (    0.25000000000    0.25000000000    0.25000000000  )
        44           Si  tau(  44) = (    0.31250000000    0.31250000000    0.31250000000  )
        45           Si  tau(  45) = (    0.25000000000    0.25000000000    0.50000000000  )
        46           Si  tau(  46) = (    0.31250000000    0.31250000000    0.56250000000  )
        47           Si  tau(  47) = (    0.25000000000    0.25000000000    0.75000000000  )
        48           Si  tau(  48) = (    0.31250000000    0.31250000000    0.81250000000  )
        49           Si  tau(  49) = (    0.25000000000    0.50000000000    0.00000000000  )
        50           Si  tau(  50) = (    0.31250000000    0.56250000000    0.06250000000  )
        51           Si  tau(  51) = (    0.25000000000    0.50000000000    0.25000000000  )
        52           Si  tau(  52) = (    0.31250000000    0.56250000000    0.31250000000  )
        53           Si  tau(  53) = (    0.25000000000    0.50000000000    0.50000000000  )
        54           Si  tau(  54) = (    0.31250000000    0.56250000000    0.56250000000  )
        55           Si  tau(  55) = (    0.25000000000    0.50000000000    0.75000000000  )
        56           Si  tau(  56) = (    0.31250000000    0.56250000000    0.81250000000  )
        57           Si  tau(  57) = (    0.25000000000    0.75000000000    0.00000000000  )
        58           Si  tau(  58) = (    0.31250000000    0.81250000000    0.06250000000  )
        59           Si  tau(  59) = (    0.25000000000    0.75000000000    0.25000000000  )
        60           Si  tau(  60) = (    0.31250000000    0.81250000000    0.31250000000  )
        61           Si  tau(  61) = (    0.25000000000    0.75000000000    0.50000000000  )
        62           Si  tau(  62) = (    0.31250000000    0.81250000000    0.56250000000  )
        63           Si  tau(  63) = (    0.25000000000    0.75000000000    0.75000000000  )
        64           Si  tau(  64) = (    0.31250000000    0.81250000000    0.81250000000  )
        65           Si  tau(  65) = (    0.50000000000    0.00000000000    0.00000000000  )
        66           Si  tau(  66) = (    0.56250000000    0.06250000000    0.06250000000  )
        67           Si  tau(  67) = (    0.50000000000    0.00000000000    0.25000000000  )
        68           Si  tau(  68) = (    0.56250000000    0.06250000000    0.31250000000  )
        69           Si  tau(  69) = (    0.50000000000    0.00000000000    0.50000000000  )
        70           Si  tau(  70) = (    0.56250000000    0.06250000000    0.56250000000  )
        71           Si  tau(  71) = (    0.50000000000    0.00000000000    0.75000000000  )
        72           Si  tau(  72) = (    0.56250000000    0.06250000000    0.81250000000  )
        73           Si  tau(  73) = (    0.50000000000    0.25000000000    0.00000000000  )
        74           Si  tau(  74) = (    0.56250000000    0.31250000000    0.06250000000  )
        75           Si  tau(  75) = (    0.50000000000    0.25000000000    0.25000000000  )
        76           Si  tau(  76) = (    0.56250000000    0.31250000000    0.31250000000  )
        77           Si  tau(  77) = (    0.50000000000    0.25000000000    0.50000000000  )
        78           Si  tau(  78) = (    0.56250000000    0.31250000000    0.56250000000  )
        79           Si  tau(  79) = (    0.50000000000    0.25000000000    0.75000000000  )
        80           Si  tau(  80) = (    0.56250000000    0.31250000000    0.81250000000  )
        81           Si  tau(  81) = (    0.50000000000    0.50000000000    0.00000000000  )
        82           Si  tau(  82) = (    0.56250000000    0.56250000000    0.06250000000  )
        83           Si  tau(  83) = (    0.50000000000    0.50000000000    0.25000000000  )
        84           Si  tau(  84) = (    0.56250000000    0.56250000000    0.31250000000  )
        85           Si  tau(  85) = (    0.50000000000    0.50000000000    0.50000000000  )
        86           Si  tau(  86) = (    0.56250000000    0.56250000000    0.56250000000  )
        87           Si  tau(  87) = (    0.50000000000    0.50000000000    0.75000000000  )
        88           Si  tau(  88) = (    0.56250000000    0.56250000000    0.81250000000  )
        89           Si  tau(  89) = (    0.50000000000    0.75000000000    0.00000000000  )
        90           Si  tau(  90) = (    0.56250000000    0.81250000000    0.06250000000  )
        91           Si  tau(  91) = (    0.50000000000    0.75000000000    0.25000000000  )
        92           Si  tau(  92) = (    0.56250000000    0.81250000000    0.31250000000  )
        93           Si  tau(  93) = (    0.50000000000    0.75000000000    0.50000000000  )
        94           Si  tau(  94) = (    0.56250000000    0.81250000000    0.56250000000  )
        95           Si  tau(  95) = (    0.50000000000    0.75000000000    0.75000000000  )
        96           Si  tau(  96) = (    0.56250000000    0.81250000000    0.81250000000  )
        97           Si  tau(  97) = (    0.75000000000    0.00000000000    0.00000000000  )
        98           Si  tau(  98) = (    0.81250000000    0.06250000000    0.06250000000  )
        99           Si  tau(  99) = (    0.75000000000    0.00000000000    0.25000000000  )
       100           Si  tau( 100) = (    0.81250000000    0.06250000000    0.31250000000  )
       101           Si  tau( 101) = (    0.75000000000    0.00000000000    0.50000000000  )
       102           Si  tau( 102) = (    0.81250000000    0.06250000000    0.56250000000  )
       103           Si  tau( 103) = (    0.75000000000    0.00000000000    0.75000000000  )
       104           Si  tau( 104) = (    0.81250000000    0.06250000000    0.81250000000  )
       105           Si  tau( 105) = (    0.75000000000    0.25000000000    0.00000000000  )
       106           Si  tau( 106) = (    0.81250000000    0.31250000000    0.06250000000  )
       107           Si  tau( 107) = (    0.75000000000    0.25000000000    0.25000000000  )
       108           Si  tau( 108) = (    0.81250000000    0.31250000000    0.31250000000  )
       109           Si  tau( 109) = (    0.75000000000    0.25000000000    0.50000000000  )
       110           Si  tau( 110) = (    0.81250000000    0.31250000000    0.56250000000  )
       111           Si  tau( 111) = (    0.75000000000    0.25000000000    0.75000000000  )
       112           Si  tau( 112) = (    0.81250000000    0.31250000000    0.81250000000  )
       113           Si  tau( 113) = (    0.75000000000    0.50000000000    0.00000000000  )
       114           Si  tau( 114) = (    0.81250000000    0.56250000000    0.06250000000  )
       115           Si  tau( 115) = (    0.75000000000    0.50000000000    0.25000000000  )
       116           Si  tau( 116) = (    0.81250000000    0.56250000000    0.31250000000  )
       117           Si  tau( 117) = (    0.75000000000    0.50000000000    0.50000000000  )
       118           Si  tau( 118) = (    0.81250000000    0.56250000000    0.56250000000  )
       119           Si  tau( 119) = (    0.75000000000    0.50000000000    0.75000000000  )
       120           Si  tau( 120) = (    0.81250000000    0.56250000000    0.81250000000  )
       121           Si  tau( 121) = (    0.75000000000    0.75000000000    0.00000000000  )
       122           Si  tau( 122) = (    0.81250000000    0.81250000000    0.06250000000  )
       123           Si  tau( 123) = (    0.75000000000    0.75000000000    0.25000000000  )
       124           Si  tau( 124) = (    0.81250000000    0.81250000000    0.31250000000  )
       125           Si  tau( 125) = (    0.75000000000    0.75000000000    0.50000000000  )
       126           Si  tau( 126) = (    0.81250000000    0.81250000000    0.56250000000  )
       127           Si  tau( 127) = (    0.75000000000    0.75000000000    0.75000000000  )
       128           Si  tau( 128) = (    0.81250000000    0.81250000000    0.81250000000  )

     number of k points=     3  gaussian smearing, width (Ry)=  0.0150
                       cart. coord. in units 2pi/alat
        k(    1) = (   0.0000000   0.0000000   0.0000000), wk =   0.2500000
        k(    2) = (  -0.3535534  -0.3535534   0.3535534), wk =   1.0000000
        k(    3) = (  -0.7071068   0.0000000   0.0000000), wk =   0.7500000

                       cryst. coord.
        k(    1) = (   0.0000000   0.0000000   0.0000000), wk =   0.2500000
        k(    2) = (   0.0000000   0.0000000  -0.5000000), wk =   1.0000000
        k(    3) = (   0.0000000  -0.5000000  -0.5000000), wk =   0.7500000

     Dense  grid:   826925 G-vectors     FFT dimensions: ( 135, 135, 135)

     Smooth grid:   484169 G-vectors     FFT dimensions: ( 120, 120, 120)

     Largest allocated arrays     est. size (Mb)     dimensions
        Kohn-Sham Wavefunctions        18.07 Mb     (    3784,  313)
        NL pseudopotentials           133.03 Mb     (    3784, 2304)
        Each V/rho on FFT grid          2.50 Mb     (  164025)
        Each G-vector array             0.39 Mb     (   51681)
        G-vector shells                 0.02 Mb     (    2817)
     Largest temporary arrays     est. size (Mb)     dimensions
        Auxiliary wavefunctions        72.29 Mb     (    3784, 1252)
        Each subspace H/S matrix       23.92 Mb     (    1252, 1252)
        Each <psi_i|beta_j> matrix     11.00 Mb     (    2304,  313)
        Arrays for rho mixing          20.02 Mb     (  164025,    8)

     Initial potential from superposition of free atoms

     starting charge  521.91688, renormalised to  522.00000
     Starting wfc are  517 randomized atomic wfcs

     total cpu time spent up to now is      241.3 secs

     Self-consistent Calculation

     iteration #  1     ecut=    35.00 Ry     beta=0.30
     Davidson diagonalization with overlap
     ethr =  1.00E-02,  avg # of iterations =  3.0

     Threshold (ethr) on eigenvalues was too large:
     Diagonalizing with lowered threshold

     Davidson diagonalization with overlap
     ethr =  6.76E-04,  avg # of iterations =  1.3

     total cpu time spent up to now is     1132.8 secs

     total energy              =   -1427.85064554 Ry
     Harris-Foulkes estimate   =   -1428.21916974 Ry
     estimated scf accuracy    <       3.47738325 Ry

     iteration #  2     ecut=    35.00 Ry     beta=0.30
     Davidson diagonalization with overlap
     ethr =  6.66E-04,  avg # of iterations =  1.0

     total cpu time spent up to now is     1543.2 secs

     total energy              =   -1427.12262276 Ry
     Harris-Foulkes estimate   =   -1427.86744449 Ry
     estimated scf accuracy    <       2.16059960 Ry

     iteration #  3     ecut=    35.00 Ry     beta=0.30
     Davidson diagonalization with overlap
     ethr =  4.14E-04,  avg # of iterations =  6.3

     total cpu time spent up to now is     2020.2 secs

     total energy              =   -1427.26276933 Ry
     Harris-Foulkes estimate   =   -1427.25709393 Ry
     estimated scf accuracy    <       0.02489431 Ry

     iteration #  4     ecut=    35.00 Ry     beta=0.30
     Davidson diagonalization with overlap
     ethr =  4.77E-06,  avg # of iterations = 14.0

     total cpu time spent up to now is     3166.1 secs

     total energy              =   -1427.27821822 Ry
     Harris-Foulkes estimate   =   -1427.27774311 Ry
     estimated scf accuracy    <       0.01040476 Ry

     iteration #  5     ecut=    35.00 Ry     beta=0.30
     Davidson diagonalization with overlap
     ethr =  1.99E-06,  avg # of iterations =  1.7

     total cpu time spent up to now is     3558.9 secs

     total energy              =   -1427.27893222 Ry
     Harris-Foulkes estimate   =   -1427.27892265 Ry
     estimated scf accuracy    <       0.00029765 Ry

     iteration #  6     ecut=    35.00 Ry     beta=0.30
     Davidson diagonalization with overlap
     ethr =  5.70E-08,  avg # of iterations =  3.0

     total cpu time spent up to now is     4036.4 secs

     total energy              =   -1427.27903516 Ry
     Harris-Foulkes estimate   =   -1427.27907646 Ry
     estimated scf accuracy    <       0.00019653 Ry

     iteration #  7     ecut=    35.00 Ry     beta=0.30
     Davidson diagonalization with overlap
     ethr =  3.76E-08,  avg # of iterations =  1.7

     total cpu time spent up to now is     4338.9 secs

     total energy              =   -1427.27904730 Ry
     Harris-Foulkes estimate   =   -1427.27904716 Ry
     estimated scf accuracy    <       0.00001072 Ry

     iteration #  8     ecut=    35.00 Ry     beta=0.30
     Davidson diagonalization with overlap
     ethr =  2.05E-09,  avg # of iterations =  3.0

     total cpu time spent up to now is     4732.3 secs

     total energy              =   -1427.27904921 Ry
     Harris-Foulkes estimate   =   -1427.27904916 Ry
     estimated scf accuracy    <       0.00000135 Ry

     iteration #  9     ecut=    35.00 Ry     beta=0.30
     Davidson diagonalization with overlap
     ethr =  2.59E-10,  avg # of iterations =  3.0

     total cpu time spent up to now is     5029.1 secs

     total energy              =   -1427.27904921 Ry
     Harris-Foulkes estimate   =   -1427.27904930 Ry
     estimated scf accuracy    <       0.00000059 Ry

     iteration # 10     ecut=    35.00 Ry     beta=0.30
     Davidson diagonalization with overlap
     ethr =  1.12E-10,  avg # of iterations =  2.7

     total cpu time spent up to now is     5381.7 secs

     total energy              =   -1427.27904934 Ry
     Harris-Foulkes estimate   =   -1427.27904929 Ry
     estimated scf accuracy    <       0.00000011 Ry

     iteration # 11     ecut=    35.00 Ry     beta=0.30
     Davidson diagonalization with overlap
     ethr =  2.08E-11,  avg # of iterations =  2.7

     total cpu time spent up to now is     5697.9 secs

     total energy              =   -1427.27904935 Ry
     Harris-Foulkes estimate   =   -1427.27904935 Ry
     estimated scf accuracy    <       0.00000008 Ry

     iteration # 12     ecut=    35.00 Ry     beta=0.30
     Davidson diagonalization with overlap
     ethr =  1.56E-11,  avg # of iterations =  2.0

     total cpu time spent up to now is     5997.8 secs

     total energy              =   -1427.27904936 Ry
     Harris-Foulkes estimate   =   -1427.27904935 Ry
     estimated scf accuracy    <       0.00000001 Ry

     iteration # 13     ecut=    35.00 Ry     beta=0.30
     Davidson diagonalization with overlap
     ethr =  2.13E-12,  avg # of iterations =  3.0

     total cpu time spent up to now is     6352.7 secs

     total energy              =   -1427.27904937 Ry
     Harris-Foulkes estimate   =   -1427.27904936 Ry
     estimated scf accuracy    <          3.1E-09 Ry

     iteration # 14     ecut=    35.00 Ry     beta=0.30
     Davidson diagonalization with overlap
     ethr =  6.02E-13,  avg # of iterations =  3.0

     total cpu time spent up to now is     6917.2 secs

     End of self-consistent calculation

          k = 0.0000 0.0000 0.0000 ( 60495 PWs)   bands (ev):

   -18.0272 -18.0272 -18.0272 -17.9973 -17.9973  -5.8300  -5.1386  -5.0132
    -5.0132  -5.0132  -5.0121  -5.0119  -5.0119  -5.0119  -4.7847  -4.7304
    -4.7304  -4.7304  -4.7294  -4.7294  -3.9169  -3.7648  -3.7648  -3.7648
    -3.7625  -3.7625  -3.7625  -3.7625  -3.7625  -3.7625  -3.7624  -3.7624
    -3.5101  -3.4679  -3.4679  -3.4679  -3.2446  -3.0892  -3.0892  -3.0892
    -3.0850  -3.0850  -3.0850  -3.0850  -3.0850  -3.0848  -3.0848  -3.0848
    -3.0847  -3.0847  -3.0847  -3.0847  -3.0845  -3.0845  -3.0845  -3.0844
    -3.0844  -3.0844  -3.0844  -3.0844  -1.7227  -1.6593  -1.6593  -1.6593
    -1.6578  -1.6578  -1.5525  -1.4902  -1.4902  -1.4902  -1.4888  -1.4888
    -1.4888  -1.4884  -1.4884  -1.4884  -1.4883  -1.4883  -0.8548  -0.8433
    -0.8433  -0.8433  -0.3480  -0.2363  -0.2363  -0.2363  -0.2303  -0.2303
    -0.2303  -0.2300  -0.2300  -0.2300  -0.2299  -0.2299  -0.2299  -0.2299
    -0.2299  -0.2299  -0.2295  -0.2295  -0.2294  -0.2294  -0.2294  -0.2289
    -0.2289  -0.2289   0.6238   0.6753   0.6753   0.6753   0.6769   0.6769
     0.6769   0.6775   0.6775   0.6786   0.6786   0.6786   2.1923   2.2171
     2.2171   2.2171   2.2187   2.2213   2.2213   2.2213   2.2625   2.2625
     2.2625   2.2666   2.2666   2.2666   2.2670   2.2670   2.2670   2.2671
     2.2684   2.2684   2.3634   2.3651   2.3651   2.3651   2.3692   2.3692
     2.3692   2.3701   2.3701   2.3706   2.3706   2.3706   2.5679   2.5883
     2.5883   2.5883   2.5940   2.5940   2.5940   2.5943   2.5943   2.5943
     2.5945   2.5945   2.5945   2.5945   2.5945   2.5945   2.5945   2.5945
     2.5946   2.5970   2.5970   2.5970   2.5972   2.5972   2.6305   2.6488
     2.6488   2.6507   2.6507   2.6507   3.2963   3.2963   3.2963   3.2967
     3.2967   3.2967   3.9453   3.9453   3.9453   3.9469   3.9469   3.9469
     3.9483   3.9483   3.9483   3.9487   3.9488   3.9488   3.9488   3.9491
     3.9491   3.9491   3.9491   3.9491   3.9491   3.9501   3.9501   3.9522
     3.9522   3.9522   4.2620   4.2620   4.2620   4.2624   4.2624   4.2624
     4.2635   4.2635   4.2635   4.2680   4.2680   4.2680   4.8328   4.8328
     4.8328   4.8340   4.8340   4.8340   4.8340   4.8357   4.8357   4.8377
     4.8377   4.8377   4.9653   4.9653   4.9653   4.9670   4.9670   4.9699
     4.9699   4.9699   5.4042   5.4042   5.4042   5.4048   5.4048   5.4048
     5.4049   5.4049   5.4052   5.4052   5.4052   5.4057   5.4057   5.4170
     5.4170   5.4170   6.1744   6.1744   6.1744   6.7575   6.7745   6.7745
     6.7745   6.7748   6.7748   7.1988   7.2122   7.2122   7.2160   7.2160
     7.2160   7.5362   7.5902   7.5902   7.5902   7.5912   7.5918   7.5918
     7.5918   7.5920   7.5920   7.5921   7.5921   7.5921   7.5923   7.5923
     7.5923   7.5926   7.5926   7.5926   7.6106   7.6106   7.6106   7.6165
     7.6165   7.6223   7.6416   7.6416   7.6416   8.0912   8.1270   8.1291
     8.1291   8.1291   8.1375   8.1375   8.1375   8.5186   8.5399   8.5401
     8.5492

     occupation numbers 
     1.0000   1.0000   1.0000   1.0000   1.0000   1.0000   1.0000   1.0000
     1.0000   1.0000   1.0000   1.0000   1.0000   1.0000   1.0000   1.0000
     1.0000   1.0000   1.0000   1.0000   1.0000   1.0000   1.0000   1.0000
     1.0000   1.0000   1.0000   1.0000   1.0000   1.0000   1.0000   1.0000
     1.0000   1.0000   1.0000   1.0000   1.0000   1.0000   1.0000   1.0000
     1.0000   1.0000   1.0000   1.0000   1.0000   1.0000   1.0000   1.0000
     1.0000   1.0000   1.0000   1.0000   1.0000   1.0000   1.0000   1.0000
     1.0000   1.0000   1.0000   1.0000   1.0000   1.0000   1.0000   1.0000
     1.0000   1.0000   1.0000   1.0000   1.0000   1.0000   1.0000   1.0000
     1.0000   1.0000   1.0000   1.0000   1.0000   1.0000   1.0000   1.0000
     1.0000   1.0000   1.0000   1.0000   1.0000   1.0000   1.0000   1.0000
     1.0000   1.0000   1.0000   1.0000   1.0000   1.0000   1.0000   1.0000
     1.0000   1.0000   1.0000   1.0000   1.0000   1.0000   1.0000   1.0000
     1.0000   1.0000   1.0000   1.0000   1.0000   1.0000   1.0000   1.0000
     1.0000   1.0000   1.0000   1.0000   1.0000   1.0000   1.0000   1.0000
     1.0000   1.0000   1.0000   1.0000   1.0000   1.0000   1.0000   1.0000
     1.0000   1.0000   1.0000   1.0000   1.0000   1.0000   1.0000   1.0000
     1.0000   1.0000   1.0000   1.0000   1.0000   1.0000   1.0000   1.0000
     1.0000   1.0000   1.0000   1.0000   1.0000   1.0000   1.0000   1.0000
     1.0000   1.0000   1.0000   1.0000   1.0000   1.0000   1.0000   1.0000
     1.0000   1.0000   1.0000   1.0000   1.0000   1.0000   1.0000   1.0000
     1.0000   1.0000   1.0000   1.0000   1.0000   1.0000   1.0000   1.0000
     1.0000   1.0000   1.0000   1.0000   1.0000   1.0000   1.0000   1.0000
     1.0000   1.0000   1.0000   1.0000   1.0000   1.0000   1.0000   1.0000
     1.0000   1.0000   1.0000   1.0000   1.0000   1.0000   1.0000   1.0000
     1.0000   1.0000   1.0000   1.0000   1.0000   1.0000   1.0000   1.0000
     1.0000   1.0000   1.0000   1.0000   1.0000   1.0000   1.0000   1.0000
     1.0000   1.0000   1.0000   1.0000   1.0000   1.0000   1.0000   1.0000
     1.0000   1.0000   1.0000   1.0000   1.0000   1.0000   1.0000   1.0000
     1.0000   1.0000   1.0000   1.0000   1.0000   1.0000   1.0000   1.0000
     1.0000   1.0000   1.0000   1.0000   1.0000   1.0000   1.0000   1.0000
     1.0000   1.0000   1.0000   1.0000   1.0000   1.0000   1.0000   1.0000
     1.0000   1.0000   0.9414   0.9414   0.9414   0.0067   0.0048   0.0048
     0.0048   0.0047   0.0047   0.0000   0.0000   0.0000   0.0000   0.0000
     0.0000   0.0000   0.0000   0.0000   0.0000   0.0000   0.0000   0.0000
     0.0000   0.0000   0.0000   0.0000   0.0000   0.0000   0.0000   0.0000
     0.0000   0.0000   0.0000   0.0000   0.0000   0.0000   0.0000   0.0000
     0.0000   0.0000   0.0000   0.0000   0.0000   0.0000   0.0000   0.0000
     0.0000   0.0000   0.0000   0.0000   0.0000   0.0000   0.0000   0.0000
     0.0000

          k =-0.3536-0.3536 0.3536 ( 60452 PWs)   bands (ev):

   -18.0272 -18.0272 -18.0272 -17.9972 -17.9972  -5.6420  -5.6099  -5.1575
    -5.0716  -5.0716  -5.0706  -5.0705  -5.0705  -4.6362  -4.5611  -4.5606
    -4.5606  -4.5597  -4.5597  -4.1605  -4.1141  -4.0665  -4.0190  -4.0177
    -4.0177  -4.0168  -4.0168  -3.7062  -3.5908  -3.5908  -3.5883  -3.5881
    -3.5878  -3.5878  -3.5876  -3.5876  -3.5874  -3.5874  -3.5873  -3.4195
    -3.3831  -3.3831  -3.3825  -3.3825  -3.3824  -2.9306  -2.8778  -2.8778
    -2.8777  -2.8770  -2.8770  -2.5672  -2.5135  -2.5135  -2.5131  -2.5118
    -2.5118  -2.3942  -2.3335  -2.3326  -2.3326  -2.3313  -2.3313  -2.3313
    -2.3310  -2.3310  -2.3309  -2.3308  -2.3308  -0.8842  -0.7749  -0.7749
    -0.7723  -0.7722  -0.7719  -0.7719  -0.7717  -0.7716  -0.7716  -0.7715
    -0.7715  -0.6931  -0.6690  -0.6690  -0.6685  -0.6676  -0.6676  -0.6248
    -0.6176  -0.6176  -0.6137  -0.6136  -0.6136  -0.5155  -0.4919  -0.4919
    -0.4918  -0.4918  -0.4918   0.1793   0.1898   0.2616   0.3067   0.3067
     0.3099   0.3102   0.3104   0.3105   0.3105   0.3106   0.3106   0.3117
     0.3117   1.1899   1.2214   1.2214   1.2216   1.2216   1.2223   1.5040
     1.5211   1.5211   1.5239   1.5243   1.5243   2.0529   2.0529   2.0549
     2.0557   2.0580   2.0586   2.0586   2.0587   2.0587   2.0588   2.0598
     2.0598   2.1240   2.1291   2.1291   2.1303   2.1310   2.1310   2.6914
     2.6928   2.6928   2.6945   2.6951   2.6951   2.7983   2.8072   2.8072
     2.8109   2.8110   2.8110   2.8112   2.8113   2.8114   2.8114   2.8139
     2.8139   2.9121   2.9301   2.9301   2.9307   2.9342   2.9342   3.1714
     3.1726   3.1726   3.1746   3.1746   3.1750   3.1751   3.1752   3.1752
     3.1761   3.1768   3.1768   3.4634   3.4656   3.4662   3.4662   3.4679
     3.4680   3.4680   3.4689   3.4689   3.4693   3.4693   3.4694   3.8256
     3.8312   3.8312   3.8316   3.8316   3.8332   3.8606   3.8668   3.8668
     3.8675   3.8675   3.8700   3.9429   3.9429   3.9434   3.9445   3.9464
     3.9464   4.2182   4.2197   4.2199   4.2199   4.2203   4.2203   4.2205
     4.2205   4.2207   4.2221   4.2221   4.2256   4.2695   4.2703   4.2707
     4.2707   4.2712   4.2712   4.5533   4.5611   4.5954   4.5976   4.5977
     4.5977   4.6007   4.6007   4.8377   4.8380   4.8380   4.8386   4.8437
     4.8437   4.9078   4.9128   4.9128   4.9129   4.9129   4.9215   5.0778
     5.0778   5.0808   5.0808   5.3925   5.3935   5.3937   5.3937   5.3991
     5.3991   5.8781   5.8781   5.8844   5.8844   6.9504   6.9579   6.9579
     6.9593   6.9687   6.9687   7.4227   7.4314   7.4314   7.4336   7.4379
     7.4379   7.7532   7.7620   7.9124   7.9192   7.9207   7.9207   7.9319
     7.9319   8.0398   8.0430   8.0430   8.0487   8.0531   8.0531   8.2408
     8.2498   8.2498   8.2549   8.2549   8.2549   8.2737   8.2890   8.2890
     8.2901   8.3035   8.3035   8.4653   8.4700   8.4700   8.4708   8.4708
     8.4709   8.4709   8.4713   8.4713   8.4776   8.4937   8.4937   8.6140
     8.6142

     occupation numbers 
     1.0000   1.0000   1.0000   1.0000   1.0000   1.0000   1.0000   1.0000
     1.0000   1.0000   1.0000   1.0000   1.0000   1.0000   1.0000   1.0000
     1.0000   1.0000   1.0000   1.0000   1.0000   1.0000   1.0000   1.0000
     1.0000   1.0000   1.0000   1.0000   1.0000   1.0000   1.0000   1.0000
     1.0000   1.0000   1.0000   1.0000   1.0000   1.0000   1.0000   1.0000
     1.0000   1.0000   1.0000   1.0000   1.0000   1.0000   1.0000   1.0000
     1.0000   1.0000   1.0000   1.0000   1.0000   1.0000   1.0000   1.0000
     1.0000   1.0000   1.0000   1.0000   1.0000   1.0000   1.0000   1.0000
     1.0000   1.0000   1.0000   1.0000   1.0000   1.0000   1.0000   1.0000
     1.0000   1.0000   1.0000   1.0000   1.0000   1.0000   1.0000   1.0000
     1.0000   1.0000   1.0000   1.0000   1.0000   1.0000   1.0000   1.0000
     1.0000   1.0000   1.0000   1.0000   1.0000   1.0000   1.0000   1.0000
     1.0000   1.0000   1.0000   1.0000   1.0000   1.0000   1.0000   1.0000
     1.0000   1.0000   1.0000   1.0000   1.0000   1.0000   1.0000   1.0000
     1.0000   1.0000   1.0000   1.0000   1.0000   1.0000   1.0000   1.0000
     1.0000   1.0000   1.0000   1.0000   1.0000   1.0000   1.0000   1.0000
     1.0000   1.0000   1.0000   1.0000   1.0000   1.0000   1.0000   1.0000
     1.0000   1.0000   1.0000   1.0000   1.0000   1.0000   1.0000   1.0000
     1.0000   1.0000   1.0000   1.0000   1.0000   1.0000   1.0000   1.0000
     1.0000   1.0000   1.0000   1.0000   1.0000   1.0000   1.0000   1.0000
     1.0000   1.0000   1.0000   1.0000   1.0000   1.0000   1.0000   1.0000
     1.0000   1.0000   1.0000   1.0000   1.0000   1.0000   1.0000   1.0000
     1.0000   1.0000   1.0000   1.0000   1.0000   1.0000   1.0000   1.0000
     1.0000   1.0000   1.0000   1.0000   1.0000   1.0000   1.0000   1.0000
     1.0000   1.0000   1.0000   1.0000   1.0000   1.0000   1.0000   1.0000
     1.0000   1.0000   1.0000   1.0000   1.0000   1.0000   1.0000   1.0000
     1.0000   1.0000   1.0000   1.0000   1.0000   1.0000   1.0000   1.0000
     1.0000   1.0000   1.0000   1.0000   1.0000   1.0000   1.0000   1.0000
     1.0000   1.0000   1.0000   1.0000   1.0000   1.0000   1.0000   1.0000
     1.0000   1.0000   1.0000   1.0000   1.0000   1.0000   1.0000   1.0000
     1.0000   1.0000   1.0000   1.0000   1.0000   1.0000   1.0000   1.0000
     1.0000   1.0000   1.0000   1.0000   1.0000   1.0000   1.0000   1.0000
     1.0000   0.9999   0.9999   0.9998   0.9998   0.0001   0.0001   0.0001
     0.0001   0.0000   0.0000   0.0000   0.0000   0.0000   0.0000   0.0000
     0.0000   0.0000   0.0000   0.0000   0.0000   0.0000   0.0000   0.0000
     0.0000   0.0000   0.0000   0.0000   0.0000   0.0000   0.0000   0.0000
     0.0000   0.0000   0.0000   0.0000   0.0000   0.0000   0.0000   0.0000
     0.0000   0.0000   0.0000   0.0000   0.0000   0.0000   0.0000   0.0000
     0.0000   0.0000   0.0000   0.0000   0.0000   0.0000   0.0000   0.0000
     0.0000

          k =-0.7071 0.0000 0.0000 ( 60622 PWs)   bands (ev):

   -18.0272 -18.0271 -18.0271 -17.9973 -17.9972  -5.5761  -5.5410  -5.3257
    -5.2730  -5.2730  -5.2724  -4.6087  -4.4825  -4.4825  -4.4816  -4.4810
    -4.4807  -4.4807  -4.4804  -4.3168  -4.2550  -4.2525  -4.2525  -4.2519
    -4.2519  -4.2519  -4.2518  -3.7213  -3.6316  -3.6316  -3.6303  -3.6300
    -3.6299  -3.6299  -3.6298  -3.4323  -3.4145  -3.2788  -3.2153  -3.2153
    -3.2125  -3.2125  -3.2124  -3.2124  -3.2124  -2.9896  -2.9296  -2.9296
    -2.9286  -2.9285  -2.9283  -2.9281  -2.9281  -2.7289  -2.6858  -2.6835
    -2.6835  -2.6832  -2.6832  -2.6831  -2.6829  -2.0960  -2.0669  -2.0663
    -2.0663  -1.6325  -1.5799  -1.5799  -1.5776  -1.5773  -1.5773  -1.5773
    -1.5773  -1.0948  -1.0708  -1.0684  -1.0684  -0.6870  -0.6478  -0.6478
    -0.6467  -0.6443  -0.6441  -0.6438  -0.6438  -0.4547  -0.4100  -0.4100
    -0.4084  -0.4084  -0.4083  -0.4081  -0.4081  -0.2623  -0.2438  -0.2427
    -0.2427  -0.2396  -0.2394  -0.2391  -0.2391   0.1576   0.1993   0.1998
     0.1998   0.2000   0.2000   0.2001   0.2002   0.4097   0.4185   0.8338
     0.8577   0.8577   0.8584   0.8602   0.8609   0.8609   0.8624   1.8102
     1.8102   1.8108   1.8131   1.8348   1.8694   1.8694   1.8703   1.8706
     1.8716   1.8727   1.8727   1.8857   1.8857   1.8865   1.8886   1.8886
     1.8886   1.8887   1.8896   2.6737   2.6814   2.6817   2.6817   2.6829
     2.6848   2.6848   2.6848   2.7111   2.7111   2.7117   2.7129   2.7135
     2.7143   2.7143   2.7153   2.7657   2.7657   2.7669   2.7674   2.7677
     2.7685   2.7686   2.7686   3.3769   3.3782   3.3787   3.3787   3.3797
     3.3797   3.3803   3.3806   3.4174   3.4192   3.4204   3.4204   3.4209
     3.4223   3.4241   3.4241   3.4612   3.4732   3.4767   3.4767   3.5420
     3.5420   3.5446   3.5446   3.5544   3.5547   3.5547   3.5548   3.5558
     3.5565   3.5565   3.5575   3.6747   3.6812   3.6812   3.6825   3.6833
     3.6840   3.6840   3.6846   3.7266   3.7266   3.7272   3.7281   3.9859
     3.9859   3.9878   3.9880   3.9883   3.9883   3.9900   3.9901   4.3063
     4.3152   4.3155   4.3155   4.3166   4.3169   4.3169   4.3210   4.5150
     4.5157   4.5157   4.5212   4.5697   4.5697   4.5699   4.5709   4.5709
     4.5717   4.5753   4.5753   4.7270   4.7282   4.7282   4.7289   4.7304
     4.7304   4.7309   4.7359   4.8252   4.8364   4.8959   4.8978   4.8978
     4.8978   4.8978   4.8994   4.9016   4.9016   5.3529   5.3529   5.3579
     5.3579   5.8778   5.8784   5.8838   5.8838   6.6806   6.6876   7.2690
     7.2690   7.2697   7.2798   7.6000   7.6024   8.0185   8.0331   8.0344
     8.0344   8.0368   8.0383   8.0394   8.0394   8.0447   8.0479   8.0488
     8.0488   8.0508   8.0617   8.0659   8.0659   8.1152   8.1218   8.3311
     8.3418   8.3423   8.3423   8.3427   8.3449   8.3449   8.3609   8.4369
     8.4610   8.4610   8.4621   8.4632   8.4639   8.4639   8.4864   8.5457
     8.5476   8.5486   8.5488   8.5488   8.5508   8.5610   8.5610   8.7174
     8.7277

     occupation numbers 
     1.0000   1.0000   1.0000   1.0000   1.0000   1.0000   1.0000   1.0000
     1.0000   1.0000   1.0000   1.0000   1.0000   1.0000   1.0000   1.0000
     1.0000   1.0000   1.0000   1.0000   1.0000   1.0000   1.0000   1.0000
     1.0000   1.0000   1.0000   1.0000   1.0000   1.0000   1.0000   1.0000
     1.0000   1.0000   1.0000   1.0000   1.0000   1.0000   1.0000   1.0000
     1.0000   1.0000   1.0000   1.0000   1.0000   1.0000   1.0000   1.0000
     1.0000   1.0000   1.0000   1.0000   1.0000   1.0000   1.0000   1.0000
     1.0000   1.0000   1.0000   1.0000   1.0000   1.0000   1.0000   1.0000
     1.0000   1.0000   1.0000   1.0000   1.0000   1.0000   1.0000   1.0000
     1.0000   1.0000   1.0000   1.0000   1.0000   1.0000   1.0000   1.0000
     1.0000   1.0000   1.0000   1.0000   1.0000   1.0000   1.0000   1.0000
     1.0000   1.0000   1.0000   1.0000   1.0000   1.0000   1.0000   1.0000
     1.0000   1.0000   1.0000   1.0000   1.0000   1.0000   1.0000   1.0000
     1.0000   1.0000   1.0000   1.0000   1.0000   1.0000   1.0000   1.0000
     1.0000   1.0000   1.0000   1.0000   1.0000   1.0000   1.0000   1.0000
     1.0000   1.0000   1.0000   1.0000   1.0000   1.0000   1.0000   1.0000
     1.0000   1.0000   1.0000   1.0000   1.0000   1.0000   1.0000   1.0000
     1.0000   1.0000   1.0000   1.0000   1.0000   1.0000   1.0000   1.0000
     1.0000   1.0000   1.0000   1.0000   1.0000   1.0000   1.0000   1.0000
     1.0000   1.0000   1.0000   1.0000   1.0000   1.0000   1.0000   1.0000
     1.0000   1.0000   1.0000   1.0000   1.0000   1.0000   1.0000   1.0000
     1.0000   1.0000   1.0000   1.0000   1.0000   1.0000   1.0000   1.0000
     1.0000   1.0000   1.0000   1.0000   1.0000   1.0000   1.0000   1.0000
     1.0000   1.0000   1.0000   1.0000   1.0000   1.0000   1.0000   1.0000
     1.0000   1.0000   1.0000   1.0000   1.0000   1.0000   1.0000   1.0000
     1.0000   1.0000   1.0000   1.0000   1.0000   1.0000   1.0000   1.0000
     1.0000   1.0000   1.0000   1.0000   1.0000   1.0000   1.0000   1.0000
     1.0000   1.0000   1.0000   1.0000   1.0000   1.0000   1.0000   1.0000
     1.0000   1.0000   1.0000   1.0000   1.0000   1.0000   1.0000   1.0000
     1.0000   1.0000   1.0000   1.0000   1.0000   1.0000   1.0000   1.0000
     1.0000   1.0000   1.0000   1.0000   1.0000   1.0000   1.0000   1.0000
     1.0000   1.0000   1.0000   1.0000   1.0000   1.0000   1.0000   1.0000
     1.0000   0.9999   0.9999   0.9998   0.9998   0.0262   0.0233   0.0000
     0.0000   0.0000   0.0000   0.0000   0.0000   0.0000   0.0000   0.0000
     0.0000   0.0000   0.0000   0.0000   0.0000   0.0000   0.0000   0.0000
     0.0000   0.0000   0.0000   0.0000   0.0000   0.0000   0.0000   0.0000
     0.0000   0.0000   0.0000   0.0000   0.0000   0.0000   0.0000   0.0000
     0.0000   0.0000   0.0000   0.0000   0.0000   0.0000   0.0000   0.0000
     0.0000   0.0000   0.0000   0.0000   0.0000   0.0000   0.0000   0.0000
     0.0000

     the Fermi energy is     6.4005 ev

!    total energy              =   -1427.27904937 Ry
     Harris-Foulkes estimate   =   -1427.27904937 Ry
     estimated scf accuracy    <          2.8E-10 Ry

     The total energy is the sum of the following terms:

     one-electron contribution =     111.47926271 Ry
     hartree contribution      =     188.40445482 Ry
     xc contribution           =    -599.17604611 Ry
     ewald contribution        =   -1127.98457607 Ry
     smearing contrib. (-TS)   =      -0.00214472 Ry

     convergence has been achieved in  14 iterations

     Forces acting on atoms (Ry/au):

     atom    1 type  2   force =   0.37187260E-30  0.37187260E-30 -0.37187260E-30
     atom    2 type  1   force =   0.95427947E-02  0.95427947E-02  0.95427947E-02
     atom    3 type  1   force =  -0.58243610E-04 -0.58243610E-04  0.43165668E-03
     atom    4 type  1   force =   0.16873680E-04  0.16873680E-04 -0.19786221E-05
     atom    5 type  1   force =   0.45374909E-22  0.45374909E-22  0.66185905E-04
     atom    6 type  1   force =  -0.16873680E-04 -0.16873680E-04 -0.19786221E-05
     atom    7 type  1   force =   0.58243610E-04  0.58243610E-04  0.43165668E-03
     atom    8 type  1   force =  -0.95427947E-02 -0.95427947E-02  0.95427947E-02
     atom    9 type  1   force =  -0.58243610E-04  0.43165668E-03 -0.58243610E-04
     atom   10 type  1   force =   0.16873680E-04 -0.19786221E-05  0.16873680E-04
     atom   11 type  1   force =  -0.25777710E-04 -0.30980525E-05 -0.30980525E-05
     atom   12 type  1   force =   0.12358442E-04 -0.12358442E-04 -0.12358442E-04
     atom   13 type  1   force =   0.30980525E-05  0.25777710E-04 -0.30980525E-05
     atom   14 type  1   force =   0.19786221E-05 -0.16873680E-04  0.16873680E-04
     atom   15 type  1   force =  -0.43165668E-03  0.58243610E-04 -0.58243610E-04
     atom   16 type  1   force =  -0.20739846E-04  0.20739846E-04 -0.95975030E-05
     atom   17 type  1   force =   0.00000000E+00  0.66185905E-04  0.00000000E+00
     atom   18 type  1   force =  -0.16873680E-04 -0.19786221E-05 -0.16873680E-04
     atom   19 type  1   force =   0.30980525E-05 -0.30980525E-05  0.25777710E-04
     atom   20 type  1   force =   0.19786221E-05  0.16873680E-04 -0.16873680E-04
     atom   21 type  1   force =  -0.66185905E-04  0.00000000E+00  0.00000000E+00
     atom   22 type  1   force =  -0.22932576E-04 -0.44621513E-05 -0.44621513E-05
     atom   23 type  1   force =   0.32931694E-04 -0.32931694E-04  0.78284282E-05
     atom   24 type  1   force =   0.44621513E-05  0.22932576E-04 -0.44621513E-05
     atom   25 type  1   force =   0.58243610E-04  0.43165668E-03  0.58243610E-04
     atom   26 type  1   force =  -0.95427947E-02  0.95427947E-02 -0.95427947E-02
     atom   27 type  1   force =  -0.43165668E-03 -0.58243610E-04  0.58243610E-04
     atom   28 type  1   force =  -0.20739846E-04 -0.95975030E-05  0.20739846E-04
     atom   29 type  1   force =   0.32931694E-04  0.78284282E-05 -0.32931694E-04
     atom   30 type  1   force =   0.44621513E-05 -0.44621513E-05  0.22932576E-04
     atom   31 type  1   force =  -0.78284282E-05 -0.32931694E-04 -0.32931694E-04
     atom   32 type  1   force =   0.95975030E-05  0.20739846E-04  0.20739846E-04
     atom   33 type  1   force =   0.43165668E-03 -0.58243610E-04 -0.58243610E-04
     atom   34 type  1   force =  -0.19786221E-05  0.16873680E-04  0.16873680E-04
     atom   35 type  1   force =  -0.30980525E-05 -0.25777710E-04 -0.30980525E-05
     atom   36 type  1   force =  -0.12358442E-04  0.12358442E-04 -0.12358442E-04
     atom   37 type  1   force =   0.25777710E-04  0.30980525E-05 -0.30980525E-05
     atom   38 type  1   force =  -0.16873680E-04  0.19786221E-05  0.16873680E-04
     atom   39 type  1   force =   0.58243610E-04 -0.43165668E-03 -0.58243610E-04
     atom   40 type  1   force =   0.20739846E-04 -0.20739846E-04 -0.95975030E-05
     atom   41 type  1   force =  -0.30980525E-05 -0.30980525E-05 -0.25777710E-04
     atom   42 type  1   force =  -0.12358442E-04 -0.12358442E-04  0.12358442E-04
     atom   43 type  1   force =   0.00000000E+00  0.00000000E+00  0.00000000E+00
     atom   44 type  1   force =   0.12358442E-04  0.12358442E-04  0.12358442E-04
     atom   45 type  1   force =   0.30980525E-05  0.30980525E-05 -0.25777710E-04
     atom   46 type  1   force =  -0.14148005E-04 -0.14148005E-04 -0.59597446E-05
     atom   47 type  1   force =  -0.14205196E-22 -0.14205196E-22  0.13354145E-04
     atom   48 type  1   force =   0.14148005E-04  0.14148005E-04 -0.59597446E-05
     atom   49 type  1   force =   0.25777710E-04 -0.30980525E-05  0.30980525E-05
     atom   50 type  1   force =  -0.16873680E-04  0.16873680E-04  0.19786221E-05
     atom   51 type  1   force =   0.30980525E-05 -0.25777710E-04  0.30980525E-05
     atom   52 type  1   force =  -0.14148005E-04 -0.59597446E-05 -0.14148005E-04
     atom   53 type  1   force =   0.37148282E-05  0.81261407E-05  0.81261407E-05
     atom   54 type  1   force =   0.18323364E-05 -0.18323364E-05 -0.18323364E-05
     atom   55 type  1   force =  -0.81261407E-05 -0.37148282E-05  0.81261407E-05
     atom   56 type  1   force =   0.59597446E-05  0.14148005E-04 -0.14148005E-04
     atom   57 type  1   force =   0.58243610E-04 -0.58243610E-04 -0.43165668E-03
     atom   58 type  1   force =   0.20739846E-04 -0.95975030E-05 -0.20739846E-04
     atom   59 type  1   force =   0.00000000E+00  0.13354145E-04  0.00000000E+00
     atom   60 type  1   force =   0.14148005E-04 -0.59597446E-05  0.14148005E-04
     atom   61 type  1   force =  -0.81261407E-05  0.81261407E-05 -0.37148282E-05
     atom   62 type  1   force =   0.59597446E-05 -0.14148005E-04  0.14148005E-04
     atom   63 type  1   force =  -0.13354145E-04  0.25410988E-20 -0.25410988E-20
     atom   64 type  1   force =   0.95975030E-05 -0.20739846E-04 -0.20739846E-04
     atom   65 type  1   force =   0.66185905E-04  0.00000000E+00  0.00000000E+00
     atom   66 type  1   force =  -0.19786221E-05 -0.16873680E-04 -0.16873680E-04
     atom   67 type  1   force =  -0.30980525E-05  0.30980525E-05  0.25777710E-04
     atom   68 type  1   force =   0.16873680E-04  0.19786221E-05 -0.16873680E-04
     atom   69 type  1   force =   0.00000000E+00 -0.66185905E-04  0.00000000E+00
     atom   70 type  1   force =  -0.44621513E-05 -0.22932576E-04 -0.44621513E-05
     atom   71 type  1   force =  -0.32931694E-04  0.32931694E-04  0.78284282E-05
     atom   72 type  1   force =   0.22932576E-04  0.44621513E-05 -0.44621513E-05
     atom   73 type  1   force =  -0.30980525E-05  0.25777710E-04  0.30980525E-05
     atom   74 type  1   force =   0.16873680E-04 -0.16873680E-04  0.19786221E-05
     atom   75 type  1   force =  -0.25777710E-04  0.30980525E-05  0.30980525E-05
     atom   76 type  1   force =  -0.59597446E-05 -0.14148005E-04 -0.14148005E-04
     atom   77 type  1   force =   0.81261407E-05  0.37148282E-05  0.81261407E-05
     atom   78 type  1   force =  -0.18323364E-05  0.18323364E-05 -0.18323364E-05
     atom   79 type  1   force =  -0.37148282E-05 -0.81261407E-05  0.81261407E-05
     atom   80 type  1   force =   0.14148005E-04  0.59597446E-05 -0.14148005E-04
     atom   81 type  1   force =   0.91052268E-22  0.91052268E-22 -0.66185905E-04
     atom   82 type  1   force =  -0.44621513E-05 -0.44621513E-05 -0.22932576E-04
     atom   83 type  1   force =   0.81261407E-05  0.81261407E-05  0.37148282E-05
     atom   84 type  1   force =  -0.18323364E-05 -0.18323364E-05  0.18323364E-05
     atom   85 type  1   force =   0.00000000E+00  0.00000000E+00  0.00000000E+00
     atom   86 type  1   force =   0.18323364E-05  0.18323364E-05  0.18323364E-05
     atom   87 type  1   force =  -0.81261407E-05 -0.81261407E-05  0.37148282E-05
     atom   88 type  1   force =   0.44621513E-05  0.44621513E-05 -0.22932576E-04
     atom   89 type  1   force =  -0.32931694E-04  0.78284282E-05  0.32931694E-04
     atom   90 type  1   force =   0.22932576E-04 -0.44621513E-05  0.44621513E-05
     atom   91 type  1   force =  -0.37148282E-05  0.81261407E-05 -0.81261407E-05
     atom   92 type  1   force =   0.14148005E-04 -0.14148005E-04  0.59597446E-05
     atom   93 type  1   force =  -0.81261407E-05  0.37148282E-05 -0.81261407E-05
     atom   94 type  1   force =   0.44621513E-05 -0.22932576E-04  0.44621513E-05
     atom   95 type  1   force =  -0.78284282E-05  0.32931694E-04  0.32931694E-04
     atom   96 type  1   force =   0.10684595E-04 -0.10684595E-04 -0.10684595E-04
     atom   97 type  1   force =   0.43165668E-03  0.58243610E-04  0.58243610E-04
     atom   98 type  1   force =   0.95427947E-02 -0.95427947E-02 -0.95427947E-02
     atom   99 type  1   force =  -0.58243610E-04 -0.43165668E-03  0.58243610E-04
     atom  100 type  1   force =  -0.95975030E-05 -0.20739846E-04  0.20739846E-04
     atom  101 type  1   force =   0.78284282E-05  0.32931694E-04 -0.32931694E-04
     atom  102 type  1   force =  -0.44621513E-05  0.44621513E-05  0.22932576E-04
     atom  103 type  1   force =  -0.32931694E-04 -0.78284282E-05 -0.32931694E-04
     atom  104 type  1   force =   0.20739846E-04  0.95975030E-05  0.20739846E-04
     atom  105 type  1   force =  -0.58243610E-04  0.58243610E-04 -0.43165668E-03
     atom  106 type  1   force =  -0.95975030E-05  0.20739846E-04 -0.20739846E-04
     atom  107 type  1   force =   0.13354145E-04  0.00000000E+00  0.00000000E+00
     atom  108 type  1   force =  -0.59597446E-05  0.14148005E-04  0.14148005E-04
     atom  109 type  1   force =   0.81261407E-05 -0.81261407E-05 -0.37148282E-05
     atom  110 type  1   force =  -0.14148005E-04  0.59597446E-05  0.14148005E-04
     atom  111 type  1   force =   0.84703295E-21 -0.13354145E-04 -0.84703295E-21
     atom  112 type  1   force =  -0.20739846E-04  0.95975030E-05 -0.20739846E-04
     atom  113 type  1   force =   0.78284282E-05 -0.32931694E-04  0.32931694E-04
     atom  114 type  1   force =  -0.44621513E-05  0.22932576E-04  0.44621513E-05
     atom  115 type  1   force =   0.81261407E-05 -0.37148282E-05 -0.81261407E-05
     atom  116 type  1   force =  -0.14148005E-04  0.14148005E-04  0.59597446E-05
     atom  117 type  1   force =   0.37148282E-05 -0.81261407E-05 -0.81261407E-05
     atom  118 type  1   force =  -0.22932576E-04  0.44621513E-05  0.44621513E-05
     atom  119 type  1   force =   0.32931694E-04 -0.78284282E-05  0.32931694E-04
     atom  120 type  1   force =  -0.10684595E-04  0.10684595E-04 -0.10684595E-04
     atom  121 type  1   force =  -0.32931694E-04 -0.32931694E-04 -0.78284282E-05
     atom  122 type  1   force =   0.20739846E-04  0.20739846E-04  0.95975030E-05
     atom  123 type  1   force =   0.85862259E-21 -0.83544331E-21 -0.13354145E-04
     atom  124 type  1   force =  -0.20739846E-04 -0.20739846E-04  0.95975030E-05
     atom  125 type  1   force =   0.32931694E-04  0.32931694E-04 -0.78284282E-05
     atom  126 type  1   force =  -0.10684595E-04 -0.10684595E-04  0.10684595E-04
     atom  127 type  1   force =   0.00000000E+00  0.00000000E+00  0.00000000E+00
     atom  128 type  1   force =   0.10684595E-04  0.10684595E-04  0.10684595E-04
     The non-local contrib.  to forces
     atom    1 type  2   force =   0.12777445E-18  0.12777445E-18 -0.22999401E-18
     atom    2 type  1   force =  -0.35156809E-02 -0.35156809E-02 -0.35156809E-02
     atom    3 type  1   force =   0.85937708E-03  0.85937708E-03 -0.56863378E-03
     atom    4 type  1   force =   0.75420773E-04  0.75420773E-04  0.64284237E-04
     atom    5 type  1   force =  -0.36759355E-20 -0.98543626E-19 -0.94528511E-04
     atom    6 type  1   force =  -0.75420773E-04 -0.75420773E-04  0.64284237E-04
     atom    7 type  1   force =  -0.85937708E-03 -0.85937708E-03 -0.56863378E-03
     atom    8 type  1   force =   0.35156809E-02  0.35156809E-02 -0.35156809E-02
     atom    9 type  1   force =   0.85937708E-03 -0.56863378E-03  0.85937708E-03
     atom   10 type  1   force =   0.75420773E-04  0.64284237E-04  0.75420773E-04
     atom   11 type  1   force =   0.82619773E-05 -0.19229208E-04 -0.19229208E-04
     atom   12 type  1   force =  -0.32638500E-05  0.32638500E-05  0.32638500E-05
     atom   13 type  1   force =   0.19229208E-04 -0.82619773E-05 -0.19229208E-04
     atom   14 type  1   force =  -0.64284237E-04 -0.75420773E-04  0.75420773E-04
     atom   15 type  1   force =   0.56863378E-03 -0.85937708E-03  0.85937708E-03
     atom   16 type  1   force =  -0.31155886E-04  0.31155886E-04 -0.15882629E-03
     atom   17 type  1   force =   0.81315163E-19 -0.94528511E-04 -0.27105054E-19
     atom   18 type  1   force =  -0.75420773E-04  0.64284237E-04 -0.75420773E-04
     atom   19 type  1   force =   0.19229208E-04 -0.19229208E-04 -0.82619773E-05
     atom   20 type  1   force =  -0.64284237E-04  0.75420773E-04 -0.75420773E-04
     atom   21 type  1   force =   0.94528511E-04 -0.10164395E-18 -0.10164395E-18
     atom   22 type  1   force =   0.30154557E-04  0.94021902E-05  0.94021902E-05
     atom   23 type  1   force =  -0.40370488E-04  0.40370488E-04 -0.80919059E-04
     atom   24 type  1   force =  -0.94021902E-05 -0.30154557E-04  0.94021902E-05
     atom   25 type  1   force =  -0.85937708E-03 -0.56863378E-03 -0.85937708E-03
     atom   26 type  1   force =   0.35156809E-02 -0.35156809E-02  0.35156809E-02
     atom   27 type  1   force =   0.56863378E-03  0.85937708E-03 -0.85937708E-03
     atom   28 type  1   force =  -0.31155886E-04 -0.15882629E-03  0.31155886E-04
     atom   29 type  1   force =  -0.40370488E-04 -0.80919059E-04  0.40370488E-04
     atom   30 type  1   force =  -0.94021902E-05  0.94021902E-05 -0.30154557E-04
     atom   31 type  1   force =   0.80919059E-04  0.40370488E-04  0.40370488E-04
     atom   32 type  1   force =   0.15882629E-03  0.31155886E-04  0.31155886E-04
     atom   33 type  1   force =  -0.56863378E-03  0.85937708E-03  0.85937708E-03
     atom   34 type  1   force =   0.64284237E-04  0.75420773E-04  0.75420773E-04
     atom   35 type  1   force =  -0.19229208E-04  0.82619773E-05 -0.19229208E-04
     atom   36 type  1   force =   0.32638500E-05 -0.32638500E-05  0.32638500E-05
     atom   37 type  1   force =  -0.82619773E-05  0.19229208E-04 -0.19229208E-04
     atom   38 type  1   force =  -0.75420773E-04 -0.64284237E-04  0.75420773E-04
     atom   39 type  1   force =  -0.85937708E-03  0.56863378E-03  0.85937708E-03
     atom   40 type  1   force =   0.31155886E-04 -0.31155886E-04 -0.15882629E-03
     atom   41 type  1   force =  -0.19229208E-04 -0.19229208E-04  0.82619773E-05
     atom   42 type  1   force =   0.32638500E-05  0.32638500E-05 -0.32638500E-05
     atom   43 type  1   force =  -0.51109781E-19  0.00000000E+00  0.00000000E+00
     atom   44 type  1   force =  -0.32638500E-05 -0.32638500E-05 -0.32638500E-05
     atom   45 type  1   force =   0.19229208E-04  0.19229208E-04  0.82619773E-05
     atom   46 type  1   force =   0.29170729E-04  0.29170729E-04 -0.21576333E-05
     atom   47 type  1   force =  -0.25698792E-19 -0.76520769E-19 -0.27303388E-04
     atom   48 type  1   force =  -0.29170729E-04 -0.29170729E-04 -0.21576333E-05
     atom   49 type  1   force =  -0.82619773E-05 -0.19229208E-04  0.19229208E-04
     atom   50 type  1   force =  -0.75420773E-04  0.75420773E-04 -0.64284237E-04
     atom   51 type  1   force =   0.19229208E-04  0.82619773E-05  0.19229208E-04
     atom   52 type  1   force =   0.29170729E-04 -0.21576333E-05  0.29170729E-04
     atom   53 type  1   force =   0.29027458E-05 -0.14396762E-04 -0.14396762E-04
     atom   54 type  1   force =  -0.59850362E-05  0.59850362E-05  0.59850362E-05
     atom   55 type  1   force =   0.14396762E-04 -0.29027458E-05 -0.14396762E-04
     atom   56 type  1   force =   0.21576333E-05 -0.29170729E-04  0.29170729E-04
     atom   57 type  1   force =  -0.85937708E-03  0.85937708E-03  0.56863378E-03
     atom   58 type  1   force =   0.31155886E-04 -0.15882629E-03 -0.31155886E-04
     atom   59 type  1   force =   0.10164395E-18 -0.27303388E-04  0.10164395E-18
     atom   60 type  1   force =  -0.29170729E-04 -0.21576333E-05 -0.29170729E-04
     atom   61 type  1   force =   0.14396762E-04 -0.14396762E-04 -0.29027458E-05
     atom   62 type  1   force =   0.21576333E-05  0.29170729E-04 -0.29170729E-04
     atom   63 type  1   force =   0.27303388E-04  0.50821977E-19  0.50821977E-19
[...]
     atom   77 type  1   force =   0.00000000E+00  0.00000000E+00  0.00000000E+00
     atom   78 type  1   force =   0.00000000E+00  0.00000000E+00  0.00000000E+00
     atom   79 type  1   force =   0.00000000E+00  0.00000000E+00  0.00000000E+00
     atom   80 type  1   force =   0.00000000E+00  0.00000000E+00  0.00000000E+00
     atom   81 type  1   force =   0.00000000E+00  0.00000000E+00  0.00000000E+00
     atom   82 type  1   force =   0.00000000E+00  0.00000000E+00  0.00000000E+00
     atom   83 type  1   force =   0.00000000E+00  0.00000000E+00  0.00000000E+00
     atom   84 type  1   force =   0.00000000E+00  0.00000000E+00  0.00000000E+00
     atom   85 type  1   force =   0.00000000E+00  0.00000000E+00  0.00000000E+00
     atom   86 type  1   force =   0.00000000E+00  0.00000000E+00  0.00000000E+00
     atom   87 type  1   force =   0.00000000E+00  0.00000000E+00  0.00000000E+00
     atom   88 type  1   force =   0.00000000E+00  0.00000000E+00  0.00000000E+00
     atom   89 type  1   force =   0.00000000E+00  0.00000000E+00  0.00000000E+00
     atom   90 type  1   force =   0.00000000E+00  0.00000000E+00  0.00000000E+00
     atom   91 type  1   force =   0.00000000E+00  0.00000000E+00  0.00000000E+00
     atom   92 type  1   force =   0.00000000E+00  0.00000000E+00  0.00000000E+00
     atom   93 type  1   force =   0.00000000E+00  0.00000000E+00  0.00000000E+00
     atom   94 type  1   force =   0.00000000E+00  0.00000000E+00  0.00000000E+00
     atom   95 type  1   force =   0.00000000E+00  0.00000000E+00  0.00000000E+00
     atom   96 type  1   force =   0.00000000E+00  0.00000000E+00  0.00000000E+00
     atom   97 type  1   force =   0.00000000E+00  0.00000000E+00  0.00000000E+00
     atom   98 type  1   force =   0.00000000E+00  0.00000000E+00  0.00000000E+00
     atom   99 type  1   force =   0.00000000E+00  0.00000000E+00  0.00000000E+00
     atom  100 type  1   force =   0.00000000E+00  0.00000000E+00  0.00000000E+00
     atom  101 type  1   force =   0.00000000E+00  0.00000000E+00  0.00000000E+00
     atom  102 type  1   force =   0.00000000E+00  0.00000000E+00  0.00000000E+00
     atom  103 type  1   force =   0.00000000E+00  0.00000000E+00  0.00000000E+00
     atom  104 type  1   force =   0.00000000E+00  0.00000000E+00  0.00000000E+00
     atom  105 type  1   force =   0.00000000E+00  0.00000000E+00  0.00000000E+00
     atom  106 type  1   force =   0.00000000E+00  0.00000000E+00  0.00000000E+00
     atom  107 type  1   force =   0.00000000E+00  0.00000000E+00  0.00000000E+00
     atom  108 type  1   force =   0.00000000E+00  0.00000000E+00  0.00000000E+00
     atom  109 type  1   force =   0.00000000E+00  0.00000000E+00  0.00000000E+00
     atom  110 type  1   force =   0.00000000E+00  0.00000000E+00  0.00000000E+00
     atom  111 type  1   force =   0.00000000E+00  0.00000000E+00  0.00000000E+00
     atom  112 type  1   force =   0.00000000E+00  0.00000000E+00  0.00000000E+00
     atom  113 type  1   force =   0.00000000E+00  0.00000000E+00  0.00000000E+00
     atom  114 type  1   force =   0.00000000E+00  0.00000000E+00  0.00000000E+00
     atom  115 type  1   force =   0.00000000E+00  0.00000000E+00  0.00000000E+00
     atom  116 type  1   force =   0.00000000E+00  0.00000000E+00  0.00000000E+00
     atom  117 type  1   force =   0.00000000E+00  0.00000000E+00  0.00000000E+00
     atom  118 type  1   force =   0.00000000E+00  0.00000000E+00  0.00000000E+00
     atom  119 type  1   force =   0.00000000E+00  0.00000000E+00  0.00000000E+00
     atom  120 type  1   force =   0.00000000E+00  0.00000000E+00  0.00000000E+00
     atom  121 type  1   force =   0.00000000E+00  0.00000000E+00  0.00000000E+00
     atom  122 type  1   force =   0.00000000E+00  0.00000000E+00  0.00000000E+00
     atom  123 type  1   force =   0.00000000E+00  0.00000000E+00  0.00000000E+00
     atom  124 type  1   force =   0.00000000E+00  0.00000000E+00  0.00000000E+00
     atom  125 type  1   force =   0.00000000E+00  0.00000000E+00  0.00000000E+00
     atom  126 type  1   force =   0.00000000E+00  0.00000000E+00  0.00000000E+00
     atom  127 type  1   force =   0.00000000E+00  0.00000000E+00  0.00000000E+00
     atom  128 type  1   force =   0.00000000E+00  0.00000000E+00  0.00000000E+00
     The SCF correction term to forces
     atom    1 type  2   force =   0.49317949E-14 -0.61617614E-14 -0.26366560E-14
     atom    2 type  1   force =  -0.30339773E-05 -0.30339773E-05 -0.30339773E-05
     atom    3 type  1   force =  -0.24427334E-05 -0.24427334E-05  0.50266376E-06
     atom    4 type  1   force =  -0.10382577E-05 -0.10382577E-05 -0.63063605E-06
     atom    5 type  1   force =   0.81195773E-15 -0.17381388E-14  0.49044384E-06
     atom    6 type  1   force =   0.10382577E-05  0.10382577E-05 -0.63063605E-06
     atom    7 type  1   force =   0.24427334E-05  0.24427334E-05  0.50266376E-06
     atom    8 type  1   force =   0.30339773E-05  0.30339773E-05 -0.30339773E-05
     atom    9 type  1   force =  -0.24427334E-05  0.50266376E-06 -0.24427334E-05
     atom   10 type  1   force =  -0.10382577E-05 -0.63063605E-06 -0.10382577E-05
     atom   11 type  1   force =  -0.93327368E-06 -0.48759471E-07 -0.48759471E-07
     atom   12 type  1   force =  -0.11095211E-06  0.11095211E-06  0.11095211E-06
     atom   13 type  1   force =   0.48759471E-07  0.93327368E-06 -0.48759471E-07
     atom   14 type  1   force =   0.63063605E-06  0.10382577E-05 -0.10382577E-05
     atom   15 type  1   force =  -0.50266376E-06  0.24427334E-05 -0.24427334E-05
     atom   16 type  1   force =  -0.38978248E-06  0.38978248E-06 -0.26946691E-05
     atom   17 type  1   force =   0.58535394E-15  0.49044384E-06 -0.17986250E-14
     atom   18 type  1   force =   0.10382577E-05 -0.63063605E-06  0.10382577E-05
     atom   19 type  1   force =   0.48759471E-07 -0.48759471E-07  0.93327368E-06
     atom   20 type  1   force =   0.63063605E-06 -0.10382577E-05  0.10382577E-05
     atom   21 type  1   force =  -0.49044384E-06 -0.12480912E-14 -0.16499945E-14
     atom   22 type  1   force =   0.19515478E-06 -0.38001542E-06 -0.38001542E-06
     atom   23 type  1   force =  -0.22377724E-06  0.22377724E-06 -0.11467242E-05
     atom   24 type  1   force =   0.38001542E-06 -0.19515478E-06 -0.38001542E-06
     atom   25 type  1   force =   0.24427334E-05  0.50266376E-06  0.24427334E-05
     atom   26 type  1   force =   0.30339773E-05 -0.30339773E-05  0.30339773E-05
     atom   27 type  1   force =  -0.50266376E-06 -0.24427334E-05  0.24427334E-05
     atom   28 type  1   force =  -0.38978248E-06 -0.26946691E-05  0.38978248E-06
     atom   29 type  1   force =  -0.22377724E-06 -0.11467242E-05  0.22377724E-06
     atom   30 type  1   force =   0.38001542E-06 -0.38001542E-06 -0.19515478E-06
     atom   31 type  1   force =   0.11467242E-05  0.22377724E-06  0.22377724E-06
     atom   32 type  1   force =   0.26946691E-05  0.38978248E-06  0.38978248E-06
     atom   33 type  1   force =   0.50266376E-06 -0.24427334E-05 -0.24427334E-05
     atom   34 type  1   force =  -0.63063605E-06 -0.10382577E-05 -0.10382577E-05
     atom   35 type  1   force =  -0.48759471E-07 -0.93327368E-06 -0.48759468E-07
     atom   36 type  1   force =   0.11095211E-06 -0.11095211E-06  0.11095211E-06
     atom   37 type  1   force =   0.93327368E-06  0.48759471E-07 -0.48759469E-07
     atom   38 type  1   force =   0.10382577E-05  0.63063605E-06 -0.10382577E-05
     atom   39 type  1   force =   0.24427334E-05 -0.50266376E-06 -0.24427334E-05
     atom   40 type  1   force =   0.38978248E-06 -0.38978248E-06 -0.26946691E-05
     atom   41 type  1   force =  -0.48759471E-07 -0.48759469E-07 -0.93327368E-06
     atom   42 type  1   force =   0.11095211E-06  0.11095211E-06 -0.11095211E-06
     atom   43 type  1   force =  -0.15294497E-14  0.29332963E-15  0.80049759E-15
     atom   44 type  1   force =  -0.11095211E-06 -0.11095211E-06 -0.11095211E-06
     atom   45 type  1   force =   0.48759469E-07  0.48759471E-07 -0.93327368E-06
     atom   46 type  1   force =  -0.14689106E-06 -0.14689106E-06 -0.94725415E-06
     atom   47 type  1   force =  -0.48912627E-15  0.14144746E-14 -0.21538353E-05
     atom   48 type  1   force =   0.14689106E-06  0.14689106E-06 -0.94725415E-06
     atom   49 type  1   force =   0.93327368E-06 -0.48759469E-07  0.48759471E-07
     atom   50 type  1   force =   0.10382577E-05 -0.10382577E-05  0.63063605E-06
     atom   51 type  1   force =   0.48759468E-07 -0.93327368E-06  0.48759471E-07
     atom   52 type  1   force =  -0.14689106E-06 -0.94725415E-06 -0.14689106E-06
     atom   53 type  1   force =  -0.88578019E-07 -0.50334260E-06 -0.50334260E-06
     atom   54 type  1   force =   0.37972215E-06 -0.37972215E-06 -0.37972215E-06
     atom   55 type  1   force =   0.50334260E-06  0.88578020E-07 -0.50334260E-06
     atom   56 type  1   force =   0.94725415E-06  0.14689106E-06 -0.14689106E-06
     atom   57 type  1   force =   0.24427334E-05 -0.24427334E-05 -0.50266376E-06
     atom   58 type  1   force =   0.38978248E-06 -0.26946691E-05 -0.38978248E-06
     atom   59 type  1   force =  -0.96114798E-15 -0.21538353E-05  0.13407564E-14
     atom   60 type  1   force =   0.14689106E-06 -0.94725415E-06  0.14689106E-06
     atom   61 type  1   force =   0.50334260E-06 -0.50334260E-06  0.88578019E-07
     atom   62 type  1   force =   0.94725415E-06 -0.14689106E-06  0.14689106E-06
     atom   63 type  1   force =   0.21538353E-05  0.17447242E-14  0.13289980E-14
     atom   64 type  1   force =   0.26946691E-05 -0.38978248E-06 -0.38978248E-06
     atom   65 type  1   force =   0.49044384E-06  0.48554708E-15  0.61814752E-15
     atom   66 type  1   force =  -0.63063605E-06  0.10382577E-05  0.10382577E-05
     atom   67 type  1   force =  -0.48759471E-07  0.48759471E-07  0.93327368E-06
     atom   68 type  1   force =  -0.10382577E-05  0.63063605E-06  0.10382577E-05
     atom   69 type  1   force =  -0.12056105E-14 -0.49044384E-06  0.78374161E-15
     atom   70 type  1   force =  -0.38001542E-06  0.19515478E-06 -0.38001542E-06
     atom   71 type  1   force =   0.22377724E-06 -0.22377724E-06 -0.11467242E-05
     atom   72 type  1   force =  -0.19515478E-06  0.38001542E-06 -0.38001542E-06
     atom   73 type  1   force =  -0.48759471E-07  0.93327368E-06  0.48759471E-07
     atom   74 type  1   force =  -0.10382577E-05  0.10382577E-05  0.63063605E-06
     atom   75 type  1   force =  -0.93327368E-06  0.48759470E-07  0.48759471E-07
     atom   76 type  1   force =  -0.94725415E-06 -0.14689106E-06 -0.14689106E-06
     atom   77 type  1   force =  -0.50334260E-06 -0.88578017E-07 -0.50334260E-06
     atom   78 type  1   force =  -0.37972215E-06  0.37972215E-06 -0.37972215E-06
     atom   79 type  1   force =   0.88578018E-07  0.50334260E-06 -0.50334260E-06
     atom   80 type  1   force =   0.14689106E-06  0.94725415E-06 -0.14689106E-06
     atom   81 type  1   force =  -0.14824374E-14  0.99762756E-15 -0.49044384E-06
     atom   82 type  1   force =  -0.38001542E-06 -0.38001542E-06  0.19515478E-06
     atom   83 type  1   force =  -0.50334260E-06 -0.50334260E-06 -0.88578017E-07
     atom   84 type  1   force =  -0.37972215E-06 -0.37972215E-06  0.37972215E-06
     atom   85 type  1   force =  -0.11354739E-14  0.13746415E-14  0.13764245E-14
     atom   86 type  1   force =   0.37972215E-06  0.37972215E-06  0.37972215E-06
     atom   87 type  1   force =   0.50334260E-06  0.50334260E-06 -0.88578017E-07
     atom   88 type  1   force =   0.38001542E-06  0.38001542E-06  0.19515478E-06
     atom   89 type  1   force =   0.22377724E-06 -0.11467241E-05 -0.22377724E-06
     atom   90 type  1   force =  -0.19515478E-06 -0.38001542E-06  0.38001542E-06
     atom   91 type  1   force =   0.88578017E-07 -0.50334260E-06  0.50334260E-06
     atom   92 type  1   force =   0.14689106E-06 -0.14689106E-06  0.94725415E-06
     atom   93 type  1   force =   0.50334260E-06 -0.88578017E-07  0.50334260E-06
     atom   94 type  1   force =   0.38001542E-06  0.19515478E-06  0.38001542E-06
     atom   95 type  1   force =   0.11467241E-05 -0.22377724E-06 -0.22377724E-06
     atom   96 type  1   force =   0.10963043E-06 -0.10963043E-06 -0.10963043E-06
     atom   97 type  1   force =   0.50266376E-06  0.24427334E-05  0.24427334E-05
     atom   98 type  1   force =  -0.30339773E-05  0.30339773E-05  0.30339773E-05
     atom   99 type  1   force =  -0.24427334E-05 -0.50266376E-06  0.24427334E-05
     atom  100 type  1   force =  -0.26946691E-05 -0.38978248E-06  0.38978248E-06
     atom  101 type  1   force =  -0.11467242E-05 -0.22377724E-06  0.22377724E-06
     atom  102 type  1   force =  -0.38001542E-06  0.38001542E-06 -0.19515478E-06
     atom  103 type  1   force =   0.22377724E-06  0.11467241E-05  0.22377724E-06
     atom  104 type  1   force =   0.38978248E-06  0.26946691E-05  0.38978248E-06
     atom  105 type  1   force =  -0.24427334E-05  0.24427334E-05 -0.50266376E-06
     atom  106 type  1   force =  -0.26946691E-05  0.38978248E-06 -0.38978248E-06
     atom  107 type  1   force =  -0.21538353E-05 -0.10142612E-14 -0.24429013E-15
     atom  108 type  1   force =  -0.94725415E-06  0.14689106E-06  0.14689106E-06
     atom  109 type  1   force =  -0.50334260E-06  0.50334260E-06  0.88578018E-07
     atom  110 type  1   force =  -0.14689106E-06  0.94725415E-06  0.14689106E-06
     atom  111 type  1   force =   0.17166429E-14  0.21538353E-05 -0.28084891E-15
     atom  112 type  1   force =  -0.38978248E-06  0.26946691E-05 -0.38978248E-06
     atom  113 type  1   force =  -0.11467242E-05  0.22377724E-06 -0.22377724E-06
     atom  114 type  1   force =  -0.38001542E-06 -0.19515478E-06  0.38001542E-06
     atom  115 type  1   force =  -0.50334260E-06  0.88578017E-07  0.50334260E-06
     atom  116 type  1   force =  -0.14689106E-06  0.14689106E-06  0.94725415E-06
     atom  117 type  1   force =  -0.88578017E-07  0.50334260E-06  0.50334260E-06
     atom  118 type  1   force =   0.19515478E-06  0.38001542E-06  0.38001542E-06
     atom  119 type  1   force =  -0.22377724E-06  0.11467241E-05 -0.22377724E-06
     atom  120 type  1   force =  -0.10963043E-06  0.10963043E-06 -0.10963043E-06
     atom  121 type  1   force =   0.22377724E-06  0.22377724E-06  0.11467241E-05
     atom  122 type  1   force =   0.38978248E-06  0.38978248E-06  0.26946691E-05
     atom  123 type  1   force =   0.11203814E-14 -0.67060509E-15  0.21538353E-05
     atom  124 type  1   force =  -0.38978248E-06 -0.38978248E-06  0.26946691E-05
     atom  125 type  1   force =  -0.22377724E-06 -0.22377724E-06  0.11467241E-05
     atom  126 type  1   force =  -0.10963043E-06 -0.10963043E-06  0.10963043E-06
     atom  127 type  1   force =   0.83093360E-15 -0.99572048E-15 -0.19711914E-14
     atom  128 type  1   force =   0.10963043E-06  0.10963043E-06  0.10963043E-06

     Total force =     0.033094     Total SCF correction =     0.000021


     entering subroutine stress ...

          total   stress  (Ry/bohr**3)                   (kbar)     P=    1.23
   0.0000083616   0.0000000000   0.0000000000          1.23      0.00      0.00
   0.0000000000   0.0000083616   0.0000000000          0.00      1.23      0.00
   0.0000000000   0.0000000000   0.0000083616          0.00      0.00      1.23

     kinetic stress (kbar)   2262.87     -0.00     -0.00
                               -0.00   2262.87     -0.00
                               -0.00     -0.00   2262.87

     local   stress (kbar)   -477.13      0.00      0.00
                                0.00   -477.13     -0.00
                                0.00     -0.00   -477.13

     nonloc. stress (kbar)   1951.27     -0.00     -0.00
                               -0.00   1951.27      0.00
                               -0.00      0.00   1951.27

     hartree stress (kbar)    533.97      0.00      0.00
                                0.00    533.97      0.00
                                0.00      0.00    533.97

     exc-cor stress (kbar)   1159.19      0.00     -0.00
                                0.00   1159.19      0.00
                               -0.00      0.00   1159.19

     corecor stress (kbar)  -2232.05     -0.00     -0.00
                               -0.00  -2232.05     -0.00
                               -0.00     -0.00  -2232.05

     ewald   stress (kbar)  -3196.90      0.00     -0.00
                                0.00  -3196.90      0.00
                               -0.00      0.00  -3196.90

     hubbard stress (kbar)      0.00      0.00      0.00
                                0.00      0.00      0.00
                                0.00      0.00      0.00

     london  stress (kbar)      0.00      0.00      0.00
                                0.00      0.00      0.00
                                0.00      0.00      0.00

     XDM     stress (kbar)      0.00      0.00      0.00
                                0.00      0.00      0.00
                                0.00      0.00      0.00

     dft-nl  stress (kbar)      0.00      0.00      0.00
                                0.00      0.00      0.00
                                0.00      0.00      0.00



     Writing output data file Si_diamond.scf.in.super.444.Ge.save

     init_run     :    245.91s CPU    240.90s WALL (       1 calls)
     electrons    :   6782.04s CPU   6676.08s WALL (       1 calls)
     forces       :    302.33s CPU    284.79s WALL (       1 calls)
     stress       :   1003.55s CPU   1007.33s WALL (       1 calls)

     Called by init_run:
     wfcinit      :    216.45s CPU    207.76s WALL (       1 calls)
     potinit      :      0.76s CPU      0.87s WALL (       1 calls)

     Called by electrons:
     c_bands      :   5255.48s CPU   5084.65s WALL (      15 calls)
     sum_band     :   1092.49s CPU   1121.15s WALL (      15 calls)
     v_of_rho     :      8.22s CPU      9.57s WALL (      15 calls)
     v_h          :      0.83s CPU      0.95s WALL (      15 calls)
     v_xc         :      8.86s CPU     10.20s WALL (      17 calls)
     newd         :    437.53s CPU    472.84s WALL (      15 calls)
     mix_rho      :     13.32s CPU     15.43s WALL (      15 calls)

     Called by c_bands:
     init_us_2    :     14.54s CPU     15.63s WALL (      99 calls)
     cegterg      :   5179.58s CPU   5001.68s WALL (      45 calls)

     Called by sum_band:
     sum_band:bec :      2.74s CPU      2.76s WALL (      45 calls)
     addusdens    :    394.88s CPU    424.27s WALL (      15 calls)

     Called by *egterg:
     h_psi        :   3208.07s CPU   3167.37s WALL (     202 calls)
     s_psi        :    671.70s CPU    479.33s WALL (     202 calls)
     g_psi        :      1.11s CPU      1.20s WALL (     154 calls)
     cdiaghg      :    729.33s CPU    873.93s WALL (     196 calls)
     cegterg:over :    353.43s CPU    307.68s WALL (     154 calls)
     cegterg:upda :    150.45s CPU    117.69s WALL (     154 calls)
     cegterg:last :     90.92s CPU     68.02s WALL (      46 calls)

     Called by h_psi:
     h_psi:vloc   :   1798.65s CPU   2120.06s WALL (     202 calls)
     h_psi:vnl    :   1406.73s CPU   1044.38s WALL (     202 calls)
     add_vuspsi   :    663.18s CPU    474.43s WALL (     202 calls)

     General routines
     calbec       :   1106.10s CPU    848.86s WALL (     253 calls)
     fft          :    219.47s CPU    224.70s WALL (     265 calls)
     ffts         :      8.42s CPU      9.69s WALL (     367 calls)
     fftw         :   2046.99s CPU   2430.81s WALL (   84999 calls)
     interpolate  :      1.68s CPU      2.08s WALL (      30 calls)

     Parallel routines
     fft_scatter  :   1781.71s CPU   2076.23s WALL (   85631 calls)

     PWSCF        :     2h19m CPU        2h16m WALL


   This run was terminated on:  15:10:51  18Jan2017            

=------------------------------------------------------------------------------=
   JOB DONE.
=------------------------------------------------------------------------------=
