
     Program PWSCF v.5.1 starts on 18Jan2017 at 22:59:30 

     This program is part of the open-source Quantum ESPRESSO suite
     for quantum simulation of materials; please cite
         "P. Giannozzi et al., J. Phys.:Condens. Matter 21 395502 (2009);
          URL http://www.quantum-espresso.org", 
     in publications or presentations arising from this work. More details at
     http://www.quantum-espresso.org/quote

     Parallel version (MPI), running on    16 processors
     R & G space division:  proc/nbgrp/npool/nimage =      16
     Reading input from /tmp/SiGe_zns.scf.in.super.444.mix.02.13754/SiGe_zns.scf.in.super.444.mix.02.t
Warning: card &IONS ignored
Warning: card   ION_DYNAMICS='BFGS', ignored
Warning: card / ignored
Warning: card &CELL ignored
Warning: card  CELL_DYNAMICS = 'BFGS' ignored
Warning: card / ignored
     Message from routine read_cards :
     DEPRECATED: no units specified in CELL_PARAMETERS card

     Current dimensions of program PWSCF are:
     Max number of different atomic species (ntypx) = 10
     Max number of k-points (npk) =  40000
     Max angular momentum in pseudopotentials (lmaxx) =  3

     Subspace diagonalization in iterative solution of the eigenvalue problem:
     a serial algorithm will be used


     Parallelization info
     --------------------
     sticks:   dense  smooth     PW     G-vecs:    dense   smooth      PW
     Min         756     527    138                54768    32060    4315
     Max         757     528    139                54770    32083    4319
     Sum       12097    8443   2221               876295   513103   69089



     bravais-lattice index     =            0
     lattice parameter (alat)  =    29.598892955  a.u.
     unit-cell volume          =   18336.2874 (a.u.)^3
     number of atoms/cell      =          128
     number of atomic types    =            2
     number of electrons       =      1152.00
     number of Kohn-Sham states=          691
     kinetic-energy cutoff     =      35.0000  Ry
     charge density cutoff     =     200.0000  Ry
     convergence threshold     =      1.0E-09
     mixing beta               =       0.3000
     number of iterations used =            8  local-TF  mixing
     Exchange-correlation      = SLA  PW   PSX  PSC ( 1  4 10  8 0)
     A smooth kinetic-energy cutoff is imposed at      34.5000 Ry
     height of the smooth step-function =             800.0000 Ry
     width of the smooth step-function  =               1.0000 Ry


     celldm(1)=  29.598893  celldm(2)=   0.000000  celldm(3)=   0.000000
     celldm(4)=   0.000000  celldm(5)=   0.000000  celldm(6)=   0.000000

     crystal axes: (cart. coord. in units of alat)
               a(1) = (   0.000000000000   0.707106781187   0.707106781187 )  
               a(2) = (   0.707106781187   0.000000000000   0.707106781187 )  
               a(3) = (   0.707106781187   0.707106781187   0.000000000000 )  

     reciprocal axes: (cart. coord. in units 2 pi/alat)
               b(1) = ( -0.707107  0.707107  0.707107 )  
               b(2) = (  0.707107 -0.707107  0.707107 )  
               b(3) = (  0.707107  0.707107 -0.707107 )  


     PseudoPot. # 1 for Si read from file:
     /users/kfg/psuedo/gbrv_1.5/si.pbesol.UPF
     MD5 check sum: ef58ba74faed4df802eb8a9742fc00a8
     Pseudo is Ultrasoft + core correction, Zval =  4.0
     Generated by new atomic code, or converted to UPF format
     Using radial grid of  899 points,  6 beta functions with: 
                l(1) =   0
                l(2) =   0
                l(3) =   1
                l(4) =   1
                l(5) =   2
                l(6) =   2
     Q(r) pseudized with  8 coefficients,  rinner =    0.900   0.900   0.900
                                                       0.900   0.900

     PseudoPot. # 2 for Ge read from file:
     /users/kfg/psuedo/gbrv_1.5/ge.pbesol.UPF
     MD5 check sum: 7bed0412183f5e553a4d27ec7023354d
     Pseudo is Ultrasoft + core correction, Zval = 14.0
     Generated by new atomic code, or converted to UPF format
     Using radial grid of  873 points,  6 beta functions with: 
                l(1) =   0
                l(2) =   0
                l(3) =   1
                l(4) =   1
                l(5) =   2
                l(6) =   2
     Q(r) pseudized with  8 coefficients,  rinner =    1.400   1.400   1.400
                                                       1.400   1.400

     atomic species   valence    mass     pseudopotential
        Si             4.00    28.08550     Si( 1.00)
        Ge            14.00    72.64000     Ge( 1.00)

     No symmetry found


                                    s                        frac. trans.

      isym =  1     identity                                     

 cryst.   s( 1) = (     1          0          0      )
                  (     0          1          0      )
                  (     0          0          1      )

 cart.    s( 1) = (  1.0000000  0.0000000  0.0000000 )
                  (  0.0000000  1.0000000  0.0000000 )
                  (  0.0000000  0.0000000  1.0000000 )


     point group C_1 (1)    
     there are  1 classes
     the character table:

       E    
A      1.00

     the symmetry operations in each class:
     E        1

   Cartesian axes

     site n.     atom                  positions (alat units)
         1           Si  tau(   1) = (   -0.00008584911    0.00000128990   -0.00006412454  )
         2           Si  tau(   2) = (    0.08823913335    0.08843586106    0.08846445989  )
         3           Ge  tau(   3) = (    0.17669836360    0.17687660944   -0.00001775314  )
         4           Ge  tau(   4) = (    0.26533007818    0.26500562524    0.08845502475  )
         5           Ge  tau(   5) = (    0.35339557232    0.35370887290    0.00006746592  )
         6           Ge  tau(   6) = (    0.44204475789    0.44188544318    0.08844163640  )
         7           Si  tau(   7) = (    0.53043315764    0.53036916495   -0.00008885026  )
         8           Si  tau(   8) = (    0.61881924228    0.61871431028    0.08834137114  )
         9           Si  tau(   9) = (    0.17675951298   -0.00003655298    0.17679692047  )
        10           Ge  tau(  10) = (    0.26503727408    0.08835846549    0.26532953602  )
        11           Si  tau(  11) = (    0.35343709824    0.17669611649    0.17662044002  )
        12           Ge  tau(  12) = (    0.44209436258    0.26517314941    0.26500146633  )
        13           Si  tau(  13) = (    0.53032970287    0.35357822737    0.17683209741  )
        14           Si  tau(  14) = (    0.61868155385    0.44202510903    0.26514592677  )
        15           Si  tau(  15) = (    0.70716440338    0.53044781992    0.17687989577  )
        16           Ge  tau(  16) = (    0.79563518419    0.61856435530    0.26530424295  )
        17           Si  tau(  17) = (    0.35346319545   -0.00010573877    0.35371481652  )
        18           Ge  tau(  18) = (    0.44202741502    0.08827742351    0.44201422767  )
        19           Ge  tau(  19) = (    0.53037277329    0.17684261739    0.35361735761  )
        20           Ge  tau(  20) = (    0.61870355430    0.26520466853    0.44206209541  )
        21           Si  tau(  21) = (    0.70725767495    0.35339397374    0.35369387266  )
        22           Ge  tau(  22) = (    0.79562929475    0.44187809960    0.44193147948  )
        23           Si  tau(  23) = (    0.88381776036    0.53029599835    0.35347713037  )
        24           Ge  tau(  24) = (    0.97213487767    0.61869583917    0.44190105483  )
        25           Ge  tau(  25) = (    0.53030238164    0.00007534449    0.53037129616  )
        26           Ge  tau(  26) = (    0.61871021641    0.08853197905    0.61856774714  )
        27           Si  tau(  27) = (    0.70721352325    0.17685694064    0.53021785723  )
        28           Ge  tau(  28) = (    0.79537671782    0.26528288035    0.61879411117  )
        29           Si  tau(  29) = (    0.88399272888    0.35346731326    0.53046383870  )
        30           Si  tau(  30) = (    0.97218853514    0.44183885701    0.61878317180  )
        31           Si  tau(  31) = (    1.06082562521    0.53036270370    0.53041256480  )
        32           Ge  tau(  32) = (    1.14908461118    0.61871575065    0.61879722403  )
        33           Si  tau(  33) = (    0.00012410517    0.17688087260    0.17694204561  )
        34           Si  tau(  34) = (    0.08845298543    0.26528337097    0.26505865493  )
        35           Si  tau(  35) = (    0.17694154576    0.35353358471    0.17678974055  )
        36           Ge  tau(  36) = (    0.26531361344    0.44185272734    0.26529000412  )
        37           Si  tau(  37) = (    0.35345725713    0.53025985043    0.17676013646  )
        38           Ge  tau(  38) = (    0.44190396904    0.61869030587    0.26522617233  )
        39           Si  tau(  39) = (    0.53043862716    0.70726907803    0.17674364297  )
        40           Ge  tau(  40) = (    0.61857374018    0.79545932704    0.26526668168  )
        41           Si  tau(  41) = (    0.17684249329    0.17691944136    0.35341487129  )
        42           Ge  tau(  42) = (    0.26521311855    0.26525930254    0.44182301128  )
        43           Ge  tau(  43) = (    0.35341107631    0.35341972817    0.35368993097  )
        44           Ge  tau(  44) = (    0.44210912879    0.44184307180    0.44203098066  )
        45           Si  tau(  45) = (    0.53033558694    0.53037662417    0.35339280264  )
        46           Ge  tau(  46) = (    0.61864311591    0.61888213339    0.44202113539  )
        47           Si  tau(  47) = (    0.70707092024    0.70694944221    0.35354142490  )
        48           Ge  tau(  48) = (    0.79533235192    0.79533517508    0.44210665882  )
        49           Si  tau(  49) = (    0.35338880866    0.17688219596    0.53021902778  )
        50           Ge  tau(  50) = (    0.44202923361    0.26505567926    0.61875369319  )
        51           Ge  tau(  51) = (    0.53025313335    0.35358618382    0.53049105446  )
        52           Ge  tau(  52) = (    0.61860065187    0.44190223266    0.61872048546  )
        53           Si  tau(  53) = (    0.70720574936    0.53036581730    0.53049264188  )
        54           Ge  tau(  54) = (    0.79539255665    0.61864677671    0.61867469198  )
        55           Si  tau(  55) = (    0.88384421281    0.70699951498    0.53037368052  )
        56           Si  tau(  56) = (    0.97233950928    0.79552080533    0.61862777507  )
        57           Si  tau(  57) = (    0.53031328231    0.17671663477    0.70719396346  )
        58           Ge  tau(  58) = (    0.61873370065    0.26501980719    0.79565674260  )
        59           Si  tau(  59) = (    0.70720549836    0.35368923499    0.70715939471  )
        60           Ge  tau(  60) = (    0.79546215973    0.44178410475    0.79539793604  )
        61           Si  tau(  61) = (    0.88380080728    0.53018009417    0.70709232048  )
        62           Ge  tau(  62) = (    0.97211009119    0.61878402195    0.79553973399  )
        63           Si  tau(  63) = (    1.06075293679    0.70711820205    0.70712056889  )
        64           Ge  tau(  64) = (    1.14910661969    0.79541100224    0.79556704208  )
        65           Si  tau(  65) = (    0.00010117899    0.35351289691    0.35359993358  )
        66           Ge  tau(  66) = (    0.08832533497    0.44190933608    0.44197803881  )
        67           Si  tau(  67) = (    0.17691645473    0.53030319918    0.35342033190  )
        68           Ge  tau(  68) = (    0.26504212409    0.61859112467    0.44191088722  )
        69           Si  tau(  69) = (    0.35338687715    0.70697065241    0.35348016216  )
        70           Ge  tau(  70) = (    0.44209121689    0.79552350762    0.44180263578  )
        71           Si  tau(  71) = (    0.53048100465    0.88390655565    0.35367458570  )
        72           Ge  tau(  72) = (    0.61888191512    0.97236851990    0.44185684124  )
        73           Si  tau(  73) = (    0.17681113203    0.35344631753    0.53021362962  )
        74           Ge  tau(  74) = (    0.26502470149    0.44187309546    0.61887451843  )
        75           Si  tau(  75) = (    0.35349941024    0.53018576704    0.53016947161  )
        76           Ge  tau(  76) = (    0.44199195810    0.61879286738    0.61880835690  )
        77           Ge  tau(  77) = (    0.53034740572    0.70709295210    0.53036320229  )
        78           Ge  tau(  78) = (    0.61874921180    0.79558262196    0.61873763772  )
        79           Si  tau(  79) = (    0.70698643228    0.88394949114    0.53034751691  )
        80           Ge  tau(  80) = (    0.79563262590    0.97223730159    0.61880108093  )
        81           Si  tau(  81) = (    0.35346423377    0.35368151782    0.70713428049  )
        82           Si  tau(  82) = (    0.44198530638    0.44190548493    0.79542905278  )
        83           Si  tau(  83) = (    0.53041396296    0.53026780800    0.70706159270  )
        84           Ge  tau(  84) = (    0.61885360263    0.61872690823    0.79542482249  )
        85           Si  tau(  85) = (    0.70702657078    0.70696441453    0.70720455529  )
        86           Ge  tau(  86) = (    0.79554084671    0.79539712649    0.79534557154  )
        87           Si  tau(  87) = (    0.88393337038    0.88397650944    0.70694071913  )
        88           Ge  tau(  88) = (    0.97219719755    0.97214816794    0.79538199099  )
        89           Ge  tau(  89) = (    0.53024454241    0.35356774821    0.88403282755  )
        90           Ge  tau(  90) = (    0.61878002602    0.44206582930    0.97224102987  )
        91           Si  tau(  91) = (    0.70714337225    0.53032581176    0.88405147408  )
        92           Ge  tau(  92) = (    0.79556932539    0.61865897314    0.97232229294  )
        93           Si  tau(  93) = (    0.88403518777    0.70713447520    0.88378843257  )
        94           Ge  tau(  94) = (    0.97228057753    0.79558401825    0.97225295127  )
        95           Si  tau(  95) = (    1.06064785003    0.88390218452    0.88382766129  )
        96           Ge  tau(  96) = (    1.14917494968    0.97212717792    0.97226767549  )
        97           Si  tau(  97) = (    0.00006523728    0.53024100798    0.53036754886  )
        98           Si  tau(  98) = (    0.08848667861    0.61863465973    0.61884099335  )
        99           Si  tau(  99) = (    0.17662843960    0.70703879726    0.53024818367  )
       100           Ge  tau( 100) = (    0.26529853403    0.79542402672    0.61875537521  )
       101           Si  tau( 101) = (    0.35362914265    0.88394883728    0.53024970713  )
       102           Ge  tau( 102) = (    0.44210912792    0.97226878097    0.61880206196  )
       103           Si  tau( 103) = (    0.53027600892    1.06059117242    0.53025379825  )
       104           Ge  tau( 104) = (    0.61886218832    1.14911593402    0.61865213471  )
       105           Si  tau( 105) = (    0.17690676268    0.53036053312    0.70708798122  )
       106           Ge  tau( 106) = (    0.26514246492    0.61862682857    0.79557601777  )
       107           Si  tau( 107) = (    0.35357052179    0.70701675926    0.70698633337  )
       108           Si  tau( 108) = (    0.44204439578    0.79542592851    0.79553270029  )
       109           Si  tau( 109) = (    0.53016517931    0.88395480567    0.70707671498  )
       110           Ge  tau( 110) = (    0.61878388171    0.97231120661    0.79543956505  )
       111           Si  tau( 111) = (    0.70697799159    1.06062513285    0.70719280037  )
       112           Ge  tau( 112) = (    0.79557433779    1.14892055567    0.79551407711  )
       113           Si  tau( 113) = (    0.35369572393    0.53031749142    0.88371835586  )
       114           Ge  tau( 114) = (    0.44187520125    0.61870349677    0.97231495530  )
       115           Si  tau( 115) = (    0.53041994749    0.70695345919    0.88401328112  )
       116           Ge  tau( 116) = (    0.61875193426    0.79544246314    0.97222847771  )
       117           Ge  tau( 117) = (    0.70726563247    0.88396356807    0.88371686416  )
       118           Ge  tau( 118) = (    0.79541858613    0.97230311953    0.97232241970  )
       119           Si  tau( 119) = (    0.88375273876    1.06050165199    0.88376275782  )
       120           Ge  tau( 120) = (    0.97218476524    1.14919715911    0.97219435712  )
       121           Si  tau( 121) = (    0.53034026316    0.53041824452    1.06049341033  )
       122           Ge  tau( 122) = (    0.61887045154    0.61873380659    1.14908563287  )
       123           Si  tau( 123) = (    0.70707772528    0.70716969050    1.06081212751  )
       124           Ge  tau( 124) = (    0.79552375266    0.79542019018    1.14896864400  )
       125           Si  tau( 125) = (    0.88398372844    0.88378012006    1.06049971781  )
       126           Si  tau( 126) = (    0.97221888765    0.97243578226    1.14915533268  )
       127           Ge  tau( 127) = (    1.06051733675    1.06075925159    1.06072607275  )
       128           Ge  tau( 128) = (    1.14904460051    1.14904513504    1.14907356653  )

   Crystallographic axes

     site n.     atom                  positions (cryst. coord.)
         1           Si  tau(   1) = (    0.00001627369   -0.00010695948   -0.00001444950  )
         2           Si  tau(   2) = (    0.06269292698    0.06241471199    0.06237426713  )
         3           Ge  tau(   3) = (    0.00011348548   -0.00013859222    0.25002781447  )
         4           Ge  tau(   4) = (    0.06231772497    0.06277657070    0.31245682436  )
         5           Ge  tau(   5) = (    0.00026924257   -0.00017383135    0.49995064261  )
         6           Ge  tau(   6) = (    0.06242502833    0.06265033334    0.56249535844  )
         7           Si  tau(   7) = (   -0.00010807629   -0.00001757695    0.75016334242  )
         8           Si  tau(   8) = (    0.06239258446    0.06254098073    0.81260158437  )
         9           Si  tau(   9) = (    0.00000060423    0.25002799849   -0.00005229795  )
        10           Ge  tau(  10) = (    0.06268553052    0.31254709782    0.06227220972  )
        11           Si  tau(  11) = (   -0.00008523587    0.24986425754    0.24997128024  )
        12           Ge  tau(  12) = (    0.06228214430    0.31248652343    0.31272931997  )
        13           Si  tau(  13) = (    0.00005700830    0.25002134211    0.49997811621  )
        14           Si  tau(  14) = (    0.06257151275    0.31240145290    0.56254639135  )
        15           Si  tau(  15) = (    0.00011547924    0.25003046826    0.75005102182  )
        16           Ge  tau(  16) = (    0.06239044541    0.31280641312    0.81239165506  )
        17           Si  tau(  17) = (    0.00010315436    0.50012513637   -0.00025269157  )
        18           Ge  tau(  18) = (    0.06241223993    0.56269027561    0.06243088965  )
        19           Ge  tau(  19) = (    0.00006166092    0.50002880210    0.25003156700  )
        20           Ge  tau(  20) = (    0.06262364610    0.56254656464    0.31243239294  )
        21           Si  tau(  21) = (   -0.00012008692    0.50031875857    0.49989463744  )
        22           Ge  tau(  22) = (    0.06235287702    0.56263261490    0.56255712435  )
        23           Si  tau(  23) = (   -0.00003155934    0.49992371110    0.74998335227  )
        24           Ge  tau(  24) = (    0.06255209163    0.56239037335    0.81241595511  )
        25           Ge  tau(  25) = (    0.00010200652    0.74995627359    0.00000454668  )
        26           Ge  tau(  26) = (    0.06250082175    0.81228607551    0.06270230373  )
        27           Si  tau(  27) = (   -0.00009809366    0.74993937836    0.25021157771  )
        28           Ge  tau(  28) = (    0.06272056503    0.81238645930    0.31244608223  )
        29           Si  tau(  29) = (   -0.00004354146    0.75023269650    0.49992180972  )
        30           Si  tau(  30) = (    0.06253192306    0.81255963067    0.56232258091  )
        31           Si  tau(  31) = (   -0.00003560757    0.75015225037    0.75008173612  )
        32           Ge  tau(  32) = (    0.06252829547    0.81258313111    0.81246791034  )
        33           Si  tau(  33) = (    0.25010282920    0.00013101146    0.00004449976  )
        34           Si  tau(  34) = (    0.31246273704    0.06238680758    0.06270460406  )
        35           Si  tau(  35) = (    0.24987865263    0.00013979614    0.25009333763  )
        36           Ge  tau(  36) = (    0.31242036548    0.06275635632    0.31245375410  )
        37           Si  tau(  37) = (    0.25000660379   -0.00003002152    0.49989406826  )
        38           Ge  tau(  38) = (    0.31255004260    0.06253640741    0.56241017887  )
        39           Si  tau(  39) = (    0.25001463940   -0.00006138246    0.75021488300  )
        40           Ge  tau(  40) = (    0.31264886740    0.06249487147    0.81230050122  )
        41           Si  tau(  41) = (    0.24995646256    0.24984764156    0.00024541086  )
        42           Ge  tau(  42) = (    0.31244870437    0.31238339035    0.06268459882  )
        43           Ge  tau(  43) = (    0.25010266642    0.25009043083    0.24970830637  )
        44           Ge  tau(  44) = (    0.31237497322    0.31275123462    0.31248549136  )
        45           Si  tau(  45) = (    0.24991546487    0.24985742947    0.50015035019  )
        46           Ge  tau(  46) = (    0.31272515315    0.31238713138    0.56250635340  )
        47           Si  tau(  47) = (    0.24990564103    0.25007743691    0.74987184806  )
        48           Ge  tau(  48) = (    0.31261861272    0.31261462019    0.81215517850  )
        49           Si  tau(  49) = (    0.25011244729    0.49973049283    0.00003675317  )
        50           Ge  tau(  50) = (    0.31238573196    0.56266413271    0.06245960443  )
        51           Ge  tau(  51) = (    0.25019142395    0.50003621999    0.24985495268  )
        52           Ge  tau(  52) = (    0.31255680048    0.56244610137    0.31238733019  )
        53           Si  tau(  53) = (    0.25007022929    0.50015965959    0.49998030255  )
        54           Ge  tau(  54) = (    0.31249093050    0.56244720959    0.56240773144  )
        55           Si  tau(  55) = (    0.24998274101    0.50007891111    0.74986556167  )
        56           Si  tau(  56) = (    0.31240619018    0.56246559938    0.81263012187  )
        57           Si  tau(  57) = (    0.25003105990    0.75009223446   -0.00011599831  )
        58           Ge  tau(  58) = (    0.31250078553    0.81272777085    0.06229382010  )
        59           Si  tau(  59) = (    0.25006345629    0.75001095047    0.25012865670  )
        60           Ge  tau(  60) = (    0.31234312328    0.81251942535    0.31243394929  )
        61           Si  tau(  61) = (    0.24994217053    0.75003737895    0.49984570915  )
        62           Ge  tau(  62) = (    0.31269228108    0.81237080014    0.56240047495  )
        63           Si  tau(  63) = (    0.24995223037    0.75006726838    0.75006392116  )
        64           Ge  tau(  64) = (    0.31245028077    0.81265141991    0.81243074626  )
        65           Si  tau(  65) = (    0.49993273316    0.00013308857    0.00001000013  )
        66           Ge  tau(  66) = (    0.56254731328    0.06250402347    0.06240686315  )
        67           Si  tau(  67) = (    0.49978807668    0.00002374991    0.25017389977  )
        68           Ge  tau(  68) = (    0.56247508082    0.06248128924    0.31234487725  )
        69           Si  tau(  69) = (    0.49996970488   -0.00007326553    0.49983777996  )
        70           Ge  tau(  70) = (    0.56231600917    0.06248727024    0.56272412449  )
        71           Si  tau(  71) = (    0.49999530164    0.00017609412    0.75003733723  )
        72           Ge  tau(  72) = (    0.56239274406    0.06248719345    0.81274400441  )
        73           Si  tau(  73) = (    0.49981759045    0.25001771552    0.00003098537  )
        74           Ge  tau(  74) = (    0.56266106730    0.31255967007    0.06224185714  )
        75           Si  tau(  75) = (    0.49982254959    0.24995030752    0.24997335274  )
        76           Ge  tau(  76) = (    0.56258070729    0.31254646355    0.31252455806  )
        77           Ge  tau(  77) = (    0.50000139122    0.25004544244    0.49997905150  )
        78           Ge  tau(  78) = (    0.56255368287    0.31247347594    0.56257005109  )
        79           Si  tau(  79) = (    0.50014410453    0.24988054665    0.74994925429  )
        80           Ge  tau(  80) = (    0.56243680430    0.31268007676    0.81251437345  )
        81           Si  tau(  81) = (    0.50017308797    0.49986580192    0.00000811129  )
        82           Si  tau(  82) = (    0.56239683488    0.56250971946    0.06255189520  )
        83           Si  tau(  83) = (    0.49986469975    0.50007139408    0.25004722601  )
        84           Ge  tau(  84) = (    0.56236069944    0.56253987237    0.31265128559  )
        85           Si  tau(  85) = (    0.50002518563    0.50011308784    0.49977347751  )
        86           Ge  tau(  86) = (    0.56229262148    0.56249587257    0.56256878228  )
        87           Si  tau(  87) = (    0.49991308032    0.49985207247    0.75021848815  )
        88           Ge  tau(  88) = (    0.56238533029    0.56245466863    0.81243979344  )
        89           Ge  tau(  89) = (    0.50017624790    0.75003496641   -0.00015594316  )
        90           Ge  tau(  90) = (    0.56252241834    0.81243403200    0.06265307292  )
        91           Si  tau(  91) = (    0.50008989618    0.75014768830    0.24990405928  )
        92           Ge  tau(  92) = (    0.56244117710    0.81263019657    0.31247473320  )
        93           Si  tau(  93) = (    0.49984510035    0.75002048726    0.50019406490  )
        94           Ge  tau(  94) = (    0.56254331960    0.81242999015    0.56258238902  )
        95           Si  tau(  95) = (    0.49998247408    0.74993859133    0.75004398308  )
        96           Ge  tau(  96) = (    0.56230538646    0.81268874648    0.81249005290  )
        97           Si  tau(  97) = (    0.74991737301    0.00013560763   -0.00004334819  )
        98           Si  tau(  98) = (    0.81245789536    0.06271543040    0.06242363058  )
        99           Si  tau(  99) = (    0.74999884710   -0.00011467432    0.24990500911  )
       100           Ge  tau( 100) = (    0.81238145247    0.06267079095    0.31251799396  )
       101           Si  tau( 101) = (    0.74993581590   -0.00004948864    0.50015661822  )
       102           Ge  tau( 102) = (    0.81243862001    0.06267964844    0.56255707631  )
       103           Si  tau( 103) = (    0.74993550477   -0.00004339178    0.74996691540  )
       104           Ge  tau( 104) = (    0.81239913898    0.06250710031    0.81269619965  )
       105           Si  tau( 105) = (    0.74991626433    0.25005714850    0.00012679455  )
       106           Ge  tau( 106) = (    0.81250838769    0.31260600654    0.06236206331  )
       107           Si  tau( 107) = (    0.74983906183    0.24999059923    0.25003362794  )
       108           Si  tau( 108) = (    0.81240504517    0.31264808889    0.31249709080  )
       109           Si  tau( 109) = (    0.75014578389    0.24981169607    0.49995509081  )
       110           Ge  tau( 110) = (    0.81244227924    0.31247914170    0.56261341600  )
       111           Si  tau( 111) = (    0.75012711648    0.24999453302    0.74982333098  )
       112           Ge  tau( 112) = (    0.81236690523    0.31265989168    0.81245212669  )
       113           Si  tau( 113) = (    0.74977369159    0.49999279259    0.00020849714  )
       114           Ge  tau( 114) = (    0.81256698521    0.56249401147    0.06241189101  )
       115           Si  tau( 115) = (    0.74991982896    0.50026374251    0.24986334099  )
       116           Ge  tau( 116) = (    0.81240842059    0.56253027831    0.31251709887  )
       117           Ge  tau( 117) = (    0.74982649578    0.49993787882    0.50028677082  )
       118           Ge  tau( 118) = (    0.81261202953    0.56245952342    0.56243222886  )
       119           Si  tau( 119) = (    0.74989499413    0.49993428390    0.74988082503  )
       120           Ge  tau( 120) = (    0.81261188661    0.56227855849    0.81259832164  )
       121           Si  tau( 121) = (    0.74993722300    0.74982694070    0.00018745213  )
       122           Ge  tau( 122) = (    0.81242962059    0.81262286574    0.06259212018  )
       123           Si  tau( 123) = (    0.75017247816    0.75004241970    0.24991648905  )
       124           Ge  tau( 124) = (    0.81237028981    0.81251674928    0.31252373093  )
       125           Si  tau( 125) = (    0.74974256905    0.75003051477    0.50011126290  )
       126           Si  tau( 126) = (    0.81272889603    0.81242216072    0.56250297578  )
       127           Ge  tau( 127) = (    0.75021765865    0.74987553940    0.74992246136  )
       128           Ge  tau( 128) = (    0.81251808894    0.81251733301    0.81247712480  )

     number of k points=     8  gaussian smearing, width (Ry)=  0.0150
                       cart. coord. in units 2pi/alat
        k(    1) = (   0.0000000   0.0000000   0.0000000), wk =   0.2500000
        k(    2) = (  -0.3535534  -0.3535534   0.3535534), wk =   0.2500000
        k(    3) = (  -0.7071068   0.0000000   0.0000000), wk =   0.2500000
        k(    4) = (   0.3535534   0.3535534   0.3535534), wk =   0.2500000
        k(    5) = (   0.3535534  -0.3535534  -0.3535534), wk =   0.2500000
        k(    6) = (  -0.3535534   0.3535534  -0.3535534), wk =   0.2500000
        k(    7) = (   0.0000000  -0.7071068   0.0000000), wk =   0.2500000
        k(    8) = (   0.0000000   0.0000000  -0.7071068), wk =   0.2500000

                       cryst. coord.
        k(    1) = (   0.0000000   0.0000000   0.0000000), wk =   0.2500000
        k(    2) = (   0.0000000   0.0000000  -0.5000000), wk =   0.2500000
        k(    3) = (   0.0000000  -0.5000000  -0.5000000), wk =   0.2500000
        k(    4) = (   0.5000000   0.5000000   0.5000000), wk =   0.2500000
        k(    5) = (  -0.5000000   0.0000000   0.0000000), wk =   0.2500000
        k(    6) = (   0.0000000  -0.5000000   0.0000000), wk =   0.2500000
        k(    7) = (  -0.5000000   0.0000000  -0.5000000), wk =   0.2500000
        k(    8) = (  -0.5000000  -0.5000000   0.0000000), wk =   0.2500000

     Dense  grid:   876295 G-vectors     FFT dimensions: ( 135, 135, 135)

     Smooth grid:   513103 G-vectors     FFT dimensions: ( 120, 120, 120)

     Largest allocated arrays     est. size (Mb)     dimensions
        Kohn-Sham Wavefunctions        42.47 Mb     (    4028,  691)
        NL pseudopotentials           141.61 Mb     (    4028, 2304)
        Each V/rho on FFT grid          2.50 Mb     (  164025)
        Each G-vector array             0.42 Mb     (   54770)
        G-vector shells                 0.02 Mb     (    2932)
     Largest temporary arrays     est. size (Mb)     dimensions
        Auxiliary wavefunctions       169.88 Mb     (    4028, 2764)
        Each subspace H/S matrix      116.57 Mb     (    2764, 2764)
        Each <psi_i|beta_j> matrix     24.29 Mb     (    2304,  691)
        Arrays for rho mixing          20.02 Mb     (  164025,    8)

     Check: negative/imaginary core charge=   -0.000001    0.000000

     Initial potential from superposition of free atoms

     starting charge 1151.90680, renormalised to 1152.00000
     Starting wfc are  832 randomized atomic wfcs

     total cpu time spent up to now is      672.3 secs

     Self-consistent Calculation

     iteration #  1     ecut=    35.00 Ry     beta=0.30
     Davidson diagonalization with overlap
     ethr =  1.00E-02,  avg # of iterations =  3.0

     Threshold (ethr) on eigenvalues was too large:
     Diagonalizing with lowered threshold

     Davidson diagonalization with overlap
     ethr =  2.41E-04,  avg # of iterations =  3.8

     total cpu time spent up to now is     5182.9 secs

     total energy              =  -14256.06914217 Ry
     Harris-Foulkes estimate   =  -14256.35899706 Ry
     estimated scf accuracy    <       2.78885056 Ry

     iteration #  2     ecut=    35.00 Ry     beta=0.30
     Davidson diagonalization with overlap
     ethr =  2.42E-04,  avg # of iterations =  1.0

     total cpu time spent up to now is     6733.1 secs

     total energy              =  -14255.52112807 Ry
     Harris-Foulkes estimate   =  -14256.08367725 Ry
     estimated scf accuracy    <       1.72070444 Ry

     iteration #  3     ecut=    35.00 Ry     beta=0.30
     Davidson diagonalization with overlap
     ethr =  1.49E-04,  avg # of iterations =  2.0

     total cpu time spent up to now is     8541.0 secs

     total energy              =  -14255.62512977 Ry
     Harris-Foulkes estimate   =  -14255.62408961 Ry
     estimated scf accuracy    <       0.02508279 Ry

     iteration #  4     ecut=    35.00 Ry     beta=0.30
     Davidson diagonalization with overlap
     ethr =  2.18E-06,  avg # of iterations =  9.9

     total cpu time spent up to now is    15446.7 secs

     total energy              =  -14255.62921553 Ry
     Harris-Foulkes estimate   =  -14255.63084418 Ry
     estimated scf accuracy    <       0.01144362 Ry

     iteration #  5     ecut=    35.00 Ry     beta=0.30
     Davidson diagonalization with overlap
     ethr =  9.93E-07,  avg # of iterations =  2.0

     total cpu time spent up to now is    17473.8 secs

     total energy              =  -14255.62997509 Ry
     Harris-Foulkes estimate   =  -14255.63008845 Ry
     estimated scf accuracy    <       0.00050504 Ry

     iteration #  6     ecut=    35.00 Ry     beta=0.30
     Davidson diagonalization with overlap
     ethr =  4.38E-08,  avg # of iterations =  2.4

     total cpu time spent up to now is    19220.1 secs

     total energy              =  -14255.62993770 Ry
     Harris-Foulkes estimate   =  -14255.63000807 Ry
     estimated scf accuracy    <       0.00019231 Ry

     iteration #  7     ecut=    35.00 Ry     beta=0.30
     Davidson diagonalization with overlap
     ethr =  1.67E-08,  avg # of iterations =  2.0

     total cpu time spent up to now is    21122.7 secs

     total energy              =  -14255.62996416 Ry
     Harris-Foulkes estimate   =  -14255.62996024 Ry
     estimated scf accuracy    <       0.00002049 Ry

     iteration #  8     ecut=    35.00 Ry     beta=0.30
     Davidson diagonalization with overlap
     ethr =  1.78E-09,  avg # of iterations =  2.0

     total cpu time spent up to now is    23048.1 secs

     total energy              =  -14255.62996470 Ry
     Harris-Foulkes estimate   =  -14255.62996598 Ry
     estimated scf accuracy    <       0.00000741 Ry

     iteration #  9     ecut=    35.00 Ry     beta=0.30
     Davidson diagonalization with overlap
     ethr =  6.43E-10,  avg # of iterations =  2.0

     total cpu time spent up to now is    25517.9 secs

     total energy              =  -14255.62996682 Ry
     Harris-Foulkes estimate   =  -14255.62996636 Ry
     estimated scf accuracy    <       0.00000179 Ry

     iteration # 10     ecut=    35.00 Ry     beta=0.30
     Davidson diagonalization with overlap
     ethr =  1.55E-10,  avg # of iterations =  1.4

     total cpu time spent up to now is    27114.0 secs

     total energy              =  -14255.62996662 Ry
     Harris-Foulkes estimate   =  -14255.62996686 Ry
     estimated scf accuracy    <       0.00000105 Ry

     iteration # 11     ecut=    35.00 Ry     beta=0.30
     Davidson diagonalization with overlap
     ethr =  9.14E-11,  avg # of iterations =  2.5

     total cpu time spent up to now is    29761.2 secs

     total energy              =  -14255.62996699 Ry
     Harris-Foulkes estimate   =  -14255.62996685 Ry
     estimated scf accuracy    <       0.00000013 Ry

     iteration # 12     ecut=    35.00 Ry     beta=0.30
     Davidson diagonalization with overlap
     ethr =  1.13E-11,  avg # of iterations =  2.0

     total cpu time spent up to now is    31659.1 secs

     total energy              =  -14255.62996708 Ry
     Harris-Foulkes estimate   =  -14255.62996701 Ry
     estimated scf accuracy    <       0.00000003 Ry

     iteration # 13     ecut=    35.00 Ry     beta=0.30
     Davidson diagonalization with overlap
     ethr =  2.88E-12,  avg # of iterations =  2.5

     total cpu time spent up to now is    33552.5 secs

     total energy              =  -14255.62996712 Ry
     Harris-Foulkes estimate   =  -14255.62996708 Ry
     estimated scf accuracy    <          4.2E-09 Ry

     iteration # 14     ecut=    35.00 Ry     beta=0.30
     Davidson diagonalization with overlap
     ethr =  3.61E-13,  avg # of iterations =  2.0

     total cpu time spent up to now is    35508.8 secs

     End of self-consistent calculation

          k = 0.0000 0.0000 0.0000 ( 64071 PWs)   bands (ev):

   -17.3284 -17.3219 -17.3191 -17.3136 -17.3049 -17.3011 -17.2974 -17.2965
   -17.2959 -17.2952 -17.2950 -17.2944 -17.2940 -17.2937 -17.2934 -17.2920
   -17.2872 -17.2832 -17.2815 -17.2794 -17.2696 -17.2693 -17.2647 -17.2632
   -17.2577 -17.2573 -17.2145 -17.2133 -17.2110 -17.2098 -17.2094 -17.2087
   -17.2071 -17.2070 -17.2069 -17.2042 -17.2036 -17.2012 -17.1989 -17.1986
   -17.1941 -17.1896 -17.1701 -17.1698 -17.1650 -17.1648 -17.1641 -17.1637
   -17.1507 -17.1497 -17.0891 -17.0806 -17.0793 -17.0768 -17.0755 -17.0737
   -17.0726 -17.0723 -17.0718 -17.0694 -17.0680 -17.0676 -17.0616 -17.0611
   -17.0604 -17.0600 -17.0588 -17.0582 -17.0569 -17.0563 -17.0561 -17.0561
   -17.0552 -17.0547 -17.0534 -17.0530 -17.0524 -17.0507 -17.0498 -17.0492
   -17.0486 -17.0483 -17.0474 -17.0471 -17.0468 -17.0465 -17.0460 -17.0455
   -17.0450 -17.0446 -17.0444 -17.0440 -17.0434 -17.0428 -17.0423 -17.0422
   -17.0418 -17.0405 -17.0384 -17.0381 -17.0378 -17.0372 -17.0366 -17.0364
   -17.0360 -17.0357 -17.0354 -17.0351 -17.0348 -17.0346 -17.0342 -17.0339
   -17.0338 -17.0334 -17.0333 -17.0328 -17.0323 -17.0321 -17.0314 -17.0298
   -17.0291 -17.0290 -17.0288 -17.0285 -17.0279 -17.0271 -17.0259 -17.0251
   -17.0246 -17.0244 -17.0235 -17.0231 -17.0228 -17.0225 -17.0220 -17.0219
   -17.0217 -17.0210 -17.0209 -17.0204 -17.0199 -17.0194 -17.0189 -17.0184
   -17.0177 -17.0172 -17.0164 -17.0159 -17.0156 -17.0155 -17.0151 -17.0150
   -17.0148 -17.0147 -17.0145 -17.0142 -17.0141 -17.0139 -17.0137 -17.0137
   -17.0133 -17.0132 -17.0131 -17.0128 -17.0127 -17.0125 -17.0123 -17.0120
   -17.0119 -17.0117 -17.0117 -17.0112 -17.0110 -17.0109 -17.0109 -17.0105
   -17.0104 -17.0102 -17.0101 -17.0100 -17.0097 -17.0096 -17.0093 -17.0092
   -17.0090 -17.0088 -17.0087 -17.0085 -17.0085 -17.0083 -17.0080 -17.0080
   -17.0077 -17.0076 -17.0075 -17.0072 -17.0069 -17.0067 -17.0064 -17.0061
   -17.0060 -17.0058 -17.0058 -17.0056 -17.0053 -17.0051 -17.0048 -17.0047
   -17.0043 -17.0042 -17.0038 -17.0036 -17.0031 -17.0030 -17.0029 -17.0028
   -17.0024 -17.0020 -17.0018 -17.0017 -17.0015 -17.0013 -17.0012 -17.0005
   -16.9996 -16.9994 -16.9986 -16.9982 -16.9975 -16.9968 -16.9964 -16.9954
   -16.9947 -16.9933 -16.9925 -16.9920 -16.9917 -16.9917 -16.9914 -16.9912
   -16.9902 -16.9900 -16.9888 -16.9887 -16.9885 -16.9883 -16.9882 -16.9879
   -16.9875 -16.9875 -16.9874 -16.9870 -16.9867 -16.9865 -16.9863 -16.9862
   -16.9860 -16.9857 -16.9857 -16.9853 -16.9851 -16.9846 -16.9845 -16.9844
   -16.9843 -16.9842 -16.9839 -16.9838 -16.9835 -16.9835 -16.9832 -16.9830
   -16.9829 -16.9828 -16.9827 -16.9827 -16.9826 -16.9824 -16.9821 -16.9819
   -16.9818 -16.9815 -16.9810 -16.9809 -16.9806 -16.9802 -16.9794 -16.9794
   -16.9782 -16.9781 -16.9772 -16.9771 -16.9769 -16.9747 -16.9747 -16.9720
   -16.9694 -16.9680 -16.9540 -16.9537 -16.9521 -16.9432 -16.9425 -16.9416
   -16.9408 -16.9395 -16.9382 -16.9374 -16.9365 -16.9352 -16.9342 -16.9340
   -16.9332 -16.9329 -16.9324 -16.9302 -16.9301 -16.9293 -16.9266 -16.9259
    -5.1355  -4.5523  -4.4847  -4.4242  -4.4090  -4.3261  -4.3071  -4.2351
    -4.2273  -4.1959  -4.1098  -4.0948  -4.0367  -3.9721  -3.9262  -3.3780
    -3.2850  -3.2474  -3.2366  -3.1988  -3.1626  -3.1460  -3.1223  -3.0911
    -3.0726  -3.0543  -3.0164  -2.9097  -2.8893  -2.8718  -2.8433  -2.7668
    -2.7374  -2.6494  -2.6239  -2.5853  -2.5638  -2.5391  -2.5303  -2.5106
    -2.5063  -2.5035  -2.5012  -2.4975  -2.4952  -2.4385  -2.3918  -2.3502
    -2.3191  -2.2991  -2.2626  -2.2385  -2.2080  -2.1841  -2.1512  -1.3892
    -1.3489  -1.3192  -1.2820  -1.2412  -1.1856  -1.1121  -1.1018  -0.9744
    -0.9131  -0.8623  -0.7170  -0.6360  -0.6021  -0.5079  -0.4836  -0.4741
    -0.4549   0.0181   0.0454   0.0643   0.0772   0.1911   0.2170   0.3411
     0.3603   0.3733   0.4406   0.4591   0.4661   0.5148   0.5171   0.5203
     0.5215   0.5249   0.5303   0.5445   0.5523   0.5742   0.5867   0.5936
     0.6122   0.6351   0.6591   0.6622   0.6771   1.2522   1.2931   1.3231
     1.3423   1.3574   1.3951   1.4057   1.4204   1.4328   1.4686   1.5020
     1.5135   2.9733   3.0020   3.0274   3.0499   3.0680   3.0799   3.1093
     3.1161   3.2188   3.2513   3.2810   3.3122   3.3475   3.3734   3.3888
     3.3896   3.3917   3.3938   3.3977   3.4008   3.4410   3.4434   3.4455
     3.4464   3.4475   3.4499   3.4782   3.4798   3.4833   3.4875   3.4880
     3.4923   3.4939   3.4972   3.4974   3.4989   3.5013   3.5087   3.6430
     3.6476   3.6515   3.6538   3.6585   3.6622   3.6681   3.6689   3.6696
     3.6726   3.6740   3.6751   3.6782   3.6784   3.6820   3.6849   3.6858
     3.6876   3.6931   3.6949   3.6969   3.6976   3.7014   3.7050   4.3571
     4.3585   4.3586   4.3592   4.3599   4.3607   5.0145   5.0158   5.0168
     5.0180   5.0190   5.0211   5.0211   5.0221   5.0230   5.0242   5.0247
     5.0259   5.0260   5.0281   5.0283   5.0296   5.0311   5.0327   5.0337
     5.0350   5.0374   5.0397   5.0413   5.0428   5.3579   5.3591   5.3629
     5.3642   5.3661   5.3699   5.3719   5.3744   5.3766   5.3791   5.3826
     5.3852   5.9124   5.9141   5.9178   5.9197   5.9244   5.9268   5.9285
     5.9294   5.9316   5.9351   5.9370   5.9424   6.0359   6.0377   6.0397
     6.0441   6.0476   6.0494   6.0520   6.0547   6.4995   6.5010   6.5045
     6.5073   6.5178   6.5199   6.5248   6.5289   6.5323   6.5347   6.5429
     6.5460   6.5568   6.5591   6.5670   6.5690   7.3655   7.3685   7.3690
     7.8975   7.9017   7.9082   8.0628   8.1039   8.1199   8.1335   8.1508
     8.1813   8.2075   8.3171   8.3319   8.3516   8.3570   8.3695   8.3813
     8.5452   8.5554   8.6189   8.6358   8.6502   8.6858   8.6911   8.7017
     8.7101   8.7161   8.7257   8.7359   8.7404   8.7435   8.7527   8.7546
     8.7644   8.7676   8.7761   8.7934   8.7951   8.7986   8.8071   8.8219
     8.8287   8.8336   8.8399   8.8428   8.8503   8.8630   8.8775   8.8950
     9.0508   9.4921   9.5218   9.5357   9.5439   9.5500   9.5567   9.5788
     9.5797   9.5968   9.6228   9.6424   9.6479   9.8732   9.8773   9.8799
    10.2767  10.2972  10.3216  10.3303  10.3641  10.3881  10.7841  10.7936
    10.8123  10.8130  10.8190  10.8301  10.8329  10.8359  10.8503  10.8546
    10.8577  10.8635  10.8701  10.8736  10.8824  10.9045  10.9072  10.9168
    10.9236  10.9299  10.9456  10.9541  10.9602  10.9733  11.6183  11.6268
    11.6343  11.6504  11.6536  11.6630  11.6704  11.6753  11.6767  11.6829
    11.6878  11.6958  11.7056  11.7095  11.7166  11.7262  11.7341  11.7394
    11.7426  11.7470  11.7553

     occupation numbers 
     1.0000   1.0000   1.0000   1.0000   1.0000   1.0000   1.0000   1.0000
     1.0000   1.0000   1.0000   1.0000   1.0000   1.0000   1.0000   1.0000
     1.0000   1.0000   1.0000   1.0000   1.0000   1.0000   1.0000   1.0000
     1.0000   1.0000   1.0000   1.0000   1.0000   1.0000   1.0000   1.0000
     1.0000   1.0000   1.0000   1.0000   1.0000   1.0000   1.0000   1.0000
     1.0000   1.0000   1.0000   1.0000   1.0000   1.0000   1.0000   1.0000
     1.0000   1.0000   1.0000   1.0000   1.0000   1.0000   1.0000   1.0000
     1.0000   1.0000   1.0000   1.0000   1.0000   1.0000   1.0000   1.0000
     1.0000   1.0000   1.0000   1.0000   1.0000   1.0000   1.0000   1.0000
     1.0000   1.0000   1.0000   1.0000   1.0000   1.0000   1.0000   1.0000
     1.0000   1.0000   1.0000   1.0000   1.0000   1.0000   1.0000   1.0000
     1.0000   1.0000   1.0000   1.0000   1.0000   1.0000   1.0000   1.0000
     1.0000   1.0000   1.0000   1.0000   1.0000   1.0000   1.0000   1.0000
     1.0000   1.0000   1.0000   1.0000   1.0000   1.0000   1.0000   1.0000
     1.0000   1.0000   1.0000   1.0000   1.0000   1.0000   1.0000   1.0000
     1.0000   1.0000   1.0000   1.0000   1.0000   1.0000   1.0000   1.0000
     1.0000   1.0000   1.0000   1.0000   1.0000   1.0000   1.0000   1.0000
     1.0000   1.0000   1.0000   1.0000   1.0000   1.0000   1.0000   1.0000
     1.0000   1.0000   1.0000   1.0000   1.0000   1.0000   1.0000   1.0000
     1.0000   1.0000   1.0000   1.0000   1.0000   1.0000   1.0000   1.0000
     1.0000   1.0000   1.0000   1.0000   1.0000   1.0000   1.0000   1.0000
     1.0000   1.0000   1.0000   1.0000   1.0000   1.0000   1.0000   1.0000
     1.0000   1.0000   1.0000   1.0000   1.0000   1.0000   1.0000   1.0000
     1.0000   1.0000   1.0000   1.0000   1.0000   1.0000   1.0000   1.0000
     1.0000   1.0000   1.0000   1.0000   1.0000   1.0000   1.0000   1.0000
     1.0000   1.0000   1.0000   1.0000   1.0000   1.0000   1.0000   1.0000
     1.0000   1.0000   1.0000   1.0000   1.0000   1.0000   1.0000   1.0000
     1.0000   1.0000   1.0000   1.0000   1.0000   1.0000   1.0000   1.0000
     1.0000   1.0000   1.0000   1.0000   1.0000   1.0000   1.0000   1.0000
     1.0000   1.0000   1.0000   1.0000   1.0000   1.0000   1.0000   1.0000
     1.0000   1.0000   1.0000   1.0000   1.0000   1.0000   1.0000   1.0000
     1.0000   1.0000   1.0000   1.0000   1.0000   1.0000   1.0000   1.0000
     1.0000   1.0000   1.0000   1.0000   1.0000   1.0000   1.0000   1.0000
     1.0000   1.0000   1.0000   1.0000   1.0000   1.0000   1.0000   1.0000
     1.0000   1.0000   1.0000   1.0000   1.0000   1.0000   1.0000   1.0000
     1.0000   1.0000   1.0000   1.0000   1.0000   1.0000   1.0000   1.0000
     1.0000   1.0000   1.0000   1.0000   1.0000   1.0000   1.0000   1.0000
     1.0000   1.0000   1.0000   1.0000   1.0000   1.0000   1.0000   1.0000
     1.0000   1.0000   1.0000   1.0000   1.0000   1.0000   1.0000   1.0000
     1.0000   1.0000   1.0000   1.0000   1.0000   1.0000   1.0000   1.0000
     1.0000   1.0000   1.0000   1.0000   1.0000   1.0000   1.0000   1.0000
     1.0000   1.0000   1.0000   1.0000   1.0000   1.0000   1.0000   1.0000
     1.0000   1.0000   1.0000   1.0000   1.0000   1.0000   1.0000   1.0000
     1.0000   1.0000   1.0000   1.0000   1.0000   1.0000   1.0000   1.0000
     1.0000   1.0000   1.0000   1.0000   1.0000   1.0000   1.0000   1.0000
     1.0000   1.0000   1.0000   1.0000   1.0000   1.0000   1.0000   1.0000
     1.0000   1.0000   1.0000   1.0000   1.0000   1.0000   1.0000   1.0000
     1.0000   1.0000   1.0000   1.0000   1.0000   1.0000   1.0000   1.0000
     1.0000   1.0000   1.0000   1.0000   1.0000   1.0000   1.0000   1.0000
     1.0000   1.0000   1.0000   1.0000   1.0000   1.0000   1.0000   1.0000
     1.0000   1.0000   1.0000   1.0000   1.0000   1.0000   1.0000   1.0000
     1.0000   1.0000   1.0000   1.0000   1.0000   1.0000   1.0000   1.0000
     1.0000   1.0000   1.0000   1.0000   1.0000   1.0000   1.0000   1.0000
     1.0000   1.0000   1.0000   1.0000   1.0000   1.0000   1.0000   1.0000
     1.0000   1.0000   1.0000   1.0000   1.0000   1.0000   1.0000   1.0000
     1.0000   1.0000   1.0000   1.0000   1.0000   1.0000   1.0000   1.0000
     1.0000   1.0000   1.0000   1.0000   1.0000   1.0000   1.0000   1.0000
     1.0000   1.0000   1.0000   1.0000   1.0000   1.0000   1.0000   1.0000
     1.0000   1.0000   1.0000   1.0000   1.0000   1.0000   1.0000   1.0000
     1.0000   1.0000   1.0000   1.0000   1.0000   1.0000   1.0000   1.0000
     1.0000   1.0000   1.0000   1.0000   1.0000   1.0000   1.0000   1.0000
     1.0000   1.0000   1.0000   1.0000   1.0000   1.0000   1.0000   1.0000
     1.0000   1.0000   1.0000   1.0000   1.0000   1.0000   1.0000   1.0000
     1.0000   1.0000   1.0000   1.0000   1.0000   1.0000   1.0000   1.0000
     1.0000   1.0000   1.0000   1.0000   1.0000   1.0000   1.0000   1.0000
     1.0000   1.0000   1.0000   1.0000   1.0000   1.0000   1.0000   1.0000
     1.0000   1.0000   1.0000   1.0000   1.0000   1.0000   1.0000   1.0000
     1.0000   1.0000   1.0000   1.0000   1.0000   1.0000   1.0000   1.0000
     1.0000   1.0000   1.0000   1.0000   1.0000   1.0000   1.0000   1.0000
     1.0000   1.0000   1.0000   1.0000   1.0000   1.0000   1.0000   1.0000
     1.0000   1.0000   1.0000   1.0000   1.0000   1.0000   1.0000   1.0000
     1.0000   1.0000   1.0000   1.0000   1.0000   0.9351   0.9324   0.9319
     0.0149   0.0139   0.0124   0.0005   0.0002   0.0001   0.0001   0.0000
     0.0000   0.0000   0.0000   0.0000   0.0000   0.0000   0.0000   0.0000
     0.0000   0.0000   0.0000   0.0000   0.0000   0.0000   0.0000   0.0000
     0.0000   0.0000   0.0000   0.0000   0.0000   0.0000   0.0000   0.0000
     0.0000   0.0000   0.0000   0.0000   0.0000   0.0000   0.0000   0.0000
     0.0000   0.0000   0.0000   0.0000   0.0000   0.0000   0.0000   0.0000
     0.0000   0.0000   0.0000   0.0000   0.0000   0.0000   0.0000   0.0000
     0.0000   0.0000   0.0000   0.0000   0.0000   0.0000   0.0000   0.0000
     0.0000   0.0000   0.0000   0.0000   0.0000   0.0000   0.0000   0.0000
     0.0000   0.0000   0.0000   0.0000   0.0000   0.0000   0.0000   0.0000
     0.0000   0.0000   0.0000   0.0000   0.0000   0.0000   0.0000   0.0000
     0.0000   0.0000   0.0000   0.0000   0.0000   0.0000   0.0000   0.0000
     0.0000   0.0000   0.0000   0.0000   0.0000   0.0000   0.0000   0.0000
     0.0000   0.0000   0.0000   0.0000   0.0000   0.0000   0.0000   0.0000
     0.0000   0.0000   0.0000

          k =-0.3536-0.3536 0.3536 ( 64114 PWs)   bands (ev):

   -17.3284 -17.3220 -17.3191 -17.3137 -17.3049 -17.3010 -17.2974 -17.2966
   -17.2960 -17.2952 -17.2950 -17.2944 -17.2941 -17.2938 -17.2934 -17.2920
   -17.2872 -17.2832 -17.2816 -17.2795 -17.2696 -17.2693 -17.2647 -17.2633
   -17.2577 -17.2573 -17.2145 -17.2133 -17.2110 -17.2098 -17.2094 -17.2087
   -17.2071 -17.2071 -17.2069 -17.2043 -17.2037 -17.2012 -17.1990 -17.1987
   -17.1941 -17.1896 -17.1701 -17.1698 -17.1650 -17.1649 -17.1642 -17.1637
   -17.1507 -17.1497 -17.0892 -17.0806 -17.0793 -17.0768 -17.0756 -17.0737
   -17.0728 -17.0723 -17.0718 -17.0695 -17.0680 -17.0676 -17.0617 -17.0611
   -17.0604 -17.0600 -17.0588 -17.0583 -17.0569 -17.0563 -17.0561 -17.0561
   -17.0553 -17.0547 -17.0534 -17.0530 -17.0525 -17.0506 -17.0497 -17.0493
   -17.0490 -17.0483 -17.0474 -17.0471 -17.0468 -17.0466 -17.0460 -17.0455
   -17.0447 -17.0447 -17.0445 -17.0440 -17.0438 -17.0429 -17.0424 -17.0422
   -17.0418 -17.0405 -17.0384 -17.0382 -17.0379 -17.0371 -17.0367 -17.0365
   -17.0358 -17.0355 -17.0354 -17.0352 -17.0351 -17.0346 -17.0343 -17.0339
   -17.0338 -17.0335 -17.0333 -17.0328 -17.0324 -17.0321 -17.0315 -17.0298
   -17.0292 -17.0289 -17.0288 -17.0285 -17.0279 -17.0272 -17.0259 -17.0253
   -17.0246 -17.0244 -17.0235 -17.0232 -17.0228 -17.0226 -17.0221 -17.0218
   -17.0217 -17.0211 -17.0208 -17.0204 -17.0199 -17.0194 -17.0189 -17.0183
   -17.0176 -17.0172 -17.0164 -17.0157 -17.0156 -17.0156 -17.0151 -17.0150
   -17.0149 -17.0147 -17.0145 -17.0144 -17.0142 -17.0141 -17.0139 -17.0135
   -17.0134 -17.0134 -17.0131 -17.0130 -17.0129 -17.0126 -17.0125 -17.0122
   -17.0118 -17.0118 -17.0116 -17.0114 -17.0113 -17.0110 -17.0106 -17.0106
   -17.0104 -17.0103 -17.0101 -17.0100 -17.0099 -17.0096 -17.0094 -17.0092
   -17.0090 -17.0089 -17.0088 -17.0086 -17.0084 -17.0082 -17.0081 -17.0080
   -17.0077 -17.0076 -17.0075 -17.0073 -17.0070 -17.0067 -17.0063 -17.0062
   -17.0061 -17.0059 -17.0057 -17.0055 -17.0053 -17.0052 -17.0049 -17.0047
   -17.0043 -17.0040 -17.0039 -17.0038 -17.0032 -17.0032 -17.0030 -17.0028
   -17.0025 -17.0020 -17.0019 -17.0018 -17.0015 -17.0013 -17.0011 -17.0006
   -16.9996 -16.9995 -16.9986 -16.9984 -16.9974 -16.9968 -16.9964 -16.9956
   -16.9947 -16.9933 -16.9925 -16.9921 -16.9917 -16.9917 -16.9914 -16.9912
   -16.9902 -16.9900 -16.9888 -16.9887 -16.9884 -16.9883 -16.9883 -16.9878
   -16.9877 -16.9875 -16.9874 -16.9872 -16.9868 -16.9866 -16.9864 -16.9862
   -16.9860 -16.9857 -16.9857 -16.9853 -16.9851 -16.9847 -16.9845 -16.9844
   -16.9843 -16.9841 -16.9840 -16.9839 -16.9836 -16.9836 -16.9833 -16.9831
   -16.9830 -16.9829 -16.9828 -16.9827 -16.9826 -16.9825 -16.9821 -16.9819
   -16.9818 -16.9815 -16.9811 -16.9809 -16.9806 -16.9803 -16.9795 -16.9794
   -16.9783 -16.9781 -16.9773 -16.9771 -16.9769 -16.9747 -16.9747 -16.9721
   -16.9695 -16.9680 -16.9541 -16.9537 -16.9521 -16.9432 -16.9426 -16.9416
   -16.9409 -16.9396 -16.9383 -16.9374 -16.9365 -16.9353 -16.9343 -16.9340
   -16.9333 -16.9329 -16.9324 -16.9303 -16.9302 -16.9294 -16.9267 -16.9260
    -4.9890  -4.8990  -4.5233  -4.4615  -4.4487  -4.4006  -4.3786  -4.3431
    -4.0347  -3.9407  -3.9206  -3.8974  -3.8742  -3.8088  -3.5579  -3.5142
    -3.4940  -3.4651  -3.4073  -3.3560  -3.3440  -3.2873  -3.1234  -3.0964
    -3.0531  -3.0257  -2.9968  -2.9819  -2.9687  -2.9557  -2.9214  -2.9134
    -2.8736  -2.8413  -2.8109  -2.7771  -2.7365  -2.7089  -2.6613  -2.6285
    -2.4122  -2.3384  -2.3176  -2.2937  -2.2671  -2.1982  -2.0540  -2.0118
    -1.9665  -1.9501  -1.9198  -1.8930  -1.8816  -1.8710  -1.8451  -1.7853
    -1.7526  -1.7185  -1.6665  -1.6373  -1.6251  -1.5774  -1.5309  -1.4949
    -0.3752  -0.2944  -0.2455  -0.2155  -0.1722  -0.1664  -0.1265  -0.0940
    -0.0462  -0.0101   0.0013   0.0095   0.0248   0.0287   0.0439   0.0763
     0.0923   0.1364   0.1829   0.2292   0.2351   0.2548   0.2627   0.2724
     0.2879   0.2981   0.3299   0.3489   0.3639   0.3725   0.9444   0.9591
     0.9834   1.0190   1.0257   1.0395   1.0524   1.0586   1.0714   1.0850
     1.1018   1.1357   1.1539   1.1757   1.8186   1.8628   1.8920   1.9072
     1.9259   1.9456   2.2400   2.2958   2.3096   2.3345   2.3471   2.4164
     3.1820   3.1840   3.1863   3.1881   3.1905   3.1928   3.1948   3.1969
     3.1992   3.2021   3.2055   3.2065   3.2152   3.2206   3.2263   3.2299
     3.2336   3.2366   3.6456   3.6845   3.7059   3.7071   3.7308   3.7620
     3.8016   3.8038   3.8076   3.8092   3.8126   3.8157   3.8594   3.8627
     3.8639   3.8680   3.8746   3.8764   3.8788   3.8817   3.8855   3.8883
     3.8895   3.8950   4.2853   4.2861   4.2886   4.2889   4.2900   4.2928
     4.2936   4.2956   4.2965   4.2976   4.2992   4.3016   4.5281   4.5312
     4.5328   4.5356   4.5369   4.5394   4.5405   4.5507   4.5540   4.5580
     4.5600   4.5710   4.8435   4.8515   4.8542   4.8587   4.8682   4.8792
     4.8844   4.8920   4.8971   4.8986   4.9020   4.9187   5.0268   5.0287
     5.0313   5.0332   5.0358   5.0403   5.3066   5.3098   5.3140   5.3154
     5.3163   5.3175   5.3179   5.3194   5.3216   5.3260   5.3264   5.3304
     5.3489   5.3500   5.3520   5.3535   5.3565   5.3602   5.4457   5.4871
     5.6695   5.6771   5.6778   5.6819   5.6862   5.6892   5.9392   5.9472
     5.9529   5.9561   5.9593   5.9635   5.9638   5.9677   5.9718   5.9741
     5.9780   5.9914   6.1603   6.1642   6.1769   6.1789   6.4809   6.4948
     6.4955   6.5056   6.5132   6.5287   7.0339   7.0376   7.0610   7.0636
     8.1324   8.1528   8.1611   8.1726   8.1895   8.1983   8.2899   8.3178
     8.5543   8.5791   8.5853   8.6015   8.6072   8.6369   8.9858   9.0053
     9.0200   9.0311   9.0521   9.0552   9.0930   9.1112   9.1414   9.1475
     9.1732   9.1840   9.2128   9.2263   9.2429   9.2566   9.2643   9.2788
     9.2998   9.3048   9.3406   9.3565   9.3626   9.3674   9.3833   9.4086
     9.4907   9.5053   9.5084   9.5413   9.5676   9.5989   9.6109   9.6177
     9.6317   9.6381   9.6524   9.6698   9.6713   9.6873   9.6977   9.7048
     9.7176   9.7263  10.0000  10.0133  10.0288  10.0438  10.0481  10.0554
    10.0614  10.0685  10.0749  10.0797  10.0850  10.0923  10.1412  10.1552
    10.1738  10.1823  10.1922  10.2008  10.2987  10.3029  10.3315  10.3372
    10.4917  10.5056  10.5114  10.5136  10.5281  10.5398  10.7170  10.7262
    10.7409  10.7476  10.7545  10.7720  10.7796  10.7848  10.7884  10.8033
    10.8052  10.8150  10.8201  10.8277  10.8292  10.8341  10.8491  10.8692
    10.8935  10.9181  10.9570  10.9618  10.9999  11.0321  11.0444  11.0607
    11.0881  11.1114  11.1557

     occupation numbers 
     1.0000   1.0000   1.0000   1.0000   1.0000   1.0000   1.0000   1.0000
     1.0000   1.0000   1.0000   1.0000   1.0000   1.0000   1.0000   1.0000
     1.0000   1.0000   1.0000   1.0000   1.0000   1.0000   1.0000   1.0000
     1.0000   1.0000   1.0000   1.0000   1.0000   1.0000   1.0000   1.0000
     1.0000   1.0000   1.0000   1.0000   1.0000   1.0000   1.0000   1.0000
     1.0000   1.0000   1.0000   1.0000   1.0000   1.0000   1.0000   1.0000
     1.0000   1.0000   1.0000   1.0000   1.0000   1.0000   1.0000   1.0000
     1.0000   1.0000   1.0000   1.0000   1.0000   1.0000   1.0000   1.0000
     1.0000   1.0000   1.0000   1.0000   1.0000   1.0000   1.0000   1.0000
     1.0000   1.0000   1.0000   1.0000   1.0000   1.0000   1.0000   1.0000
     1.0000   1.0000   1.0000   1.0000   1.0000   1.0000   1.0000   1.0000
     1.0000   1.0000   1.0000   1.0000   1.0000   1.0000   1.0000   1.0000
     1.0000   1.0000   1.0000   1.0000   1.0000   1.0000   1.0000   1.0000
     1.0000   1.0000   1.0000   1.0000   1.0000   1.0000   1.0000   1.0000
     1.0000   1.0000   1.0000   1.0000   1.0000   1.0000   1.0000   1.0000
     1.0000   1.0000   1.0000   1.0000   1.0000   1.0000   1.0000   1.0000
     1.0000   1.0000   1.0000   1.0000   1.0000   1.0000   1.0000   1.0000
     1.0000   1.0000   1.0000   1.0000   1.0000   1.0000   1.0000   1.0000
     1.0000   1.0000   1.0000   1.0000   1.0000   1.0000   1.0000   1.0000
     1.0000   1.0000   1.0000   1.0000   1.0000   1.0000   1.0000   1.0000
     1.0000   1.0000   1.0000   1.0000   1.0000   1.0000   1.0000   1.0000
     1.0000   1.0000   1.0000   1.0000   1.0000   1.0000   1.0000   1.0000
     1.0000   1.0000   1.0000   1.0000   1.0000   1.0000   1.0000   1.0000
     1.0000   1.0000   1.0000   1.0000   1.0000   1.0000   1.0000   1.0000
     1.0000   1.0000   1.0000   1.0000   1.0000   1.0000   1.0000   1.0000
     1.0000   1.0000   1.0000   1.0000   1.0000   1.0000   1.0000   1.0000
     1.0000   1.0000   1.0000   1.0000   1.0000   1.0000   1.0000   1.0000
     1.0000   1.0000   1.0000   1.0000   1.0000   1.0000   1.0000   1.0000
     1.0000   1.0000   1.0000   1.0000   1.0000   1.0000   1.0000   1.0000
     1.0000   1.0000   1.0000   1.0000   1.0000   1.0000   1.0000   1.0000
     1.0000   1.0000   1.0000   1.0000   1.0000   1.0000   1.0000   1.0000
     1.0000   1.0000   1.0000   1.0000   1.0000   1.0000   1.0000   1.0000
     1.0000   1.0000   1.0000   1.0000   1.0000   1.0000   1.0000   1.0000
     1.0000   1.0000   1.0000   1.0000   1.0000   1.0000   1.0000   1.0000
     1.0000   1.0000   1.0000   1.0000   1.0000   1.0000   1.0000   1.0000
     1.0000   1.0000   1.0000   1.0000   1.0000   1.0000   1.0000   1.0000
     1.0000   1.0000   1.0000   1.0000   1.0000   1.0000   1.0000   1.0000
     1.0000   1.0000   1.0000   1.0000   1.0000   1.0000   1.0000   1.0000
     1.0000   1.0000   1.0000   1.0000   1.0000   1.0000   1.0000   1.0000
     1.0000   1.0000   1.0000   1.0000   1.0000   1.0000   1.0000   1.0000
     1.0000   1.0000   1.0000   1.0000   1.0000   1.0000   1.0000   1.0000
     1.0000   1.0000   1.0000   1.0000   1.0000   1.0000   1.0000   1.0000
     1.0000   1.0000   1.0000   1.0000   1.0000   1.0000   1.0000   1.0000
     1.0000   1.0000   1.0000   1.0000   1.0000   1.0000   1.0000   1.0000
     1.0000   1.0000   1.0000   1.0000   1.0000   1.0000   1.0000   1.0000
     1.0000   1.0000   1.0000   1.0000   1.0000   1.0000   1.0000   1.0000
     1.0000   1.0000   1.0000   1.0000   1.0000   1.0000   1.0000   1.0000
     1.0000   1.0000   1.0000   1.0000   1.0000   1.0000   1.0000   1.0000
     1.0000   1.0000   1.0000   1.0000   1.0000   1.0000   1.0000   1.0000
     1.0000   1.0000   1.0000   1.0000   1.0000   1.0000   1.0000   1.0000
     1.0000   1.0000   1.0000   1.0000   1.0000   1.0000   1.0000   1.0000
     1.0000   1.0000   1.0000   1.0000   1.0000   1.0000   1.0000   1.0000
     1.0000   1.0000   1.0000   1.0000   1.0000   1.0000   1.0000   1.0000
     1.0000   1.0000   1.0000   1.0000   1.0000   1.0000   1.0000   1.0000
     1.0000   1.0000   1.0000   1.0000   1.0000   1.0000   1.0000   1.0000
     1.0000   1.0000   1.0000   1.0000   1.0000   1.0000   1.0000   1.0000
     1.0000   1.0000   1.0000   1.0000   1.0000   1.0000   1.0000   1.0000
     1.0000   1.0000   1.0000   1.0000   1.0000   1.0000   1.0000   1.0000
     1.0000   1.0000   1.0000   1.0000   1.0000   1.0000   1.0000   1.0000
     1.0000   1.0000   1.0000   1.0000   1.0000   1.0000   1.0000   1.0000
     1.0000   1.0000   1.0000   1.0000   1.0000   1.0000   1.0000   1.0000
     1.0000   1.0000   1.0000   1.0000   1.0000   1.0000   1.0000   1.0000
     1.0000   1.0000   1.0000   1.0000   1.0000   1.0000   1.0000   1.0000
     1.0000   1.0000   1.0000   1.0000   1.0000   1.0000   1.0000   1.0000
     1.0000   1.0000   1.0000   1.0000   1.0000   1.0000   1.0000   1.0000
     1.0000   1.0000   1.0000   1.0000   1.0000   1.0000   1.0000   1.0000
     1.0000   1.0000   1.0000   1.0000   1.0000   1.0000   1.0000   1.0000
     1.0000   1.0000   1.0000   1.0000   1.0000   1.0000   1.0000   1.0000
     1.0000   1.0000   1.0000   1.0000   1.0000   1.0000   1.0000   1.0000
     1.0000   1.0000   1.0000   1.0000   1.0000   1.0000   1.0000   1.0000
     1.0000   1.0000   1.0000   1.0000   1.0000   1.0000   1.0000   1.0000
     1.0000   1.0000   1.0000   1.0000   0.9999   0.9999   0.9999   0.9998
     0.0001   0.0000   0.0000   0.0000   0.0000   0.0000   0.0000   0.0000
     0.0000   0.0000   0.0000   0.0000   0.0000   0.0000   0.0000   0.0000
     0.0000   0.0000   0.0000   0.0000   0.0000   0.0000   0.0000   0.0000
     0.0000   0.0000   0.0000   0.0000   0.0000   0.0000   0.0000   0.0000
     0.0000   0.0000   0.0000   0.0000   0.0000   0.0000   0.0000   0.0000
     0.0000   0.0000   0.0000   0.0000   0.0000   0.0000   0.0000   0.0000
     0.0000   0.0000   0.0000   0.0000   0.0000   0.0000   0.0000   0.0000
     0.0000   0.0000   0.0000   0.0000   0.0000   0.0000   0.0000   0.0000
     0.0000   0.0000   0.0000   0.0000   0.0000   0.0000   0.0000   0.0000
     0.0000   0.0000   0.0000   0.0000   0.0000   0.0000   0.0000   0.0000
     0.0000   0.0000   0.0000   0.0000   0.0000   0.0000   0.0000   0.0000
     0.0000   0.0000   0.0000   0.0000   0.0000   0.0000   0.0000   0.0000
     0.0000   0.0000   0.0000   0.0000   0.0000   0.0000   0.0000   0.0000
     0.0000   0.0000   0.0000   0.0000   0.0000   0.0000   0.0000   0.0000
     0.0000   0.0000   0.0000

          k =-0.7071 0.0000 0.0000 ( 64192 PWs)   bands (ev):

   -17.3284 -17.3220 -17.3192 -17.3137 -17.3049 -17.3010 -17.2974 -17.2966
   -17.2960 -17.2952 -17.2950 -17.2944 -17.2941 -17.2938 -17.2934 -17.2920
   -17.2872 -17.2832 -17.2816 -17.2795 -17.2696 -17.2693 -17.2647 -17.2633
   -17.2577 -17.2573 -17.2145 -17.2133 -17.2110 -17.2098 -17.2094 -17.2087
   -17.2072 -17.2071 -17.2069 -17.2043 -17.2037 -17.2013 -17.1990 -17.1987
   -17.1941 -17.1896 -17.1701 -17.1699 -17.1650 -17.1649 -17.1642 -17.1637
   -17.1507 -17.1497 -17.0892 -17.0806 -17.0793 -17.0769 -17.0754 -17.0736
   -17.0728 -17.0723 -17.0718 -17.0695 -17.0680 -17.0677 -17.0616 -17.0611
   -17.0605 -17.0599 -17.0588 -17.0583 -17.0569 -17.0564 -17.0562 -17.0561
   -17.0553 -17.0547 -17.0534 -17.0531 -17.0525 -17.0506 -17.0497 -17.0495
   -17.0487 -17.0484 -17.0475 -17.0471 -17.0469 -17.0467 -17.0459 -17.0457
   -17.0448 -17.0447 -17.0444 -17.0440 -17.0438 -17.0429 -17.0424 -17.0422
   -17.0418 -17.0405 -17.0386 -17.0381 -17.0376 -17.0370 -17.0369 -17.0364
   -17.0358 -17.0357 -17.0353 -17.0351 -17.0348 -17.0348 -17.0345 -17.0341
   -17.0338 -17.0334 -17.0331 -17.0328 -17.0324 -17.0321 -17.0316 -17.0298
   -17.0292 -17.0290 -17.0288 -17.0285 -17.0280 -17.0271 -17.0259 -17.0252
   -17.0245 -17.0244 -17.0235 -17.0230 -17.0229 -17.0226 -17.0221 -17.0218
   -17.0217 -17.0211 -17.0208 -17.0204 -17.0199 -17.0194 -17.0189 -17.0184
   -17.0177 -17.0172 -17.0164 -17.0159 -17.0157 -17.0155 -17.0152 -17.0150
   -17.0149 -17.0147 -17.0145 -17.0144 -17.0141 -17.0141 -17.0139 -17.0136
   -17.0135 -17.0134 -17.0133 -17.0130 -17.0129 -17.0125 -17.0124 -17.0121
   -17.0118 -17.0117 -17.0116 -17.0115 -17.0112 -17.0110 -17.0107 -17.0105
   -17.0104 -17.0103 -17.0102 -17.0101 -17.0097 -17.0096 -17.0093 -17.0092
   -17.0091 -17.0090 -17.0088 -17.0086 -17.0084 -17.0084 -17.0083 -17.0080
   -17.0078 -17.0077 -17.0073 -17.0073 -17.0069 -17.0067 -17.0066 -17.0063
   -17.0061 -17.0060 -17.0059 -17.0056 -17.0053 -17.0051 -17.0049 -17.0048
   -17.0044 -17.0041 -17.0038 -17.0037 -17.0032 -17.0031 -17.0030 -17.0028
   -17.0025 -17.0020 -17.0018 -17.0017 -17.0015 -17.0013 -17.0012 -17.0006
   -16.9996 -16.9993 -16.9986 -16.9984 -16.9973 -16.9969 -16.9964 -16.9956
   -16.9948 -16.9933 -16.9925 -16.9920 -16.9917 -16.9917 -16.9914 -16.9913
   -16.9901 -16.9900 -16.9888 -16.9887 -16.9884 -16.9883 -16.9882 -16.9879
   -16.9876 -16.9876 -16.9874 -16.9870 -16.9869 -16.9866 -16.9864 -16.9862
   -16.9860 -16.9858 -16.9856 -16.9854 -16.9851 -16.9847 -16.9845 -16.9844
   -16.9843 -16.9842 -16.9841 -16.9839 -16.9836 -16.9836 -16.9832 -16.9831
   -16.9830 -16.9828 -16.9827 -16.9827 -16.9826 -16.9826 -16.9821 -16.9819
   -16.9818 -16.9815 -16.9811 -16.9809 -16.9806 -16.9803 -16.9794 -16.9794
   -16.9783 -16.9781 -16.9773 -16.9772 -16.9769 -16.9747 -16.9747 -16.9722
   -16.9695 -16.9681 -16.9541 -16.9537 -16.9521 -16.9433 -16.9426 -16.9417
   -16.9409 -16.9396 -16.9383 -16.9374 -16.9365 -16.9353 -16.9343 -16.9340
   -16.9333 -16.9329 -16.9325 -16.9302 -16.9302 -16.9294 -16.9267 -16.9260
    -4.9415  -4.8147  -4.6789  -4.6421  -4.6278  -4.4871  -4.0644  -3.9720
    -3.9110  -3.8794  -3.8373  -3.8056  -3.7656  -3.7391  -3.6974  -3.6680
    -3.6466  -3.6244  -3.5750  -3.5453  -3.5224  -3.4416  -3.2232  -3.1202
    -3.0271  -3.0156  -3.0051  -2.9666  -2.9295  -2.9149  -2.7951  -2.7884
    -2.7388  -2.6780  -2.6650  -2.5926  -2.5800  -2.5632  -2.5324  -2.5027
    -2.4258  -2.4158  -2.4007  -2.3821  -2.3233  -2.2964  -2.2928  -2.2411
    -2.1948  -2.1579  -2.0675  -2.0339  -2.0146  -1.9826  -1.9623  -1.8894
    -1.6212  -1.5230  -1.5045  -1.4737  -1.2495  -1.2328  -1.1823  -1.1768
    -0.8313  -0.6977  -0.5921  -0.5758  -0.3949  -0.3816  -0.3435  -0.2653
     0.0239   0.0491   0.0900   0.1166   0.1286   0.1605   0.1874   0.2171
     0.2244   0.2392   0.2589   0.3052   0.3228   0.3271   0.3499   0.3758
     0.5114   0.5531   0.6053   0.6188   0.6301   0.6487   0.6564   0.6616
     0.7562   0.8123   0.8262   0.8605   0.8794   0.9005   0.9155   0.9746
     1.0584   1.1103   1.6045   1.6213   1.6440   1.6735   1.6993   1.7028
     1.7220   1.7402   2.4467   2.5192   2.5422   2.5590   2.5916   2.6142
     2.6245   2.6780   2.9703   2.9720   2.9732   2.9773   3.0273   3.0281
     3.0317   3.0335   3.0347   3.0375   3.0398   3.0428   3.6991   3.7042
     3.7068   3.7158   3.7207   3.7224   3.7296   3.7323   3.8124   3.8161
     3.8225   3.8228   3.8342   3.8365   3.8443   3.8484   3.8688   3.8711
     3.8732   3.8754   3.8758   3.8780   3.8795   3.8831   4.2321   4.2410
     4.2463   4.3112   4.4869   4.4908   4.4911   4.4923   4.4932   4.4952
     4.4973   4.4982   4.5230   4.5252   4.5263   4.5284   4.5300   4.5371
     4.5386   4.5439   4.6114   4.6148   4.6205   4.6218   4.6596   4.6618
     4.6632   4.6641   4.6662   4.6682   4.6689   4.6714   4.6756   4.6842
     4.6957   4.7018   4.7059   4.7130   4.7211   4.7229   4.7974   4.7981
     4.7996   4.8007   5.0845   5.0861   5.0908   5.0917   5.0933   5.0958
     5.1010   5.1020   5.2990   5.3030   5.3152   5.3199   5.3236   5.3293
     5.3343   5.3437   5.5649   5.6238   5.6402   5.6482   5.6506   5.6546
     5.6600   5.6613   5.6658   5.6675   5.6688   5.6715   5.6794   5.6831
     5.7979   5.8109   5.8127   5.8172   5.8236   5.8244   5.8306   5.8451
     5.9710   5.9736   5.9759   5.9787   5.9840   5.9964   5.9976   6.0003
     6.4948   6.4963   6.5218   6.5254   7.0144   7.0160   7.0338   7.0382
     7.8503   7.8774   8.4453   8.4593   8.4655   8.4913   8.8535   8.8568
     9.0830   9.1015   9.1031   9.1218   9.1279   9.1455   9.1574   9.1700
     9.1713   9.1814   9.1855   9.1931   9.1958   9.2194   9.2212   9.2309
     9.2332   9.2471   9.2509   9.2659   9.2840   9.2914   9.2982   9.3060
     9.3210   9.3268   9.3386   9.3487   9.3609   9.3671   9.3691   9.3829
     9.3939   9.4071   9.6589   9.6693   9.6795   9.6862   9.7010   9.7052
     9.7227   9.7400   9.7538   9.7651   9.7759   9.8320   9.9014   9.9227
     9.9338   9.9382   9.9474   9.9596   9.9649   9.9783  10.0219  10.0379
    10.0528  10.0673  10.0770  10.0876  10.0910  10.1067  10.1172  10.1193
    10.1270  10.1361  10.1538  10.1697  10.1951  10.2103  10.4065  10.4152
    10.4371  10.4508  10.5090  10.5196  10.5259  10.5414  10.5529  10.5689
    10.5772  10.5913  10.5989  10.6138  10.6294  10.6454  10.6509  10.6780
    10.6856  10.7100  10.7258  10.7306  10.7395  10.7465  10.7556  10.7600
    10.7658  10.7782  10.7861  10.7945  10.8086  10.8108  10.8220  10.8540
    10.9364  10.9513  10.9558

     occupation numbers 
     1.0000   1.0000   1.0000   1.0000   1.0000   1.0000   1.0000   1.0000
     1.0000   1.0000   1.0000   1.0000   1.0000   1.0000   1.0000   1.0000
     1.0000   1.0000   1.0000   1.0000   1.0000   1.0000   1.0000   1.0000
     1.0000   1.0000   1.0000   1.0000   1.0000   1.0000   1.0000   1.0000
     1.0000   1.0000   1.0000   1.0000   1.0000   1.0000   1.0000   1.0000
     1.0000   1.0000   1.0000   1.0000   1.0000   1.0000   1.0000   1.0000
     1.0000   1.0000   1.0000   1.0000   1.0000   1.0000   1.0000   1.0000
     1.0000   1.0000   1.0000   1.0000   1.0000   1.0000   1.0000   1.0000
     1.0000   1.0000   1.0000   1.0000   1.0000   1.0000   1.0000   1.0000
     1.0000   1.0000   1.0000   1.0000   1.0000   1.0000   1.0000   1.0000
     1.0000   1.0000   1.0000   1.0000   1.0000   1.0000   1.0000   1.0000
     1.0000   1.0000   1.0000   1.0000   1.0000   1.0000   1.0000   1.0000
     1.0000   1.0000   1.0000   1.0000   1.0000   1.0000   1.0000   1.0000
     1.0000   1.0000   1.0000   1.0000   1.0000   1.0000   1.0000   1.0000
     1.0000   1.0000   1.0000   1.0000   1.0000   1.0000   1.0000   1.0000
     1.0000   1.0000   1.0000   1.0000   1.0000   1.0000   1.0000   1.0000
     1.0000   1.0000   1.0000   1.0000   1.0000   1.0000   1.0000   1.0000
     1.0000   1.0000   1.0000   1.0000   1.0000   1.0000   1.0000   1.0000
     1.0000   1.0000   1.0000   1.0000   1.0000   1.0000   1.0000   1.0000
     1.0000   1.0000   1.0000   1.0000   1.0000   1.0000   1.0000   1.0000
     1.0000   1.0000   1.0000   1.0000   1.0000   1.0000   1.0000   1.0000
     1.0000   1.0000   1.0000   1.0000   1.0000   1.0000   1.0000   1.0000
     1.0000   1.0000   1.0000   1.0000   1.0000   1.0000   1.0000   1.0000
     1.0000   1.0000   1.0000   1.0000   1.0000   1.0000   1.0000   1.0000
     1.0000   1.0000   1.0000   1.0000   1.0000   1.0000   1.0000   1.0000
     1.0000   1.0000   1.0000   1.0000   1.0000   1.0000   1.0000   1.0000
     1.0000   1.0000   1.0000   1.0000   1.0000   1.0000   1.0000   1.0000
     1.0000   1.0000   1.0000   1.0000   1.0000   1.0000   1.0000   1.0000
     1.0000   1.0000   1.0000   1.0000   1.0000   1.0000   1.0000   1.0000
     1.0000   1.0000   1.0000   1.0000   1.0000   1.0000   1.0000   1.0000
     1.0000   1.0000   1.0000   1.0000   1.0000   1.0000   1.0000   1.0000
     1.0000   1.0000   1.0000   1.0000   1.0000   1.0000   1.0000   1.0000
     1.0000   1.0000   1.0000   1.0000   1.0000   1.0000   1.0000   1.0000
     1.0000   1.0000   1.0000   1.0000   1.0000   1.0000   1.0000   1.0000
     1.0000   1.0000   1.0000   1.0000   1.0000   1.0000   1.0000   1.0000
     1.0000   1.0000   1.0000   1.0000   1.0000   1.0000   1.0000   1.0000
     1.0000   1.0000   1.0000   1.0000   1.0000   1.0000   1.0000   1.0000
     1.0000   1.0000   1.0000   1.0000   1.0000   1.0000   1.0000   1.0000
     1.0000   1.0000   1.0000   1.0000   1.0000   1.0000   1.0000   1.0000
     1.0000   1.0000   1.0000   1.0000   1.0000   1.0000   1.0000   1.0000
     1.0000   1.0000   1.0000   1.0000   1.0000   1.0000   1.0000   1.0000
     1.0000   1.0000   1.0000   1.0000   1.0000   1.0000   1.0000   1.0000
     1.0000   1.0000   1.0000   1.0000   1.0000   1.0000   1.0000   1.0000
     1.0000   1.0000   1.0000   1.0000   1.0000   1.0000   1.0000   1.0000
     1.0000   1.0000   1.0000   1.0000   1.0000   1.0000   1.0000   1.0000
     1.0000   1.0000   1.0000   1.0000   1.0000   1.0000   1.0000   1.0000
     1.0000   1.0000   1.0000   1.0000   1.0000   1.0000   1.0000   1.0000
     1.0000   1.0000   1.0000   1.0000   1.0000   1.0000   1.0000   1.0000
     1.0000   1.0000   1.0000   1.0000   1.0000   1.0000   1.0000   1.0000
     1.0000   1.0000   1.0000   1.0000   1.0000   1.0000   1.0000   1.0000
     1.0000   1.0000   1.0000   1.0000   1.0000   1.0000   1.0000   1.0000
     1.0000   1.0000   1.0000   1.0000   1.0000   1.0000   1.0000   1.0000
     1.0000   1.0000   1.0000   1.0000   1.0000   1.0000   1.0000   1.0000
     1.0000   1.0000   1.0000   1.0000   1.0000   1.0000   1.0000   1.0000
     1.0000   1.0000   1.0000   1.0000   1.0000   1.0000   1.0000   1.0000
     1.0000   1.0000   1.0000   1.0000   1.0000   1.0000   1.0000   1.0000
     1.0000   1.0000   1.0000   1.0000   1.0000   1.0000   1.0000   1.0000
     1.0000   1.0000   1.0000   1.0000   1.0000   1.0000   1.0000   1.0000
     1.0000   1.0000   1.0000   1.0000   1.0000   1.0000   1.0000   1.0000
     1.0000   1.0000   1.0000   1.0000   1.0000   1.0000   1.0000   1.0000
     1.0000   1.0000   1.0000   1.0000   1.0000   1.0000   1.0000   1.0000
     1.0000   1.0000   1.0000   1.0000   1.0000   1.0000   1.0000   1.0000
     1.0000   1.0000   1.0000   1.0000   1.0000   1.0000   1.0000   1.0000
     1.0000   1.0000   1.0000   1.0000   1.0000   1.0000   1.0000   1.0000
     1.0000   1.0000   1.0000   1.0000   1.0000   1.0000   1.0000   1.0000
     1.0000   1.0000   1.0000   1.0000   1.0000   1.0000   1.0000   1.0000
     1.0000   1.0000   1.0000   1.0000   1.0000   1.0000   1.0000   1.0000
     1.0000   1.0000   1.0000   1.0000   1.0000   1.0000   1.0000   1.0000
     1.0000   1.0000   1.0000   1.0000   1.0000   1.0000   1.0000   1.0000
     1.0000   1.0000   1.0000   1.0000   1.0000   1.0000   1.0000   1.0000
     1.0000   1.0000   1.0000   1.0000   1.0000   1.0000   1.0000   1.0000
     1.0000   1.0000   1.0000   1.0000   1.0000   1.0000   0.9999   0.9999
     0.0326   0.0211   0.0000   0.0000   0.0000   0.0000   0.0000   0.0000
     0.0000   0.0000   0.0000   0.0000   0.0000   0.0000   0.0000   0.0000
     0.0000   0.0000   0.0000   0.0000   0.0000   0.0000   0.0000   0.0000
     0.0000   0.0000   0.0000   0.0000   0.0000   0.0000   0.0000   0.0000
     0.0000   0.0000   0.0000   0.0000   0.0000   0.0000   0.0000   0.0000
     0.0000   0.0000   0.0000   0.0000   0.0000   0.0000   0.0000   0.0000
     0.0000   0.0000   0.0000   0.0000   0.0000   0.0000   0.0000   0.0000
     0.0000   0.0000   0.0000   0.0000   0.0000   0.0000   0.0000   0.0000
     0.0000   0.0000   0.0000   0.0000   0.0000   0.0000   0.0000   0.0000
     0.0000   0.0000   0.0000   0.0000   0.0000   0.0000   0.0000   0.0000
     0.0000   0.0000   0.0000   0.0000   0.0000   0.0000   0.0000   0.0000
     0.0000   0.0000   0.0000   0.0000   0.0000   0.0000   0.0000   0.0000
     0.0000   0.0000   0.0000   0.0000   0.0000   0.0000   0.0000   0.0000
     0.0000   0.0000   0.0000   0.0000   0.0000   0.0000   0.0000   0.0000
     0.0000   0.0000   0.0000

          k = 0.3536 0.3536 0.3536 ( 64114 PWs)   bands (ev):

   -17.3285 -17.3220 -17.3191 -17.3137 -17.3049 -17.3011 -17.2974 -17.2966
   -17.2960 -17.2953 -17.2950 -17.2944 -17.2941 -17.2938 -17.2934 -17.2920
   -17.2872 -17.2832 -17.2816 -17.2795 -17.2696 -17.2693 -17.2647 -17.2633
   -17.2577 -17.2573 -17.2144 -17.2133 -17.2110 -17.2098 -17.2094 -17.2087
   -17.2071 -17.2071 -17.2070 -17.2043 -17.2037 -17.2013 -17.1990 -17.1987
   -17.1941 -17.1896 -17.1701 -17.1699 -17.1650 -17.1649 -17.1642 -17.1637
   -17.1507 -17.1497 -17.0892 -17.0806 -17.0793 -17.0769 -17.0754 -17.0736
   -17.0728 -17.0723 -17.0718 -17.0695 -17.0680 -17.0676 -17.0616 -17.0611
   -17.0605 -17.0599 -17.0588 -17.0583 -17.0569 -17.0563 -17.0562 -17.0561
   -17.0553 -17.0547 -17.0534 -17.0530 -17.0524 -17.0507 -17.0499 -17.0495
   -17.0484 -17.0482 -17.0475 -17.0470 -17.0466 -17.0463 -17.0462 -17.0455
   -17.0451 -17.0447 -17.0444 -17.0441 -17.0437 -17.0432 -17.0428 -17.0423
   -17.0418 -17.0405 -17.0383 -17.0380 -17.0378 -17.0371 -17.0367 -17.0365
   -17.0358 -17.0355 -17.0355 -17.0350 -17.0348 -17.0347 -17.0344 -17.0341
   -17.0337 -17.0333 -17.0333 -17.0329 -17.0324 -17.0321 -17.0314 -17.0297
   -17.0293 -17.0289 -17.0288 -17.0285 -17.0281 -17.0271 -17.0259 -17.0253
   -17.0245 -17.0244 -17.0235 -17.0230 -17.0229 -17.0226 -17.0220 -17.0219
   -17.0216 -17.0211 -17.0209 -17.0204 -17.0199 -17.0194 -17.0189 -17.0185
   -17.0177 -17.0172 -17.0164 -17.0160 -17.0156 -17.0155 -17.0151 -17.0149
   -17.0149 -17.0147 -17.0145 -17.0143 -17.0142 -17.0139 -17.0138 -17.0137
   -17.0135 -17.0133 -17.0132 -17.0130 -17.0128 -17.0125 -17.0124 -17.0120
   -17.0119 -17.0118 -17.0116 -17.0113 -17.0111 -17.0110 -17.0108 -17.0105
   -17.0104 -17.0103 -17.0102 -17.0100 -17.0098 -17.0096 -17.0094 -17.0091
   -17.0090 -17.0089 -17.0088 -17.0087 -17.0085 -17.0084 -17.0082 -17.0080
   -17.0078 -17.0077 -17.0073 -17.0073 -17.0068 -17.0067 -17.0065 -17.0063
   -17.0062 -17.0060 -17.0059 -17.0056 -17.0055 -17.0052 -17.0050 -17.0047
   -17.0045 -17.0041 -17.0038 -17.0037 -17.0032 -17.0030 -17.0028 -17.0027
   -17.0025 -17.0021 -17.0018 -17.0017 -17.0015 -17.0012 -17.0011 -17.0006
   -16.9997 -16.9995 -16.9986 -16.9982 -16.9973 -16.9969 -16.9965 -16.9956
   -16.9948 -16.9933 -16.9925 -16.9921 -16.9917 -16.9917 -16.9914 -16.9913
   -16.9902 -16.9900 -16.9887 -16.9887 -16.9885 -16.9883 -16.9883 -16.9878
   -16.9876 -16.9875 -16.9874 -16.9870 -16.9868 -16.9866 -16.9864 -16.9863
   -16.9860 -16.9858 -16.9857 -16.9853 -16.9851 -16.9848 -16.9846 -16.9845
   -16.9842 -16.9842 -16.9840 -16.9839 -16.9836 -16.9835 -16.9833 -16.9831
   -16.9830 -16.9828 -16.9827 -16.9827 -16.9826 -16.9824 -16.9822 -16.9819
   -16.9818 -16.9815 -16.9811 -16.9809 -16.9806 -16.9803 -16.9794 -16.9794
   -16.9782 -16.9781 -16.9773 -16.9772 -16.9770 -16.9747 -16.9747 -16.9721
   -16.9695 -16.9680 -16.9541 -16.9537 -16.9521 -16.9433 -16.9426 -16.9416
   -16.9408 -16.9396 -16.9383 -16.9374 -16.9365 -16.9353 -16.9343 -16.9340
   -16.9333 -16.9329 -16.9325 -16.9302 -16.9302 -16.9295 -16.9267 -16.9260
    -4.9729  -4.9193  -4.5311  -4.4974  -4.4344  -4.3786  -4.3576  -4.3245
    -4.0178  -4.0087  -3.9230  -3.9074  -3.8710  -3.8051  -3.5460  -3.5067
    -3.4667  -3.4204  -3.4011  -3.3743  -3.3392  -3.2834  -3.1887  -3.0818
    -3.0736  -3.0376  -3.0278  -2.9949  -2.9813  -2.9645  -2.9330  -2.8811
    -2.8574  -2.8246  -2.7894  -2.7685  -2.7441  -2.6928  -2.6778  -2.5987
    -2.4159  -2.3810  -2.3243  -2.2935  -2.2377  -2.1932  -2.0308  -2.0017
    -1.9728  -1.9389  -1.9114  -1.9062  -1.8715  -1.8440  -1.8318  -1.8094
    -1.7669  -1.7328  -1.6967  -1.6841  -1.6118  -1.5608  -1.5412  -1.4723
    -0.3509  -0.2771  -0.2413  -0.2202  -0.1966  -0.1424  -0.1073  -0.0997
    -0.0493  -0.0433  -0.0098   0.0017   0.0161   0.0376   0.0495   0.0746
[...]
     atom   77 type  2   force =   0.00000000E+00  0.00000000E+00  0.00000000E+00
     atom   78 type  2   force =   0.00000000E+00  0.00000000E+00  0.00000000E+00
     atom   79 type  1   force =   0.00000000E+00  0.00000000E+00  0.00000000E+00
     atom   80 type  2   force =   0.00000000E+00  0.00000000E+00  0.00000000E+00
     atom   81 type  1   force =   0.00000000E+00  0.00000000E+00  0.00000000E+00
     atom   82 type  1   force =   0.00000000E+00  0.00000000E+00  0.00000000E+00
     atom   83 type  1   force =   0.00000000E+00  0.00000000E+00  0.00000000E+00
     atom   84 type  2   force =   0.00000000E+00  0.00000000E+00  0.00000000E+00
     atom   85 type  1   force =   0.00000000E+00  0.00000000E+00  0.00000000E+00
     atom   86 type  2   force =   0.00000000E+00  0.00000000E+00  0.00000000E+00
     atom   87 type  1   force =   0.00000000E+00  0.00000000E+00  0.00000000E+00
     atom   88 type  2   force =   0.00000000E+00  0.00000000E+00  0.00000000E+00
     atom   89 type  2   force =   0.00000000E+00  0.00000000E+00  0.00000000E+00
     atom   90 type  2   force =   0.00000000E+00  0.00000000E+00  0.00000000E+00
     atom   91 type  1   force =   0.00000000E+00  0.00000000E+00  0.00000000E+00
     atom   92 type  2   force =   0.00000000E+00  0.00000000E+00  0.00000000E+00
     atom   93 type  1   force =   0.00000000E+00  0.00000000E+00  0.00000000E+00
     atom   94 type  2   force =   0.00000000E+00  0.00000000E+00  0.00000000E+00
     atom   95 type  1   force =   0.00000000E+00  0.00000000E+00  0.00000000E+00
     atom   96 type  2   force =   0.00000000E+00  0.00000000E+00  0.00000000E+00
     atom   97 type  1   force =   0.00000000E+00  0.00000000E+00  0.00000000E+00
     atom   98 type  1   force =   0.00000000E+00  0.00000000E+00  0.00000000E+00
     atom   99 type  1   force =   0.00000000E+00  0.00000000E+00  0.00000000E+00
     atom  100 type  2   force =   0.00000000E+00  0.00000000E+00  0.00000000E+00
     atom  101 type  1   force =   0.00000000E+00  0.00000000E+00  0.00000000E+00
     atom  102 type  2   force =   0.00000000E+00  0.00000000E+00  0.00000000E+00
     atom  103 type  1   force =   0.00000000E+00  0.00000000E+00  0.00000000E+00
     atom  104 type  2   force =   0.00000000E+00  0.00000000E+00  0.00000000E+00
     atom  105 type  1   force =   0.00000000E+00  0.00000000E+00  0.00000000E+00
     atom  106 type  2   force =   0.00000000E+00  0.00000000E+00  0.00000000E+00
     atom  107 type  1   force =   0.00000000E+00  0.00000000E+00  0.00000000E+00
     atom  108 type  1   force =   0.00000000E+00  0.00000000E+00  0.00000000E+00
     atom  109 type  1   force =   0.00000000E+00  0.00000000E+00  0.00000000E+00
     atom  110 type  2   force =   0.00000000E+00  0.00000000E+00  0.00000000E+00
     atom  111 type  1   force =   0.00000000E+00  0.00000000E+00  0.00000000E+00
     atom  112 type  2   force =   0.00000000E+00  0.00000000E+00  0.00000000E+00
     atom  113 type  1   force =   0.00000000E+00  0.00000000E+00  0.00000000E+00
     atom  114 type  2   force =   0.00000000E+00  0.00000000E+00  0.00000000E+00
     atom  115 type  1   force =   0.00000000E+00  0.00000000E+00  0.00000000E+00
     atom  116 type  2   force =   0.00000000E+00  0.00000000E+00  0.00000000E+00
     atom  117 type  2   force =   0.00000000E+00  0.00000000E+00  0.00000000E+00
     atom  118 type  2   force =   0.00000000E+00  0.00000000E+00  0.00000000E+00
     atom  119 type  1   force =   0.00000000E+00  0.00000000E+00  0.00000000E+00
     atom  120 type  2   force =   0.00000000E+00  0.00000000E+00  0.00000000E+00
     atom  121 type  1   force =   0.00000000E+00  0.00000000E+00  0.00000000E+00
     atom  122 type  2   force =   0.00000000E+00  0.00000000E+00  0.00000000E+00
     atom  123 type  1   force =   0.00000000E+00  0.00000000E+00  0.00000000E+00
     atom  124 type  2   force =   0.00000000E+00  0.00000000E+00  0.00000000E+00
     atom  125 type  1   force =   0.00000000E+00  0.00000000E+00  0.00000000E+00
     atom  126 type  1   force =   0.00000000E+00  0.00000000E+00  0.00000000E+00
     atom  127 type  2   force =   0.00000000E+00  0.00000000E+00  0.00000000E+00
     atom  128 type  2   force =   0.00000000E+00  0.00000000E+00  0.00000000E+00
     The SCF correction term to forces
     atom    1 type  1   force =   0.18295082E-05 -0.55413375E-06  0.22463773E-06
     atom    2 type  1   force =   0.31729775E-05 -0.18673969E-05 -0.87082619E-06
     atom    3 type  2   force =   0.24946073E-05  0.24804446E-05  0.10156797E-04
     atom    4 type  2   force =  -0.14211421E-04  0.29383825E-05 -0.10387500E-04
     atom    5 type  2   force =  -0.13597868E-04  0.98660883E-06  0.18768232E-04
     atom    6 type  2   force =  -0.18002127E-04  0.89741320E-05 -0.44201611E-05
     atom    7 type  1   force =   0.17984676E-06  0.96954102E-06  0.44853112E-06
     atom    8 type  1   force =   0.23782239E-05 -0.14899164E-06  0.80205549E-07
     atom    9 type  1   force =  -0.15955232E-05 -0.29178115E-05  0.47410248E-06
     atom   10 type  2   force =  -0.14574685E-04 -0.13388623E-04  0.37189661E-06
     atom   11 type  1   force =  -0.72330995E-05  0.10539566E-05 -0.68631434E-06
     atom   12 type  2   force =  -0.11605230E-04  0.18331208E-05  0.63056715E-05
     atom   13 type  1   force =  -0.42955162E-06  0.27635264E-05 -0.26552271E-05
     atom   14 type  1   force =   0.26230290E-05  0.35411165E-05 -0.13964863E-05
     atom   15 type  1   force =   0.62703288E-05  0.20101459E-05 -0.17706518E-05
     atom   16 type  2   force =   0.69355750E-05  0.77585662E-05 -0.77628723E-06
     atom   17 type  1   force =  -0.40829052E-05 -0.10431432E-05  0.62422877E-06
     atom   18 type  2   force =   0.56327388E-05 -0.16935538E-04  0.51557070E-05
     atom   19 type  2   force =   0.59928460E-05 -0.75232253E-05  0.93103492E-05
     atom   20 type  2   force =  -0.17942758E-05 -0.25692421E-05  0.12803689E-04
     atom   21 type  1   force =   0.22205081E-05 -0.36051973E-06 -0.14462231E-05
     atom   22 type  2   force =  -0.17374323E-06  0.19380536E-04 -0.78799937E-05
     atom   23 type  1   force =  -0.85766634E-06  0.47037379E-05 -0.38161186E-05
     atom   24 type  2   force =  -0.91643668E-05  0.64058488E-05 -0.65985165E-05
     atom   25 type  2   force =   0.89725070E-05 -0.32687413E-05  0.26269146E-05
     atom   26 type  2   force =  -0.88015021E-05 -0.45362678E-05 -0.70773723E-05
     atom   27 type  1   force =   0.35424685E-06 -0.20177828E-05  0.21358991E-05
     atom   28 type  2   force =   0.61339892E-06 -0.17467340E-04  0.18821014E-04
     atom   29 type  1   force =  -0.21917111E-05  0.70582479E-06  0.34861712E-05
     atom   30 type  1   force =  -0.39106547E-06  0.18496245E-05  0.42848972E-05
     atom   31 type  1   force =  -0.11012563E-05  0.36603825E-05  0.63663755E-06
     atom   32 type  2   force =   0.67445827E-05  0.85541739E-05 -0.37977290E-05
     atom   33 type  1   force =   0.29304142E-05 -0.28971339E-05 -0.20293142E-05
     atom   34 type  1   force =   0.35781858E-05 -0.25964191E-06 -0.12337111E-05
     atom   35 type  1   force =   0.27716583E-05  0.11874819E-05 -0.23731709E-05
     atom   36 type  2   force =  -0.47614551E-05  0.77530933E-05 -0.40933069E-05
     atom   37 type  1   force =  -0.21846754E-05  0.49738386E-06 -0.11459520E-06
     atom   38 type  2   force =  -0.89197013E-05 -0.53478089E-05 -0.50508013E-05
     atom   39 type  1   force =  -0.66635356E-06 -0.15367705E-05 -0.10701194E-05
     atom   40 type  2   force =   0.11637371E-04 -0.21266081E-04  0.16004310E-05
     atom   41 type  1   force =  -0.17487290E-06 -0.34411714E-05 -0.47825439E-07
     atom   42 type  2   force =  -0.98201047E-05  0.80057227E-05 -0.23745280E-05
     atom   43 type  2   force =  -0.14256666E-04  0.18464341E-04  0.28505094E-05
     atom   44 type  2   force =  -0.43795111E-05  0.16510881E-05  0.43096242E-05
     atom   45 type  1   force =  -0.13391323E-05  0.25514530E-05  0.43128655E-06
     atom   46 type  2   force =   0.11533973E-04  0.55497158E-05 -0.80553513E-05
     atom   47 type  1   force =   0.44666070E-05 -0.25250931E-05 -0.95711671E-06
     atom   48 type  2   force =   0.98544998E-06 -0.13615924E-04 -0.49804075E-05
     atom   49 type  1   force =  -0.55147043E-06 -0.77290955E-06 -0.58858998E-06
     atom   50 type  2   force =   0.92862219E-05  0.30756904E-05 -0.18269028E-05
     atom   51 type  2   force =  -0.14188575E-05  0.47215855E-05 -0.50389107E-05
     atom   52 type  2   force =   0.69487989E-05 -0.80847197E-05 -0.92104388E-05
     atom   53 type  1   force =   0.16719997E-05  0.31501168E-05  0.43497358E-07
     atom   54 type  2   force =   0.40069787E-05  0.32753880E-05 -0.96665024E-07
     atom   55 type  1   force =  -0.21265661E-05 -0.18902479E-05 -0.21300479E-05
     atom   56 type  1   force =  -0.15675639E-05 -0.24146809E-05 -0.18535242E-06
     atom   57 type  1   force =   0.93895502E-06 -0.32107521E-05 -0.48009827E-06
     atom   58 type  2   force =   0.23543391E-05 -0.38977768E-05 -0.12217267E-04
     atom   59 type  1   force =   0.31919707E-05 -0.67809283E-06 -0.50353134E-07
     atom   60 type  2   force =   0.10205185E-04 -0.53270073E-06 -0.17298605E-06
     atom   61 type  1   force =  -0.20013629E-06  0.12982460E-05  0.17309870E-05
     atom   62 type  2   force =  -0.69659836E-06 -0.52071535E-05  0.72466056E-05
     atom   63 type  1   force =   0.57318066E-06 -0.19426796E-05  0.19261538E-05
     atom   64 type  2   force =   0.24689189E-05 -0.43367959E-05 -0.30166152E-05
     atom   65 type  1   force =   0.28566895E-05  0.22400201E-05  0.35331960E-06
     atom   66 type  2   force =   0.14897210E-04  0.96461503E-05  0.53226396E-05
     atom   67 type  1   force =   0.15196345E-05  0.10281884E-05 -0.49418066E-06
     atom   68 type  2   force =  -0.76786166E-05 -0.80972788E-05 -0.94119156E-06
     atom   69 type  1   force =  -0.23250432E-05 -0.42015184E-05 -0.17017225E-05
     atom   70 type  2   force =  -0.21543082E-05 -0.19540185E-04 -0.30414358E-05
     atom   71 type  1   force =   0.15242404E-05 -0.26581475E-05 -0.13470889E-05
     atom   72 type  2   force =   0.13707889E-04 -0.38062707E-06  0.73977915E-05
     atom   73 type  1   force =  -0.72883555E-07  0.26717885E-05  0.18852891E-05
     atom   74 type  2   force =  -0.15894020E-04  0.87721194E-05 -0.83488220E-06
     atom   75 type  1   force =  -0.40184771E-05 -0.77822687E-06 -0.13373267E-05
     atom   76 type  2   force =  -0.10560147E-04 -0.12637995E-05 -0.12655929E-04
     atom   77 type  2   force =   0.98775496E-05 -0.91720484E-05 -0.52465521E-05
     atom   78 type  2   force =   0.18105268E-04 -0.90306349E-05 -0.59254590E-05
     atom   79 type  1   force =   0.41017305E-05 -0.17967085E-05  0.23581753E-06
     atom   80 type  2   force =  -0.12396852E-06  0.10550135E-04 -0.86674122E-07
     atom   81 type  1   force =  -0.47444842E-05  0.10291844E-05 -0.16604419E-05
     atom   82 type  1   force =  -0.29313201E-05  0.14812300E-06 -0.94421264E-07
     atom   83 type  1   force =   0.10718889E-05 -0.13911868E-06 -0.20606279E-05
     atom   84 type  2   force =   0.19829935E-04  0.17016655E-05  0.43160933E-06
     atom   85 type  1   force =   0.47164077E-05 -0.24108073E-06 -0.10719223E-05
     atom   86 type  2   force =  -0.28201616E-05 -0.24809131E-05  0.88049631E-05
     atom   87 type  1   force =  -0.22332727E-05  0.54876614E-06  0.13448277E-05
     atom   88 type  2   force =  -0.12394276E-04  0.76840117E-05  0.73781612E-05
     atom   89 type  2   force =   0.77628670E-05  0.72665162E-06  0.33409981E-06
     atom   90 type  2   force =   0.69239430E-05  0.93339514E-05 -0.82434670E-06
     atom   91 type  1   force =   0.44755212E-05  0.18702163E-06  0.86481514E-06
     atom   92 type  2   force =   0.95459024E-05 -0.15648476E-05  0.21832068E-05
     atom   93 type  1   force =   0.12886018E-06 -0.16378869E-05 -0.12260355E-06
     atom   94 type  2   force =  -0.30211093E-05 -0.12992358E-04 -0.99773114E-05
     atom   95 type  1   force =  -0.16209531E-05 -0.27793385E-05 -0.20025559E-05
     atom   96 type  2   force =  -0.48957079E-05 -0.35848136E-05 -0.96501376E-05
     atom   97 type  1   force =   0.14177935E-05  0.15504136E-05  0.10988076E-05
     atom   98 type  1   force =   0.16106144E-05 -0.10714250E-05  0.17194686E-05
     atom   99 type  1   force =  -0.63521796E-06 -0.22529459E-05  0.75529514E-06
     atom  100 type  2   force =  -0.25944488E-04 -0.20650803E-05  0.14770723E-04
     atom  101 type  1   force =  -0.23092040E-05 -0.24423394E-05  0.28382581E-05
     atom  102 type  2   force =  -0.99641192E-05  0.14326166E-04  0.14280658E-04
     atom  103 type  1   force =   0.19688353E-05  0.27849717E-05  0.23766220E-05
     atom  104 type  2   force =   0.14125271E-04  0.49652126E-05  0.85815412E-05
     atom  105 type  1   force =  -0.14800389E-05 -0.83731501E-06  0.22048581E-05
     atom  106 type  2   force =  -0.26401470E-04 -0.29027315E-05  0.25802438E-05
     atom  107 type  1   force =  -0.70907376E-05 -0.22371945E-05  0.50812704E-07
     atom  108 type  1   force =  -0.35058539E-05 -0.27343374E-06  0.50947435E-06
     atom  109 type  1   force =   0.21452860E-05  0.15186180E-05 -0.65529403E-06
     atom  110 type  2   force =   0.26576884E-04  0.38527369E-05  0.75834500E-06
     atom  111 type  1   force =   0.44900234E-05  0.34714140E-05  0.13010351E-05
     atom  112 type  2   force =   0.10329912E-04  0.38261861E-05 -0.24709411E-05
     atom  113 type  1   force =  -0.70859079E-05  0.18504240E-05  0.55398600E-06
     atom  114 type  2   force =  -0.11986599E-04  0.79805770E-06  0.84133050E-05
     atom  115 type  1   force =   0.14619878E-05 -0.95640297E-06  0.25793358E-05
     atom  116 type  2   force =   0.18342308E-04  0.41149879E-05  0.18066047E-05
     atom  117 type  2   force =   0.17770054E-04 -0.50736731E-07  0.61866610E-06
     atom  118 type  2   force =   0.16378418E-05  0.67725606E-06 -0.21685446E-04
     atom  119 type  1   force =  -0.29515083E-05  0.33603653E-05 -0.20672458E-05
     atom  120 type  2   force =  -0.21556515E-04  0.87857825E-05 -0.10540226E-04
     atom  121 type  1   force =   0.17394409E-05  0.25443854E-05  0.16178955E-05
     atom  122 type  2   force =   0.18229164E-08  0.92263619E-05  0.10040729E-04
     atom  123 type  1   force =   0.16560285E-05 -0.16808397E-05  0.12371034E-05
     atom  124 type  2   force =  -0.42329667E-05 -0.85427065E-05  0.72343030E-05
     atom  125 type  1   force =  -0.29899787E-05 -0.23733088E-05 -0.30399804E-05
     atom  126 type  1   force =  -0.25248972E-05 -0.41721385E-06 -0.51055669E-06
     atom  127 type  2   force =  -0.85095560E-05  0.16122774E-04 -0.14973296E-04
     atom  128 type  2   force =  -0.50082475E-06  0.13164962E-04  0.29000785E-05

     Total force =     0.139534     Total SCF correction =     0.000136


     entering subroutine stress ...

          total   stress  (Ry/bohr**3)                   (kbar)     P=    1.16
   0.0000078852  -0.0000005991   0.0000006093          1.16     -0.09      0.09
  -0.0000005991   0.0000078506  -0.0000001943         -0.09      1.15     -0.03
   0.0000006093  -0.0000001943   0.0000079589          0.09     -0.03      1.17

     kinetic stress (kbar)   6412.27      0.09     -0.08
                                0.09   6412.26      0.11
                               -0.08      0.11   6412.28

     local   stress (kbar)  -2522.52    164.65   -114.31
                              164.65  -4091.14  -1407.73
                             -114.31  -1407.73  -3249.04

     nonloc. stress (kbar)   2496.55     -0.09      0.05
                               -0.09   2496.55     -0.29
                                0.05     -0.29   2496.56

     hartree stress (kbar)  15880.98    -81.95     56.71
                              -81.95  16655.70    684.74
                               56.71    684.74  16240.19

     exc-cor stress (kbar)  10937.32     -0.00      0.00
                               -0.00  10937.32     -0.01
                                0.00     -0.01  10937.33

     corecor stress (kbar) -16604.64      0.01     -0.00
                                0.01 -16604.64     -0.01
                               -0.00     -0.01 -16604.64

     ewald   stress (kbar) -16598.82    -82.80     57.72
                              -82.80 -15804.91    723.15
                               57.72    723.15 -16231.50

     hubbard stress (kbar)      0.00      0.00      0.00
                                0.00      0.00      0.00
                                0.00      0.00      0.00

     london  stress (kbar)      0.00      0.00      0.00
                                0.00      0.00      0.00
                                0.00      0.00      0.00

     XDM     stress (kbar)      0.00      0.00      0.00
                                0.00      0.00      0.00
                                0.00      0.00      0.00

     dft-nl  stress (kbar)      0.00      0.00      0.00
                                0.00      0.00      0.00
                                0.00      0.00      0.00



     Writing output data file SiGe_zns.scf.in.super.444.mix.022.save

     init_run     :    802.49s CPU    671.21s WALL (       1 calls)
     electrons    :  40275.95s CPU  34836.79s WALL (       1 calls)
     forces       :    585.81s CPU    447.23s WALL (       1 calls)
     stress       :   2593.02s CPU   2566.83s WALL (       1 calls)

     Called by init_run:
     wfcinit      :    770.88s CPU    638.86s WALL (       1 calls)
     potinit      :      0.70s CPU      0.78s WALL (       1 calls)

     Called by electrons:
     c_bands      :  36258.61s CPU  31062.11s WALL (      15 calls)
     sum_band     :   3529.04s CPU   3275.46s WALL (      15 calls)
     v_of_rho     :      6.75s CPU      7.81s WALL (      15 calls)
     v_h          :      0.49s CPU      0.60s WALL (      15 calls)
     v_xc         :      7.10s CPU      8.18s WALL (      17 calls)
     newd         :    497.28s CPU    504.60s WALL (      15 calls)
     mix_rho      :     12.11s CPU     13.61s WALL (      15 calls)

     Called by c_bands:
     init_us_2    :     41.05s CPU     41.99s WALL (     264 calls)
     cegterg      :  36002.87s CPU  30795.78s WALL (     120 calls)

     Called by sum_band:
     sum_band:bec :     15.02s CPU     15.12s WALL (     120 calls)
     addusdens    :    370.25s CPU    372.39s WALL (      15 calls)

     Called by *egterg:
     h_psi        :  13522.51s CPU  12098.20s WALL (     451 calls)
     s_psi        :   3786.10s CPU   2575.09s WALL (     451 calls)
     g_psi        :      6.45s CPU      7.83s WALL (     323 calls)
     cdiaghg      :  11561.84s CPU  10921.42s WALL (     435 calls)
     cegterg:over :   3480.63s CPU   2525.29s WALL (     323 calls)
     cegterg:upda :   1645.27s CPU   1145.10s WALL (     323 calls)
     cegterg:last :   1075.24s CPU    727.15s WALL (     120 calls)

     Called by h_psi:
     h_psi:vloc   :   5720.43s CPU   6704.59s WALL (     451 calls)
     h_psi:vnl    :   7785.22s CPU   5376.37s WALL (     451 calls)
     add_vuspsi   :   3752.24s CPU   2537.17s WALL (     451 calls)

     General routines
     calbec       :   6574.26s CPU   4805.27s WALL (     587 calls)
     fft          :    210.66s CPU    213.55s WALL (     265 calls)
     ffts         :      7.88s CPU      8.89s WALL (     427 calls)
     fftw         :   6316.89s CPU   7507.11s WALL (  486850 calls)
     interpolate  :      1.73s CPU      2.10s WALL (      30 calls)

     Parallel routines
     fft_scatter  :   3756.01s CPU   4487.56s WALL (  487542 calls)

     PWSCF        :    12h18m CPU       10h42m WALL


   This run was terminated on:   9:42:23  19Jan2017            

=------------------------------------------------------------------------------=
   JOB DONE.
=------------------------------------------------------------------------------=
