
     Program PWSCF v.5.1 starts on  3Feb2017 at 13:48:46 

     This program is part of the open-source Quantum ESPRESSO suite
     for quantum simulation of materials; please cite
         "P. Giannozzi et al., J. Phys.:Condens. Matter 21 395502 (2009);
          URL http://www.quantum-espresso.org", 
     in publications or presentations arising from this work. More details at
     http://www.quantum-espresso.org/quote

     Parallel version (MPI), running on    16 processors
     R & G space division:  proc/nbgrp/npool/nimage =      16
     Reading input from /tmp/SiGe_zns.scf.in.super.444.a.03.19037/SiGe_zns.scf.in.super.444.a.03.t
Warning: card &IONS ignored
Warning: card   ION_DYNAMICS='BFGS', ignored
Warning: card / ignored
Warning: card &CELL ignored
Warning: card  CELL_DYNAMICS = 'BFGS' ignored
Warning: card / ignored
     Message from routine read_cards :
     DEPRECATED: no units specified in CELL_PARAMETERS card

     Current dimensions of program PWSCF are:
     Max number of different atomic species (ntypx) = 10
     Max number of k-points (npk) =  40000
     Max angular momentum in pseudopotentials (lmaxx) =  3

     Subspace diagonalization in iterative solution of the eigenvalue problem:
     a serial algorithm will be used


     Parallelization info
     --------------------
     sticks:   dense  smooth     PW     G-vecs:    dense   smooth      PW
     Min         756     527    138                54768    32060    4315
     Max         757     528    139                54770    32083    4319
     Sum       12097    8443   2221               876295   513103   69089



     bravais-lattice index     =            0
     lattice parameter (alat)  =    29.598892955  a.u.
     unit-cell volume          =   18336.2874 (a.u.)^3
     number of atoms/cell      =          128
     number of atomic types    =            2
     number of electrons       =      1152.00
     number of Kohn-Sham states=          691
     kinetic-energy cutoff     =      35.0000  Ry
     charge density cutoff     =     200.0000  Ry
     convergence threshold     =      1.0E-09
     mixing beta               =       0.3000
     number of iterations used =            8  local-TF  mixing
     Exchange-correlation      = SLA  PW   PSX  PSC ( 1  4 10  8 0)
     A smooth kinetic-energy cutoff is imposed at      34.5000 Ry
     height of the smooth step-function =             800.0000 Ry
     width of the smooth step-function  =               1.0000 Ry


     celldm(1)=  29.598893  celldm(2)=   0.000000  celldm(3)=   0.000000
     celldm(4)=   0.000000  celldm(5)=   0.000000  celldm(6)=   0.000000

     crystal axes: (cart. coord. in units of alat)
               a(1) = (   0.000000000000   0.707106781187   0.707106781187 )  
               a(2) = (   0.707106781187  -0.000000000000   0.707106781187 )  
               a(3) = (   0.707106781187   0.707106781187   0.000000000000 )  

     reciprocal axes: (cart. coord. in units 2 pi/alat)
               b(1) = ( -0.707107  0.707107  0.707107 )  
               b(2) = (  0.707107 -0.707107  0.707107 )  
               b(3) = (  0.707107  0.707107 -0.707107 )  


     PseudoPot. # 1 for Si read from file:
     /users/kfg/psuedo/gbrv_1.5/si.pbesol.UPF
     MD5 check sum: ef58ba74faed4df802eb8a9742fc00a8
     Pseudo is Ultrasoft + core correction, Zval =  4.0
     Generated by new atomic code, or converted to UPF format
     Using radial grid of  899 points,  6 beta functions with: 
                l(1) =   0
                l(2) =   0
                l(3) =   1
                l(4) =   1
                l(5) =   2
                l(6) =   2
     Q(r) pseudized with  8 coefficients,  rinner =    0.900   0.900   0.900
                                                       0.900   0.900

     PseudoPot. # 2 for Ge read from file:
     /users/kfg/psuedo/gbrv_1.5/ge.pbesol.UPF
     MD5 check sum: 7bed0412183f5e553a4d27ec7023354d
     Pseudo is Ultrasoft + core correction, Zval = 14.0
     Generated by new atomic code, or converted to UPF format
     Using radial grid of  873 points,  6 beta functions with: 
                l(1) =   0
                l(2) =   0
                l(3) =   1
                l(4) =   1
                l(5) =   2
                l(6) =   2
     Q(r) pseudized with  8 coefficients,  rinner =    1.400   1.400   1.400
                                                       1.400   1.400

     atomic species   valence    mass     pseudopotential
        Si             4.00    28.08550     Si( 1.00)
        Ge            14.00    72.64000     Ge( 1.00)

     No symmetry found


                                    s                        frac. trans.

      isym =  1     identity                                     

 cryst.   s( 1) = (     1          0          0      )
                  (     0          1          0      )
                  (     0          0          1      )

 cart.    s( 1) = (  1.0000000  0.0000000  0.0000000 )
                  (  0.0000000  1.0000000  0.0000000 )
                  (  0.0000000  0.0000000  1.0000000 )


     point group C_1 (1)    
     there are  1 classes
     the character table:

       E    
A      1.00

     the symmetry operations in each class:
     E        1

   Cartesian axes

     site n.     atom                  positions (alat units)
         1           Ge  tau(   1) = (   -0.00004414455    0.00000973720   -0.00014350949  )
         2           Si  tau(   2) = (    0.08852787800    0.08843564267    0.08862758157  )
         3           Ge  tau(   3) = (    0.17707602528    0.17700146526    0.00006520496  )
         4           Ge  tau(   4) = (    0.26542884295    0.26507745227    0.08823620324  )
         5           Si  tau(   5) = (    0.35361958016    0.35362518743    0.00001138395  )
         6           Si  tau(   6) = (    0.44167394082    0.44211109717    0.08829053328  )
         7           Ge  tau(   7) = (    0.53000074730    0.53016656370   -0.00020261710  )
         8           Si  tau(   8) = (    0.61891362946    0.61898368814    0.08867235174  )
         9           Ge  tau(   9) = (    0.17707323209    0.00022892579    0.17646946787  )
        10           Ge  tau(  10) = (    0.26489586450    0.08855040664    0.26504529695  )
        11           Si  tau(  11) = (    0.35341959174    0.17644091578    0.17652859884  )
        12           Ge  tau(  12) = (    0.44188912922    0.26509457201    0.26515241911  )
        13           Ge  tau(  13) = (    0.53045331817    0.35325590595    0.17655667001  )
        14           Ge  tau(  14) = (    0.61874970040    0.44211555521    0.26546913069  )
        15           Si  tau(  15) = (    0.70703167459    0.53060897202    0.17676810922  )
        16           Si  tau(  16) = (    0.79519986145    0.61843511719    0.26508489933  )
        17           Si  tau(  17) = (    0.35325908672   -0.00031870440    0.35342491471  )
        18           Ge  tau(  18) = (    0.44174440100    0.08823181329    0.44168793080  )
        19           Si  tau(  19) = (    0.53020123875    0.17679650244    0.35340398116  )
        20           Ge  tau(  20) = (    0.61897451054    0.26512334541    0.44226751963  )
        21           Ge  tau(  21) = (    0.70704795228    0.35364098119    0.35325184624  )
        22           Ge  tau(  22) = (    0.79561951024    0.44226907239    0.44202973326  )
        23           Ge  tau(  23) = (    0.88356964928    0.53044325822    0.35382805261  )
        24           Si  tau(  24) = (    0.97260768618    0.61878917098    0.44219716771  )
        25           Ge  tau(  25) = (    0.53063919524   -0.00028698141    0.53026283528  )
        26           Si  tau(  26) = (    0.61893507960    0.08817982913    0.61891967688  )
        27           Si  tau(  27) = (    0.70741228735    0.17692715579    0.53011874823  )
        28           Ge  tau(  28) = (    0.79566700622    0.26507305075    0.61870069679  )
        29           Ge  tau(  29) = (    0.88413854109    0.35374496394    0.53057953485  )
        30           Si  tau(  30) = (    0.97202140840    0.44206591465    0.61882572365  )
        31           Ge  tau(  31) = (    1.06097376423    0.53021546618    0.53032428788  )
        32           Ge  tau(  32) = (    1.14914429776    0.61859248297    0.61887935757  )
        33           Ge  tau(  33) = (    0.00033373215    0.17669238473    0.17697084819  )
        34           Si  tau(  34) = (    0.08809835946    0.26534994757    0.26523628466  )
        35           Ge  tau(  35) = (    0.17681060111    0.35374633078    0.17667396309  )
        36           Ge  tau(  36) = (    0.26532509258    0.44209470894    0.26514038774  )
        37           Ge  tau(  37) = (    0.35322688105    0.53052996242    0.17674006033  )
        38           Si  tau(  38) = (    0.44204009430    0.61888547085    0.26493521043  )
        39           Ge  tau(  39) = (    0.53005886615    0.70700672465    0.17705804269  )
        40           Ge  tau(  40) = (    0.61873269243    0.79577515885    0.26521183879  )
        41           Ge  tau(  41) = (    0.17644028862    0.17649341476    0.35369450296  )
        42           Ge  tau(  42) = (    0.26529871393    0.26520737011    0.44198049661  )
        43           Si  tau(  43) = (    0.35371797758    0.35351660238    0.35370827014  )
        44           Si  tau(  44) = (    0.44187377464    0.44212778603    0.44194701196  )
        45           Si  tau(  45) = (    0.53010759840    0.53049896919    0.35387872510  )
        46           Si  tau(  46) = (    0.61874394394    0.61859892690    0.44186678337  )
        47           Ge  tau(  47) = (    0.70721924733    0.70742827266    0.35334855044  )
        48           Ge  tau(  48) = (    0.79540208842    0.79580690180    0.44220716665  )
        49           Si  tau(  49) = (    0.35350153933    0.17671409123    0.53058590715  )
        50           Ge  tau(  50) = (    0.44205766568    0.26490427446    0.61843301218  )
        51           Si  tau(  51) = (    0.53063084872    0.35348975973    0.53037124720  )
        52           Si  tau(  52) = (    0.61849488342    0.44184834700    0.61879628386  )
        53           Si  tau(  53) = (    0.70699210085    0.53012832527    0.53033279908  )
        54           Si  tau(  54) = (    0.79529641283    0.61901047232    0.61842794897  )
        55           Si  tau(  55) = (    0.88375717489    0.70724912743    0.53019010900  )
        56           Si  tau(  56) = (    0.97196769104    0.79527211679    0.61854617493  )
        57           Si  tau(  57) = (    0.53004589475    0.17649830842    0.70694622744  )
        58           Si  tau(  58) = (    0.61865392662    0.26549247181    0.79574543240  )
        59           Ge  tau(  59) = (    0.70719881549    0.35354384550    0.70710502720  )
        60           Si  tau(  60) = (    0.79522243225    0.44220235560    0.79540480517  )
        61           Si  tau(  61) = (    0.88359922637    0.53043032000    0.70702083750  )
        62           Ge  tau(  62) = (    0.97232478999    0.61890225556    0.79515990058  )
        63           Ge  tau(  63) = (    1.06092522078    0.70691253410    0.70686117427  )
        64           Si  tau(  64) = (    1.14871604640    0.79582498521    0.79576423749  )
        65           Si  tau(  65) = (    0.00007344894    0.35385141373    0.35359148153  )
        66           Si  tau(  66) = (    0.08847647842    0.44188032203    0.44214474281  )
        67           Si  tau(  67) = (    0.17661320226    0.53059787498    0.35369446450  )
        68           Si  tau(  68) = (    0.26519461187    0.61899158644    0.44168064934  )
        69           Si  tau(  69) = (    0.35380406839    0.70689351278    0.35343009749  )
        70           Si  tau(  70) = (    0.44175101071    0.79529474878    0.44200599774  )
        71           Si  tau(  71) = (    0.53031153411    0.88390961735    0.35387756241  )
        72           Ge  tau(  72) = (    0.61896233508    0.97245244457    0.44172127606  )
        73           Si  tau(  73) = (    0.17663368362    0.35375171919    0.53053436976  )
        74           Si  tau(  74) = (    0.26548835557    0.44209676519    0.61863589536  )
        75           Si  tau(  75) = (    0.35384516379    0.53033982843    0.53061881085  )
        76           Ge  tau(  76) = (    0.44190757690    0.61887420408    0.61899902652  )
        77           Ge  tau(  77) = (    0.53050158137    0.70733052377    0.53023749126  )
        78           Ge  tau(  78) = (    0.61846588646    0.79561164730    0.61842063960  )
        79           Ge  tau(  79) = (    0.70737388288    0.88384116337    0.53004061485  )
        80           Si  tau(  80) = (    0.79530405257    0.97227962911    0.61855530128  )
        81           Ge  tau(  81) = (    0.35372263477    0.35375584890    0.70700411965  )
        82           Si  tau(  82) = (    0.44224578303    0.44214284787    0.79543926239  )
        83           Ge  tau(  83) = (    0.53053961909    0.53049164702    0.70740615656  )
        84           Ge  tau(  84) = (    0.61876325878    0.61847112091    0.79540685461  )
        85           Si  tau(  85) = (    0.70717691574    0.70707989783    0.70689628821  )
        86           Ge  tau(  86) = (    0.79560688885    0.79564025082    0.79547385027  )
        87           Ge  tau(  87) = (    0.88386293471    0.88378030160    0.70713577318  )
        88           Ge  tau(  88) = (    0.97218192873    0.97239333431    0.79556797999  )
        89           Ge  tau(  89) = (    0.53028425169    0.35382978624    0.88408551111  )
        90           Ge  tau(  90) = (    0.61882876468    0.44198599881    0.97206899872  )
        91           Si  tau(  91) = (    0.70690985669    0.53064129719    0.88415707849  )
        92           Si  tau(  92) = (    0.79524663512    0.61881924647    0.97205000095  )
        93           Ge  tau(  93) = (    0.88384921123    0.70696436355    0.88365066871  )
        94           Ge  tau(  94) = (    0.97201189615    0.79536417756    0.97220667093  )
        95           Si  tau(  95) = (    1.06087089402    0.88359844040    0.88395744249  )
        96           Ge  tau(  96) = (    1.14889380158    0.97234272892    0.97248756652  )
        97           Si  tau(  97) = (   -0.00002552178    0.53020130609    0.53047380909  )
        98           Si  tau(  98) = (    0.08851815135    0.61883883257    0.61882193513  )
        99           Ge  tau(  99) = (    0.17649407833    0.70707573677    0.53042283076  )
       100           Ge  tau( 100) = (    0.26514385394    0.79580708490    0.61878752348  )
       101           Si  tau( 101) = (    0.35347121902    0.88377905551    0.53045070124  )
       102           Si  tau( 102) = (    0.44163908908    0.97241198947    0.61891357381  )
       103           Si  tau( 103) = (    0.53038235089    1.06086666206    0.53034265508  )
       104           Si  tau( 104) = (    0.61840224562    1.14880934412    0.61875776446  )
       105           Ge  tau( 105) = (    0.17677654936    0.53015413250    0.70703276966  )
       106           Si  tau( 106) = (    0.26506045254    0.61850736707    0.79523757101  )
       107           Ge  tau( 107) = (    0.35347885226    0.70709201184    0.70706617262  )
       108           Ge  tau( 108) = (    0.44181093607    0.79565877875    0.79572955299  )
       109           Ge  tau( 109) = (    0.53007537085    0.88412121687    0.70714661809  )
       110           Ge  tau( 110) = (    0.61885430049    0.97204703643    0.79555802138  )
       111           Ge  tau( 111) = (    0.70689242439    1.06073718536    0.70736145464  )
       112           Si  tau( 112) = (    0.79572128320    1.14874119097    0.79546068599  )
       113           Si  tau( 113) = (    0.35359798969    0.53046602144    0.88390229967  )
       114           Si  tau( 114) = (    0.44173014526    0.61879706320    0.97249970078  )
       115           Si  tau( 115) = (    0.53059545661    0.70715117443    0.88399410285  )
       116           Si  tau( 116) = (    0.61903775843    0.79519898812    0.97236221627  )
       117           Si  tau( 117) = (    0.70707080169    0.88398399150    0.88395232279  )
       118           Si  tau( 118) = (    0.79526996537    0.97257220061    0.97212044823  )
       119           Ge  tau( 119) = (    0.88415177726    1.06076012300    0.88397897762  )
       120           Ge  tau( 120) = (    0.97216655578    1.14934129757    0.97226413840  )
       121           Ge  tau( 121) = (    0.53015187485    0.53014587588    1.06091508650  )
       122           Si  tau( 122) = (    0.61890952400    0.61870752137    1.14937151659  )
       123           Si  tau( 123) = (    0.70742709317    0.70717601290    1.06090952431  )
       124           Si  tau( 124) = (    0.79578058792    0.79530404004    1.14930694227  )
       125           Ge  tau( 125) = (    0.88397001779    0.88398045164    1.06063499499  )
       126           Ge  tau( 126) = (    0.97194869951    0.97222731519    1.14924743540  )
       127           Ge  tau( 127) = (    1.06072135010    1.06054755945    1.06045084426  )
       128           Ge  tau( 128) = (    1.14896171983    1.14918581113    1.14889128235  )

   Crystallographic axes

     site n.     atom                  positions (cryst. coord.)
         1           Ge  tau(   1) = (   -0.00006337638   -0.00013957669    0.00007714686  )
         2           Si  tau(   2) = (    0.06260394369    0.06273438416    0.06246294156  )
         3           Ge  tau(   3) = (   -0.00000661503    0.00009882876    0.25032448776  )
         4           Ge  tau(   4) = (    0.06214394692    0.06264088839    0.31273218116  )
         5           Si  tau(   5) = (    0.00001201461    0.00000408473    0.50008952145  )
         6           Si  tau(   6) = (    0.06273995102    0.06212171858    0.56249955868  )
         7           Ge  tau(   7) = (   -0.00002602203   -0.00026052183    0.74979476673  )
         8           Si  tau(   8) = (    0.06275036018    0.06265128225    0.81262476647  )
         9           Ge  tau(   9) = (   -0.00026505080    0.24983056560    0.00058880075  )
        10           Ge  tau(  10) = (    0.06272025771    0.31211039588    0.06250892832  )
        11           Si  tau(  11) = (   -0.00031825259    0.24996739121    0.24984338863  )
        12           Ge  tau(  12) = (    0.06247844332    0.31250370388    0.31242189573  )
        13           Ge  tau(  13) = (   -0.00045307316    0.25014191042    0.50003236635  )
        14           Ge  tau(  14) = (    0.06281582066    0.31261422436    0.56242999366  )
        15           Si  tau(  15) = (    0.00024423938    0.24974361807    0.75015016516  )
        16           Si  tau(  16) = (    0.06245178057    0.31243487925    0.81214754961  )
        17           Si  tau(  17) = (   -0.00010809995    0.49992640760   -0.00034261613  )
        18           Ge  tau(  18) = (    0.06234938303    0.56229167904    0.06242924396  )
        19           Si  tau(  19) = (   -0.00000053397    0.49978923712    0.25002854550  )
        20           Ge  tau(  20) = (    0.06251980383    0.56294092062    0.31242122695  )
        21           Ge  tau(  21) = (   -0.00010968983    0.49968324172    0.50023356164  )
        22           Ge  tau(  22) = (    0.06270573113    0.56241871261    0.56275718925  )
        23           Ge  tau(  23) = (    0.00049614964    0.49989228111    0.74966390020  )
        24           Si  tau(  24) = (    0.06249314451    0.56286808731    0.81260689335  )
        25           Ge  tau(  25) = (   -0.00046905317    0.75037394645    0.00006320018  )
        26           Si  tau(  26) = (    0.06234166377    0.81294293729    0.06236344651  )
        27           Si  tau(  27) = (   -0.00025907214    0.74996019556    0.25047185541  )
        28           Ge  tau(  28) = (    0.06230087425    0.81267404220    0.31256902914  )
        29           Ge  tau(  29) = (    0.00013149195    0.75022128215    0.50013943368  )
        30           Si  tau(  30) = (    0.06284074221    0.81231098893    0.56233486975  )
        31           Ge  tau(  31) = (   -0.00030689154    0.75029869191    0.75014479478  )
        32           Ge  tau(  32) = (    0.06245700447    0.81277057648    0.81236487453  )
        33           Ge  tau(  33) = (    0.24984168599    0.00043288767    0.00003908087  )
        34           Si  tau(  34) = (    0.31288617543    0.06221457557    0.06237531920  )
        35           Ge  tau(  35) = (    0.25003981165   -0.00018509693    0.25023304698  )
        36           Ge  tau(  36) = (    0.31247756057    0.06248757170    0.31273877266  )
        37           Ge  tau(  37) = (    0.25034630632   -0.00039811599    0.49993636177  )
        38           Si  tau(  38) = (    0.31238604885    0.06228891889    0.56285017759  )
        39           Ge  tau(  39) = (    0.25031997331    0.00007791199    0.74953852537  )
        40           Ge  tau(  40) = (    0.31272101823    0.06234516110    0.81267500402  )
        41           Ge  tau(  41) = (    0.25013734737    0.25006221566   -0.00053796654  )
        42           Ge  tau(  42) = (    0.31246281647    0.31259199614    0.06259704318  )
        43           Si  tau(  43) = (    0.24996712261    0.25025191015    0.24998085100  )
        44           Si  tau(  44) = (    0.31268334226    0.31232411590    0.31257976905  )
        45           Si  tau(  45) = (    0.25050678717    0.24995330530    0.49973204988  )
        46           Si  tau(  46) = (    0.31234445638    0.31254954143    0.56248653572  )
        47           Ge  tau(  47) = (    0.25000295936    0.24970735292    0.75045169823  )
        48           Ge  tau(  48) = (    0.31297393251    0.31240143994    0.81246698105  )
        49           Si  tau(  49) = (    0.25017328957    0.50018849633   -0.00026182509  )
        50           Ge  tau(  50) = (    0.31203181238    0.56256454087    0.06259940529  )
        51           Si  tau(  51) = (    0.24977144019    0.50028677069    0.25013857219  )
        52           Si  tau(  52) = (    0.31264708472    0.56246301227    0.31222084013  )
        53           Si  tau(  53) = (    0.24994034346    0.50006349357    0.49977432393  )
        54           Si  tau(  54) = (    0.31264161243    0.56194758036    0.56277139277  )
        55           Si  tau(  55) = (    0.25009098410    0.49971105869    0.75011032388  )
        56           Si  tau(  56) = (    0.31243555601    0.56232083352    0.81224905733  )
        57           Si  tau(  57) = (    0.24989057559    0.74988236712   -0.00028427409  )
        58           Si  tau(  58) = (    0.31295413180    0.81239985090    0.06250892254  )
        59           Ge  tau(  59) = (    0.24992693226    0.75007058723    0.25005956894  )
        60           Si  tau(  60) = (    0.31281324142    0.81205902162    0.31255532717  )
        61           Si  tau(  61) = (    0.25021110004    0.74966735724    0.49993065240  )
        62           Ge  tau(  62) = (    0.31235548711    0.81217042854    0.56290447649  )
        63           Ge  tau(  63) = (    0.24950155831    0.75015110106    0.75022373482  )
        64           Si  tau(  64) = (    0.31315862617    0.81222195094    0.81230786119  )
        65           Si  tau(  65) = (    0.50018573230   -0.00013186358    0.00023573607  )
        66           Si  tau(  66) = (    0.56253780023    0.06274929159    0.06237534414  )
        67           Si  tau(  67) = (    0.50040471683   -0.00020520820    0.24997399413  )
        68           Si  tau(  68) = (    0.56248762215    0.06214314239    0.31289867439  )
        69           Si  tau(  69) = (    0.49958475911    0.00024087812    0.50011363382  )
        70           Si  tau(  70) = (    0.56253861296    0.06255226369    0.56217800685  )
        71           Si  tau(  71) = (    0.50026082656    0.00019762162    0.74977614220  )
        72           Ge  tau(  72) = (    0.56229936320    0.06238885619    0.81295607268  )
        73           Si  tau(  73) = (    0.50038581453    0.24990308649   -0.00010533554  )
        74           Si  tau(  74) = (    0.56232264075    0.31256063264    0.06289660046  )
        75           Si  tau(  75) = (    0.50000473359    0.25040358517    0.25000904444  )
        76           Ge  tau(  76) = (    0.56283271132    0.31256410707    0.31238758150  )
        77           Ge  tau(  77) = (    0.49997146999    0.24989758144    0.50034494980  )
        78           Ge  tau(  78) = (    0.56255039663    0.31202845914    0.56261438536  )
        79           Ge  tau(  79) = (    0.49957652376    0.25001410237    0.75036363646  )
        80           Si  tau(  80) = (    0.56252527835    0.31224401779    0.81248575956  )
        81           Ge  tau(  81) = (    0.49995089327    0.49990392140    0.00033542602  )
        82           Si  tau(  82) = (    0.56238771032    0.56253328261    0.06289670165  )
        83           Ge  tau(  83) = (    0.50017776898    0.50024561174    0.25005071296  )
        84           Ge  tau(  84) = (    0.56223100802    0.56264415337    0.31241923910  )
        85           Si  tau(  85) = (    0.49978255696    0.49991976101    0.50017942423  )
        86           Ge  tau(  86) = (    0.56250854426    0.56246136331    0.56269668922  )
        87           Ge  tau(  87) = (    0.49996207001    0.50007893086    0.74989201868  )
        88           Ge  tau(  88) = (    0.56270099986    0.56240202723    0.81247084147  )
        89           Ge  tau(  89) = (    0.50037071096    0.74991500915    0.00002017151  )
        90           Ge  tau(  90) = (    0.56230986183    0.81240329972    0.06275273207  )
        91           Si  tau(  91) = (    0.50055277210    0.74983415957    0.24988734714  )
        92           Si  tau(  92) = (    0.56259014442    0.81209615023    0.31255242659  )
        93           Ge  tau(  93) = (    0.49975890476    0.74991185533    0.50003968629  )
        94           Ge  tau(  94) = (    0.56254513004    0.81236272943    0.56226967690  )
        95           Si  tau(  95) = (    0.49970174779    0.75040285594    0.74989515031  )
        96           Ge  tau(  96) = (    0.56281209221    0.81249301361    0.81228818231  )
        97           Si  tau(  97) = (    0.75002861320    0.00017464210   -0.00021073535  )
        98           Si  tau(  98) = (    0.81256653657    0.06257983679    0.06260373337  )
        99           Ge  tau(  99) = (    0.75024346919   -0.00011230813    0.24971262737  )
       100           Ge  tau( 100) = (    0.81278442311    0.06231328483    0.31265674939  )
       101           Si  tau( 101) = (    0.75006955524    0.00010102063    0.49978277121  )
       102           Si  tau( 102) = (    0.81295110214    0.06232486787    0.56224712157  )
       103           Si  tau( 103) = (    0.75011794150   -0.00010016598    0.75017407986  )
       104           Si  tau( 104) = (    0.81258226730    0.06247335502    0.81207948773  )
       105           Ge  tau( 105) = (    0.74982335130    0.25007198059   -0.00007218697  )
       106           Si  tau( 106) = (    0.81224258917    0.31239316906    0.06245891777  )
       107           Ge  tau( 107) = (    0.75001354847    0.24992902235    0.24996556452  )
       108           Ge  tau( 108) = (    0.81287397197    0.31245755385    0.31235746395  )
       109           Ge  tau( 109) = (    0.75037638752    0.24967995037    0.49995982816  )
       110           Ge  tau( 110) = (    0.81228945040    0.31279949310    0.56239265179  )
       111           Ge  tau( 111) = (    0.75038611130    0.24997405136    0.74972280236  )
       112           Si  tau( 112) = (    0.81209841591    0.31285287455    0.81246695602  )
       113           Si  tau( 113) = (    0.75007789463    0.49994872538    0.00011434727  )
       114           Si  tau( 114) = (    0.81286635152    0.56245591473    0.06224484761  )
       115           Si  tau( 115) = (    0.74992196998    0.50023447933    0.25014081154  )
       116           Si  tau( 116) = (    0.81212871699    0.56299911680    0.31245247679  )
       117           Si  tau( 117) = (    0.75014519789    0.49995216549    0.49999695182  )
       118           Si  tau( 118) = (    0.81276457393    0.56202134821    0.56266022256  )
       119           Ge  tau( 119) = (    0.74994848839    0.50018657062    0.75019286398  )
       120           Ge  tau( 120) = (    0.81277602675    0.56221310400    0.81263802408  )
       121           Ge  tau( 121) = (    0.75017601001    0.75018449384   -0.00043652230  )
       122           Si  tau( 122) = (    0.81258555605    0.81287123091    0.06239901182  )
       123           Si  tau( 123) = (    0.74999877830    0.75035385943    0.25009913013  )
       124           Si  tau( 124) = (    0.81234576231    0.81301970278    0.31238399733  )
       125           Ge  tau( 125) = (    0.74998957517    0.74997481947    0.50014756841  )
       126           Ge  tau( 126) = (    0.81283766587    0.81244364379    0.56209938898  )
       127           Ge  tau( 127) = (    0.74972909454    0.74997487164    0.75011164757  )
       128           Ge  tau( 128) = (    0.81254727307    0.81223036011    0.81264688672  )

     number of k points=     8  gaussian smearing, width (Ry)=  0.0150
                       cart. coord. in units 2pi/alat
        k(    1) = (   0.0000000   0.0000000   0.0000000), wk =   0.2500000
        k(    2) = (  -0.3535534  -0.3535534   0.3535534), wk =   0.2500000
        k(    3) = (  -0.7071068   0.0000000   0.0000000), wk =   0.2500000
        k(    4) = (   0.3535534   0.3535534   0.3535534), wk =   0.2500000
        k(    5) = (   0.3535534  -0.3535534  -0.3535534), wk =   0.2500000
        k(    6) = (  -0.3535534   0.3535534  -0.3535534), wk =   0.2500000
        k(    7) = (   0.0000000  -0.7071068   0.0000000), wk =   0.2500000
        k(    8) = (   0.0000000   0.0000000  -0.7071068), wk =   0.2500000

                       cryst. coord.
        k(    1) = (   0.0000000   0.0000000   0.0000000), wk =   0.2500000
        k(    2) = (   0.0000000   0.0000000  -0.5000000), wk =   0.2500000
        k(    3) = (   0.0000000  -0.5000000  -0.5000000), wk =   0.2500000
        k(    4) = (   0.5000000   0.5000000   0.5000000), wk =   0.2500000
        k(    5) = (  -0.5000000   0.0000000   0.0000000), wk =   0.2500000
        k(    6) = (   0.0000000  -0.5000000   0.0000000), wk =   0.2500000
        k(    7) = (  -0.5000000   0.0000000  -0.5000000), wk =   0.2500000
        k(    8) = (  -0.5000000  -0.5000000   0.0000000), wk =   0.2500000

     Dense  grid:   876295 G-vectors     FFT dimensions: ( 135, 135, 135)

     Smooth grid:   513103 G-vectors     FFT dimensions: ( 120, 120, 120)

     Largest allocated arrays     est. size (Mb)     dimensions
        Kohn-Sham Wavefunctions        42.47 Mb     (    4028,  691)
        NL pseudopotentials           141.61 Mb     (    4028, 2304)
        Each V/rho on FFT grid          2.50 Mb     (  164025)
        Each G-vector array             0.42 Mb     (   54770)
        G-vector shells                 0.02 Mb     (    2932)
     Largest temporary arrays     est. size (Mb)     dimensions
        Auxiliary wavefunctions       169.88 Mb     (    4028, 2764)
        Each subspace H/S matrix      116.57 Mb     (    2764, 2764)
        Each <psi_i|beta_j> matrix     24.29 Mb     (    2304,  691)
        Arrays for rho mixing          20.02 Mb     (  164025,    8)

     Check: negative/imaginary core charge=   -0.000001    0.000000

     Initial potential from superposition of free atoms

     starting charge 1151.90680, renormalised to 1152.00000
     Starting wfc are  832 randomized atomic wfcs

     total cpu time spent up to now is      836.5 secs

     Self-consistent Calculation

     iteration #  1     ecut=    35.00 Ry     beta=0.30
     Davidson diagonalization with overlap
     ethr =  1.00E-02,  avg # of iterations =  3.0

     Threshold (ethr) on eigenvalues was too large:
     Diagonalizing with lowered threshold

     Davidson diagonalization with overlap
     ethr =  2.43E-04,  avg # of iterations =  3.8

     total cpu time spent up to now is     5637.7 secs

     total energy              =  -14256.05995398 Ry
     Harris-Foulkes estimate   =  -14256.35251224 Ry
     estimated scf accuracy    <       2.81614178 Ry

     iteration #  2     ecut=    35.00 Ry     beta=0.30
     Davidson diagonalization with overlap
     ethr =  2.44E-04,  avg # of iterations =  1.0

     total cpu time spent up to now is     7315.9 secs

     total energy              =  -14255.50351868 Ry
     Harris-Foulkes estimate   =  -14256.07375171 Ry
     estimated scf accuracy    <       1.73762948 Ry

     iteration #  3     ecut=    35.00 Ry     beta=0.30
     Davidson diagonalization with overlap
     ethr =  1.51E-04,  avg # of iterations =  2.1

     total cpu time spent up to now is     9342.8 secs

     total energy              =  -14255.60992813 Ry
     Harris-Foulkes estimate   =  -14255.60881018 Ry
     estimated scf accuracy    <       0.02403638 Ry

     iteration #  4     ecut=    35.00 Ry     beta=0.30
     Davidson diagonalization with overlap
     ethr =  2.09E-06,  avg # of iterations =  9.9

     total cpu time spent up to now is    15633.0 secs

     total energy              =  -14255.61412320 Ry
     Harris-Foulkes estimate   =  -14255.61463486 Ry
     estimated scf accuracy    <       0.01039911 Ry

     iteration #  5     ecut=    35.00 Ry     beta=0.30
     Davidson diagonalization with overlap
     ethr =  9.03E-07,  avg # of iterations =  2.0

     total cpu time spent up to now is    17828.7 secs

     total energy              =  -14255.61499622 Ry
     Harris-Foulkes estimate   =  -14255.61513729 Ry
     estimated scf accuracy    <       0.00066805 Ry

     iteration #  6     ecut=    35.00 Ry     beta=0.30
     Davidson diagonalization with overlap
     ethr =  5.80E-08,  avg # of iterations =  2.0

     total cpu time spent up to now is    19692.0 secs

     total energy              =  -14255.61496773 Ry
     Harris-Foulkes estimate   =  -14255.61502964 Ry
     estimated scf accuracy    <       0.00018638 Ry

     iteration #  7     ecut=    35.00 Ry     beta=0.30
     Davidson diagonalization with overlap
     ethr =  1.62E-08,  avg # of iterations =  2.0

     total cpu time spent up to now is    21763.9 secs

     total energy              =  -14255.61499205 Ry
     Harris-Foulkes estimate   =  -14255.61498889 Ry
     estimated scf accuracy    <       0.00002810 Ry

     iteration #  8     ecut=    35.00 Ry     beta=0.30
     Davidson diagonalization with overlap
     ethr =  2.44E-09,  avg # of iterations =  2.1

     total cpu time spent up to now is    23802.6 secs

     total energy              =  -14255.61499168 Ry
     Harris-Foulkes estimate   =  -14255.61499486 Ry
     estimated scf accuracy    <       0.00001466 Ry

     iteration #  9     ecut=    35.00 Ry     beta=0.30
     Davidson diagonalization with overlap
     ethr =  1.27E-09,  avg # of iterations =  2.0

     total cpu time spent up to now is    26260.5 secs

     total energy              =  -14255.61499479 Ry
     Harris-Foulkes estimate   =  -14255.61499425 Ry
     estimated scf accuracy    <       0.00000267 Ry

     iteration # 10     ecut=    35.00 Ry     beta=0.30
     Davidson diagonalization with overlap
     ethr =  2.32E-10,  avg # of iterations =  2.4

     total cpu time spent up to now is    28263.7 secs

     total energy              =  -14255.61499417 Ry
     Harris-Foulkes estimate   =  -14255.61499494 Ry
     estimated scf accuracy    <       0.00000194 Ry

     iteration # 11     ecut=    35.00 Ry     beta=0.30
     Davidson diagonalization with overlap
     ethr =  1.69E-10,  avg # of iterations =  2.0

     total cpu time spent up to now is    30819.8 secs

     total energy              =  -14255.61499476 Ry
     Harris-Foulkes estimate   =  -14255.61499462 Ry
     estimated scf accuracy    <       0.00000019 Ry

     iteration # 12     ecut=    35.00 Ry     beta=0.30
     Davidson diagonalization with overlap
     ethr =  1.69E-11,  avg # of iterations =  2.0

     total cpu time spent up to now is    32683.3 secs

     total energy              =  -14255.61499482 Ry
     Harris-Foulkes estimate   =  -14255.61499477 Ry
     estimated scf accuracy    <       0.00000007 Ry

     iteration # 13     ecut=    35.00 Ry     beta=0.30
     Davidson diagonalization with overlap
     ethr =  6.51E-12,  avg # of iterations =  2.0

     total cpu time spent up to now is    35214.2 secs

     total energy              =  -14255.61499487 Ry
     Harris-Foulkes estimate   =  -14255.61499484 Ry
     estimated scf accuracy    <          3.4E-09 Ry

     iteration # 14     ecut=    35.00 Ry     beta=0.30
     Davidson diagonalization with overlap
     ethr =  2.95E-13,  avg # of iterations =  2.0

     total cpu time spent up to now is    37540.1 secs

     total energy              =  -14255.61499489 Ry
     Harris-Foulkes estimate   =  -14255.61499487 Ry
     estimated scf accuracy    <          1.4E-09 Ry

     iteration # 15     ecut=    35.00 Ry     beta=0.30
     Davidson diagonalization with overlap
     ethr =  1.24E-13,  avg # of iterations =  2.0

     total cpu time spent up to now is    39518.6 secs

     End of self-consistent calculation

          k = 0.0000 0.0000 0.0000 ( 64071 PWs)   bands (ev):

   -17.3342 -17.3331 -17.3258 -17.3248 -17.3196 -17.3194 -17.3172 -17.3152
   -17.3131 -17.3124 -17.3111 -17.3103 -17.3092 -17.3066 -17.3021 -17.3010
   -17.2989 -17.2973 -17.2953 -17.2926 -17.2892 -17.2870 -17.2851 -17.2847
   -17.2826 -17.2798 -17.2775 -17.2727 -17.2701 -17.2669 -17.2664 -17.2658
   -17.2656 -17.2625 -17.2559 -17.2547 -17.2497 -17.2473 -17.2460 -17.2416
   -17.2409 -17.2374 -17.2342 -17.2333 -17.2311 -17.2297 -17.2279 -17.2273
   -17.2235 -17.2214 -17.2202 -17.2188 -17.2184 -17.2159 -17.2158 -17.2133
   -17.2082 -17.2074 -17.2060 -17.2056 -17.2042 -17.2038 -17.2027 -17.2010
   -17.1972 -17.1966 -17.1953 -17.1941 -17.1918 -17.1871 -17.1858 -17.1836
   -17.1830 -17.1819 -17.1803 -17.1779 -17.1753 -17.1739 -17.1722 -17.1685
   -17.1675 -17.1652 -17.1650 -17.1622 -17.1613 -17.1597 -17.1587 -17.1562
   -17.1543 -17.1536 -17.1519 -17.1510 -17.1467 -17.1454 -17.1432 -17.1426
   -17.1400 -17.1393 -17.1374 -17.1367 -17.1356 -17.1349 -17.1335 -17.1318
   -17.1312 -17.1307 -17.1299 -17.1288 -17.1263 -17.1254 -17.1249 -17.1227
   -17.1197 -17.1193 -17.1182 -17.1162 -17.1151 -17.1140 -17.1130 -17.1116
   -17.1107 -17.1082 -17.1073 -17.1063 -17.1043 -17.1038 -17.1029 -17.1016
   -17.1004 -17.0986 -17.0962 -17.0952 -17.0937 -17.0931 -17.0919 -17.0893
   -17.0889 -17.0861 -17.0848 -17.0842 -17.0831 -17.0816 -17.0810 -17.0782
   -17.0774 -17.0770 -17.0758 -17.0739 -17.0719 -17.0694 -17.0680 -17.0673
   -17.0663 -17.0642 -17.0634 -17.0616 -17.0614 -17.0609 -17.0597 -17.0589
   -17.0577 -17.0572 -17.0566 -17.0563 -17.0553 -17.0536 -17.0535 -17.0533
   -17.0518 -17.0514 -17.0507 -17.0502 -17.0499 -17.0490 -17.0483 -17.0477
   -17.0468 -17.0466 -17.0458 -17.0447 -17.0445 -17.0442 -17.0437 -17.0435
   -17.0424 -17.0415 -17.0411 -17.0407 -17.0391 -17.0387 -17.0386 -17.0378
   -17.0370 -17.0362 -17.0357 -17.0356 -17.0350 -17.0341 -17.0337 -17.0328
   -17.0320 -17.0318 -17.0311 -17.0303 -17.0297 -17.0291 -17.0288 -17.0284
   -17.0281 -17.0280 -17.0272 -17.0269 -17.0267 -17.0263 -17.0259 -17.0251
   -17.0248 -17.0241 -17.0233 -17.0227 -17.0218 -17.0216 -17.0207 -17.0200
   -17.0195 -17.0193 -17.0175 -17.0170 -17.0166 -17.0159 -17.0156 -17.0156
   -17.0154 -17.0140 -17.0135 -17.0128 -17.0125 -17.0121 -17.0117 -17.0114
   -17.0108 -17.0106 -17.0098 -17.0084 -17.0080 -17.0073 -17.0072 -17.0060
   -17.0058 -17.0051 -17.0040 -17.0035 -17.0021 -17.0016 -17.0000 -16.9989
   -16.9986 -16.9975 -16.9950 -16.9948 -16.9943 -16.9934 -16.9927 -16.9918
   -16.9912 -16.9899 -16.9895 -16.9888 -16.9877 -16.9870 -16.9868 -16.9865
   -16.9852 -16.9848 -16.9843 -16.9803 -16.9798 -16.9784 -16.9766 -16.9749
   -16.9739 -16.9735 -16.9721 -16.9702 -16.9690 -16.9673 -16.9654 -16.9652
   -16.9595 -16.9590 -16.9568 -16.9560 -16.9533 -16.9528 -16.9511 -16.9468
   -16.9452 -16.9443 -16.9426 -16.9414 -16.9394 -16.9392 -16.9377 -16.9374
   -16.9359 -16.9354 -16.9346 -16.9326 -16.9318 -16.9305 -16.9297 -16.9284
   -16.9278 -16.9246 -16.9240 -16.9227 -16.9214 -16.9205 -16.9195 -16.9182
    -5.1723  -4.6092  -4.5426  -4.5046  -4.4839  -4.4103  -4.3550  -4.3161
    -4.2433  -4.1985  -4.1728  -4.0819  -4.0165  -3.9595  -3.9181  -3.4223
    -3.4080  -3.3186  -3.2865  -3.2278  -3.2217  -3.1749  -3.1622  -3.1132
    -3.1037  -3.0409  -2.9839  -2.9502  -2.9021  -2.8516  -2.8163  -2.7539
    -2.7427  -2.7252  -2.7048  -2.6603  -2.5763  -2.5695  -2.4818  -2.4757
    -2.4525  -2.4286  -2.4029  -2.3716  -2.3303  -2.3183  -2.2908  -2.2678
    -2.2427  -2.2195  -2.1827  -2.1471  -2.1060  -2.0807  -2.0301  -1.2333
    -1.1907  -1.1812  -1.1124  -1.0678  -1.0635  -0.9916  -0.9556  -0.9299
    -0.9002  -0.8748  -0.8297  -0.8069  -0.7598  -0.7465  -0.6941  -0.6572
    -0.5733  -0.0355  -0.0017   0.0427   0.0910   0.2087   0.2228   0.2433
     0.2689   0.2947   0.3424   0.3904   0.4099   0.4308   0.4553   0.4701
     0.4954   0.5003   0.5067   0.5478   0.5609   0.5871   0.6169   0.6321
     0.6667   0.6897   0.7141   0.7418   0.7593   1.2122   1.2393   1.2968
     1.3311   1.3642   1.3822   1.4260   1.4631   1.4695   1.4993   1.5167
     1.5838   2.9510   2.9876   3.0001   3.0341   3.0650   3.0968   3.1162
     3.1315   3.2107   3.2466   3.3051   3.3356   3.3715   3.3971   3.4059
     3.4074   3.4087   3.4133   3.4164   3.4174   3.4220   3.4249   3.4257
     3.4275   3.4338   3.4364   3.4681   3.4787   3.4856   3.4877   3.4879
     3.4913   3.4933   3.4960   3.4996   3.5026   3.5139   3.5199   3.6345
     3.6404   3.6444   3.6488   3.6564   3.6568   3.6639   3.6674   3.6690
     3.6728   3.6763   3.6787   3.6820   3.6854   3.6891   3.6911   3.6941
     3.6964   3.7007   3.7033   3.7066   3.7122   3.7161   3.7199   4.3551
     4.3562   4.3591   4.3612   4.3633   4.3645   5.0038   5.0107   5.0115
     5.0144   5.0171   5.0186   5.0199   5.0207   5.0220   5.0239   5.0247
     5.0276   5.0290   5.0302   5.0305   5.0327   5.0344   5.0376   5.0389
     5.0406   5.0417   5.0433   5.0504   5.0531   5.3488   5.3563   5.3598
     5.3626   5.3652   5.3697   5.3728   5.3763   5.3803   5.3873   5.3939
     5.3956   5.9008   5.9091   5.9132   5.9156   5.9231   5.9274   5.9307
     5.9321   5.9378   5.9414   5.9480   5.9499   6.0156   6.0282   6.0411
     6.0476   6.0494   6.0533   6.0694   6.0727   6.4839   6.4965   6.4987
     6.5063   6.5116   6.5218   6.5287   6.5344   6.5359   6.5479   6.5514
     6.5601   6.5635   6.5695   6.5708   6.5759   7.3665   7.3698   7.3750
     7.9356   7.9530   7.9578   7.9988   8.0319   8.0339   8.0732   8.1234
     8.1262   8.2414   8.2963   8.2986   8.3447   8.3506   8.3717   8.3761
     8.5213   8.5495   8.5801   8.6110   8.6250   8.6372   8.6617   8.6680
     8.6758   8.6863   8.7111   8.7134   8.7266   8.7324   8.7380   8.7444
     8.7468   8.7674   8.7758   8.7861   8.7970   8.8077   8.8169   8.8266
     8.8333   8.8538   8.8597   8.8828   8.8842   8.9000   8.9132   8.9529
     9.0884   9.4547   9.4919   9.5097   9.5310   9.5544   9.5685   9.5890
     9.6004   9.6216   9.6411   9.6525   9.6659   9.8725   9.8808   9.8857
    10.2528  10.2732  10.3101  10.3271  10.3658  10.3787  10.7233  10.7553
    10.7627  10.7772  10.7936  10.8013  10.8109  10.8254  10.8333  10.8520
    10.8652  10.8692  10.8775  10.8899  10.8948  10.9101  10.9187  10.9300
    10.9362  10.9472  10.9633  10.9703  10.9756  10.9928  11.5846  11.5912
    11.6026  11.6078  11.6230  11.6309  11.6356  11.6469  11.6550  11.6687
    11.6704  11.6774  11.6871  11.6932  11.6998  11.7073  11.7198  11.7213
    11.7308  11.7418  11.7476

     occupation numbers 
     1.0000   1.0000   1.0000   1.0000   1.0000   1.0000   1.0000   1.0000
     1.0000   1.0000   1.0000   1.0000   1.0000   1.0000   1.0000   1.0000
     1.0000   1.0000   1.0000   1.0000   1.0000   1.0000   1.0000   1.0000
     1.0000   1.0000   1.0000   1.0000   1.0000   1.0000   1.0000   1.0000
     1.0000   1.0000   1.0000   1.0000   1.0000   1.0000   1.0000   1.0000
     1.0000   1.0000   1.0000   1.0000   1.0000   1.0000   1.0000   1.0000
     1.0000   1.0000   1.0000   1.0000   1.0000   1.0000   1.0000   1.0000
     1.0000   1.0000   1.0000   1.0000   1.0000   1.0000   1.0000   1.0000
     1.0000   1.0000   1.0000   1.0000   1.0000   1.0000   1.0000   1.0000
     1.0000   1.0000   1.0000   1.0000   1.0000   1.0000   1.0000   1.0000
     1.0000   1.0000   1.0000   1.0000   1.0000   1.0000   1.0000   1.0000
     1.0000   1.0000   1.0000   1.0000   1.0000   1.0000   1.0000   1.0000
     1.0000   1.0000   1.0000   1.0000   1.0000   1.0000   1.0000   1.0000
     1.0000   1.0000   1.0000   1.0000   1.0000   1.0000   1.0000   1.0000
     1.0000   1.0000   1.0000   1.0000   1.0000   1.0000   1.0000   1.0000
     1.0000   1.0000   1.0000   1.0000   1.0000   1.0000   1.0000   1.0000
     1.0000   1.0000   1.0000   1.0000   1.0000   1.0000   1.0000   1.0000
     1.0000   1.0000   1.0000   1.0000   1.0000   1.0000   1.0000   1.0000
     1.0000   1.0000   1.0000   1.0000   1.0000   1.0000   1.0000   1.0000
     1.0000   1.0000   1.0000   1.0000   1.0000   1.0000   1.0000   1.0000
     1.0000   1.0000   1.0000   1.0000   1.0000   1.0000   1.0000   1.0000
     1.0000   1.0000   1.0000   1.0000   1.0000   1.0000   1.0000   1.0000
     1.0000   1.0000   1.0000   1.0000   1.0000   1.0000   1.0000   1.0000
     1.0000   1.0000   1.0000   1.0000   1.0000   1.0000   1.0000   1.0000
     1.0000   1.0000   1.0000   1.0000   1.0000   1.0000   1.0000   1.0000
     1.0000   1.0000   1.0000   1.0000   1.0000   1.0000   1.0000   1.0000
     1.0000   1.0000   1.0000   1.0000   1.0000   1.0000   1.0000   1.0000
     1.0000   1.0000   1.0000   1.0000   1.0000   1.0000   1.0000   1.0000
     1.0000   1.0000   1.0000   1.0000   1.0000   1.0000   1.0000   1.0000
     1.0000   1.0000   1.0000   1.0000   1.0000   1.0000   1.0000   1.0000
     1.0000   1.0000   1.0000   1.0000   1.0000   1.0000   1.0000   1.0000
     1.0000   1.0000   1.0000   1.0000   1.0000   1.0000   1.0000   1.0000
     1.0000   1.0000   1.0000   1.0000   1.0000   1.0000   1.0000   1.0000
     1.0000   1.0000   1.0000   1.0000   1.0000   1.0000   1.0000   1.0000
     1.0000   1.0000   1.0000   1.0000   1.0000   1.0000   1.0000   1.0000
     1.0000   1.0000   1.0000   1.0000   1.0000   1.0000   1.0000   1.0000
     1.0000   1.0000   1.0000   1.0000   1.0000   1.0000   1.0000   1.0000
     1.0000   1.0000   1.0000   1.0000   1.0000   1.0000   1.0000   1.0000
     1.0000   1.0000   1.0000   1.0000   1.0000   1.0000   1.0000   1.0000
     1.0000   1.0000   1.0000   1.0000   1.0000   1.0000   1.0000   1.0000
     1.0000   1.0000   1.0000   1.0000   1.0000   1.0000   1.0000   1.0000
     1.0000   1.0000   1.0000   1.0000   1.0000   1.0000   1.0000   1.0000
     1.0000   1.0000   1.0000   1.0000   1.0000   1.0000   1.0000   1.0000
     1.0000   1.0000   1.0000   1.0000   1.0000   1.0000   1.0000   1.0000
     1.0000   1.0000   1.0000   1.0000   1.0000   1.0000   1.0000   1.0000
     1.0000   1.0000   1.0000   1.0000   1.0000   1.0000   1.0000   1.0000
     1.0000   1.0000   1.0000   1.0000   1.0000   1.0000   1.0000   1.0000
     1.0000   1.0000   1.0000   1.0000   1.0000   1.0000   1.0000   1.0000
     1.0000   1.0000   1.0000   1.0000   1.0000   1.0000   1.0000   1.0000
     1.0000   1.0000   1.0000   1.0000   1.0000   1.0000   1.0000   1.0000
     1.0000   1.0000   1.0000   1.0000   1.0000   1.0000   1.0000   1.0000
     1.0000   1.0000   1.0000   1.0000   1.0000   1.0000   1.0000   1.0000
     1.0000   1.0000   1.0000   1.0000   1.0000   1.0000   1.0000   1.0000
     1.0000   1.0000   1.0000   1.0000   1.0000   1.0000   1.0000   1.0000
     1.0000   1.0000   1.0000   1.0000   1.0000   1.0000   1.0000   1.0000
     1.0000   1.0000   1.0000   1.0000   1.0000   1.0000   1.0000   1.0000
     1.0000   1.0000   1.0000   1.0000   1.0000   1.0000   1.0000   1.0000
     1.0000   1.0000   1.0000   1.0000   1.0000   1.0000   1.0000   1.0000
     1.0000   1.0000   1.0000   1.0000   1.0000   1.0000   1.0000   1.0000
     1.0000   1.0000   1.0000   1.0000   1.0000   1.0000   1.0000   1.0000
     1.0000   1.0000   1.0000   1.0000   1.0000   1.0000   1.0000   1.0000
     1.0000   1.0000   1.0000   1.0000   1.0000   1.0000   1.0000   1.0000
     1.0000   1.0000   1.0000   1.0000   1.0000   1.0000   1.0000   1.0000
     1.0000   1.0000   1.0000   1.0000   1.0000   1.0000   1.0000   1.0000
     1.0000   1.0000   1.0000   1.0000   1.0000   1.0000   1.0000   1.0000
     1.0000   1.0000   1.0000   1.0000   1.0000   1.0000   1.0000   1.0000
     1.0000   1.0000   1.0000   1.0000   1.0000   1.0000   1.0000   1.0000
     1.0000   1.0000   1.0000   1.0000   1.0000   1.0000   1.0000   1.0000
     1.0000   1.0000   1.0000   1.0000   1.0000   1.0000   1.0000   1.0000
     1.0000   1.0000   1.0000   1.0000   1.0000   1.0000   1.0000   1.0000
     1.0000   1.0000   1.0000   1.0000   1.0000   1.0000   1.0000   1.0000
     1.0000   1.0000   1.0000   1.0000   1.0000   0.9365   0.9336   0.9288
     0.0078   0.0056   0.0051   0.0021   0.0010   0.0010   0.0004   0.0001
     0.0001   0.0000   0.0000   0.0000   0.0000   0.0000   0.0000   0.0000
     0.0000   0.0000   0.0000   0.0000   0.0000   0.0000   0.0000   0.0000
     0.0000   0.0000   0.0000   0.0000   0.0000   0.0000   0.0000   0.0000
     0.0000   0.0000   0.0000   0.0000   0.0000   0.0000   0.0000   0.0000
     0.0000   0.0000   0.0000   0.0000   0.0000   0.0000   0.0000   0.0000
     0.0000   0.0000   0.0000   0.0000   0.0000   0.0000   0.0000   0.0000
     0.0000   0.0000   0.0000   0.0000   0.0000   0.0000   0.0000   0.0000
     0.0000   0.0000   0.0000   0.0000   0.0000   0.0000   0.0000   0.0000
     0.0000   0.0000   0.0000   0.0000   0.0000   0.0000   0.0000   0.0000
     0.0000   0.0000   0.0000   0.0000   0.0000   0.0000   0.0000   0.0000
     0.0000   0.0000   0.0000   0.0000   0.0000   0.0000   0.0000   0.0000
     0.0000   0.0000   0.0000   0.0000   0.0000   0.0000   0.0000   0.0000
     0.0000   0.0000   0.0000   0.0000   0.0000   0.0000   0.0000   0.0000
     0.0000   0.0000   0.0000

          k =-0.3536-0.3536 0.3536 ( 64114 PWs)   bands (ev):

   -17.3342 -17.3331 -17.3259 -17.3248 -17.3196 -17.3195 -17.3172 -17.3152
   -17.3132 -17.3126 -17.3111 -17.3104 -17.3093 -17.3065 -17.3021 -17.3012
   -17.2989 -17.2973 -17.2954 -17.2927 -17.2891 -17.2870 -17.2852 -17.2846
   -17.2826 -17.2798 -17.2776 -17.2727 -17.2702 -17.2669 -17.2664 -17.2659
   -17.2656 -17.2626 -17.2559 -17.2547 -17.2496 -17.2473 -17.2460 -17.2417
   -17.2409 -17.2374 -17.2342 -17.2334 -17.2311 -17.2297 -17.2280 -17.2272
   -17.2235 -17.2212 -17.2201 -17.2188 -17.2185 -17.2160 -17.2158 -17.2132
   -17.2083 -17.2075 -17.2061 -17.2058 -17.2043 -17.2032 -17.2029 -17.2013
   -17.1976 -17.1964 -17.1953 -17.1941 -17.1918 -17.1870 -17.1859 -17.1837
   -17.1828 -17.1820 -17.1805 -17.1779 -17.1753 -17.1740 -17.1722 -17.1686
   -17.1675 -17.1652 -17.1651 -17.1622 -17.1611 -17.1598 -17.1587 -17.1563
   -17.1541 -17.1538 -17.1520 -17.1509 -17.1468 -17.1455 -17.1431 -17.1426
   -17.1401 -17.1395 -17.1375 -17.1367 -17.1356 -17.1346 -17.1335 -17.1318
   -17.1315 -17.1309 -17.1300 -17.1287 -17.1262 -17.1255 -17.1247 -17.1228
   -17.1196 -17.1195 -17.1185 -17.1163 -17.1153 -17.1141 -17.1130 -17.1116
   -17.1110 -17.1084 -17.1070 -17.1061 -17.1043 -17.1034 -17.1032 -17.1014
   -17.1003 -17.0986 -17.0961 -17.0952 -17.0940 -17.0931 -17.0918 -17.0893
   -17.0891 -17.0865 -17.0848 -17.0842 -17.0831 -17.0817 -17.0809 -17.0785
   -17.0773 -17.0770 -17.0756 -17.0739 -17.0714 -17.0694 -17.0681 -17.0674
   -17.0662 -17.0644 -17.0635 -17.0622 -17.0616 -17.0610 -17.0596 -17.0588
   -17.0579 -17.0573 -17.0568 -17.0564 -17.0551 -17.0538 -17.0534 -17.0533
   -17.0517 -17.0514 -17.0507 -17.0502 -17.0499 -17.0491 -17.0482 -17.0478
   -17.0474 -17.0468 -17.0462 -17.0450 -17.0446 -17.0443 -17.0436 -17.0434
   -17.0425 -17.0413 -17.0413 -17.0406 -17.0392 -17.0387 -17.0382 -17.0378
   -17.0371 -17.0365 -17.0360 -17.0355 -17.0348 -17.0339 -17.0338 -17.0327
   -17.0321 -17.0318 -17.0310 -17.0304 -17.0302 -17.0292 -17.0289 -17.0284
   -17.0282 -17.0281 -17.0275 -17.0274 -17.0267 -17.0263 -17.0257 -17.0250
   -17.0246 -17.0239 -17.0234 -17.0226 -17.0220 -17.0211 -17.0208 -17.0198
   -17.0196 -17.0193 -17.0175 -17.0170 -17.0168 -17.0161 -17.0159 -17.0157
   -17.0153 -17.0139 -17.0138 -17.0126 -17.0123 -17.0121 -17.0118 -17.0114
   -17.0109 -17.0104 -17.0100 -17.0084 -17.0083 -17.0077 -17.0072 -17.0059
   -17.0055 -17.0053 -17.0042 -17.0030 -17.0023 -17.0018 -17.0002 -16.9992
   -16.9986 -16.9974 -16.9951 -16.9949 -16.9940 -16.9929 -16.9928 -16.9921
   -16.9914 -16.9899 -16.9896 -16.9890 -16.9876 -16.9870 -16.9869 -16.9866
   -16.9854 -16.9849 -16.9842 -16.9805 -16.9798 -16.9783 -16.9766 -16.9748
   -16.9741 -16.9735 -16.9722 -16.9702 -16.9687 -16.9675 -16.9658 -16.9652
   -16.9593 -16.9592 -16.9568 -16.9562 -16.9534 -16.9529 -16.9510 -16.9469
   -16.9453 -16.9445 -16.9426 -16.9415 -16.9395 -16.9393 -16.9378 -16.9374
   -16.9359 -16.9354 -16.9346 -16.9327 -16.9320 -16.9306 -16.9297 -16.9285
   -16.9279 -16.9246 -16.9240 -16.9228 -16.9215 -16.9205 -16.9195 -16.9182
    -5.0293  -4.9337  -4.6283  -4.5484  -4.4814  -4.4361  -4.4210  -4.3335
    -4.1129  -4.0365  -4.0016  -3.8859  -3.8499  -3.7747  -3.6131  -3.6072
    -3.5194  -3.4777  -3.4430  -3.4036  -3.3301  -3.3094  -3.2408  -3.1360
    -3.0872  -3.0531  -3.0373  -3.0155  -2.9970  -2.9650  -2.9101  -2.8853
    -2.8431  -2.8012  -2.7888  -2.6976  -2.6794  -2.6130  -2.5464  -2.4777
    -2.3968  -2.3583  -2.2826  -2.2549  -2.1875  -2.1597  -2.0349  -1.9543
    -1.9134  -1.8714  -1.8508  -1.8312  -1.7866  -1.7753  -1.7565  -1.7127
    -1.6792  -1.6332  -1.6113  -1.5644  -1.5417  -1.5062  -1.4996  -1.4043
    -0.3949  -0.3446  -0.3264  -0.2916  -0.2498  -0.2244  -0.1840  -0.1513
    -0.1338  -0.1222  -0.1041  -0.0530  -0.0453  -0.0219   0.0244   0.0395
     0.0419   0.1051   0.1525   0.1675   0.2049   0.2299   0.2755   0.2899
     0.3093   0.3242   0.3636   0.3748   0.4076   0.4317   0.8232   0.9083
     0.9572   0.9733   1.0141   1.0453   1.0508   1.0754   1.1002   1.1285
     1.1515   1.1568   1.2201   1.2318   1.7573   1.8368   1.8814   1.9227
     1.9835   1.9990   2.2793   2.2834   2.3029   2.3399   2.3969   2.4024
     3.1764   3.1823   3.1845   3.1885   3.1910   3.1941   3.1955   3.1977
     3.1987   3.2014   3.2069   3.2103   3.2113   3.2191   3.2314   3.2317
     3.2370   3.2445   3.6348   3.6576   3.6955   3.7385   3.7430   3.7724
     3.8004   3.8034   3.8077   3.8129   3.8132   3.8160   3.8482   3.8580
     3.8661   3.8697   3.8706   3.8776   3.8802   3.8859   3.8965   3.8978
     3.9048   3.9113   4.2829   4.2851   4.2866   4.2874   4.2896   4.2914
     4.2943   4.2967   4.2994   4.3011   4.3026   4.3047   4.5244   4.5268
     4.5294   4.5385   4.5419   4.5437   4.5462   4.5468   4.5526   4.5619
     4.5675   4.5690   4.8394   4.8493   4.8516   4.8539   4.8711   4.8786
     4.8902   4.8918   4.8985   4.9036   4.9094   4.9160   5.0257   5.0303
     5.0320   5.0360   5.0376   5.0441   5.2995   5.3025   5.3067   5.3120
     5.3134   5.3165   5.3178   5.3192   5.3307   5.3317   5.3342   5.3403
     5.3474   5.3507   5.3534   5.3552   5.3589   5.3608   5.4477   5.5009
     5.6675   5.6721   5.6784   5.6860   5.6891   5.6974   5.9291   5.9463
     5.9516   5.9561   5.9593   5.9621   5.9701   5.9718   5.9764   5.9772
     5.9867   6.0004   6.1671   6.1718   6.1743   6.1758   6.4843   6.4887
     6.5059   6.5135   6.5221   6.5241   7.0313   7.0357   7.0658   7.0744
     8.1214   8.1449   8.1544   8.1752   8.1791   8.1987   8.2787   8.3086
     8.5538   8.5634   8.5767   8.5922   8.6072   8.6252   8.9624   8.9967
     9.0001   9.0217   9.0264   9.0563   9.0665   9.0862   9.1108   9.1272
     9.1342   9.1633   9.1853   9.2150   9.2172   9.2341   9.2474   9.2595
     9.2835   9.2893   9.3211   9.3451   9.3616   9.3738   9.3960   9.4048
     9.4715   9.4922   9.5076   9.5346   9.5655   9.5858   9.5900   9.6073
     9.6351   9.6414   9.6543   9.6678   9.6858   9.6864   9.7026   9.7226
     9.7313   9.7480   9.9908   9.9943  10.0069  10.0208  10.0263  10.0452
    10.0506  10.0785  10.0908  10.0944  10.1009  10.1210  10.1413  10.1507
    10.1720  10.1848  10.1854  10.2254  10.2925  10.3129  10.3380  10.3516
    10.4844  10.4967  10.5157  10.5216  10.5320  10.5467  10.6736  10.6951
    10.7152  10.7228  10.7333  10.7416  10.7568  10.7711  10.7802  10.7926
    10.7945  10.8069  10.8225  10.8385  10.8623  10.8705  10.8815  10.8931
    10.9072  10.9217  10.9574  10.9612  10.9935  11.0469  11.0635  11.0853
    11.1076  11.1223  11.1609

     occupation numbers 
     1.0000   1.0000   1.0000   1.0000   1.0000   1.0000   1.0000   1.0000
     1.0000   1.0000   1.0000   1.0000   1.0000   1.0000   1.0000   1.0000
     1.0000   1.0000   1.0000   1.0000   1.0000   1.0000   1.0000   1.0000
     1.0000   1.0000   1.0000   1.0000   1.0000   1.0000   1.0000   1.0000
     1.0000   1.0000   1.0000   1.0000   1.0000   1.0000   1.0000   1.0000
     1.0000   1.0000   1.0000   1.0000   1.0000   1.0000   1.0000   1.0000
     1.0000   1.0000   1.0000   1.0000   1.0000   1.0000   1.0000   1.0000
     1.0000   1.0000   1.0000   1.0000   1.0000   1.0000   1.0000   1.0000
     1.0000   1.0000   1.0000   1.0000   1.0000   1.0000   1.0000   1.0000
     1.0000   1.0000   1.0000   1.0000   1.0000   1.0000   1.0000   1.0000
     1.0000   1.0000   1.0000   1.0000   1.0000   1.0000   1.0000   1.0000
     1.0000   1.0000   1.0000   1.0000   1.0000   1.0000   1.0000   1.0000
     1.0000   1.0000   1.0000   1.0000   1.0000   1.0000   1.0000   1.0000
     1.0000   1.0000   1.0000   1.0000   1.0000   1.0000   1.0000   1.0000
     1.0000   1.0000   1.0000   1.0000   1.0000   1.0000   1.0000   1.0000
     1.0000   1.0000   1.0000   1.0000   1.0000   1.0000   1.0000   1.0000
     1.0000   1.0000   1.0000   1.0000   1.0000   1.0000   1.0000   1.0000
     1.0000   1.0000   1.0000   1.0000   1.0000   1.0000   1.0000   1.0000
     1.0000   1.0000   1.0000   1.0000   1.0000   1.0000   1.0000   1.0000
     1.0000   1.0000   1.0000   1.0000   1.0000   1.0000   1.0000   1.0000
     1.0000   1.0000   1.0000   1.0000   1.0000   1.0000   1.0000   1.0000
     1.0000   1.0000   1.0000   1.0000   1.0000   1.0000   1.0000   1.0000
     1.0000   1.0000   1.0000   1.0000   1.0000   1.0000   1.0000   1.0000
     1.0000   1.0000   1.0000   1.0000   1.0000   1.0000   1.0000   1.0000
     1.0000   1.0000   1.0000   1.0000   1.0000   1.0000   1.0000   1.0000
     1.0000   1.0000   1.0000   1.0000   1.0000   1.0000   1.0000   1.0000
     1.0000   1.0000   1.0000   1.0000   1.0000   1.0000   1.0000   1.0000
     1.0000   1.0000   1.0000   1.0000   1.0000   1.0000   1.0000   1.0000
     1.0000   1.0000   1.0000   1.0000   1.0000   1.0000   1.0000   1.0000
     1.0000   1.0000   1.0000   1.0000   1.0000   1.0000   1.0000   1.0000
     1.0000   1.0000   1.0000   1.0000   1.0000   1.0000   1.0000   1.0000
     1.0000   1.0000   1.0000   1.0000   1.0000   1.0000   1.0000   1.0000
     1.0000   1.0000   1.0000   1.0000   1.0000   1.0000   1.0000   1.0000
     1.0000   1.0000   1.0000   1.0000   1.0000   1.0000   1.0000   1.0000
     1.0000   1.0000   1.0000   1.0000   1.0000   1.0000   1.0000   1.0000
     1.0000   1.0000   1.0000   1.0000   1.0000   1.0000   1.0000   1.0000
     1.0000   1.0000   1.0000   1.0000   1.0000   1.0000   1.0000   1.0000
     1.0000   1.0000   1.0000   1.0000   1.0000   1.0000   1.0000   1.0000
     1.0000   1.0000   1.0000   1.0000   1.0000   1.0000   1.0000   1.0000
     1.0000   1.0000   1.0000   1.0000   1.0000   1.0000   1.0000   1.0000
     1.0000   1.0000   1.0000   1.0000   1.0000   1.0000   1.0000   1.0000
     1.0000   1.0000   1.0000   1.0000   1.0000   1.0000   1.0000   1.0000
     1.0000   1.0000   1.0000   1.0000   1.0000   1.0000   1.0000   1.0000
     1.0000   1.0000   1.0000   1.0000   1.0000   1.0000   1.0000   1.0000
     1.0000   1.0000   1.0000   1.0000   1.0000   1.0000   1.0000   1.0000
     1.0000   1.0000   1.0000   1.0000   1.0000   1.0000   1.0000   1.0000
     1.0000   1.0000   1.0000   1.0000   1.0000   1.0000   1.0000   1.0000
     1.0000   1.0000   1.0000   1.0000   1.0000   1.0000   1.0000   1.0000
     1.0000   1.0000   1.0000   1.0000   1.0000   1.0000   1.0000   1.0000
     1.0000   1.0000   1.0000   1.0000   1.0000   1.0000   1.0000   1.0000
     1.0000   1.0000   1.0000   1.0000   1.0000   1.0000   1.0000   1.0000
     1.0000   1.0000   1.0000   1.0000   1.0000   1.0000   1.0000   1.0000
     1.0000   1.0000   1.0000   1.0000   1.0000   1.0000   1.0000   1.0000
     1.0000   1.0000   1.0000   1.0000   1.0000   1.0000   1.0000   1.0000
     1.0000   1.0000   1.0000   1.0000   1.0000   1.0000   1.0000   1.0000
     1.0000   1.0000   1.0000   1.0000   1.0000   1.0000   1.0000   1.0000
     1.0000   1.0000   1.0000   1.0000   1.0000   1.0000   1.0000   1.0000
     1.0000   1.0000   1.0000   1.0000   1.0000   1.0000   1.0000   1.0000
     1.0000   1.0000   1.0000   1.0000   1.0000   1.0000   1.0000   1.0000
     1.0000   1.0000   1.0000   1.0000   1.0000   1.0000   1.0000   1.0000
     1.0000   1.0000   1.0000   1.0000   1.0000   1.0000   1.0000   1.0000
     1.0000   1.0000   1.0000   1.0000   1.0000   1.0000   1.0000   1.0000
     1.0000   1.0000   1.0000   1.0000   1.0000   1.0000   1.0000   1.0000
     1.0000   1.0000   1.0000   1.0000   1.0000   1.0000   1.0000   1.0000
     1.0000   1.0000   1.0000   1.0000   1.0000   1.0000   1.0000   1.0000
     1.0000   1.0000   1.0000   1.0000   1.0000   1.0000   1.0000   1.0000
     1.0000   1.0000   1.0000   1.0000   1.0000   1.0000   1.0000   1.0000
     1.0000   1.0000   1.0000   1.0000   1.0000   1.0000   1.0000   1.0000
     1.0000   1.0000   1.0000   1.0000   1.0000   1.0000   1.0000   1.0000
     1.0000   1.0000   1.0000   1.0000   1.0000   1.0000   1.0000   1.0000
     1.0000   1.0000   1.0000   1.0000   1.0000   1.0000   1.0000   1.0000
     1.0000   1.0000   1.0000   1.0000   0.9999   0.9999   0.9998   0.9998
     0.0001   0.0001   0.0000   0.0000   0.0000   0.0000   0.0000   0.0000
     0.0000   0.0000   0.0000   0.0000   0.0000   0.0000   0.0000   0.0000
     0.0000   0.0000   0.0000   0.0000   0.0000   0.0000   0.0000   0.0000
     0.0000   0.0000   0.0000   0.0000   0.0000   0.0000   0.0000   0.0000
     0.0000   0.0000   0.0000   0.0000   0.0000   0.0000   0.0000   0.0000
     0.0000   0.0000   0.0000   0.0000   0.0000   0.0000   0.0000   0.0000
     0.0000   0.0000   0.0000   0.0000   0.0000   0.0000   0.0000   0.0000
     0.0000   0.0000   0.0000   0.0000   0.0000   0.0000   0.0000   0.0000
     0.0000   0.0000   0.0000   0.0000   0.0000   0.0000   0.0000   0.0000
     0.0000   0.0000   0.0000   0.0000   0.0000   0.0000   0.0000   0.0000
     0.0000   0.0000   0.0000   0.0000   0.0000   0.0000   0.0000   0.0000
     0.0000   0.0000   0.0000   0.0000   0.0000   0.0000   0.0000   0.0000
     0.0000   0.0000   0.0000   0.0000   0.0000   0.0000   0.0000   0.0000
     0.0000   0.0000   0.0000   0.0000   0.0000   0.0000   0.0000   0.0000
     0.0000   0.0000   0.0000

          k =-0.7071 0.0000 0.0000 ( 64192 PWs)   bands (ev):

   -17.3342 -17.3331 -17.3259 -17.3248 -17.3197 -17.3195 -17.3170 -17.3152
   -17.3131 -17.3128 -17.3117 -17.3105 -17.3087 -17.3058 -17.3023 -17.3019
   -17.2989 -17.2965 -17.2945 -17.2940 -17.2894 -17.2870 -17.2851 -17.2846
   -17.2826 -17.2797 -17.2777 -17.2727 -17.2702 -17.2669 -17.2664 -17.2659
   -17.2656 -17.2627 -17.2558 -17.2547 -17.2500 -17.2473 -17.2455 -17.2417
   -17.2409 -17.2372 -17.2342 -17.2329 -17.2317 -17.2297 -17.2295 -17.2259
   -17.2234 -17.2215 -17.2199 -17.2192 -17.2186 -17.2162 -17.2151 -17.2133
   -17.2082 -17.2075 -17.2072 -17.2056 -17.2046 -17.2033 -17.2022 -17.2011
   -17.1979 -17.1961 -17.1947 -17.1937 -17.1920 -17.1875 -17.1869 -17.1837
   -17.1831 -17.1812 -17.1806 -17.1774 -17.1756 -17.1742 -17.1724 -17.1685
   -17.1671 -17.1652 -17.1652 -17.1622 -17.1610 -17.1606 -17.1582 -17.1557
   -17.1551 -17.1536 -17.1518 -17.1511 -17.1466 -17.1458 -17.1428 -17.1424
   -17.1412 -17.1398 -17.1375 -17.1363 -17.1352 -17.1350 -17.1331 -17.1317
   -17.1313 -17.1307 -17.1297 -17.1289 -17.1260 -17.1257 -17.1248 -17.1232
   -17.1200 -17.1193 -17.1186 -17.1163 -17.1158 -17.1141 -17.1132 -17.1113
   -17.1109 -17.1076 -17.1074 -17.1063 -17.1044 -17.1035 -17.1034 -17.1013
   -17.0993 -17.0990 -17.0962 -17.0957 -17.0951 -17.0926 -17.0912 -17.0894
   -17.0890 -17.0858 -17.0850 -17.0844 -17.0832 -17.0816 -17.0807 -17.0781
   -17.0776 -17.0769 -17.0756 -17.0740 -17.0715 -17.0696 -17.0685 -17.0672
   -17.0660 -17.0644 -17.0637 -17.0627 -17.0614 -17.0610 -17.0600 -17.0589
   -17.0578 -17.0572 -17.0570 -17.0560 -17.0550 -17.0538 -17.0536 -17.0531
   -17.0515 -17.0510 -17.0508 -17.0503 -17.0499 -17.0488 -17.0484 -17.0478
   -17.0474 -17.0469 -17.0462 -17.0451 -17.0446 -17.0443 -17.0437 -17.0435
   -17.0427 -17.0415 -17.0411 -17.0404 -17.0396 -17.0384 -17.0382 -17.0378
   -17.0371 -17.0365 -17.0356 -17.0352 -17.0351 -17.0347 -17.0333 -17.0325
   -17.0321 -17.0319 -17.0311 -17.0306 -17.0301 -17.0294 -17.0288 -17.0284
   -17.0283 -17.0281 -17.0273 -17.0272 -17.0267 -17.0261 -17.0257 -17.0253
   -17.0245 -17.0241 -17.0231 -17.0227 -17.0220 -17.0214 -17.0207 -17.0206
   -17.0196 -17.0187 -17.0177 -17.0171 -17.0164 -17.0162 -17.0159 -17.0157
   -17.0153 -17.0139 -17.0137 -17.0129 -17.0123 -17.0121 -17.0117 -17.0112
   -17.0107 -17.0105 -17.0098 -17.0090 -17.0081 -17.0077 -17.0067 -17.0060
   -17.0055 -17.0053 -17.0043 -17.0030 -17.0026 -17.0016 -17.0001 -16.9993
   -16.9984 -16.9971 -16.9953 -16.9950 -16.9936 -16.9931 -16.9927 -16.9922
   -16.9914 -16.9898 -16.9896 -16.9888 -16.9877 -16.9870 -16.9869 -16.9867
   -16.9854 -16.9849 -16.9840 -16.9803 -16.9801 -16.9782 -16.9771 -16.9749
   -16.9739 -16.9735 -16.9715 -16.9702 -16.9693 -16.9674 -16.9657 -16.9649
   -16.9603 -16.9592 -16.9570 -16.9551 -16.9534 -16.9530 -16.9512 -16.9471
   -16.9457 -16.9444 -16.9427 -16.9416 -16.9395 -16.9388 -16.9379 -16.9374
   -16.9360 -16.9354 -16.9347 -16.9329 -16.9326 -16.9305 -16.9292 -16.9285
   -16.9279 -16.9245 -16.9240 -16.9228 -16.9214 -16.9205 -16.9195 -16.9183
    -4.9648  -4.8893  -4.7522  -4.7034  -4.5979  -4.5507  -4.1289  -4.0340
    -3.9838  -3.9419  -3.9298  -3.8740  -3.8631  -3.8151  -3.7257  -3.6710
    -3.6431  -3.6052  -3.5864  -3.5195  -3.4453  -3.3588  -3.1958  -3.1680
    -3.0955  -3.0811  -3.0611  -2.9798  -2.9530  -2.8792  -2.8558  -2.7873
    -2.7634  -2.6980  -2.6648  -2.6293  -2.5807  -2.4946  -2.4511  -2.4394
    -2.3742  -2.3630  -2.3305  -2.3139  -2.3074  -2.2221  -2.1875  -2.1188
    -2.0855  -2.0413  -2.0167  -1.9784  -1.9331  -1.9186  -1.8675  -1.8503
    -1.5817  -1.4541  -1.3961  -1.3358  -1.1294  -1.0452  -1.0231  -0.9564
    -0.9171  -0.8629  -0.8323  -0.7394  -0.5125  -0.4443  -0.3836  -0.3244
    -0.0605  -0.0385   0.0105   0.0681   0.0760   0.1090   0.1224   0.1431
     0.1639   0.2258   0.2672   0.2740   0.3198   0.3434   0.3562   0.3974
     0.5161   0.5401   0.5571   0.5982   0.6101   0.6313   0.6532   0.6665
     0.7209   0.7364   0.8306   0.8647   0.8909   0.9482   0.9537   1.0587
     1.1241   1.1883   1.5287   1.5879   1.6444   1.6768   1.7043   1.7208
     1.7655   1.7979   2.3917   2.5022   2.5668   2.5920   2.6099   2.6193
     2.6614   2.6975   2.9650   2.9696   2.9749   2.9835   3.0237   3.0262
     3.0313   3.0366   3.0391   3.0419   3.0445   3.0477   3.6787   3.6958
     3.7033   3.7117   3.7204   3.7330   3.7415   3.7473   3.8179   3.8235
     3.8263   3.8282   3.8301   3.8326   3.8349   3.8422   3.8657   3.8694
     3.8724   3.8755   3.8770   3.8822   3.8847   3.8858   4.2013   4.2181
     4.2959   4.3347   4.4815   4.4851   4.4867   4.4909   4.4946   4.4973
     4.5005   4.5047   4.5139   4.5224   4.5265   4.5331   4.5350   4.5380
     4.5407   4.5456   4.6108   4.6150   4.6190   4.6263   4.6579   4.6593
     4.6622   4.6633   4.6676   4.6698   4.6717   4.6764   4.6786   4.6849
     4.6936   4.7048   4.7088   4.7142   4.7172   4.7336   4.7971   4.7993
     4.8010   4.8067   5.0805   5.0821   5.0846   5.0877   5.0978   5.1011
     5.1060   5.1089   5.2806   5.2942   5.3033   5.3096   5.3206   5.3352
     5.3629   5.3663   5.5791   5.6022   5.6340   5.6406   5.6475   5.6542
     5.6576   5.6608   5.6639   5.6720   5.6732   5.6802   5.6956   5.6976
     5.7997   5.8045   5.8161   5.8175   5.8225   5.8348   5.8397   5.8552
     5.9595   5.9697   5.9829   5.9848   5.9879   5.9943   5.9996   6.0160
     6.5008   6.5067   6.5137   6.5276   7.0073   7.0116   7.0422   7.0509
     7.8402   7.8847   8.4160   8.4392   8.4619   8.5070   8.8180   8.8374
     9.0693   9.0863   9.1011   9.1133   9.1202   9.1363   9.1441   9.1532
     9.1571   9.1764   9.1802   9.1887   9.1915   9.1962   9.2152   9.2202
     9.2354   9.2391   9.2499   9.2596   9.2622   9.2712   9.2735   9.2865
     9.2975   9.3118   9.3154   9.3263   9.3379   9.3567   9.3670   9.3830
     9.4019   9.4258   9.6240   9.6514   9.6602   9.6819   9.6913   9.7072
     9.7092   9.7323   9.7445   9.7616   9.8120   9.8415   9.8463   9.8855
     9.9116   9.9242   9.9269   9.9444   9.9740   9.9994  10.0056  10.0162
    10.0482  10.0550  10.0715  10.0785  10.0956  10.1011  10.1137  10.1214
    10.1340  10.1519  10.1659  10.1759  10.1946  10.2259  10.4002  10.4124
    10.4390  10.4491  10.4718  10.5198  10.5330  10.5465  10.5540  10.5623
    10.5754  10.5856  10.6022  10.6086  10.6217  10.6410  10.6446  10.6599
    10.6751  10.6826  10.6997  10.7104  10.7504  10.7528  10.7588  10.7639
    10.7801  10.7908  10.7964  10.8126  10.8452  10.8630  10.8686  10.8749
    10.9170  10.9421  10.9637

     occupation numbers 
     1.0000   1.0000   1.0000   1.0000   1.0000   1.0000   1.0000   1.0000
     1.0000   1.0000   1.0000   1.0000   1.0000   1.0000   1.0000   1.0000
     1.0000   1.0000   1.0000   1.0000   1.0000   1.0000   1.0000   1.0000
     1.0000   1.0000   1.0000   1.0000   1.0000   1.0000   1.0000   1.0000
     1.0000   1.0000   1.0000   1.0000   1.0000   1.0000   1.0000   1.0000
     1.0000   1.0000   1.0000   1.0000   1.0000   1.0000   1.0000   1.0000
     1.0000   1.0000   1.0000   1.0000   1.0000   1.0000   1.0000   1.0000
     1.0000   1.0000   1.0000   1.0000   1.0000   1.0000   1.0000   1.0000
     1.0000   1.0000   1.0000   1.0000   1.0000   1.0000   1.0000   1.0000
     1.0000   1.0000   1.0000   1.0000   1.0000   1.0000   1.0000   1.0000
     1.0000   1.0000   1.0000   1.0000   1.0000   1.0000   1.0000   1.0000
     1.0000   1.0000   1.0000   1.0000   1.0000   1.0000   1.0000   1.0000
     1.0000   1.0000   1.0000   1.0000   1.0000   1.0000   1.0000   1.0000
     1.0000   1.0000   1.0000   1.0000   1.0000   1.0000   1.0000   1.0000
     1.0000   1.0000   1.0000   1.0000   1.0000   1.0000   1.0000   1.0000
     1.0000   1.0000   1.0000   1.0000   1.0000   1.0000   1.0000   1.0000
     1.0000   1.0000   1.0000   1.0000   1.0000   1.0000   1.0000   1.0000
     1.0000   1.0000   1.0000   1.0000   1.0000   1.0000   1.0000   1.0000
     1.0000   1.0000   1.0000   1.0000   1.0000   1.0000   1.0000   1.0000
     1.0000   1.0000   1.0000   1.0000   1.0000   1.0000   1.0000   1.0000
     1.0000   1.0000   1.0000   1.0000   1.0000   1.0000   1.0000   1.0000
     1.0000   1.0000   1.0000   1.0000   1.0000   1.0000   1.0000   1.0000
     1.0000   1.0000   1.0000   1.0000   1.0000   1.0000   1.0000   1.0000
     1.0000   1.0000   1.0000   1.0000   1.0000   1.0000   1.0000   1.0000
     1.0000   1.0000   1.0000   1.0000   1.0000   1.0000   1.0000   1.0000
     1.0000   1.0000   1.0000   1.0000   1.0000   1.0000   1.0000   1.0000
     1.0000   1.0000   1.0000   1.0000   1.0000   1.0000   1.0000   1.0000
     1.0000   1.0000   1.0000   1.0000   1.0000   1.0000   1.0000   1.0000
     1.0000   1.0000   1.0000   1.0000   1.0000   1.0000   1.0000   1.0000
     1.0000   1.0000   1.0000   1.0000   1.0000   1.0000   1.0000   1.0000
     1.0000   1.0000   1.0000   1.0000   1.0000   1.0000   1.0000   1.0000
     1.0000   1.0000   1.0000   1.0000   1.0000   1.0000   1.0000   1.0000
     1.0000   1.0000   1.0000   1.0000   1.0000   1.0000   1.0000   1.0000
     1.0000   1.0000   1.0000   1.0000   1.0000   1.0000   1.0000   1.0000
     1.0000   1.0000   1.0000   1.0000   1.0000   1.0000   1.0000   1.0000
     1.0000   1.0000   1.0000   1.0000   1.0000   1.0000   1.0000   1.0000
     1.0000   1.0000   1.0000   1.0000   1.0000   1.0000   1.0000   1.0000
     1.0000   1.0000   1.0000   1.0000   1.0000   1.0000   1.0000   1.0000
     1.0000   1.0000   1.0000   1.0000   1.0000   1.0000   1.0000   1.0000
     1.0000   1.0000   1.0000   1.0000   1.0000   1.0000   1.0000   1.0000
     1.0000   1.0000   1.0000   1.0000   1.0000   1.0000   1.0000   1.0000
     1.0000   1.0000   1.0000   1.0000   1.0000   1.0000   1.0000   1.0000
     1.0000   1.0000   1.0000   1.0000   1.0000   1.0000   1.0000   1.0000
     1.0000   1.0000   1.0000   1.0000   1.0000   1.0000   1.0000   1.0000
     1.0000   1.0000   1.0000   1.0000   1.0000   1.0000   1.0000   1.0000
     1.0000   1.0000   1.0000   1.0000   1.0000   1.0000   1.0000   1.0000
     1.0000   1.0000   1.0000   1.0000   1.0000   1.0000   1.0000   1.0000
     1.0000   1.0000   1.0000   1.0000   1.0000   1.0000   1.0000   1.0000
     1.0000   1.0000   1.0000   1.0000   1.0000   1.0000   1.0000   1.0000
     1.0000   1.0000   1.0000   1.0000   1.0000   1.0000   1.0000   1.0000
     1.0000   1.0000   1.0000   1.0000   1.0000   1.0000   1.0000   1.0000
     1.0000   1.0000   1.0000   1.0000   1.0000   1.0000   1.0000   1.0000
     1.0000   1.0000   1.0000   1.0000   1.0000   1.0000   1.0000   1.0000
     1.0000   1.0000   1.0000   1.0000   1.0000   1.0000   1.0000   1.0000
     1.0000   1.0000   1.0000   1.0000   1.0000   1.0000   1.0000   1.0000
     1.0000   1.0000   1.0000   1.0000   1.0000   1.0000   1.0000   1.0000
     1.0000   1.0000   1.0000   1.0000   1.0000   1.0000   1.0000   1.0000
     1.0000   1.0000   1.0000   1.0000   1.0000   1.0000   1.0000   1.0000
     1.0000   1.0000   1.0000   1.0000   1.0000   1.0000   1.0000   1.0000
     1.0000   1.0000   1.0000   1.0000   1.0000   1.0000   1.0000   1.0000
     1.0000   1.0000   1.0000   1.0000   1.0000   1.0000   1.0000   1.0000
     1.0000   1.0000   1.0000   1.0000   1.0000   1.0000   1.0000   1.0000
     1.0000   1.0000   1.0000   1.0000   1.0000   1.0000   1.0000   1.0000
     1.0000   1.0000   1.0000   1.0000   1.0000   1.0000   1.0000   1.0000
     1.0000   1.0000   1.0000   1.0000   1.0000   1.0000   1.0000   1.0000
     1.0000   1.0000   1.0000   1.0000   1.0000   1.0000   1.0000   1.0000
     1.0000   1.0000   1.0000   1.0000   1.0000   1.0000   1.0000   1.0000
     1.0000   1.0000   1.0000   1.0000   1.0000   1.0000   1.0000   1.0000
     1.0000   1.0000   1.0000   1.0000   1.0000   1.0000   1.0000   1.0000
     1.0000   1.0000   1.0000   1.0000   1.0000   1.0000   1.0000   1.0000
     1.0000   1.0000   1.0000   1.0000   1.0000   1.0000   1.0000   1.0000
     1.0000   1.0000   1.0000   1.0000   1.0000   1.0000   0.9999   0.9999
     0.0395   0.0195   0.0000   0.0000   0.0000   0.0000   0.0000   0.0000
     0.0000   0.0000   0.0000   0.0000   0.0000   0.0000   0.0000   0.0000
     0.0000   0.0000   0.0000   0.0000   0.0000   0.0000   0.0000   0.0000
     0.0000   0.0000   0.0000   0.0000   0.0000   0.0000   0.0000   0.0000
     0.0000   0.0000   0.0000   0.0000   0.0000   0.0000   0.0000   0.0000
     0.0000   0.0000   0.0000   0.0000   0.0000   0.0000   0.0000   0.0000
     0.0000   0.0000   0.0000   0.0000   0.0000   0.0000   0.0000   0.0000
     0.0000   0.0000   0.0000   0.0000   0.0000   0.0000   0.0000   0.0000
     0.0000   0.0000   0.0000   0.0000   0.0000   0.0000   0.0000   0.0000
     0.0000   0.0000   0.0000   0.0000   0.0000   0.0000   0.0000   0.0000
     0.0000   0.0000   0.0000   0.0000   0.0000   0.0000   0.0000   0.0000
     0.0000   0.0000   0.0000   0.0000   0.0000   0.0000   0.0000   0.0000
     0.0000   0.0000   0.0000   0.0000   0.0000   0.0000   0.0000   0.0000
     0.0000   0.0000   0.0000   0.0000   0.0000   0.0000   0.0000   0.0000
     0.0000   0.0000   0.0000

          k = 0.3536 0.3536 0.3536 ( 64114 PWs)   bands (ev):

   -17.3342 -17.3331 -17.3259 -17.3248 -17.3197 -17.3195 -17.3172 -17.3154
   -17.3127 -17.3121 -17.3117 -17.3111 -17.3088 -17.3058 -17.3023 -17.3021
   -17.2989 -17.2964 -17.2945 -17.2939 -17.2894 -17.2869 -17.2851 -17.2846
   -17.2830 -17.2796 -17.2776 -17.2726 -17.2702 -17.2669 -17.2659 -17.2657
   -17.2656 -17.2630 -17.2551 -17.2548 -17.2507 -17.2491 -17.2456 -17.2409
   -17.2399 -17.2375 -17.2348 -17.2318 -17.2314 -17.2297 -17.2295 -17.2254
   -17.2227 -17.2215 -17.2209 -17.2199 -17.2189 -17.2160 -17.2151 -17.2131
   -17.2090 -17.2075 -17.2071 -17.2059 -17.2041 -17.2029 -17.2017 -17.2012
   -17.1975 -17.1964 -17.1946 -17.1938 -17.1919 -17.1877 -17.1869 -17.1837
   -17.1829 -17.1815 -17.1804 -17.1774 -17.1755 -17.1739 -17.1727 -17.1685
   -17.1670 -17.1653 -17.1651 -17.1623 -17.1611 -17.1603 -17.1583 -17.1558
   -17.1553 -17.1536 -17.1521 -17.1512 -17.1464 -17.1454 -17.1431 -17.1418
   -17.1412 -17.1397 -17.1376 -17.1364 -17.1357 -17.1339 -17.1333 -17.1316
   -17.1310 -17.1306 -17.1298 -17.1289 -17.1263 -17.1260 -17.1249 -17.1232
   -17.1197 -17.1192 -17.1184 -17.1163 -17.1157 -17.1137 -17.1125 -17.1113
   -17.1108 -17.1078 -17.1075 -17.1065 -17.1043 -17.1041 -17.1031 -17.1005
   -17.1003 -17.0995 -17.0972 -17.0951 -17.0947 -17.0937 -17.0914 -17.0894
   -17.0884 -17.0856 -17.0852 -17.0849 -17.0819 -17.0813 -17.0812 -17.0793
   -17.0777 -17.0759 -17.0749 -17.0735 -17.0716 -17.0702 -17.0686 -17.0672
   -17.0665 -17.0651 -17.0630 -17.0624 -17.0615 -17.0606 -17.0598 -17.0592
   -17.0582 -17.0575 -17.0569 -17.0563 -17.0548 -17.0536 -17.0535 -17.0533
   -17.0517 -17.0514 -17.0510 -17.0504 -17.0499 -17.0488 -17.0481 -17.0474
   -17.0468 -17.0463 -17.0453 -17.0449 -17.0446 -17.0441 -17.0438 -17.0433
   -17.0423 -17.0414 -17.0411 -17.0406 -17.0395 -17.0389 -17.0385 -17.0372
   -17.0371 -17.0366 -17.0358 -17.0353 -17.0350 -17.0343 -17.0340 -17.0329
   -17.0326 -17.0316 -17.0312 -17.0307 -17.0301 -17.0299 -17.0291 -17.0286
   -17.0283 -17.0276 -17.0272 -17.0269 -17.0264 -17.0261 -17.0253 -17.0252
   -17.0247 -17.0241 -17.0234 -17.0229 -17.0218 -17.0213 -17.0212 -17.0205
   -17.0198 -17.0185 -17.0174 -17.0172 -17.0164 -17.0161 -17.0158 -17.0154
   -17.0153 -17.0141 -17.0136 -17.0133 -17.0124 -17.0120 -17.0115 -17.0113
   -17.0107 -17.0102 -17.0097 -17.0095 -17.0079 -17.0072 -17.0067 -17.0059
   -17.0057 -17.0054 -17.0043 -17.0039 -17.0026 -17.0013 -17.0000 -16.9993
   -16.9985 -16.9972 -16.9950 -16.9948 -16.9942 -16.9936 -16.9927 -16.9919
   -16.9912 -16.9899 -16.9896 -16.9888 -16.9878 -16.9870 -16.9869 -16.9863
   -16.9857 -16.9849 -16.9843 -16.9804 -16.9801 -16.9778 -16.9773 -16.9750
   -16.9739 -16.9734 -16.9715 -16.9701 -16.9692 -16.9676 -16.9654 -16.9635
   -16.9618 -16.9592 -16.9574 -16.9556 -16.9544 -16.9531 -16.9490 -16.9464
   -16.9451 -16.9451 -16.9425 -16.9415 -16.9405 -16.9388 -16.9379 -16.9368
   -16.9362 -16.9355 -16.9346 -16.9333 -16.9320 -16.9304 -16.9294 -16.9285
   -16.9279 -16.9245 -16.9241 -16.9228 -16.9215 -16.9206 -16.9195 -16.9182
    -5.0285  -4.9378  -4.6393  -4.5165  -4.4937  -4.4466  -4.3908  -4.3341
    -4.1117  -4.0402  -4.0080  -3.9554  -3.8367  -3.8055  -3.6075  -3.5746
    -3.5183  -3.4683  -3.4012  -3.3551  -3.3468  -3.3253  -3.1907  -3.1461
    -3.1250  -3.0891  -3.0358  -3.0159  -2.9878  -2.9832  -2.9410  -2.8733
    -2.8256  -2.7880  -2.7555  -2.7239  -2.6605  -2.6026  -2.5668  -2.4947
[...]
     atom   77 type  2   force =   0.00000000E+00  0.00000000E+00  0.00000000E+00
     atom   78 type  2   force =   0.00000000E+00  0.00000000E+00  0.00000000E+00
     atom   79 type  2   force =   0.00000000E+00  0.00000000E+00  0.00000000E+00
     atom   80 type  1   force =   0.00000000E+00  0.00000000E+00  0.00000000E+00
     atom   81 type  2   force =   0.00000000E+00  0.00000000E+00  0.00000000E+00
     atom   82 type  1   force =   0.00000000E+00  0.00000000E+00  0.00000000E+00
     atom   83 type  2   force =   0.00000000E+00  0.00000000E+00  0.00000000E+00
     atom   84 type  2   force =   0.00000000E+00  0.00000000E+00  0.00000000E+00
     atom   85 type  1   force =   0.00000000E+00  0.00000000E+00  0.00000000E+00
     atom   86 type  2   force =   0.00000000E+00  0.00000000E+00  0.00000000E+00
     atom   87 type  2   force =   0.00000000E+00  0.00000000E+00  0.00000000E+00
     atom   88 type  2   force =   0.00000000E+00  0.00000000E+00  0.00000000E+00
     atom   89 type  2   force =   0.00000000E+00  0.00000000E+00  0.00000000E+00
     atom   90 type  2   force =   0.00000000E+00  0.00000000E+00  0.00000000E+00
     atom   91 type  1   force =   0.00000000E+00  0.00000000E+00  0.00000000E+00
     atom   92 type  1   force =   0.00000000E+00  0.00000000E+00  0.00000000E+00
     atom   93 type  2   force =   0.00000000E+00  0.00000000E+00  0.00000000E+00
     atom   94 type  2   force =   0.00000000E+00  0.00000000E+00  0.00000000E+00
     atom   95 type  1   force =   0.00000000E+00  0.00000000E+00  0.00000000E+00
     atom   96 type  2   force =   0.00000000E+00  0.00000000E+00  0.00000000E+00
     atom   97 type  1   force =   0.00000000E+00  0.00000000E+00  0.00000000E+00
     atom   98 type  1   force =   0.00000000E+00  0.00000000E+00  0.00000000E+00
     atom   99 type  2   force =   0.00000000E+00  0.00000000E+00  0.00000000E+00
     atom  100 type  2   force =   0.00000000E+00  0.00000000E+00  0.00000000E+00
     atom  101 type  1   force =   0.00000000E+00  0.00000000E+00  0.00000000E+00
     atom  102 type  1   force =   0.00000000E+00  0.00000000E+00  0.00000000E+00
     atom  103 type  1   force =   0.00000000E+00  0.00000000E+00  0.00000000E+00
     atom  104 type  1   force =   0.00000000E+00  0.00000000E+00  0.00000000E+00
     atom  105 type  2   force =   0.00000000E+00  0.00000000E+00  0.00000000E+00
     atom  106 type  1   force =   0.00000000E+00  0.00000000E+00  0.00000000E+00
     atom  107 type  2   force =   0.00000000E+00  0.00000000E+00  0.00000000E+00
     atom  108 type  2   force =   0.00000000E+00  0.00000000E+00  0.00000000E+00
     atom  109 type  2   force =   0.00000000E+00  0.00000000E+00  0.00000000E+00
     atom  110 type  2   force =   0.00000000E+00  0.00000000E+00  0.00000000E+00
     atom  111 type  2   force =   0.00000000E+00  0.00000000E+00  0.00000000E+00
     atom  112 type  1   force =   0.00000000E+00  0.00000000E+00  0.00000000E+00
     atom  113 type  1   force =   0.00000000E+00  0.00000000E+00  0.00000000E+00
     atom  114 type  1   force =   0.00000000E+00  0.00000000E+00  0.00000000E+00
     atom  115 type  1   force =   0.00000000E+00  0.00000000E+00  0.00000000E+00
     atom  116 type  1   force =   0.00000000E+00  0.00000000E+00  0.00000000E+00
     atom  117 type  1   force =   0.00000000E+00  0.00000000E+00  0.00000000E+00
     atom  118 type  1   force =   0.00000000E+00  0.00000000E+00  0.00000000E+00
     atom  119 type  2   force =   0.00000000E+00  0.00000000E+00  0.00000000E+00
     atom  120 type  2   force =   0.00000000E+00  0.00000000E+00  0.00000000E+00
     atom  121 type  2   force =   0.00000000E+00  0.00000000E+00  0.00000000E+00
     atom  122 type  1   force =   0.00000000E+00  0.00000000E+00  0.00000000E+00
     atom  123 type  1   force =   0.00000000E+00  0.00000000E+00  0.00000000E+00
     atom  124 type  1   force =   0.00000000E+00  0.00000000E+00  0.00000000E+00
     atom  125 type  2   force =   0.00000000E+00  0.00000000E+00  0.00000000E+00
     atom  126 type  2   force =   0.00000000E+00  0.00000000E+00  0.00000000E+00
     atom  127 type  2   force =   0.00000000E+00  0.00000000E+00  0.00000000E+00
     atom  128 type  2   force =   0.00000000E+00  0.00000000E+00  0.00000000E+00
     The SCF correction term to forces
     atom    1 type  2   force =  -0.20141145E-06 -0.22249978E-05 -0.71368317E-05
     atom    2 type  1   force =  -0.14023898E-05 -0.38392616E-06 -0.21019132E-05
     atom    3 type  2   force =  -0.51481692E-05 -0.10610311E-04 -0.12191403E-04
     atom    4 type  2   force =  -0.12075956E-04 -0.39883401E-05 -0.51908679E-06
     atom    5 type  1   force =   0.63232779E-06  0.10955924E-05 -0.85129102E-06
     atom    6 type  1   force =   0.12861257E-05  0.23696015E-05  0.60618022E-06
     atom    7 type  2   force =   0.27784027E-06  0.81767056E-05 -0.43628002E-05
     atom    8 type  1   force =   0.26239386E-06  0.49409758E-06 -0.10521811E-05
     atom    9 type  2   force =  -0.42025883E-05 -0.60329388E-05 -0.73827481E-05
     atom   10 type  2   force =  -0.12871475E-05 -0.25352372E-06  0.38263017E-05
     atom   11 type  1   force =   0.75271432E-06 -0.16836229E-05 -0.10570718E-05
     atom   12 type  2   force =   0.92027543E-05  0.17573747E-05 -0.12435867E-05
     atom   13 type  2   force =   0.10572840E-04  0.50001905E-05 -0.47424935E-05
     atom   14 type  2   force =   0.11901155E-04 -0.87429907E-05  0.38038680E-05
     atom   15 type  1   force =   0.37492805E-06 -0.84669398E-06 -0.20502353E-06
     atom   16 type  1   force =  -0.78515410E-06 -0.17151416E-05  0.17396679E-06
     atom   17 type  1   force =   0.22998887E-05 -0.21492776E-05  0.49887864E-06
     atom   18 type  2   force =   0.10397503E-04 -0.73181419E-05  0.59923846E-05
     atom   19 type  1   force =   0.28428181E-05 -0.58673134E-06  0.18905105E-05
     atom   20 type  2   force =   0.13815670E-04  0.48360118E-05 -0.29361618E-05
     atom   21 type  2   force =   0.88371243E-05 -0.53105036E-05  0.81756667E-06
     atom   22 type  2   force =  -0.34471302E-05 -0.11983177E-04 -0.95629716E-05
     atom   23 type  2   force =  -0.28884542E-05 -0.12866166E-04 -0.15947400E-05
     atom   24 type  1   force =   0.12735041E-05 -0.22360632E-05 -0.70088583E-06
     atom   25 type  2   force =   0.41210874E-05 -0.68336636E-05  0.24401246E-05
     atom   26 type  1   force =   0.77482639E-06 -0.13931784E-05 -0.12187851E-05
     atom   27 type  1   force =   0.46015067E-06 -0.50193211E-06 -0.10311263E-05
     atom   28 type  2   force =   0.96321984E-06 -0.55493817E-05 -0.81135511E-05
     atom   29 type  2   force =  -0.58515473E-05 -0.39825120E-05 -0.12342187E-04
     atom   30 type  1   force =  -0.18964022E-06  0.27679407E-06 -0.24117581E-05
     atom   31 type  2   force =   0.16618499E-04 -0.18954047E-05 -0.68578861E-05
     atom   32 type  2   force =   0.77109229E-05  0.25177958E-05 -0.53265262E-05
     atom   33 type  2   force =  -0.49952985E-05 -0.26401703E-06  0.53730273E-05
     atom   34 type  1   force =  -0.25286649E-05  0.12186559E-05  0.22250516E-06
     atom   35 type  2   force =  -0.81492137E-05  0.71267791E-05  0.94921868E-05
     atom   36 type  2   force =  -0.45102247E-05  0.86245489E-05 -0.66531074E-05
     atom   37 type  2   force =  -0.59589296E-05  0.52178472E-05  0.86612498E-06
     atom   38 type  1   force =  -0.70355683E-06  0.94264685E-06 -0.78314424E-06
     atom   39 type  2   force =   0.42710378E-05  0.26859499E-05  0.24162714E-05
     atom   40 type  2   force =  -0.30873144E-05  0.32457212E-05 -0.10750789E-06
     atom   41 type  2   force =  -0.12744443E-04  0.12397459E-05 -0.13928542E-06
     atom   42 type  2   force =  -0.29755566E-05 -0.11724127E-05  0.26836281E-05
     atom   43 type  1   force =  -0.63313302E-06  0.18262034E-05  0.31849485E-06
     atom   44 type  1   force =   0.62674094E-06  0.11462567E-05  0.18420216E-05
     atom   45 type  1   force =   0.10172708E-05  0.57141434E-06 -0.38595521E-07
     atom   46 type  1   force =  -0.50471038E-06  0.62068450E-06  0.96823508E-06
     atom   47 type  2   force =  -0.45551875E-05  0.44283348E-05 -0.20759764E-05
     atom   48 type  2   force =  -0.11993072E-04  0.86507540E-05  0.17162277E-05
     atom   49 type  1   force =   0.13733277E-05 -0.62270772E-08  0.16178177E-05
     atom   50 type  2   force =  -0.27790197E-05  0.82028610E-05  0.97448402E-05
     atom   51 type  1   force =   0.14749219E-05  0.28730147E-07  0.14326470E-05
     atom   52 type  1   force =  -0.19966483E-05  0.13177883E-05  0.17476858E-05
     atom   53 type  1   force =  -0.12402993E-05 -0.13370926E-05 -0.27325903E-06
     atom   54 type  1   force =  -0.25455484E-05  0.65117669E-06  0.16010757E-05
     atom   55 type  1   force =  -0.85177041E-06  0.60413202E-06  0.16116079E-06
     atom   56 type  1   force =   0.32691184E-06  0.55726952E-06  0.20335322E-05
     atom   57 type  1   force =   0.16853354E-06  0.39630869E-06 -0.29833944E-07
     atom   58 type  1   force =  -0.13340750E-05  0.13261350E-05  0.13131946E-05
     atom   59 type  2   force =  -0.54488974E-05  0.15286358E-05 -0.20903718E-05
     atom   60 type  1   force =  -0.25163921E-05  0.14399719E-05  0.22294301E-05
     atom   61 type  1   force =  -0.71694645E-06  0.11044876E-05  0.18402903E-05
     atom   62 type  2   force =  -0.62594768E-06  0.85826423E-05  0.13648476E-04
     atom   63 type  2   force =   0.35909344E-05 -0.58060909E-05  0.22291969E-05
     atom   64 type  1   force =  -0.50359304E-06  0.37245331E-06  0.93713561E-06
     atom   65 type  1   force =  -0.25798328E-05  0.14914115E-05 -0.14312389E-05
     atom   66 type  1   force =  -0.18326964E-05  0.13190551E-05 -0.59994065E-06
     atom   67 type  1   force =  -0.10774967E-05  0.16204721E-05 -0.65646332E-06
     atom   68 type  1   force =  -0.13179637E-05  0.14211082E-05  0.10394053E-05
     atom   69 type  1   force =  -0.13834503E-05  0.87365564E-06 -0.34943055E-06
     atom   70 type  1   force =   0.13790091E-06  0.69713891E-08 -0.45022968E-07
     atom   71 type  1   force =  -0.84218032E-07  0.11600797E-05 -0.92158830E-06
     atom   72 type  2   force =   0.24256735E-05 -0.65359570E-06 -0.38991895E-06
     atom   73 type  1   force =  -0.83305493E-06  0.10061941E-05  0.16218218E-05
     atom   74 type  1   force =   0.99937950E-06  0.80657979E-06  0.24790677E-05
     atom   75 type  1   force =   0.10490598E-06  0.17993372E-05  0.27204476E-05
     atom   76 type  2   force =   0.43734197E-05 -0.25795589E-05  0.11140263E-04
     atom   77 type  2   force =   0.10275991E-05 -0.10630484E-06  0.12220827E-04
     atom   78 type  2   force =   0.44977908E-05 -0.12160080E-05 -0.14639702E-05
     atom   79 type  2   force =  -0.64831643E-05 -0.48344467E-05  0.43698925E-05
     atom   80 type  1   force =  -0.97886176E-06 -0.71704848E-06  0.60943600E-06
     atom   81 type  2   force =   0.21892506E-05  0.38753290E-05  0.11386230E-04
     atom   82 type  1   force =   0.82159103E-06  0.42159257E-06 -0.42082109E-06
     atom   83 type  2   force =  -0.38796970E-05  0.18460558E-05  0.58678923E-05
     atom   84 type  2   force =  -0.12294420E-05 -0.10154526E-04 -0.45170368E-05
     atom   85 type  1   force =  -0.20475355E-05  0.45170110E-06  0.18460038E-05
     atom   86 type  2   force =  -0.23279523E-06 -0.49938488E-05  0.61275845E-05
     atom   87 type  2   force =  -0.18795733E-05  0.34312606E-05  0.12173458E-04
     atom   88 type  2   force =   0.29450413E-05  0.81781086E-05  0.35259849E-05
     atom   89 type  2   force =  -0.22823823E-05  0.11629791E-04  0.46937232E-05
     atom   90 type  2   force =  -0.51701793E-05  0.67991269E-05  0.98525522E-06
     atom   91 type  1   force =  -0.27088534E-05  0.42564691E-06  0.93101052E-06
     atom   92 type  1   force =  -0.74280445E-06  0.43815714E-06 -0.92421781E-06
     atom   93 type  2   force =  -0.20346599E-05  0.24630482E-05 -0.53882349E-06
     atom   94 type  2   force =  -0.88129603E-05  0.26175477E-05 -0.30241851E-05
     atom   95 type  1   force =  -0.11137103E-05  0.16847967E-05  0.86684608E-06
     atom   96 type  2   force =  -0.39867764E-05  0.81449018E-05  0.17888184E-05
     atom   97 type  1   force =  -0.66758041E-06  0.16958908E-05 -0.51954315E-06
     atom   98 type  1   force =   0.27038774E-06  0.10186025E-05 -0.71364739E-06
     atom   99 type  2   force =  -0.22090677E-05  0.13357189E-05  0.40359557E-05
     atom  100 type  2   force =  -0.49547190E-05 -0.96301865E-05 -0.10692591E-05
     atom  101 type  1   force =  -0.15518132E-05 -0.12476020E-05 -0.16130264E-05
     atom  102 type  1   force =   0.15504284E-05 -0.89751064E-06 -0.21534958E-05
     atom  103 type  1   force =   0.44920301E-06  0.15966533E-05 -0.30348549E-05
     atom  104 type  1   force =   0.15039144E-06  0.12846281E-05 -0.12951743E-05
     atom  105 type  2   force =  -0.77113738E-06  0.19029125E-05 -0.19180399E-05
     atom  106 type  1   force =   0.14603830E-05 -0.17611014E-05 -0.24054670E-05
     atom  107 type  2   force =   0.13940724E-05 -0.70930359E-05 -0.94748788E-05
     atom  108 type  2   force =   0.36413004E-05 -0.10076250E-04 -0.98330998E-05
     atom  109 type  2   force =   0.11395742E-04 -0.11542271E-04 -0.17422255E-05
     atom  110 type  2   force =   0.41004145E-05 -0.35288220E-05  0.27496334E-05
     atom  111 type  2   force =   0.43957520E-05  0.58321045E-06  0.22780441E-05
     atom  112 type  1   force =   0.14413522E-05 -0.68019064E-06  0.47048513E-06
     atom  113 type  1   force =   0.17261295E-05 -0.25294536E-05 -0.91009119E-06
     atom  114 type  1   force =   0.24777461E-05 -0.34778680E-05  0.59911563E-07
     atom  115 type  1   force =   0.15989202E-05 -0.31184896E-05 -0.14873262E-05
     atom  116 type  1   force =   0.20497896E-05 -0.11470914E-05  0.34624619E-07
     atom  117 type  1   force =   0.26127089E-05 -0.54777491E-08  0.16774820E-06
     atom  118 type  1   force =   0.99550196E-06  0.54611851E-06  0.10431397E-05
     atom  119 type  2   force =   0.13381357E-05 -0.56192203E-05  0.24547419E-05
     atom  120 type  2   force =   0.53338533E-05 -0.98544181E-05  0.72485886E-06
     atom  121 type  2   force =   0.36749428E-05 -0.10270806E-04 -0.84911714E-06
     atom  122 type  1   force =  -0.77792712E-06 -0.88175480E-06 -0.38851486E-06
     atom  123 type  1   force =   0.67145382E-06 -0.10511876E-05  0.64322936E-06
     atom  124 type  1   force =   0.74529294E-06 -0.38103596E-07  0.45091628E-07
     atom  125 type  2   force =  -0.24788828E-05  0.39342991E-05 -0.24999844E-05
     atom  126 type  2   force =  -0.24258594E-05  0.28290747E-05 -0.12409736E-04
     atom  127 type  2   force =   0.37376968E-05  0.30498097E-05 -0.18009561E-06
     atom  128 type  2   force =   0.41534488E-05  0.77129728E-07 -0.13946221E-04

     Total force =     0.190487     Total SCF correction =     0.000088


     entering subroutine stress ...

          total   stress  (Ry/bohr**3)                   (kbar)     P=    2.30
   0.0000155430   0.0000008796  -0.0000018929          2.29      0.13     -0.28
   0.0000008796   0.0000156547   0.0000023147          0.13      2.30      0.34
  -0.0000018929   0.0000023147   0.0000156606         -0.28      0.34      2.30

     kinetic stress (kbar)   6412.51      0.07      0.17
                                0.07   6412.52     -0.16
                                0.17     -0.16   6412.51

     local   stress (kbar)  -6334.41   -545.06   1256.83
                             -545.06  -3768.06  -1160.86
                             1256.83  -1160.86  -5762.72

     nonloc. stress (kbar)   2496.44     -0.45      0.07
                               -0.45   2496.44     -0.29
                                0.07     -0.29   2496.44

     hartree stress (kbar)  17776.25    241.68   -603.50
                              241.68  16504.70    545.83
                             -603.50    545.83  17490.54

     exc-cor stress (kbar)  10937.24     -0.01     -0.00
                               -0.01  10937.24     -0.00
                               -0.00     -0.00  10937.24

     corecor stress (kbar) -16604.75     -0.02      0.02
                               -0.02 -16604.75     -0.04
                                0.02     -0.04 -16604.75

     ewald   stress (kbar) -14681.00    303.92   -653.87
                              303.92 -15975.80    615.85
                             -653.87    615.85 -14966.97

     hubbard stress (kbar)      0.00      0.00      0.00
                                0.00      0.00      0.00
                                0.00      0.00      0.00

     london  stress (kbar)      0.00      0.00      0.00
                                0.00      0.00      0.00
                                0.00      0.00      0.00

     XDM     stress (kbar)      0.00      0.00      0.00
                                0.00      0.00      0.00
                                0.00      0.00      0.00

     dft-nl  stress (kbar)      0.00      0.00      0.00
                                0.00      0.00      0.00
                                0.00      0.00      0.00



     Writing output data file SiGe_zns.scf.in.super.444.a.033.save

     init_run     :   1001.77s CPU    835.69s WALL (       1 calls)
     electrons    :  45368.43s CPU  38682.46s WALL (       1 calls)
     forces       :    609.69s CPU    463.48s WALL (       1 calls)
     stress       :   3592.63s CPU   3573.42s WALL (       1 calls)

     Called by init_run:
     wfcinit      :    942.32s CPU    775.37s WALL (       1 calls)
     potinit      :      1.12s CPU      1.22s WALL (       1 calls)

     Called by electrons:
     c_bands      :  40325.00s CPU  33931.09s WALL (      16 calls)
     sum_band     :   4369.65s CPU   4066.98s WALL (      16 calls)
     v_of_rho     :      9.07s CPU     10.34s WALL (      16 calls)
     v_h          :      0.56s CPU      0.72s WALL (      16 calls)
     v_xc         :      9.49s CPU     10.73s WALL (      18 calls)
     newd         :    699.48s CPU    707.54s WALL (      16 calls)
     mix_rho      :     19.12s CPU     20.88s WALL (      16 calls)

     Called by c_bands:
     init_us_2    :     50.38s CPU     51.53s WALL (     280 calls)
     cegterg      :  40016.92s CPU  33614.59s WALL (     128 calls)

     Called by sum_band:
     sum_band:bec :     16.42s CPU     16.50s WALL (     128 calls)
     addusdens    :    497.48s CPU    500.55s WALL (      16 calls)

     Called by *egterg:
     h_psi        :  16407.96s CPU  14703.57s WALL (     474 calls)
     s_psi        :   4162.22s CPU   2747.86s WALL (     474 calls)
     g_psi        :      7.63s CPU      8.58s WALL (     338 calls)
     cdiaghg      :  11689.52s CPU  10683.94s WALL (     458 calls)
     cegterg:over :   3823.08s CPU   2696.99s WALL (     338 calls)
     cegterg:upda :   1804.39s CPU   1217.17s WALL (     338 calls)
     cegterg:last :   1177.83s CPU    764.25s WALL (     128 calls)

     Called by h_psi:
     h_psi:vloc   :   7747.34s CPU   8851.20s WALL (     474 calls)
     h_psi:vnl    :   8641.41s CPU   5832.72s WALL (     474 calls)
     add_vuspsi   :   4161.71s CPU   2757.73s WALL (     474 calls)

     General routines
     calbec       :   7244.83s CPU   5172.76s WALL (     618 calls)
     fft          :    280.28s CPU    283.14s WALL (     281 calls)
     ffts         :     11.99s CPU     13.44s WALL (     458 calls)
     fftw         :   8708.76s CPU  10052.05s WALL (  517764 calls)
     interpolate  :      2.54s CPU      3.20s WALL (      32 calls)

     Parallel routines
     fft_scatter  :   5887.64s CPU   6705.56s WALL (  518503 calls)

     PWSCF        :    14h 3m CPU       12h 6m WALL


   This run was terminated on:   1:55:23   4Feb2017            

=------------------------------------------------------------------------------=
   JOB DONE.
=------------------------------------------------------------------------------=
