
     Program PWSCF v.5.1 starts on  3Feb2017 at 12:28:59 

     This program is part of the open-source Quantum ESPRESSO suite
     for quantum simulation of materials; please cite
         "P. Giannozzi et al., J. Phys.:Condens. Matter 21 395502 (2009);
          URL http://www.quantum-espresso.org", 
     in publications or presentations arising from this work. More details at
     http://www.quantum-espresso.org/quote

     Parallel version (MPI), running on    16 processors
     R & G space division:  proc/nbgrp/npool/nimage =      16
     Reading input from /tmp/SiGe_zns.scf.in.super.444.a.01.20455/SiGe_zns.scf.in.super.444.a.01.t
Warning: card &IONS ignored
Warning: card   ION_DYNAMICS='BFGS', ignored
Warning: card / ignored
Warning: card &CELL ignored
Warning: card  CELL_DYNAMICS = 'BFGS' ignored
Warning: card / ignored
     Message from routine read_cards :
     DEPRECATED: no units specified in CELL_PARAMETERS card

     Current dimensions of program PWSCF are:
     Max number of different atomic species (ntypx) = 10
     Max number of k-points (npk) =  40000
     Max angular momentum in pseudopotentials (lmaxx) =  3

     Subspace diagonalization in iterative solution of the eigenvalue problem:
     a serial algorithm will be used


     Parallelization info
     --------------------
     sticks:   dense  smooth     PW     G-vecs:    dense   smooth      PW
     Min         756     527    138                54768    32060    4315
     Max         757     528    139                54770    32083    4319
     Sum       12097    8443   2221               876295   513103   69089



     bravais-lattice index     =            0
     lattice parameter (alat)  =    29.598892955  a.u.
     unit-cell volume          =   18336.2874 (a.u.)^3
     number of atoms/cell      =          128
     number of atomic types    =            2
     number of electrons       =      1202.00
     number of Kohn-Sham states=          721
     kinetic-energy cutoff     =      35.0000  Ry
     charge density cutoff     =     200.0000  Ry
     convergence threshold     =      1.0E-09
     mixing beta               =       0.3000
     number of iterations used =            8  local-TF  mixing
     Exchange-correlation      = SLA  PW   PSX  PSC ( 1  4 10  8 0)
     A smooth kinetic-energy cutoff is imposed at      34.5000 Ry
     height of the smooth step-function =             800.0000 Ry
     width of the smooth step-function  =               1.0000 Ry


     celldm(1)=  29.598893  celldm(2)=   0.000000  celldm(3)=   0.000000
     celldm(4)=   0.000000  celldm(5)=   0.000000  celldm(6)=   0.000000

     crystal axes: (cart. coord. in units of alat)
               a(1) = (  -0.000000000000   0.707106781187   0.707106781187 )  
               a(2) = (   0.707106781187  -0.000000000000   0.707106781187 )  
               a(3) = (   0.707106781187   0.707106781187   0.000000000000 )  

     reciprocal axes: (cart. coord. in units 2 pi/alat)
               b(1) = ( -0.707107  0.707107  0.707107 )  
               b(2) = (  0.707107 -0.707107  0.707107 )  
               b(3) = (  0.707107  0.707107 -0.707107 )  


     PseudoPot. # 1 for Si read from file:
     /users/kfg/psuedo/gbrv_1.5/si.pbesol.UPF
     MD5 check sum: ef58ba74faed4df802eb8a9742fc00a8
     Pseudo is Ultrasoft + core correction, Zval =  4.0
     Generated by new atomic code, or converted to UPF format
     Using radial grid of  899 points,  6 beta functions with: 
                l(1) =   0
                l(2) =   0
                l(3) =   1
                l(4) =   1
                l(5) =   2
                l(6) =   2
     Q(r) pseudized with  8 coefficients,  rinner =    0.900   0.900   0.900
                                                       0.900   0.900

     PseudoPot. # 2 for Ge read from file:
     /users/kfg/psuedo/gbrv_1.5/ge.pbesol.UPF
     MD5 check sum: 7bed0412183f5e553a4d27ec7023354d
     Pseudo is Ultrasoft + core correction, Zval = 14.0
     Generated by new atomic code, or converted to UPF format
     Using radial grid of  873 points,  6 beta functions with: 
                l(1) =   0
                l(2) =   0
                l(3) =   1
                l(4) =   1
                l(5) =   2
                l(6) =   2
     Q(r) pseudized with  8 coefficients,  rinner =    1.400   1.400   1.400
                                                       1.400   1.400

     atomic species   valence    mass     pseudopotential
        Si             4.00    28.08550     Si( 1.00)
        Ge            14.00    72.64000     Ge( 1.00)

     No symmetry found


                                    s                        frac. trans.

      isym =  1     identity                                     

 cryst.   s( 1) = (     1          0          0      )
                  (     0          1          0      )
                  (     0          0          1      )

 cart.    s( 1) = (  1.0000000  0.0000000  0.0000000 )
                  (  0.0000000  1.0000000  0.0000000 )
                  (  0.0000000  0.0000000  1.0000000 )


     point group C_1 (1)    
     there are  1 classes
     the character table:

       E    
A      1.00

     the symmetry operations in each class:
     E        1

   Cartesian axes

     site n.     atom                  positions (alat units)
         1           Si  tau(   1) = (   -0.00029287661   -0.00031132848    0.00030026042  )
         2           Ge  tau(   2) = (    0.08845280925    0.08827066689    0.08823799642  )
         3           Ge  tau(   3) = (    0.17696048722    0.17681308795   -0.00012950131  )
         4           Ge  tau(   4) = (    0.26485572131    0.26537704795    0.08860676940  )
         5           Si  tau(   5) = (    0.35325480588    0.35337679883    0.00018068467  )
         6           Ge  tau(   6) = (    0.44223526863    0.44169492708    0.08824113657  )
         7           Si  tau(   7) = (    0.53009002309    0.53036707005   -0.00005732114  )
         8           Ge  tau(   8) = (    0.61844647931    0.61879815909    0.08817535881  )
         9           Ge  tau(   9) = (    0.17676145668    0.00032485232    0.17673612587  )
        10           Ge  tau(  10) = (    0.26530087081    0.08819692783    0.26496906151  )
        11           Ge  tau(  11) = (    0.35342493606    0.17651498113    0.17689930334  )
        12           Ge  tau(  12) = (    0.44167691885    0.26521766412    0.26518690030  )
        13           Ge  tau(  13) = (    0.53043622395    0.35365901953    0.17665976638  )
        14           Ge  tau(  14) = (    0.61899698641    0.44188508477    0.26531769991  )
        15           Ge  tau(  15) = (    0.70700832591    0.53062101722    0.17680510229  )
        16           Ge  tau(  16) = (    0.79537131097    0.61844787310    0.26528589646  )
        17           Ge  tau(  17) = (    0.35331946286   -0.00033748570    0.35335863612  )
        18           Si  tau(  18) = (    0.44197950454    0.08863670725    0.44167195840  )
        19           Si  tau(  19) = (    0.53055176303    0.17670790636    0.35335654965  )
        20           Si  tau(  20) = (    0.61855605234    0.26541687684    0.44169242341  )
        21           Ge  tau(  21) = (    0.70677717296    0.35386889519    0.35378167492  )
        22           Ge  tau(  22) = (    0.79560671832    0.44210185407    0.44179150921  )
        23           Si  tau(  23) = (    0.88415218280    0.53050523059    0.35362916289  )
        24           Ge  tau(  24) = (    0.97259727928    0.61895284422    0.44198883894  )
        25           Si  tau(  25) = (    0.53062959090   -0.00029495041    0.53005550610  )
        26           Ge  tau(  26) = (    0.61882334238    0.08820456329    0.61902555355  )
        27           Ge  tau(  27) = (    0.70733744656    0.17694442286    0.53014548662  )
        28           Si  tau(  28) = (    0.79545565476    0.26539442098    0.61868575122  )
        29           Si  tau(  29) = (    0.88388664649    0.35334189437    0.53033006717  )
        30           Ge  tau(  30) = (    0.97231438833    0.44186908419    0.61880879309  )
        31           Ge  tau(  31) = (    1.06044132687    0.53023116343    0.53020209510  )
        32           Si  tau(  32) = (    1.14921274663    0.61838383097    0.61848012025  )
        33           Si  tau(  33) = (    0.00025847324    0.17688446241    0.17657429772  )
        34           Ge  tau(  34) = (    0.08843842224    0.26493187117    0.26543130763  )
        35           Ge  tau(  35) = (    0.17662347207    0.35371853339    0.17679826431  )
        36           Si  tau(  36) = (    0.26524528452    0.44195623053    0.26518902665  )
        37           Ge  tau(  37) = (    0.35329132235    0.53038370779    0.17710221889  )
        38           Si  tau(  38) = (    0.44194487402    0.61852687773    0.26497452199  )
        39           Si  tau(  39) = (    0.53041438801    0.70705491529    0.17687344997  )
        40           Si  tau(  40) = (    0.61849902924    0.79557060947    0.26549108025  )
        41           Ge  tau(  41) = (    0.17668448743    0.17705645399    0.35346951148  )
        42           Ge  tau(  42) = (    0.26542535757    0.26483899298    0.44209858314  )
        43           Si  tau(  43) = (    0.35387234083    0.35382219018    0.35360970526  )
        44           Si  tau(  44) = (    0.44210138065    0.44183715942    0.44187574054  )
        45           Si  tau(  45) = (    0.53046010875    0.53023786082    0.35344780914  )
        46           Si  tau(  46) = (    0.61872585547    0.61841485321    0.44185970357  )
        47           Ge  tau(  47) = (    0.70691608586    0.70731753810    0.35369345689  )
        48           Ge  tau(  48) = (    0.79529464461    0.79519923428    0.44210436492  )
        49           Ge  tau(  49) = (    0.35341618979    0.17693071611    0.53000609781  )
        50           Si  tau(  50) = (    0.44214903638    0.26532927595    0.61876167034  )
        51           Si  tau(  51) = (    0.53051347596    0.35378924614    0.53004522546  )
        52           Si  tau(  52) = (    0.61883748889    0.44197562194    0.61852554407  )
        53           Ge  tau(  53) = (    0.70707628244    0.53001947428    0.53000023771  )
        54           Si  tau(  54) = (    0.79549215083    0.61882725358    0.61892939555  )
        55           Si  tau(  55) = (    0.88367846311    0.70696345580    0.53033712505  )
        56           Si  tau(  56) = (    0.97218216696    0.79552960637    0.61884758340  )
        57           Ge  tau(  57) = (    0.53061797171    0.17661705380    0.70709767745  )
        58           Si  tau(  58) = (    0.61867521412    0.26537456204    0.79518101054  )
        59           Si  tau(  59) = (    0.70690125927    0.35369043744    0.70705664398  )
        60           Ge  tau(  60) = (    0.79537249007    0.44176679090    0.79535115986  )
        61           Si  tau(  61) = (    0.88420280990    0.53007714169    0.70680268452  )
        62           Ge  tau(  62) = (    0.97244852917    0.61864537274    0.79562425989  )
        63           Si  tau(  63) = (    1.06068764214    0.70742135671    0.70688700369  )
        64           Si  tau(  64) = (    1.14878730528    0.79529448522    0.79525523672  )
        65           Si  tau(  65) = (   -0.00003686894    0.35363787170    0.35338461270  )
        66           Ge  tau(  66) = (    0.08863407683    0.44191595088    0.44183642467  )
        67           Si  tau(  67) = (    0.17711211596    0.53048439493    0.35363164055  )
        68           Ge  tau(  68) = (    0.26503244818    0.61844988406    0.44185013553  )
        69           Si  tau(  69) = (    0.35325304899    0.70707156038    0.35385551419  )
        70           Si  tau(  70) = (    0.44172381646    0.79567901035    0.44169410562  )
        71           Si  tau(  71) = (    0.53038275767    0.88405525496    0.35332965353  )
        72           Ge  tau(  72) = (    0.61878428643    0.97230997529    0.44189124327  )
        73           Ge  tau(  73) = (    0.17644428278    0.35385928839    0.53017744175  )
        74           Ge  tau(  74) = (    0.26514980631    0.44167798301    0.61864627410  )
        75           Si  tau(  75) = (    0.35333043436    0.53054968834    0.53061742933  )
        76           Ge  tau(  76) = (    0.44180971855    0.61897559847    0.61898892861  )
        77           Si  tau(  77) = (    0.53022062146    0.70682529242    0.53065172827  )
        78           Si  tau(  78) = (    0.61848351283    0.79577978722    0.61840184111  )
        79           Si  tau(  79) = (    0.70735136443    0.88376267189    0.53002200797  )
        80           Ge  tau(  80) = (    0.79581295877    0.97220088580    0.61843054567  )
        81           Ge  tau(  81) = (    0.35356263682    0.35352804401    0.70693163647  )
        82           Si  tau(  82) = (    0.44187642159    0.44177996891    0.79555515911  )
        83           Ge  tau(  83) = (    0.53003492400    0.53058364344    0.70726135819  )
        84           Ge  tau(  84) = (    0.61865726507    0.61891926216    0.79524220921  )
        85           Si  tau(  85) = (    0.70704845229    0.70682016337    0.70698707101  )
        86           Si  tau(  86) = (    0.79568576827    0.79580105016    0.79565752391  )
        87           Ge  tau(  87) = (    0.88402539110    0.88395973941    0.70736718687  )
        88           Si  tau(  88) = (    0.97204049337    0.97242019407    0.79520913098  )
        89           Si  tau(  89) = (    0.53042607293    0.35354177410    0.88364831867  )
        90           Ge  tau(  90) = (    0.61843185267    0.44219110956    0.97237494404  )
        91           Si  tau(  91) = (    0.70679190752    0.53013377015    0.88412440698  )
        92           Ge  tau(  92) = (    0.79560949878    0.61858101770    0.97213366342  )
        93           Ge  tau(  93) = (    0.88412701999    0.70698240679    0.88417155268  )
        94           Si  tau(  94) = (    0.97234507072    0.79556332175    0.97210226935  )
        95           Si  tau(  95) = (    1.06093296060    0.88382304174    0.88386495773  )
        96           Ge  tau(  96) = (    1.14874610388    0.97210179182    0.97213711503  )
        97           Ge  tau(  97) = (   -0.00026867724    0.53017327536    0.53020272101  )
        98           Si  tau(  98) = (    0.08863022611    0.61902901837    0.61892255032  )
        99           Ge  tau(  99) = (    0.17660646763    0.70699441808    0.53066694114  )
       100           Ge  tau( 100) = (    0.26520907933    0.79517896691    0.61879482982  )
       101           Si  tau( 101) = (    0.35368936967    0.88389524439    0.53059082250  )
       102           Si  tau( 102) = (    0.44165331423    0.97214173005    0.61896938435  )
       103           Ge  tau( 103) = (    0.53027937958    1.06052278969    0.53051190482  )
       104           Si  tau( 104) = (    0.61852472984    1.14874700521    0.61842606756  )
       105           Ge  tau( 105) = (    0.17690106586    0.53022011968    0.70730523438  )
       106           Ge  tau( 106) = (    0.26501954224    0.61839637054    0.79534224658  )
       107           Ge  tau( 107) = (    0.35375906272    0.70726862757    0.70729125178  )
       108           Ge  tau( 108) = (    0.44197979801    0.79574427721    0.79572255294  )
       109           Si  tau( 109) = (    0.53005146580    0.88417408823    0.70682294853  )
       110           Ge  tau( 110) = (    0.61895379520    0.97255515334    0.79535529085  )
       111           Ge  tau( 111) = (    0.70697179520    1.06078178554    0.70683951550  )
       112           Si  tau( 112) = (    0.79544505273    1.14923379116    0.79530413113  )
       113           Ge  tau( 113) = (    0.35330178280    0.53000885216    0.88408501772  )
       114           Ge  tau( 114) = (    0.44181758944    0.61844796742    0.97235894674  )
       115           Ge  tau( 115) = (    0.53008378267    0.70719748155    0.88362254255  )
       116           Si  tau( 116) = (    0.61889161926    0.79556077948    0.97257188051  )
       117           Si  tau( 117) = (    0.70742046057    0.88355152887    0.88355642873  )
       118           Si  tau( 118) = (    0.79533726133    0.97254940569    0.97195209738  )
       119           Ge  tau( 119) = (    0.88414982099    1.06077049011    0.88380347835  )
       120           Ge  tau( 120) = (    0.97206834521    1.14892627614    0.97207867716  )
       121           Ge  tau( 121) = (    0.53060540559    0.53049920164    1.06046695876  )
       122           Ge  tau( 122) = (    0.61855005503    0.61873853636    1.14921375547  )
       123           Ge  tau( 123) = (    0.70723115992    0.70730271054    1.06065655781  )
       124           Ge  tau( 124) = (    0.79520027279    0.79525395648    1.14930834896  )
       125           Si  tau( 125) = (    0.88420726114    0.88413073048    1.06061637430  )
       126           Si  tau( 126) = (    0.97215720755    0.97240037031    1.14897238046  )
       127           Ge  tau( 127) = (    1.06098283208    1.06055748004    1.06097884578  )
       128           Ge  tau( 128) = (    1.14936419700    1.14922649097    1.14897473834  )

   Crystallographic axes

     site n.     atom                  positions (cryst. coord.)
         1           Si  tau(   1) = (    0.00019926874    0.00022536363   -0.00063955370  )
         2           Ge  tau(   2) = (    0.06226489153    0.06252247972    0.06256868275  )
         3           Ge  tau(   3) = (   -0.00019579828    0.00001265577    0.25024726526  )
         4           Ge  tau(   4) = (    0.06302308111    0.06228581390    0.31227673924  )
         5           Si  tau(   5) = (    0.00021402540    0.00004150131    0.49953623613  )
         6           Ge  tau(   6) = (    0.06201382687    0.06277798523    0.56263712943  )
         7           Si  tau(   7) = (    0.00015536962   -0.00023643395    0.74989693388  )
         8           Ge  tau(   8) = (    0.06259806930    0.06210071899    0.81251467965  )
         9           Ge  tau(   9) = (    0.00021179370    0.24973083247    0.00024761686  )
        10           Ge  tau(  10) = (    0.06213002114    0.31259281925    0.06259927036  )
        11           Ge  tau(  11) = (   -0.00000753181    0.25018092578    0.24963741209  )
        12           Ge  tau(  12) = (    0.06273991986    0.31229099112    0.31233449772  )
        13           Ge  tau(  13) = (   -0.00008304123    0.24991767878    0.50023242311  )
        14           Ge  tau(  14) = (    0.06237091809    0.31284497145    0.56254896179  )
        15           Ge  tau(  15) = (    0.00029542468    0.24974474887    0.75011601435  )
        16           Ge  tau(  16) = (    0.06248169367    0.31268921901    0.81213567609  )
        17           Ge  tau(  17) = (   -0.00021093875    0.49993551433   -0.00026633810  )
        18           Si  tau(  18) = (    0.06245814879    0.56216032490    0.06289308472  )
        19           Si  tau(  19) = (   -0.00034457810    0.50006620296    0.25024729585  )
        20           Si  tau(  20) = (    0.06261660209    0.56203081349    0.31273954481  )
        21           Ge  tau(  21) = (    0.00061758505    0.49970525775    0.49982860583  )
        22           Ge  tau(  22) = (    0.06242808534    0.56235945872    0.56279835264  )
        23           Si  tau(  23) = (   -0.00001257895    0.50011973716    0.75026027095  )
        24           Ge  tau(  24) = (    0.06246892707    0.56259768338    0.81286257970  )
        25           Si  tau(  25) = (   -0.00061450069    0.75022618623    0.00019737782  )
        26           Ge  tau(  26) = (    0.06251302973    0.81292130356    0.06222705995  )
        27           Ge  tau(  27) = (   -0.00017503514    0.74991397236    0.25041223774  )
        28           Si  tau(  28) = (    0.06266699726    0.81228678296    0.31265739227  )
        29           Si  tau(  29) = (   -0.00015180519    0.75015177871    0.49985270436  )
        30           Ge  tau(  30) = (    0.06248242224    0.81264536546    0.56241482941  )
        31           Ge  tau(  31) = (   -0.00000570518    0.74982469887    0.74986580770  )
        32           Si  tau(  32) = (    0.06197876115    0.81268421297    0.81254803937  )
        33           Si  tau(  33) = (    0.24975031798   -0.00003655137    0.00040208773  )
        34           Ge  tau(  34) = (    0.31248799213    0.06288856300    0.06218225317  )
        35           Ge  tau(  35) = (    0.25024037037   -0.00020986718    0.24999317682  )
        36           Si  tau(  36) = (    0.31247046727    0.06256345081    0.31255002792  )
        37           Ge  tau(  37) = (    0.25045340658    0.00000695330    0.49962242624  )
        38           Si  tau(  38) = (    0.31222761360    0.06250294908    0.56250148558  )
        39           Si  tau(  39) = (    0.24997213056    0.00016470121    0.74995451999  )
        40           Si  tau(  40) = (    0.31293905833    0.06252202805    0.81216768741  )
        41           Ge  tau(  41) = (    0.25020370859    0.24967766844    0.00019192995  )
        42           Ge  tau(  42) = (    0.31219628371    0.31302552847    0.06234261200  )
        43           Si  tau(  43) = (    0.25000435861    0.25007528235    0.25037578140  )
        44           Si  tau(  44) = (    0.31226649995    0.31264016520    0.31258560326  )
        45           Si  tau(  45) = (    0.24976818963    0.25008249565    0.50010138444  )
        46           Si  tau(  46) = (    0.31222208092    0.31266190454    0.56234859166  )
        47           Ge  tau(  47) = (    0.25038291143    0.24981517222    0.74991514385  )
        48           Ge  tau(  48) = (    0.31254752914    0.31268245971    0.81203401278  )
        49           Ge  tau(  49) = (    0.24997683061    0.49956498105    0.00024098772  )
        50           Si  tau(  50) = (    0.31250012139    0.56256102469    0.06273213915  )
        51           Si  tau(  51) = (    0.24983567195    0.49976147457    0.25049787816  )
        52           Si  tau(  52) = (    0.31230338109    0.56242383201    0.31274453769  )
        53           Ge  tau(  53) = (    0.24956869240    0.49996483182    0.49999203645  )
        54           Si  tau(  54) = (    0.31272822583    0.56257011951    0.56242566895  )
        55           Si  tau(  55) = (    0.25004859744    0.49996135745    0.74974870986  )
        56           Si  tau(  56) = (    0.31267909924    0.56250354625    0.81236965936  )
        57           Ge  tau(  57) = (    0.24967711308    0.75031001228    0.00009711975  )
        58           Si  tau(  58) = (    0.31245659793    0.81209917171    0.06283970681  )
        59           Si  tau(  59) = (    0.25020678034    0.74972231495    0.24998703317  )
        60           Ge  tau(  60) = (    0.31236121081    0.81243518632    0.31239137628  )
        61           Si  tau(  61) = (    0.24938030980    0.75018963257    0.50026197309  )
        62           Ge  tau(  62) = (    0.31241469833    0.81276792057    0.56248197810  )
        63           Si  tau(  63) = (    0.25004760785    0.74964157983    0.75039726912  )
        64           Si  tau(  64) = (    0.31237320049    0.81228754082    0.81234304659  )
        65           Si  tau(  65) = (    0.49996646344   -0.00020515143    0.00015301088  )
        66           Ge  tau(  66) = (    0.56223354087    0.06261752325    0.06272999029  )
        67           Si  tau(  67) = (    0.49992726582    0.00018339633    0.25029096013  )
        68           Ge  tau(  68) = (    0.56233909261    0.06253136160    0.31228112108  )
        69           Si  tau(  69) = (    0.50040110235    0.00002616493    0.49954908791  )
        70           Si  tau(  70) = (    0.56260901513    0.06204077946    0.56265103260  )
        71           Si  tau(  71) = (    0.49992601516   -0.00024242715    0.75031691629  )
        72           Ge  tau(  72) = (    0.56244470658    0.06248388274    0.81260924731  )
        73           Ge  tau(  73) = (    0.50034341784    0.24944071074    0.00008918697  )
        74           Ge  tau(  74) = (    0.56227324639    0.31262470475    0.06235374739  )
        75           Si  tau(  75) = (    0.50051611874    0.24989024624    0.24979444603  )
        76           Ge  tau(  76) = (    0.56296646399    0.31241607381    0.31239722215  )
        77           Si  tau(  77) = (    0.50010579594    0.25034907509    0.49949611883  )
        78           Si  tau(  78) = (    0.56264353325    0.31190873744    0.56275903450  )
        79           Si  tau(  79) = (    0.49952378779    0.25004052424    0.75030536871  )
        80           Ge  tau(  80) = (    0.56202153185    0.31257133321    0.81287814619  )
        81           Ge  tau(  81) = (    0.49985169317    0.49990061479    0.00011246135  )
        82           Si  tau(  82) = (    0.56247424547    0.56261065016    0.06229697814  )
        83           Ge  tau(  83) = (    0.50049730569    0.49972129921    0.24986127884  )
        84           Ge  tau(  84) = (    0.56250641874    0.56213589890    0.31277759583  )
        85           Si  tau(  85) = (    0.49975392748    0.50007677677    0.49984073372  )
        86           Si  tau(  86) = (    0.56269634727    0.56253331405    0.56273629082  )
        87           Ge  tau(  87) = (    0.50013771186    0.50023055738    0.74997014020  )
        88           Si  tau(  88) = (    0.56256625791    0.56202928004    0.81264356886  )
        89           Si  tau(  89) = (    0.49975763113    0.74990980551    0.00022594067  )
        90           Ge  tau(  90) = (    0.56295189222    0.81219394136    0.06240077209  )
        91           Si  tau(  91) = (    0.50025419670    0.75008653048    0.24946817091  )
        92           Ge  tau(  92) = (    0.56222426619    0.81258034506    0.31258139847  )
        93           Ge  tau(  93) = (    0.49994354338    0.75046385787    0.49988056465  )
        94           Si  tau(  94) = (    0.56237653318    0.81238368015    0.56271990616  )
        95           Si  tau(  95) = (    0.49975128062    0.75022252991    0.75016325174  )
        96           Ge  tau(  96) = (    0.56249835537    0.81231113720    0.81226118263  )
        97           Ge  tau(  97) = (    0.74998904113   -0.00016916228   -0.00021080471  )
        98           Si  tau(  98) = (    0.81269291510    0.06259574962    0.06274631818  )
        99           Ge  tau(  99) = (    0.75027910905    0.00019727621    0.24956198552  )
       100           Ge  tau( 100) = (    0.81229932166    0.06280871900    0.31225355785  )
       101           Si  tau( 101) = (    0.75009653807    0.00027219919    0.49992010427  )
       102           Si  tau( 102) = (    0.81278940518    0.06256549285    0.56202661400  )
       103           Ge  tau( 103) = (    0.75006727636    0.00018985443    0.74973843602  )
       104           Si  tau( 104) = (    0.81221703249    0.06236949958    0.81235656202  )
       105           Ge  tau( 105) = (    0.74997462648    0.25030602872   -0.00013014218  )
       106           Ge  tau( 106) = (    0.81226704752    0.31251674432    0.06227748662  )
       107           Ge  tau( 107) = (    0.75009945093    0.25016142988    0.25012943442  )
       108           Ge  tau( 108) = (    0.81281007531    0.31251155094    0.31254227370  )
       109           Si  tau( 109) = (    0.75020180769    0.24939679231    0.50020917938  )
       110           Ge  tau( 110) = (    0.81243503779    0.31236720144    0.56296565022  )
       111           Ge  tau( 111) = (    0.74999245804    0.24962957120    0.75017952978  )
       112           Si  tau( 112) = (    0.81253136028    0.31219852818    0.81273065351  )
       113           Ge  tau( 113) = (    0.75009327820    0.50019174415   -0.00054757130  )
       114           Ge  tau( 114) = (    0.81245814302    0.56266506695    0.06215936013  )
       115           Ge  tau( 115) = (    0.75005378936    0.49957719433    0.25007448032  )
       116           Si  tau( 116) = (    0.81263613311    0.56278821068    0.31245671092  )
       117           Si  tau( 117) = (    0.74931221509    0.50022526955    0.50021834009  )
       118           Si  tau( 118) = (    0.81258182803    0.56196601006    0.56281073158  )
       119           Ge  tau( 119) = (    0.74983310561    0.50005375995    0.75032290806  )
       120           Ge  tau( 120) = (    0.81242086673    0.56230598220    0.81240625515  )
       121           Ge  tau( 121) = (    0.74978828023    0.74993847529    0.00045088556  )
       122           Ge  tau( 122) = (    0.81275011595    0.81248356310    0.06227831374  )
       123           Ge  tau( 123) = (    0.75004803847    0.74994685061    0.25022904748  )
       124           Ge  tau( 124) = (    0.81272168733    0.81264576712    0.31193724346  )
       125           Si  tau( 125) = (    0.74991491515    0.75002314586    0.50043475480  )
       126           Si  tau( 126) = (    0.81261810366    0.81227421959    0.56256368810  )
       127           Ge  tau( 127) = (    0.74992456724    0.75052610586    0.74993020471  )
       128           Ge  tau( 128) = (    0.81235045602    0.81254520176    0.81290123375  )

     number of k points=     8  gaussian smearing, width (Ry)=  0.0150
                       cart. coord. in units 2pi/alat
        k(    1) = (   0.0000000   0.0000000   0.0000000), wk =   0.2500000
        k(    2) = (  -0.3535534  -0.3535534   0.3535534), wk =   0.2500000
        k(    3) = (  -0.7071068   0.0000000   0.0000000), wk =   0.2500000
        k(    4) = (   0.3535534   0.3535534   0.3535534), wk =   0.2500000
        k(    5) = (   0.3535534  -0.3535534  -0.3535534), wk =   0.2500000
        k(    6) = (  -0.3535534   0.3535534  -0.3535534), wk =   0.2500000
        k(    7) = (   0.0000000  -0.7071068   0.0000000), wk =   0.2500000
        k(    8) = (   0.0000000   0.0000000  -0.7071068), wk =   0.2500000

                       cryst. coord.
        k(    1) = (   0.0000000   0.0000000   0.0000000), wk =   0.2500000
        k(    2) = (   0.0000000   0.0000000  -0.5000000), wk =   0.2500000
        k(    3) = (   0.0000000  -0.5000000  -0.5000000), wk =   0.2500000
        k(    4) = (   0.5000000   0.5000000   0.5000000), wk =   0.2500000
        k(    5) = (  -0.5000000   0.0000000   0.0000000), wk =   0.2500000
        k(    6) = (   0.0000000  -0.5000000   0.0000000), wk =   0.2500000
        k(    7) = (  -0.5000000   0.0000000  -0.5000000), wk =   0.2500000
        k(    8) = (  -0.5000000  -0.5000000   0.0000000), wk =   0.2500000

     Dense  grid:   876295 G-vectors     FFT dimensions: ( 135, 135, 135)

     Smooth grid:   513103 G-vectors     FFT dimensions: ( 120, 120, 120)

     Largest allocated arrays     est. size (Mb)     dimensions
        Kohn-Sham Wavefunctions        44.31 Mb     (    4028,  721)
        NL pseudopotentials           141.61 Mb     (    4028, 2304)
        Each V/rho on FFT grid          2.50 Mb     (  164025)
        Each G-vector array             0.42 Mb     (   54770)
        G-vector shells                 0.02 Mb     (    2932)
     Largest temporary arrays     est. size (Mb)     dimensions
        Auxiliary wavefunctions       177.26 Mb     (    4028, 2884)
        Each subspace H/S matrix      126.91 Mb     (    2884, 2884)
        Each <psi_i|beta_j> matrix     25.35 Mb     (    2304,  721)
        Arrays for rho mixing          20.02 Mb     (  164025,    8)

     Check: negative/imaginary core charge=   -0.000001    0.000000

     Initial potential from superposition of free atoms

     starting charge 1201.90600, renormalised to 1202.00000
     Starting wfc are  857 randomized atomic wfcs

     total cpu time spent up to now is      708.9 secs

     Self-consistent Calculation

     iteration #  1     ecut=    35.00 Ry     beta=0.30
     Davidson diagonalization with overlap
     ethr =  1.00E-02,  avg # of iterations =  3.0

     Threshold (ethr) on eigenvalues was too large:
     Diagonalizing with lowered threshold

     Davidson diagonalization with overlap
     ethr =  2.30E-04,  avg # of iterations =  5.4

     total cpu time spent up to now is     5327.6 secs

     total energy              =  -15274.18388828 Ry
     Harris-Foulkes estimate   =  -15274.47409510 Ry
     estimated scf accuracy    <       2.79022545 Ry

     iteration #  2     ecut=    35.00 Ry     beta=0.30
     Davidson diagonalization with overlap
     ethr =  2.32E-04,  avg # of iterations =  1.0

     total cpu time spent up to now is     6911.3 secs

     total energy              =  -15273.63294936 Ry
     Harris-Foulkes estimate   =  -15274.19692093 Ry
     estimated scf accuracy    <       1.72178929 Ry

     iteration #  3     ecut=    35.00 Ry     beta=0.30
     Davidson diagonalization with overlap
     ethr =  1.43E-04,  avg # of iterations =  2.8

     total cpu time spent up to now is     8855.1 secs

     total energy              =  -15273.73762250 Ry
     Harris-Foulkes estimate   =  -15273.73682775 Ry
     estimated scf accuracy    <       0.02516428 Ry

     iteration #  4     ecut=    35.00 Ry     beta=0.30
     Davidson diagonalization with overlap
     ethr =  2.09E-06,  avg # of iterations =  9.5

     total cpu time spent up to now is    14112.6 secs

     total energy              =  -15273.74128123 Ry
     Harris-Foulkes estimate   =  -15273.74206730 Ry
     estimated scf accuracy    <       0.01063553 Ry

     iteration #  5     ecut=    35.00 Ry     beta=0.30
     Davidson diagonalization with overlap
     ethr =  8.85E-07,  avg # of iterations =  2.0

     total cpu time spent up to now is    16077.5 secs

     total energy              =  -15273.74213624 Ry
     Harris-Foulkes estimate   =  -15273.74228505 Ry
     estimated scf accuracy    <       0.00068955 Ry

     iteration #  6     ecut=    35.00 Ry     beta=0.30
     Davidson diagonalization with overlap
     ethr =  5.74E-08,  avg # of iterations =  2.0

     total cpu time spent up to now is    17805.2 secs

     total energy              =  -15273.74211701 Ry
     Harris-Foulkes estimate   =  -15273.74217264 Ry
     estimated scf accuracy    <       0.00019590 Ry

     iteration #  7     ecut=    35.00 Ry     beta=0.30
     Davidson diagonalization with overlap
     ethr =  1.63E-08,  avg # of iterations =  2.0

     total cpu time spent up to now is    19682.5 secs

     total energy              =  -15273.74214163 Ry
     Harris-Foulkes estimate   =  -15273.74213686 Ry
     estimated scf accuracy    <       0.00005071 Ry

     iteration #  8     ecut=    35.00 Ry     beta=0.30
     Davidson diagonalization with overlap
     ethr =  4.22E-09,  avg # of iterations =  1.9

     total cpu time spent up to now is    21383.3 secs

     total energy              =  -15273.74213645 Ry
     Harris-Foulkes estimate   =  -15273.74214425 Ry
     estimated scf accuracy    <       0.00003283 Ry

     iteration #  9     ecut=    35.00 Ry     beta=0.30
     Davidson diagonalization with overlap
     ethr =  2.73E-09,  avg # of iterations =  3.0

     total cpu time spent up to now is    24201.8 secs

     total energy              =  -15273.74214056 Ry
     Harris-Foulkes estimate   =  -15273.74214483 Ry
     estimated scf accuracy    <       0.00001113 Ry

     iteration # 10     ecut=    35.00 Ry     beta=0.30
     Davidson diagonalization with overlap
     ethr =  9.26E-10,  avg # of iterations =  2.0

     total cpu time spent up to now is    26106.7 secs

     total energy              =  -15273.74214102 Ry
     Harris-Foulkes estimate   =  -15273.74214180 Ry
     estimated scf accuracy    <       0.00000262 Ry

     iteration # 11     ecut=    35.00 Ry     beta=0.30
     Davidson diagonalization with overlap
     ethr =  2.18E-10,  avg # of iterations =  2.1

     total cpu time spent up to now is    28303.3 secs

     total energy              =  -15273.74214161 Ry
     Harris-Foulkes estimate   =  -15273.74214147 Ry
     estimated scf accuracy    <       0.00000021 Ry

     iteration # 12     ecut=    35.00 Ry     beta=0.30
     Davidson diagonalization with overlap
     ethr =  1.74E-11,  avg # of iterations =  2.4

     total cpu time spent up to now is    30146.5 secs

     total energy              =  -15273.74214169 Ry
     Harris-Foulkes estimate   =  -15273.74214163 Ry
     estimated scf accuracy    <       0.00000008 Ry

     iteration # 13     ecut=    35.00 Ry     beta=0.30
     Davidson diagonalization with overlap
     ethr =  6.37E-12,  avg # of iterations =  2.0

     total cpu time spent up to now is    32099.3 secs

     total energy              =  -15273.74214174 Ry
     Harris-Foulkes estimate   =  -15273.74214170 Ry
     estimated scf accuracy    <          5.0E-09 Ry

     iteration # 14     ecut=    35.00 Ry     beta=0.30
     Davidson diagonalization with overlap
     ethr =  4.19E-13,  avg # of iterations =  3.0

     total cpu time spent up to now is    34408.0 secs

     total energy              =  -15273.74214176 Ry
     Harris-Foulkes estimate   =  -15273.74214174 Ry
     estimated scf accuracy    <          1.7E-09 Ry

     iteration # 15     ecut=    35.00 Ry     beta=0.30
     Davidson diagonalization with overlap
     ethr =  1.41E-13,  avg # of iterations =  2.3

     total cpu time spent up to now is    36384.3 secs

     End of self-consistent calculation

          k = 0.0000 0.0000 0.0000 ( 64071 PWs)   bands (ev):

   -17.2354 -17.2323 -17.2275 -17.2253 -17.2227 -17.2183 -17.2165 -17.2131
   -17.2106 -17.2093 -17.2077 -17.2049 -17.2011 -17.2003 -17.1996 -17.1985
   -17.1963 -17.1947 -17.1941 -17.1928 -17.1924 -17.1922 -17.1894 -17.1872
   -17.1852 -17.1838 -17.1825 -17.1807 -17.1772 -17.1720 -17.1697 -17.1690
   -17.1659 -17.1649 -17.1624 -17.1581 -17.1545 -17.1535 -17.1505 -17.1482
   -17.1434 -17.1425 -17.1398 -17.1375 -17.1354 -17.1333 -17.1328 -17.1296
   -17.1259 -17.1227 -17.1205 -17.1188 -17.1175 -17.1173 -17.1152 -17.1138
   -17.1116 -17.1104 -17.1074 -17.1068 -17.1042 -17.1022 -17.1014 -17.0994
   -17.0961 -17.0946 -17.0942 -17.0928 -17.0904 -17.0903 -17.0881 -17.0858
   -17.0845 -17.0840 -17.0813 -17.0805 -17.0790 -17.0768 -17.0763 -17.0754
   -17.0735 -17.0728 -17.0722 -17.0699 -17.0680 -17.0661 -17.0658 -17.0647
   -17.0628 -17.0615 -17.0597 -17.0554 -17.0540 -17.0513 -17.0506 -17.0474
   -17.0459 -17.0436 -17.0430 -17.0426 -17.0419 -17.0389 -17.0371 -17.0346
   -17.0317 -17.0291 -17.0279 -17.0256 -17.0251 -17.0236 -17.0234 -17.0210
   -17.0202 -17.0196 -17.0177 -17.0170 -17.0154 -17.0143 -17.0138 -17.0123
   -17.0118 -17.0114 -17.0093 -17.0072 -17.0069 -17.0059 -17.0055 -17.0053
   -17.0049 -17.0039 -17.0029 -17.0020 -17.0008 -17.0001 -16.9995 -16.9992
   -16.9988 -16.9977 -16.9966 -16.9955 -16.9938 -16.9919 -16.9906 -16.9891
   -16.9878 -16.9861 -16.9854 -16.9841 -16.9831 -16.9817 -16.9805 -16.9786
   -16.9755 -16.9740 -16.9735 -16.9728 -16.9716 -16.9696 -16.9688 -16.9661
   -16.9650 -16.9639 -16.9635 -16.9628 -16.9604 -16.9587 -16.9580 -16.9567
   -16.9554 -16.9543 -16.9538 -16.9527 -16.9518 -16.9499 -16.9492 -16.9469
   -16.9448 -16.9446 -16.9435 -16.9429 -16.9414 -16.9407 -16.9399 -16.9390
   -16.9367 -16.9363 -16.9357 -16.9344 -16.9327 -16.9319 -16.9315 -16.9309
   -16.9297 -16.9292 -16.9290 -16.9287 -16.9281 -16.9279 -16.9275 -16.9269
   -16.9263 -16.9261 -16.9258 -16.9251 -16.9246 -16.9241 -16.9239 -16.9234
   -16.9229 -16.9226 -16.9225 -16.9219 -16.9217 -16.9216 -16.9209 -16.9204
   -16.9200 -16.9199 -16.9195 -16.9187 -16.9181 -16.9175 -16.9172 -16.9168
   -16.9167 -16.9157 -16.9155 -16.9146 -16.9144 -16.9132 -16.9125 -16.9116
   -16.9107 -16.9101 -16.9088 -16.9081 -16.9071 -16.9064 -16.9061 -16.9046
   -16.9044 -16.9033 -16.9028 -16.9024 -16.9017 -16.9006 -16.9001 -16.8993
   -16.8989 -16.8986 -16.8980 -16.8970 -16.8962 -16.8951 -16.8946 -16.8941
   -16.8937 -16.8933 -16.8926 -16.8917 -16.8908 -16.8903 -16.8901 -16.8893
   -16.8886 -16.8877 -16.8866 -16.8862 -16.8854 -16.8850 -16.8849 -16.8835
   -16.8827 -16.8820 -16.8817 -16.8815 -16.8808 -16.8799 -16.8790 -16.8782
   -16.8779 -16.8775 -16.8767 -16.8753 -16.8744 -16.8733 -16.8730 -16.8713
   -16.8705 -16.8680 -16.8653 -16.8633 -16.8624 -16.8606 -16.8594 -16.8589
   -16.8574 -16.8554 -16.8532 -16.8519 -16.8512 -16.8496 -16.8486 -16.8475
   -16.8468 -16.8436 -16.8417 -16.8414 -16.8393 -16.8370 -16.8356 -16.8346
   -16.8315 -16.8297 -16.8294 -16.8274 -16.8268 -16.8257 -16.8246 -16.8235
   -16.8222 -16.8212 -16.8202 -16.8196 -16.8187 -16.8178 -16.8169 -16.8158
   -16.8151 -16.8148 -16.8143 -16.8136 -16.8126 -16.8117 -16.8098 -16.8093
   -16.8090 -16.8062 -16.8053 -16.8036 -16.8002 -16.7994 -16.7987 -16.7977
   -16.7952  -5.1364  -4.5210  -4.4844  -4.4533  -4.4221  -4.4077  -4.2879
    -4.2122  -4.1745  -4.0580  -4.0162  -3.9863  -3.9288  -3.9101  -3.8432
    -3.2959  -3.2753  -3.2384  -3.2155  -3.2001  -3.1864  -3.1361  -3.0940
    -3.0548  -3.0126  -2.9840  -2.9491  -2.8916  -2.8680  -2.8239  -2.7085
    -2.6817  -2.6580  -2.6266  -2.6093  -2.5175  -2.4793  -2.4439  -2.4397
    -2.4112  -2.3589  -2.3415  -2.3014  -2.2773  -2.2640  -2.2422  -2.2039
    -2.1817  -2.1620  -2.1139  -2.0789  -2.0571  -2.0462  -1.9834  -1.9506
    -1.1165  -1.0860  -1.0291  -0.9862  -0.9752  -0.9166  -0.8779  -0.8687
    -0.8313  -0.8042  -0.7871  -0.7591  -0.7428  -0.7154  -0.6810  -0.6640
    -0.6175  -0.5849   0.0464   0.0934   0.1052   0.1276   0.3188   0.3337
     0.3880   0.4211   0.4341   0.4596   0.4782   0.4930   0.5150   0.5168
     0.5449   0.5737   0.6013   0.6080   0.6260   0.6368   0.6649   0.6801
     0.6980   0.7063   0.7379   0.7840   0.8239   0.8562   1.3667   1.4052
     1.4597   1.4646   1.4718   1.4844   1.5009   1.5385   1.5515   1.5801
     1.6005   1.6258   3.0455   3.0672   3.0951   3.1092   3.1411   3.1841
     3.2118   3.2476   3.3632   3.3859   3.3995   3.4515   3.4585   3.4955
     3.5271   3.5300   3.5320   3.5352   3.5361   3.5376   3.5379   3.5409
     3.5433   3.5458   3.5475   3.5523   3.5952   3.5962   3.6000   3.6057
     3.6076   3.6083   3.6089   3.6152   3.6181   3.6208   3.6250   3.6289
     3.7616   3.7648   3.7670   3.7699   3.7753   3.7801   3.7842   3.7860
     3.7865   3.7901   3.7962   3.7974   3.8010   3.8032   3.8081   3.8087
     3.8119   3.8167   3.8187   3.8208   3.8240   3.8304   3.8310   3.8361
     4.4770   4.4782   4.4791   4.4804   4.4809   4.4822   5.1306   5.1348
     5.1364   5.1376   5.1403   5.1417   5.1433   5.1467   5.1473   5.1487
     5.1502   5.1515   5.1535   5.1550   5.1568   5.1577   5.1591   5.1619
     5.1630   5.1635   5.1649   5.1668   5.1694   5.1719   5.4833   5.4858
     5.4887   5.4941   5.4972   5.5006   5.5016   5.5038   5.5040   5.5063
     5.5113   5.5152   6.0407   6.0443   6.0472   6.0523   6.0544   6.0555
     6.0583   6.0614   6.0620   6.0640   6.0661   6.0744   6.1622   6.1666
     6.1725   6.1755   6.1780   6.1801   6.1838   6.1911   6.6289   6.6306
     6.6391   6.6400   6.6499   6.6505   6.6637   6.6705   6.6722   6.6788
     6.6859   6.6887   6.6920   6.6992   6.7043   6.7164   7.5160   7.5175
     7.5188   8.0787   8.0913   8.1066   8.1128   8.1358   8.1490   8.2089
     8.2575   8.2743   8.3184   8.4335   8.4549   8.4654   8.4829   8.4881
     8.5024   8.6355   8.6850   8.7018   8.7113   8.7434   8.7587   8.7840
     8.7955   8.8086   8.8299   8.8328   8.8423   8.8712   8.8743   8.8860
     8.8907   8.8930   8.9057   8.9150   8.9225   8.9314   8.9380   8.9516
     8.9554   8.9630   8.9701   8.9743   8.9764   9.0001   9.0078   9.0357
     9.0631   9.2267   9.6365   9.6543   9.6663   9.6744   9.6874   9.6929
     9.7065   9.7107   9.7274   9.7506   9.7639   9.7875  10.0162  10.0203
    10.0228  10.4121  10.4164  10.4399  10.4749  10.4774  10.5024  10.8682
    10.8868  10.9274  10.9355  10.9389  10.9504  10.9569  10.9685  10.9721
    10.9761  11.0103  11.0141  11.0378  11.0518  11.0545  11.0617  11.0725
    11.0923  11.1077  11.1218  11.1324  11.1510  11.1674  11.1777  11.6951
    11.7319  11.7401  11.7485  11.7545  11.7571  11.7737  11.7936  11.7989
    11.8092  11.8116  11.8192  11.8343  11.8403  11.8437  11.8538  11.8622
    11.8691  11.8871  11.8964  11.8989  11.8993  11.9172  11.9209  11.9298
    11.9440

     occupation numbers 
     1.0000   1.0000   1.0000   1.0000   1.0000   1.0000   1.0000   1.0000
     1.0000   1.0000   1.0000   1.0000   1.0000   1.0000   1.0000   1.0000
     1.0000   1.0000   1.0000   1.0000   1.0000   1.0000   1.0000   1.0000
     1.0000   1.0000   1.0000   1.0000   1.0000   1.0000   1.0000   1.0000
     1.0000   1.0000   1.0000   1.0000   1.0000   1.0000   1.0000   1.0000
     1.0000   1.0000   1.0000   1.0000   1.0000   1.0000   1.0000   1.0000
     1.0000   1.0000   1.0000   1.0000   1.0000   1.0000   1.0000   1.0000
     1.0000   1.0000   1.0000   1.0000   1.0000   1.0000   1.0000   1.0000
     1.0000   1.0000   1.0000   1.0000   1.0000   1.0000   1.0000   1.0000
     1.0000   1.0000   1.0000   1.0000   1.0000   1.0000   1.0000   1.0000
     1.0000   1.0000   1.0000   1.0000   1.0000   1.0000   1.0000   1.0000
     1.0000   1.0000   1.0000   1.0000   1.0000   1.0000   1.0000   1.0000
     1.0000   1.0000   1.0000   1.0000   1.0000   1.0000   1.0000   1.0000
     1.0000   1.0000   1.0000   1.0000   1.0000   1.0000   1.0000   1.0000
     1.0000   1.0000   1.0000   1.0000   1.0000   1.0000   1.0000   1.0000
     1.0000   1.0000   1.0000   1.0000   1.0000   1.0000   1.0000   1.0000
     1.0000   1.0000   1.0000   1.0000   1.0000   1.0000   1.0000   1.0000
     1.0000   1.0000   1.0000   1.0000   1.0000   1.0000   1.0000   1.0000
     1.0000   1.0000   1.0000   1.0000   1.0000   1.0000   1.0000   1.0000
     1.0000   1.0000   1.0000   1.0000   1.0000   1.0000   1.0000   1.0000
     1.0000   1.0000   1.0000   1.0000   1.0000   1.0000   1.0000   1.0000
     1.0000   1.0000   1.0000   1.0000   1.0000   1.0000   1.0000   1.0000
     1.0000   1.0000   1.0000   1.0000   1.0000   1.0000   1.0000   1.0000
     1.0000   1.0000   1.0000   1.0000   1.0000   1.0000   1.0000   1.0000
     1.0000   1.0000   1.0000   1.0000   1.0000   1.0000   1.0000   1.0000
     1.0000   1.0000   1.0000   1.0000   1.0000   1.0000   1.0000   1.0000
     1.0000   1.0000   1.0000   1.0000   1.0000   1.0000   1.0000   1.0000
     1.0000   1.0000   1.0000   1.0000   1.0000   1.0000   1.0000   1.0000
     1.0000   1.0000   1.0000   1.0000   1.0000   1.0000   1.0000   1.0000
     1.0000   1.0000   1.0000   1.0000   1.0000   1.0000   1.0000   1.0000
     1.0000   1.0000   1.0000   1.0000   1.0000   1.0000   1.0000   1.0000
     1.0000   1.0000   1.0000   1.0000   1.0000   1.0000   1.0000   1.0000
     1.0000   1.0000   1.0000   1.0000   1.0000   1.0000   1.0000   1.0000
     1.0000   1.0000   1.0000   1.0000   1.0000   1.0000   1.0000   1.0000
     1.0000   1.0000   1.0000   1.0000   1.0000   1.0000   1.0000   1.0000
     1.0000   1.0000   1.0000   1.0000   1.0000   1.0000   1.0000   1.0000
     1.0000   1.0000   1.0000   1.0000   1.0000   1.0000   1.0000   1.0000
     1.0000   1.0000   1.0000   1.0000   1.0000   1.0000   1.0000   1.0000
     1.0000   1.0000   1.0000   1.0000   1.0000   1.0000   1.0000   1.0000
     1.0000   1.0000   1.0000   1.0000   1.0000   1.0000   1.0000   1.0000
     1.0000   1.0000   1.0000   1.0000   1.0000   1.0000   1.0000   1.0000
     1.0000   1.0000   1.0000   1.0000   1.0000   1.0000   1.0000   1.0000
     1.0000   1.0000   1.0000   1.0000   1.0000   1.0000   1.0000   1.0000
     1.0000   1.0000   1.0000   1.0000   1.0000   1.0000   1.0000   1.0000
     1.0000   1.0000   1.0000   1.0000   1.0000   1.0000   1.0000   1.0000
     1.0000   1.0000   1.0000   1.0000   1.0000   1.0000   1.0000   1.0000
     1.0000   1.0000   1.0000   1.0000   1.0000   1.0000   1.0000   1.0000
     1.0000   1.0000   1.0000   1.0000   1.0000   1.0000   1.0000   1.0000
     1.0000   1.0000   1.0000   1.0000   1.0000   1.0000   1.0000   1.0000
     1.0000   1.0000   1.0000   1.0000   1.0000   1.0000   1.0000   1.0000
     1.0000   1.0000   1.0000   1.0000   1.0000   1.0000   1.0000   1.0000
     1.0000   1.0000   1.0000   1.0000   1.0000   1.0000   1.0000   1.0000
     1.0000   1.0000   1.0000   1.0000   1.0000   1.0000   1.0000   1.0000
     1.0000   1.0000   1.0000   1.0000   1.0000   1.0000   1.0000   1.0000
     1.0000   1.0000   1.0000   1.0000   1.0000   1.0000   1.0000   1.0000
     1.0000   1.0000   1.0000   1.0000   1.0000   1.0000   1.0000   1.0000
     1.0000   1.0000   1.0000   1.0000   1.0000   1.0000   1.0000   1.0000
     1.0000   1.0000   1.0000   1.0000   1.0000   1.0000   1.0000   1.0000
     1.0000   1.0000   1.0000   1.0000   1.0000   1.0000   1.0000   1.0000
     1.0000   1.0000   1.0000   1.0000   1.0000   1.0000   1.0000   1.0000
     1.0000   1.0000   1.0000   1.0000   1.0000   1.0000   1.0000   1.0000
     1.0000   1.0000   1.0000   1.0000   1.0000   1.0000   1.0000   1.0000
     1.0000   1.0000   1.0000   1.0000   1.0000   1.0000   1.0000   1.0000
     1.0000   1.0000   1.0000   1.0000   1.0000   1.0000   1.0000   1.0000
     1.0000   1.0000   1.0000   1.0000   1.0000   1.0000   1.0000   1.0000
     1.0000   1.0000   1.0000   1.0000   1.0000   1.0000   1.0000   1.0000
     1.0000   1.0000   1.0000   1.0000   1.0000   1.0000   1.0000   1.0000
     1.0000   1.0000   1.0000   1.0000   1.0000   1.0000   1.0000   1.0000
     1.0000   1.0000   1.0000   1.0000   1.0000   1.0000   1.0000   1.0000
     1.0000   1.0000   1.0000   1.0000   1.0000   1.0000   1.0000   1.0000
     1.0000   1.0000   1.0000   1.0000   1.0000   1.0000   1.0000   1.0000
     1.0000   1.0000   1.0000   1.0000   1.0000   1.0000   1.0000   1.0000
     1.0000   1.0000   1.0000   1.0000   1.0000   1.0000   1.0000   1.0000
     1.0000   1.0000   1.0000   1.0000   1.0000   1.0000   1.0000   1.0000
     1.0000   1.0000   1.0000   1.0000   1.0000   1.0000   0.9293   0.9279
     0.9266   0.0076   0.0059   0.0044   0.0038   0.0024   0.0018   0.0004
     0.0001   0.0001   0.0000   0.0000   0.0000   0.0000   0.0000   0.0000
     0.0000   0.0000   0.0000   0.0000   0.0000   0.0000   0.0000   0.0000
     0.0000   0.0000   0.0000   0.0000   0.0000   0.0000   0.0000   0.0000
     0.0000   0.0000   0.0000   0.0000   0.0000   0.0000   0.0000   0.0000
     0.0000   0.0000   0.0000   0.0000   0.0000   0.0000   0.0000   0.0000
     0.0000   0.0000   0.0000   0.0000   0.0000   0.0000   0.0000   0.0000
     0.0000   0.0000   0.0000   0.0000   0.0000   0.0000   0.0000   0.0000
     0.0000   0.0000   0.0000   0.0000   0.0000   0.0000   0.0000   0.0000
     0.0000   0.0000   0.0000   0.0000   0.0000   0.0000   0.0000   0.0000
     0.0000   0.0000   0.0000   0.0000   0.0000   0.0000   0.0000   0.0000
     0.0000   0.0000   0.0000   0.0000   0.0000   0.0000   0.0000   0.0000
     0.0000   0.0000   0.0000   0.0000   0.0000   0.0000   0.0000   0.0000
     0.0000   0.0000   0.0000   0.0000   0.0000   0.0000   0.0000   0.0000
     0.0000   0.0000   0.0000   0.0000   0.0000   0.0000   0.0000   0.0000
     0.0000

          k =-0.3536-0.3536 0.3536 ( 64114 PWs)   bands (ev):

   -17.2355 -17.2322 -17.2275 -17.2253 -17.2227 -17.2183 -17.2165 -17.2130
   -17.2106 -17.2094 -17.2071 -17.2049 -17.2010 -17.2006 -17.1995 -17.1991
   -17.1970 -17.1950 -17.1941 -17.1940 -17.1924 -17.1919 -17.1895 -17.1864
   -17.1856 -17.1840 -17.1823 -17.1805 -17.1785 -17.1721 -17.1698 -17.1683
   -17.1660 -17.1651 -17.1623 -17.1580 -17.1545 -17.1533 -17.1505 -17.1481
   -17.1432 -17.1425 -17.1391 -17.1374 -17.1355 -17.1334 -17.1325 -17.1299
   -17.1261 -17.1224 -17.1205 -17.1187 -17.1174 -17.1168 -17.1156 -17.1139
   -17.1115 -17.1105 -17.1076 -17.1065 -17.1041 -17.1026 -17.1011 -17.0995
   -17.0956 -17.0948 -17.0937 -17.0926 -17.0906 -17.0892 -17.0882 -17.0872
   -17.0850 -17.0843 -17.0827 -17.0799 -17.0790 -17.0783 -17.0754 -17.0740
   -17.0735 -17.0729 -17.0717 -17.0711 -17.0683 -17.0660 -17.0652 -17.0640
   -17.0635 -17.0628 -17.0599 -17.0554 -17.0540 -17.0527 -17.0507 -17.0476
   -17.0460 -17.0435 -17.0431 -17.0423 -17.0410 -17.0390 -17.0372 -17.0333
   -17.0316 -17.0292 -17.0277 -17.0260 -17.0252 -17.0238 -17.0234 -17.0213
   -17.0201 -17.0196 -17.0179 -17.0169 -17.0153 -17.0141 -17.0135 -17.0128
   -17.0120 -17.0115 -17.0092 -17.0077 -17.0070 -17.0063 -17.0059 -17.0055
   -17.0051 -17.0035 -17.0024 -17.0017 -17.0010 -17.0001 -16.9997 -16.9994
   -16.9990 -16.9977 -16.9968 -16.9963 -16.9943 -16.9920 -16.9907 -16.9891
   -16.9881 -16.9862 -16.9850 -16.9830 -16.9821 -16.9808 -16.9801 -16.9784
   -16.9755 -16.9741 -16.9733 -16.9726 -16.9717 -16.9696 -16.9692 -16.9660
   -16.9647 -16.9643 -16.9634 -16.9628 -16.9611 -16.9585 -16.9580 -16.9570
   -16.9562 -16.9543 -16.9540 -16.9526 -16.9515 -16.9499 -16.9491 -16.9478
   -16.9446 -16.9443 -16.9433 -16.9426 -16.9420 -16.9400 -16.9392 -16.9387
   -16.9378 -16.9367 -16.9362 -16.9340 -16.9332 -16.9323 -16.9314 -16.9304
   -16.9302 -16.9295 -16.9291 -16.9284 -16.9280 -16.9279 -16.9271 -16.9269
   -16.9267 -16.9263 -16.9257 -16.9252 -16.9248 -16.9243 -16.9236 -16.9233
   -16.9228 -16.9224 -16.9223 -16.9221 -16.9221 -16.9217 -16.9210 -16.9207
   -16.9200 -16.9198 -16.9196 -16.9189 -16.9187 -16.9176 -16.9173 -16.9170
   -16.9167 -16.9160 -16.9152 -16.9147 -16.9139 -16.9130 -16.9122 -16.9117
   -16.9109 -16.9102 -16.9099 -16.9077 -16.9070 -16.9064 -16.9061 -16.9043
   -16.9042 -16.9038 -16.9034 -16.9020 -16.9017 -16.9009 -16.9002 -16.8998
   -16.8988 -16.8981 -16.8975 -16.8970 -16.8964 -16.8957 -16.8954 -16.8943
   -16.8942 -16.8933 -16.8923 -16.8913 -16.8911 -16.8904 -16.8902 -16.8896
   -16.8891 -16.8877 -16.8865 -16.8857 -16.8854 -16.8849 -16.8848 -16.8839
   -16.8827 -16.8822 -16.8817 -16.8815 -16.8806 -16.8798 -16.8793 -16.8782
   -16.8780 -16.8774 -16.8768 -16.8752 -16.8738 -16.8733 -16.8729 -16.8711
   -16.8704 -16.8682 -16.8658 -16.8641 -16.8633 -16.8613 -16.8594 -16.8575
   -16.8571 -16.8551 -16.8544 -16.8522 -16.8503 -16.8496 -16.8490 -16.8476
   -16.8465 -16.8439 -16.8424 -16.8407 -16.8393 -16.8361 -16.8355 -16.8352
   -16.8316 -16.8294 -16.8283 -16.8275 -16.8272 -16.8259 -16.8243 -16.8234
   -16.8228 -16.8213 -16.8205 -16.8203 -16.8187 -16.8178 -16.8166 -16.8164
   -16.8153 -16.8152 -16.8141 -16.8132 -16.8127 -16.8119 -16.8100 -16.8092
   -16.8090 -16.8063 -16.8052 -16.8035 -16.8002 -16.7996 -16.7988 -16.7978
   -16.7953  -5.0345  -4.8291  -4.5393  -4.5121  -4.4664  -4.3572  -4.2829
    -4.1890  -4.0342  -3.9874  -3.8544  -3.8368  -3.8132  -3.7430  -3.6078
    -3.4940  -3.4266  -3.3895  -3.3323  -3.2586  -3.2404  -3.1571  -3.1447
    -3.1151  -3.0467  -3.0047  -2.9941  -2.9763  -2.9240  -2.8738  -2.8313
    -2.8086  -2.7882  -2.7370  -2.7158  -2.6553  -2.5413  -2.5095  -2.4954
    -2.4337  -2.2549  -2.2218  -2.1984  -2.1400  -2.0760  -2.0501  -2.0001
    -1.9338  -1.9002  -1.8599  -1.7672  -1.7305  -1.7209  -1.6858  -1.6603
    -1.5980  -1.5504  -1.5462  -1.4792  -1.4593  -1.4422  -1.4098  -1.3393
    -1.3104  -0.3046  -0.2715  -0.2244  -0.2044  -0.1971  -0.1705  -0.1481
    -0.1182  -0.0799  -0.0451  -0.0217   0.0330   0.0611   0.0881   0.1175
     0.1322   0.1513   0.1825   0.2246   0.2477   0.2643   0.2876   0.3310
     0.3668   0.4016   0.4333   0.4865   0.4996   0.5230   0.5744   0.9741
     1.0163   1.0547   1.0777   1.0819   1.1090   1.1321   1.1653   1.1808
     1.2227   1.2340   1.2669   1.3110   1.3453   1.8721   1.8974   1.9910
     2.0311   2.0614   2.0839   2.3273   2.3404   2.4370   2.4679   2.5041
     2.5303   3.2924   3.2939   3.2991   3.3015   3.3046   3.3081   3.3132
     3.3151   3.3184   3.3201   3.3256   3.3317   3.3382   3.3416   3.3447
     3.3515   3.3572   3.3685   3.7408   3.7563   3.7937   3.8240   3.8603
     3.8989   3.9149   3.9181   3.9203   3.9345   3.9367   3.9395   3.9722
     3.9767   3.9777   3.9867   3.9908   3.9948   4.0004   4.0048   4.0073
     4.0170   4.0246   4.0285   4.4067   4.4075   4.4087   4.4099   4.4123
     4.4138   4.4166   4.4184   4.4210   4.4225   4.4245   4.4260   4.6457
     4.6469   4.6477   4.6574   4.6615   4.6662   4.6674   4.6696   4.6786
     4.6839   4.6853   4.6940   4.9507   4.9560   4.9603   4.9866   4.9936
     4.9985   5.0055   5.0133   5.0256   5.0320   5.0411   5.0438   5.1489
     5.1502   5.1582   5.1601   5.1649   5.1691   5.4248   5.4315   5.4346
     5.4365   5.4387   5.4420   5.4476   5.4502   5.4548   5.4558   5.4619
     5.4660   5.4752   5.4777   5.4805   5.4814   5.4838   5.4869   5.5364
     5.6413   5.7960   5.8046   5.8116   5.8127   5.8146   5.8165   6.0535
     6.0650   6.0732   6.0770   6.0840   6.0923   6.0984   6.1107   6.1137
     6.1162   6.1202   6.1301   6.2880   6.2947   6.3144   6.3163   6.6142
     6.6247   6.6349   6.6383   6.6535   6.6693   7.1601   7.1657   7.2219
     7.2253   8.2472   8.2707   8.2840   8.3220   8.3335   8.3395   8.3653
     8.4228   8.6885   8.6974   8.7105   8.7343   8.7456   8.7631   9.0886
     9.1198   9.1387   9.1437   9.1564   9.1899   9.2119   9.2370   9.2521
     9.2670   9.2834   9.2941   9.3089   9.3227   9.3470   9.3547   9.3785
     9.4015   9.4181   9.4201   9.4710   9.4899   9.4915   9.5057   9.5168
     9.5205   9.5796   9.5890   9.6579   9.6722   9.6830   9.7291   9.7352
     9.7441   9.7738   9.7778   9.7925   9.8070   9.8163   9.8417   9.8550
     9.8698   9.8743   9.8910  10.1170  10.1429  10.1531  10.1742  10.1795
    10.1831  10.1920  10.2015  10.2038  10.2099  10.2202  10.2422  10.2684
    10.3094  10.3172  10.3230  10.3329  10.3542  10.4162  10.4310  10.5064
    10.5125  10.6023  10.6208  10.6268  10.6585  10.6611  10.6756  10.8107
    10.8284  10.8507  10.8657  10.8730  10.8835  10.8983  10.9116  10.9174
    10.9427  10.9504  10.9616  10.9812  10.9851  10.9898  10.9969  11.0024
    11.0204  11.0261  11.0642  11.1322  11.1612  11.1793  11.1924  11.2032
    11.2391  11.2622  11.2681  11.2770  11.3091  11.3253  11.3586  11.3792
    11.4079

     occupation numbers 
     1.0000   1.0000   1.0000   1.0000   1.0000   1.0000   1.0000   1.0000
     1.0000   1.0000   1.0000   1.0000   1.0000   1.0000   1.0000   1.0000
     1.0000   1.0000   1.0000   1.0000   1.0000   1.0000   1.0000   1.0000
     1.0000   1.0000   1.0000   1.0000   1.0000   1.0000   1.0000   1.0000
     1.0000   1.0000   1.0000   1.0000   1.0000   1.0000   1.0000   1.0000
     1.0000   1.0000   1.0000   1.0000   1.0000   1.0000   1.0000   1.0000
     1.0000   1.0000   1.0000   1.0000   1.0000   1.0000   1.0000   1.0000
     1.0000   1.0000   1.0000   1.0000   1.0000   1.0000   1.0000   1.0000
     1.0000   1.0000   1.0000   1.0000   1.0000   1.0000   1.0000   1.0000
     1.0000   1.0000   1.0000   1.0000   1.0000   1.0000   1.0000   1.0000
     1.0000   1.0000   1.0000   1.0000   1.0000   1.0000   1.0000   1.0000
     1.0000   1.0000   1.0000   1.0000   1.0000   1.0000   1.0000   1.0000
     1.0000   1.0000   1.0000   1.0000   1.0000   1.0000   1.0000   1.0000
     1.0000   1.0000   1.0000   1.0000   1.0000   1.0000   1.0000   1.0000
     1.0000   1.0000   1.0000   1.0000   1.0000   1.0000   1.0000   1.0000
     1.0000   1.0000   1.0000   1.0000   1.0000   1.0000   1.0000   1.0000
     1.0000   1.0000   1.0000   1.0000   1.0000   1.0000   1.0000   1.0000
     1.0000   1.0000   1.0000   1.0000   1.0000   1.0000   1.0000   1.0000
     1.0000   1.0000   1.0000   1.0000   1.0000   1.0000   1.0000   1.0000
     1.0000   1.0000   1.0000   1.0000   1.0000   1.0000   1.0000   1.0000
     1.0000   1.0000   1.0000   1.0000   1.0000   1.0000   1.0000   1.0000
     1.0000   1.0000   1.0000   1.0000   1.0000   1.0000   1.0000   1.0000
     1.0000   1.0000   1.0000   1.0000   1.0000   1.0000   1.0000   1.0000
     1.0000   1.0000   1.0000   1.0000   1.0000   1.0000   1.0000   1.0000
     1.0000   1.0000   1.0000   1.0000   1.0000   1.0000   1.0000   1.0000
     1.0000   1.0000   1.0000   1.0000   1.0000   1.0000   1.0000   1.0000
     1.0000   1.0000   1.0000   1.0000   1.0000   1.0000   1.0000   1.0000
     1.0000   1.0000   1.0000   1.0000   1.0000   1.0000   1.0000   1.0000
     1.0000   1.0000   1.0000   1.0000   1.0000   1.0000   1.0000   1.0000
     1.0000   1.0000   1.0000   1.0000   1.0000   1.0000   1.0000   1.0000
     1.0000   1.0000   1.0000   1.0000   1.0000   1.0000   1.0000   1.0000
     1.0000   1.0000   1.0000   1.0000   1.0000   1.0000   1.0000   1.0000
     1.0000   1.0000   1.0000   1.0000   1.0000   1.0000   1.0000   1.0000
     1.0000   1.0000   1.0000   1.0000   1.0000   1.0000   1.0000   1.0000
     1.0000   1.0000   1.0000   1.0000   1.0000   1.0000   1.0000   1.0000
     1.0000   1.0000   1.0000   1.0000   1.0000   1.0000   1.0000   1.0000
     1.0000   1.0000   1.0000   1.0000   1.0000   1.0000   1.0000   1.0000
     1.0000   1.0000   1.0000   1.0000   1.0000   1.0000   1.0000   1.0000
     1.0000   1.0000   1.0000   1.0000   1.0000   1.0000   1.0000   1.0000
     1.0000   1.0000   1.0000   1.0000   1.0000   1.0000   1.0000   1.0000
     1.0000   1.0000   1.0000   1.0000   1.0000   1.0000   1.0000   1.0000
     1.0000   1.0000   1.0000   1.0000   1.0000   1.0000   1.0000   1.0000
     1.0000   1.0000   1.0000   1.0000   1.0000   1.0000   1.0000   1.0000
     1.0000   1.0000   1.0000   1.0000   1.0000   1.0000   1.0000   1.0000
     1.0000   1.0000   1.0000   1.0000   1.0000   1.0000   1.0000   1.0000
     1.0000   1.0000   1.0000   1.0000   1.0000   1.0000   1.0000   1.0000
     1.0000   1.0000   1.0000   1.0000   1.0000   1.0000   1.0000   1.0000
     1.0000   1.0000   1.0000   1.0000   1.0000   1.0000   1.0000   1.0000
     1.0000   1.0000   1.0000   1.0000   1.0000   1.0000   1.0000   1.0000
     1.0000   1.0000   1.0000   1.0000   1.0000   1.0000   1.0000   1.0000
     1.0000   1.0000   1.0000   1.0000   1.0000   1.0000   1.0000   1.0000
     1.0000   1.0000   1.0000   1.0000   1.0000   1.0000   1.0000   1.0000
     1.0000   1.0000   1.0000   1.0000   1.0000   1.0000   1.0000   1.0000
     1.0000   1.0000   1.0000   1.0000   1.0000   1.0000   1.0000   1.0000
     1.0000   1.0000   1.0000   1.0000   1.0000   1.0000   1.0000   1.0000
     1.0000   1.0000   1.0000   1.0000   1.0000   1.0000   1.0000   1.0000
     1.0000   1.0000   1.0000   1.0000   1.0000   1.0000   1.0000   1.0000
     1.0000   1.0000   1.0000   1.0000   1.0000   1.0000   1.0000   1.0000
     1.0000   1.0000   1.0000   1.0000   1.0000   1.0000   1.0000   1.0000
     1.0000   1.0000   1.0000   1.0000   1.0000   1.0000   1.0000   1.0000
     1.0000   1.0000   1.0000   1.0000   1.0000   1.0000   1.0000   1.0000
     1.0000   1.0000   1.0000   1.0000   1.0000   1.0000   1.0000   1.0000
     1.0000   1.0000   1.0000   1.0000   1.0000   1.0000   1.0000   1.0000
     1.0000   1.0000   1.0000   1.0000   1.0000   1.0000   1.0000   1.0000
     1.0000   1.0000   1.0000   1.0000   1.0000   1.0000   1.0000   1.0000
     1.0000   1.0000   1.0000   1.0000   1.0000   1.0000   1.0000   1.0000
     1.0000   1.0000   1.0000   1.0000   1.0000   1.0000   1.0000   1.0000
     1.0000   1.0000   1.0000   1.0000   1.0000   1.0000   1.0000   1.0000
     1.0000   1.0000   1.0000   1.0000   1.0000   1.0000   1.0000   1.0000
     1.0000   1.0000   1.0000   1.0000   1.0000   1.0000   1.0000   1.0000
     1.0000   1.0000   1.0000   1.0000   1.0000   1.0000   1.0000   1.0000
     1.0000   1.0000   1.0000   1.0000   1.0000   1.0000   1.0000   1.0000
     1.0000   1.0000   1.0000   1.0000   1.0000   1.0000   1.0000   1.0000
     1.0000   1.0000   1.0000   1.0000   1.0000   1.0000   1.0000   1.0000
     1.0000   1.0000   1.0000   1.0000   1.0000   1.0000   1.0000   0.9998
     0.9998   0.0002   0.0001   0.0001   0.0000   0.0000   0.0000   0.0000
     0.0000   0.0000   0.0000   0.0000   0.0000   0.0000   0.0000   0.0000
     0.0000   0.0000   0.0000   0.0000   0.0000   0.0000   0.0000   0.0000
     0.0000   0.0000   0.0000   0.0000   0.0000   0.0000   0.0000   0.0000
     0.0000   0.0000   0.0000   0.0000   0.0000   0.0000   0.0000   0.0000
     0.0000   0.0000   0.0000   0.0000   0.0000   0.0000   0.0000   0.0000
     0.0000   0.0000   0.0000   0.0000   0.0000   0.0000   0.0000   0.0000
     0.0000   0.0000   0.0000   0.0000   0.0000   0.0000   0.0000   0.0000
     0.0000   0.0000   0.0000   0.0000   0.0000   0.0000   0.0000   0.0000
     0.0000   0.0000   0.0000   0.0000   0.0000   0.0000   0.0000   0.0000
     0.0000   0.0000   0.0000   0.0000   0.0000   0.0000   0.0000   0.0000
     0.0000   0.0000   0.0000   0.0000   0.0000   0.0000   0.0000   0.0000
     0.0000   0.0000   0.0000   0.0000   0.0000   0.0000   0.0000   0.0000
     0.0000   0.0000   0.0000   0.0000   0.0000   0.0000   0.0000   0.0000
     0.0000   0.0000   0.0000   0.0000   0.0000   0.0000   0.0000   0.0000
     0.0000

          k =-0.7071 0.0000 0.0000 ( 64192 PWs)   bands (ev):

   -17.2355 -17.2322 -17.2276 -17.2253 -17.2227 -17.2182 -17.2166 -17.2128
   -17.2107 -17.2093 -17.2070 -17.2049 -17.2014 -17.2005 -17.1995 -17.1990
   -17.1966 -17.1951 -17.1944 -17.1940 -17.1935 -17.1899 -17.1896 -17.1865
   -17.1860 -17.1842 -17.1826 -17.1805 -17.1784 -17.1720 -17.1697 -17.1680
   -17.1666 -17.1647 -17.1624 -17.1580 -17.1546 -17.1532 -17.1499 -17.1483
   -17.1432 -17.1427 -17.1391 -17.1373 -17.1355 -17.1334 -17.1321 -17.1298
   -17.1264 -17.1234 -17.1203 -17.1187 -17.1169 -17.1164 -17.1155 -17.1133
   -17.1130 -17.1101 -17.1096 -17.1067 -17.1027 -17.1023 -17.1003 -17.0993
   -17.0960 -17.0948 -17.0940 -17.0919 -17.0906 -17.0886 -17.0878 -17.0860
   -17.0856 -17.0848 -17.0835 -17.0811 -17.0790 -17.0775 -17.0758 -17.0739
   -17.0736 -17.0731 -17.0716 -17.0712 -17.0679 -17.0665 -17.0655 -17.0643
   -17.0639 -17.0610 -17.0599 -17.0562 -17.0554 -17.0521 -17.0503 -17.0478
   -17.0463 -17.0449 -17.0432 -17.0415 -17.0402 -17.0377 -17.0342 -17.0336
   -17.0327 -17.0312 -17.0295 -17.0263 -17.0254 -17.0236 -17.0230 -17.0214
   -17.0203 -17.0200 -17.0182 -17.0173 -17.0152 -17.0142 -17.0135 -17.0126
   -17.0117 -17.0106 -17.0101 -17.0082 -17.0067 -17.0063 -17.0054 -17.0050
   -17.0042 -17.0038 -17.0023 -17.0011 -17.0007 -17.0001 -16.9995 -16.9995
   -16.9988 -16.9981 -16.9975 -16.9954 -16.9938 -16.9922 -16.9910 -16.9891
   -16.9878 -16.9876 -16.9848 -16.9842 -16.9818 -16.9809 -16.9792 -16.9775
   -16.9769 -16.9741 -16.9735 -16.9718 -16.9705 -16.9701 -16.9686 -16.9665
   -16.9654 -16.9640 -16.9634 -16.9626 -16.9614 -16.9596 -16.9583 -16.9577
   -16.9555 -16.9546 -16.9531 -16.9520 -16.9508 -16.9500 -16.9489 -16.9478
   -16.9454 -16.9448 -16.9434 -16.9424 -16.9411 -16.9401 -16.9397 -16.9388
   -16.9380 -16.9375 -16.9354 -16.9340 -16.9334 -16.9325 -16.9320 -16.9307
   -16.9304 -16.9302 -16.9292 -16.9285 -16.9281 -16.9273 -16.9271 -16.9268
   -16.9266 -16.9262 -16.9258 -16.9250 -16.9246 -16.9242 -16.9238 -16.9231
   -16.9228 -16.9227 -16.9225 -16.9220 -16.9218 -16.9214 -16.9208 -16.9203
   -16.9200 -16.9199 -16.9192 -16.9185 -16.9181 -16.9179 -16.9174 -16.9172
   -16.9165 -16.9163 -16.9155 -16.9148 -16.9142 -16.9128 -16.9120 -16.9119
   -16.9114 -16.9102 -16.9099 -16.9082 -16.9070 -16.9065 -16.9054 -16.9051
   -16.9043 -16.9036 -16.9028 -16.9021 -16.9018 -16.9013 -16.9003 -16.9000
   -16.8985 -16.8983 -16.8973 -16.8970 -16.8962 -16.8957 -16.8950 -16.8945
   -16.8935 -16.8929 -16.8920 -16.8917 -16.8916 -16.8905 -16.8901 -16.8896
   -16.8887 -16.8870 -16.8868 -16.8862 -16.8856 -16.8849 -16.8843 -16.8839
   -16.8831 -16.8826 -16.8817 -16.8814 -16.8805 -16.8801 -16.8793 -16.8781
   -16.8777 -16.8775 -16.8767 -16.8750 -16.8737 -16.8732 -16.8730 -16.8716
   -16.8704 -16.8670 -16.8659 -16.8637 -16.8631 -16.8614 -16.8596 -16.8582
   -16.8571 -16.8551 -16.8538 -16.8529 -16.8509 -16.8499 -16.8488 -16.8479
   -16.8465 -16.8435 -16.8419 -16.8406 -16.8390 -16.8363 -16.8358 -16.8349
   -16.8323 -16.8298 -16.8285 -16.8281 -16.8273 -16.8255 -16.8246 -16.8237
   -16.8224 -16.8210 -16.8201 -16.8198 -16.8191 -16.8184 -16.8167 -16.8163
   -16.8152 -16.8150 -16.8141 -16.8132 -16.8125 -16.8123 -16.8101 -16.8092
   -16.8089 -16.8064 -16.8054 -16.8033 -16.8003 -16.7995 -16.7987 -16.7978
   -16.7953  -4.9764  -4.8339  -4.6605  -4.5505  -4.5384  -4.5083  -3.9722
    -3.9525  -3.8940  -3.8719  -3.8526  -3.8244  -3.7839  -3.7224  -3.6873
    -3.6142  -3.5692  -3.5256  -3.4835  -3.4378  -3.4025  -3.3352  -3.1293
    -3.1081  -3.0427  -2.9752  -2.9572  -2.8859  -2.8565  -2.7699  -2.7581
    -2.7199  -2.6327  -2.5958  -2.5450  -2.5218  -2.5131  -2.4836  -2.4413
    -2.4004  -2.3479  -2.3115  -2.2703  -2.2350  -2.1744  -2.1133  -2.0773
    -2.0530  -2.0187  -1.9419  -1.9268  -1.8798  -1.8755  -1.8135  -1.7745
    -1.7007  -1.4473  -1.3548  -1.2994  -1.2633  -1.0228  -0.9471  -0.9321
    -0.8397  -0.8297  -0.7952  -0.7657  -0.7262  -0.3984  -0.3462  -0.2990
    -0.2783   0.0319   0.0776   0.0950   0.1361   0.1361   0.1759   0.1913
     0.2308   0.2679   0.2845   0.3134   0.3344   0.3835   0.4242   0.4703
     0.5274   0.6054   0.6276   0.6329   0.6918   0.7210   0.7231   0.7435
     0.7586   0.8210   0.9101   0.9395   0.9799   0.9951   1.0382   1.0915
     1.1048   1.1814   1.2251   1.6848   1.7143   1.7353   1.7756   1.7943
     1.8072   1.8331   1.8843   2.5790   2.5996   2.6305   2.6678   2.6908
     2.7044   2.7443   2.8121   3.0846   3.0879   3.0905   3.0932   3.1460
     3.1478   3.1507   3.1530   3.1539   3.1613   3.1642   3.1667   3.8106
     3.8209   3.8252   3.8300   3.8373   3.8449   3.8484   3.8504   3.9371
     3.9389   3.9437   3.9465   3.9502   3.9537   3.9562   3.9603   3.9898
     3.9931   3.9959   3.9969   3.9995   4.0015   4.0031   4.0046   4.2988
     4.3750   4.3873   4.4014   4.6086   4.6118   4.6134   4.6150   4.6172
     4.6180   4.6204   4.6206   4.6366   4.6433   4.6497   4.6530   4.6569
     4.6604   4.6656   4.6735   4.7325   4.7342   4.7462   4.7470   4.7828
     4.7855   4.7870   4.7890   4.7901   4.7918   4.7926   4.7972   4.8050
     4.8089   4.8114   4.8214   4.8260   4.8312   4.8416   4.8470   4.9210
     4.9211   4.9247   4.9270   5.2100   5.2135   5.2170   5.2192   5.2199
     5.2238   5.2248   5.2267   5.4079   5.4265   5.4289   5.4375   5.4416
     5.4555   5.4672   5.4758   5.6641   5.7389   5.7591   5.7728   5.7795
     5.7882   5.7924   5.7938   5.7954   5.7976   5.8006   5.8087   5.8113
     5.8180   5.9251   5.9370   5.9479   5.9534   5.9569   5.9641   5.9709
     5.9743   6.0975   6.1031   6.1104   6.1131   6.1209   6.1272   6.1280
     6.1316   6.6279   6.6295   6.6626   6.6652   7.1575   7.1621   7.1749
     7.1815   7.9930   7.9994   8.5766   8.5802   8.5930   8.6162   8.9666
     8.9756   9.2021   9.2167   9.2313   9.2388   9.2540   9.2599   9.2736
     9.2823   9.2966   9.3004   9.3016   9.3240   9.3290   9.3338   9.3435
     9.3534   9.3564   9.3720   9.3766   9.3914   9.3950   9.3969   9.4135
     9.4246   9.4343   9.4400   9.4513   9.4632   9.4808   9.4944   9.5119
     9.5207   9.5456   9.5658   9.7828   9.7894   9.8028   9.8129   9.8374
     9.8421   9.8527   9.8629   9.8728   9.8893   9.9200   9.9801   9.9940
    10.0170  10.0401  10.0589  10.0748  10.0767  10.0985  10.1268  10.1375
    10.1742  10.1790  10.1918  10.2074  10.2147  10.2381  10.2432  10.2471
    10.2549  10.2622  10.2756  10.3015  10.3077  10.3198  10.3605  10.5528
    10.5597  10.5800  10.5969  10.6254  10.6525  10.6689  10.6827  10.6975
    10.7072  10.7100  10.7238  10.7306  10.7430  10.7592  10.7763  10.7782
    10.7922  10.8070  10.8299  10.8396  10.8498  10.8582  10.8752  10.8850
    10.9034  10.9168  10.9221  10.9322  10.9443  10.9494  10.9505  10.9846
    11.0126  11.0716  11.1055  11.1101  11.1355  11.1568  11.1794  11.1915
    11.2074

     occupation numbers 
     1.0000   1.0000   1.0000   1.0000   1.0000   1.0000   1.0000   1.0000
     1.0000   1.0000   1.0000   1.0000   1.0000   1.0000   1.0000   1.0000
     1.0000   1.0000   1.0000   1.0000   1.0000   1.0000   1.0000   1.0000
     1.0000   1.0000   1.0000   1.0000   1.0000   1.0000   1.0000   1.0000
     1.0000   1.0000   1.0000   1.0000   1.0000   1.0000   1.0000   1.0000
     1.0000   1.0000   1.0000   1.0000   1.0000   1.0000   1.0000   1.0000
     1.0000   1.0000   1.0000   1.0000   1.0000   1.0000   1.0000   1.0000
     1.0000   1.0000   1.0000   1.0000   1.0000   1.0000   1.0000   1.0000
     1.0000   1.0000   1.0000   1.0000   1.0000   1.0000   1.0000   1.0000
     1.0000   1.0000   1.0000   1.0000   1.0000   1.0000   1.0000   1.0000
     1.0000   1.0000   1.0000   1.0000   1.0000   1.0000   1.0000   1.0000
     1.0000   1.0000   1.0000   1.0000   1.0000   1.0000   1.0000   1.0000
     1.0000   1.0000   1.0000   1.0000   1.0000   1.0000   1.0000   1.0000
     1.0000   1.0000   1.0000   1.0000   1.0000   1.0000   1.0000   1.0000
     1.0000   1.0000   1.0000   1.0000   1.0000   1.0000   1.0000   1.0000
     1.0000   1.0000   1.0000   1.0000   1.0000   1.0000   1.0000   1.0000
     1.0000   1.0000   1.0000   1.0000   1.0000   1.0000   1.0000   1.0000
     1.0000   1.0000   1.0000   1.0000   1.0000   1.0000   1.0000   1.0000
     1.0000   1.0000   1.0000   1.0000   1.0000   1.0000   1.0000   1.0000
     1.0000   1.0000   1.0000   1.0000   1.0000   1.0000   1.0000   1.0000
     1.0000   1.0000   1.0000   1.0000   1.0000   1.0000   1.0000   1.0000
     1.0000   1.0000   1.0000   1.0000   1.0000   1.0000   1.0000   1.0000
     1.0000   1.0000   1.0000   1.0000   1.0000   1.0000   1.0000   1.0000
     1.0000   1.0000   1.0000   1.0000   1.0000   1.0000   1.0000   1.0000
     1.0000   1.0000   1.0000   1.0000   1.0000   1.0000   1.0000   1.0000
     1.0000   1.0000   1.0000   1.0000   1.0000   1.0000   1.0000   1.0000
     1.0000   1.0000   1.0000   1.0000   1.0000   1.0000   1.0000   1.0000
     1.0000   1.0000   1.0000   1.0000   1.0000   1.0000   1.0000   1.0000
     1.0000   1.0000   1.0000   1.0000   1.0000   1.0000   1.0000   1.0000
     1.0000   1.0000   1.0000   1.0000   1.0000   1.0000   1.0000   1.0000
     1.0000   1.0000   1.0000   1.0000   1.0000   1.0000   1.0000   1.0000
     1.0000   1.0000   1.0000   1.0000   1.0000   1.0000   1.0000   1.0000
     1.0000   1.0000   1.0000   1.0000   1.0000   1.0000   1.0000   1.0000
     1.0000   1.0000   1.0000   1.0000   1.0000   1.0000   1.0000   1.0000
     1.0000   1.0000   1.0000   1.0000   1.0000   1.0000   1.0000   1.0000
     1.0000   1.0000   1.0000   1.0000   1.0000   1.0000   1.0000   1.0000
     1.0000   1.0000   1.0000   1.0000   1.0000   1.0000   1.0000   1.0000
     1.0000   1.0000   1.0000   1.0000   1.0000   1.0000   1.0000   1.0000
     1.0000   1.0000   1.0000   1.0000   1.0000   1.0000   1.0000   1.0000
     1.0000   1.0000   1.0000   1.0000   1.0000   1.0000   1.0000   1.0000
     1.0000   1.0000   1.0000   1.0000   1.0000   1.0000   1.0000   1.0000
     1.0000   1.0000   1.0000   1.0000   1.0000   1.0000   1.0000   1.0000
     1.0000   1.0000   1.0000   1.0000   1.0000   1.0000   1.0000   1.0000
     1.0000   1.0000   1.0000   1.0000   1.0000   1.0000   1.0000   1.0000
     1.0000   1.0000   1.0000   1.0000   1.0000   1.0000   1.0000   1.0000
     1.0000   1.0000   1.0000   1.0000   1.0000   1.0000   1.0000   1.0000
     1.0000   1.0000   1.0000   1.0000   1.0000   1.0000   1.0000   1.0000
     1.0000   1.0000   1.0000   1.0000   1.0000   1.0000   1.0000   1.0000
     1.0000   1.0000   1.0000   1.0000   1.0000   1.0000   1.0000   1.0000
     1.0000   1.0000   1.0000   1.0000   1.0000   1.0000   1.0000   1.0000
     1.0000   1.0000   1.0000   1.0000   1.0000   1.0000   1.0000   1.0000
     1.0000   1.0000   1.0000   1.0000   1.0000   1.0000   1.0000   1.0000
     1.0000   1.0000   1.0000   1.0000   1.0000   1.0000   1.0000   1.0000
     1.0000   1.0000   1.0000   1.0000   1.0000   1.0000   1.0000   1.0000
     1.0000   1.0000   1.0000   1.0000   1.0000   1.0000   1.0000   1.0000
     1.0000   1.0000   1.0000   1.0000   1.0000   1.0000   1.0000   1.0000
     1.0000   1.0000   1.0000   1.0000   1.0000   1.0000   1.0000   1.0000
     1.0000   1.0000   1.0000   1.0000   1.0000   1.0000   1.0000   1.0000
     1.0000   1.0000   1.0000   1.0000   1.0000   1.0000   1.0000   1.0000
     1.0000   1.0000   1.0000   1.0000   1.0000   1.0000   1.0000   1.0000
     1.0000   1.0000   1.0000   1.0000   1.0000   1.0000   1.0000   1.0000
     1.0000   1.0000   1.0000   1.0000   1.0000   1.0000   1.0000   1.0000
     1.0000   1.0000   1.0000   1.0000   1.0000   1.0000   1.0000   1.0000
     1.0000   1.0000   1.0000   1.0000   1.0000   1.0000   1.0000   1.0000
     1.0000   1.0000   1.0000   1.0000   1.0000   1.0000   1.0000   1.0000
     1.0000   1.0000   1.0000   1.0000   1.0000   1.0000   1.0000   1.0000
     1.0000   1.0000   1.0000   1.0000   1.0000   1.0000   1.0000   1.0000
     1.0000   1.0000   1.0000   1.0000   1.0000   1.0000   1.0000   1.0000
     1.0000   1.0000   1.0000   1.0000   1.0000   1.0000   1.0000   1.0000
     1.0000   1.0000   1.0000   1.0000   1.0000   1.0000   1.0000   1.0000
     1.0000   1.0000   1.0000   1.0000   1.0000   1.0000   1.0000   1.0000
     1.0000   1.0000   1.0000   1.0000   1.0000   1.0000   1.0000   1.0000
     1.0000   1.0000   1.0000   1.0000   1.0000   1.0000   1.0000   1.0000
     1.0000   1.0000   1.0000   1.0000   1.0000   1.0000   1.0000   1.0000
     1.0000   1.0000   1.0000   1.0000   1.0000   1.0000   1.0000   0.9999
     0.9999   0.0333   0.0301   0.0000   0.0000   0.0000   0.0000   0.0000
     0.0000   0.0000   0.0000   0.0000   0.0000   0.0000   0.0000   0.0000
     0.0000   0.0000   0.0000   0.0000   0.0000   0.0000   0.0000   0.0000
     0.0000   0.0000   0.0000   0.0000   0.0000   0.0000   0.0000   0.0000
     0.0000   0.0000   0.0000   0.0000   0.0000   0.0000   0.0000   0.0000
     0.0000   0.0000   0.0000   0.0000   0.0000   0.0000   0.0000   0.0000
     0.0000   0.0000   0.0000   0.0000   0.0000   0.0000   0.0000   0.0000
     0.0000   0.0000   0.0000   0.0000   0.0000   0.0000   0.0000   0.0000
     0.0000   0.0000   0.0000   0.0000   0.0000   0.0000   0.0000   0.0000
     0.0000   0.0000   0.0000   0.0000   0.0000   0.0000   0.0000   0.0000
     0.0000   0.0000   0.0000   0.0000   0.0000   0.0000   0.0000   0.0000
     0.0000   0.0000   0.0000   0.0000   0.0000   0.0000   0.0000   0.0000
     0.0000   0.0000   0.0000   0.0000   0.0000   0.0000   0.0000   0.0000
     0.0000   0.0000   0.0000   0.0000   0.0000   0.0000   0.0000   0.0000
     0.0000   0.0000   0.0000   0.0000   0.0000   0.0000   0.0000   0.0000
     0.0000

          k = 0.3536 0.3536 0.3536 ( 64114 PWs)   bands (ev):

   -17.2355 -17.2321 -17.2272 -17.2251 -17.2227 -17.2183 -17.2164 -17.2128
   -17.2105 -17.2096 -17.2077 -17.2054 -17.2012 -17.2008 -17.1994 -17.1990
   -17.1971 -17.1945 -17.1945 -17.1937 -17.1933 -17.1909 -17.1898 -17.1866
   -17.1862 -17.1838 -17.1824 -17.1804 -17.1786 -17.1720 -17.1695 -17.1684
   -17.1665 -17.1646 -17.1621 -17.1582 -17.1544 -17.1533 -17.1503 -17.1481
   -17.1432 -17.1425 -17.1382 -17.1374 -17.1354 -17.1343 -17.1310 -17.1296
   -17.1257 -17.1217 -17.1204 -17.1187 -17.1180 -17.1166 -17.1145 -17.1142
   -17.1129 -17.1099 -17.1078 -17.1069 -17.1039 -17.1028 -17.1011 -17.0998
   -17.0966 -17.0942 -17.0931 -17.0930 -17.0899 -17.0894 -17.0890 -17.0867
   -17.0859 -17.0840 -17.0823 -17.0795 -17.0792 -17.0775 -17.0760 -17.0748
   -17.0737 -17.0729 -17.0722 -17.0714 -17.0693 -17.0678 -17.0654 -17.0638
   -17.0623 -17.0601 -17.0601 -17.0570 -17.0544 -17.0525 -17.0507 -17.0480
   -17.0459 -17.0448 -17.0431 -17.0407 -17.0399 -17.0379 -17.0345 -17.0337
   -17.0328 -17.0307 -17.0298 -17.0259 -17.0249 -17.0231 -17.0222 -17.0213
   -17.0204 -17.0197 -17.0176 -17.0165 -17.0153 -17.0146 -17.0134 -17.0130
   -17.0127 -17.0113 -17.0092 -17.0078 -17.0069 -17.0066 -17.0056 -17.0054
   -17.0046 -17.0034 -17.0029 -17.0022 -17.0012 -17.0004 -16.9995 -16.9994
   -16.9991 -16.9982 -16.9971 -16.9953 -16.9940 -16.9929 -16.9897 -16.9890
   -16.9881 -16.9869 -16.9859 -16.9829 -16.9813 -16.9810 -16.9797 -16.9786
   -16.9752 -16.9744 -16.9721 -16.9716 -16.9705 -16.9695 -16.9687 -16.9661
   -16.9655 -16.9653 -16.9624 -16.9614 -16.9607 -16.9596 -16.9591 -16.9580
   -16.9563 -16.9546 -16.9531 -16.9518 -16.9507 -16.9499 -16.9484 -16.9480
[...]
     atom   77 type  1   force =   0.00000000E+00  0.00000000E+00  0.00000000E+00
     atom   78 type  1   force =   0.00000000E+00  0.00000000E+00  0.00000000E+00
     atom   79 type  1   force =   0.00000000E+00  0.00000000E+00  0.00000000E+00
     atom   80 type  2   force =   0.00000000E+00  0.00000000E+00  0.00000000E+00
     atom   81 type  2   force =   0.00000000E+00  0.00000000E+00  0.00000000E+00
     atom   82 type  1   force =   0.00000000E+00  0.00000000E+00  0.00000000E+00
     atom   83 type  2   force =   0.00000000E+00  0.00000000E+00  0.00000000E+00
     atom   84 type  2   force =   0.00000000E+00  0.00000000E+00  0.00000000E+00
     atom   85 type  1   force =   0.00000000E+00  0.00000000E+00  0.00000000E+00
     atom   86 type  1   force =   0.00000000E+00  0.00000000E+00  0.00000000E+00
     atom   87 type  2   force =   0.00000000E+00  0.00000000E+00  0.00000000E+00
     atom   88 type  1   force =   0.00000000E+00  0.00000000E+00  0.00000000E+00
     atom   89 type  1   force =   0.00000000E+00  0.00000000E+00  0.00000000E+00
     atom   90 type  2   force =   0.00000000E+00  0.00000000E+00  0.00000000E+00
     atom   91 type  1   force =   0.00000000E+00  0.00000000E+00  0.00000000E+00
     atom   92 type  2   force =   0.00000000E+00  0.00000000E+00  0.00000000E+00
     atom   93 type  2   force =   0.00000000E+00  0.00000000E+00  0.00000000E+00
     atom   94 type  1   force =   0.00000000E+00  0.00000000E+00  0.00000000E+00
     atom   95 type  1   force =   0.00000000E+00  0.00000000E+00  0.00000000E+00
     atom   96 type  2   force =   0.00000000E+00  0.00000000E+00  0.00000000E+00
     atom   97 type  2   force =   0.00000000E+00  0.00000000E+00  0.00000000E+00
     atom   98 type  1   force =   0.00000000E+00  0.00000000E+00  0.00000000E+00
     atom   99 type  2   force =   0.00000000E+00  0.00000000E+00  0.00000000E+00
     atom  100 type  2   force =   0.00000000E+00  0.00000000E+00  0.00000000E+00
     atom  101 type  1   force =   0.00000000E+00  0.00000000E+00  0.00000000E+00
     atom  102 type  1   force =   0.00000000E+00  0.00000000E+00  0.00000000E+00
     atom  103 type  2   force =   0.00000000E+00  0.00000000E+00  0.00000000E+00
     atom  104 type  1   force =   0.00000000E+00  0.00000000E+00  0.00000000E+00
     atom  105 type  2   force =   0.00000000E+00  0.00000000E+00  0.00000000E+00
     atom  106 type  2   force =   0.00000000E+00  0.00000000E+00  0.00000000E+00
     atom  107 type  2   force =   0.00000000E+00  0.00000000E+00  0.00000000E+00
     atom  108 type  2   force =   0.00000000E+00  0.00000000E+00  0.00000000E+00
     atom  109 type  1   force =   0.00000000E+00  0.00000000E+00  0.00000000E+00
     atom  110 type  2   force =   0.00000000E+00  0.00000000E+00  0.00000000E+00
     atom  111 type  2   force =   0.00000000E+00  0.00000000E+00  0.00000000E+00
     atom  112 type  1   force =   0.00000000E+00  0.00000000E+00  0.00000000E+00
     atom  113 type  2   force =   0.00000000E+00  0.00000000E+00  0.00000000E+00
     atom  114 type  2   force =   0.00000000E+00  0.00000000E+00  0.00000000E+00
     atom  115 type  2   force =   0.00000000E+00  0.00000000E+00  0.00000000E+00
     atom  116 type  1   force =   0.00000000E+00  0.00000000E+00  0.00000000E+00
     atom  117 type  1   force =   0.00000000E+00  0.00000000E+00  0.00000000E+00
     atom  118 type  1   force =   0.00000000E+00  0.00000000E+00  0.00000000E+00
     atom  119 type  2   force =   0.00000000E+00  0.00000000E+00  0.00000000E+00
     atom  120 type  2   force =   0.00000000E+00  0.00000000E+00  0.00000000E+00
     atom  121 type  2   force =   0.00000000E+00  0.00000000E+00  0.00000000E+00
     atom  122 type  2   force =   0.00000000E+00  0.00000000E+00  0.00000000E+00
     atom  123 type  2   force =   0.00000000E+00  0.00000000E+00  0.00000000E+00
     atom  124 type  2   force =   0.00000000E+00  0.00000000E+00  0.00000000E+00
     atom  125 type  1   force =   0.00000000E+00  0.00000000E+00  0.00000000E+00
     atom  126 type  1   force =   0.00000000E+00  0.00000000E+00  0.00000000E+00
     atom  127 type  2   force =   0.00000000E+00  0.00000000E+00  0.00000000E+00
     atom  128 type  2   force =   0.00000000E+00  0.00000000E+00  0.00000000E+00
     The SCF correction term to forces
     atom    1 type  1   force =   0.17139874E-05  0.10403356E-05  0.73146673E-06
     atom    2 type  2   force =  -0.15390241E-05  0.31617400E-05  0.33494336E-05
     atom    3 type  2   force =  -0.81673921E-06 -0.35015265E-06 -0.44382828E-05
     atom    4 type  2   force =  -0.35557078E-05 -0.53770261E-05 -0.50654180E-05
     atom    5 type  1   force =  -0.61775724E-07 -0.27272550E-05 -0.11406805E-05
     atom    6 type  2   force =   0.23309919E-05 -0.50667130E-05 -0.68564513E-05
     atom    7 type  1   force =   0.15499894E-05 -0.63829624E-06 -0.85330629E-06
     atom    8 type  2   force =   0.54857212E-05  0.50671497E-05  0.14685451E-05
     atom    9 type  2   force =  -0.49181483E-06 -0.22746406E-05  0.80569538E-06
     atom   10 type  2   force =  -0.93349896E-05  0.73882829E-06 -0.17677655E-05
     atom   11 type  2   force =  -0.55710128E-05 -0.86409760E-05 -0.65931293E-05
     atom   12 type  2   force =  -0.39893082E-05 -0.22298000E-05  0.33890062E-05
     atom   13 type  2   force =   0.24141969E-05  0.24855921E-05  0.98076638E-06
     atom   14 type  2   force =   0.24549576E-05  0.77251421E-05  0.79742838E-05
     atom   15 type  2   force =   0.92492208E-05  0.23842028E-05  0.51410514E-05
     atom   16 type  2   force =   0.28911071E-05  0.15027035E-05  0.46674370E-05
     atom   17 type  2   force =  -0.44322079E-05  0.45734585E-07 -0.52647901E-05
     atom   18 type  1   force =  -0.94158272E-06  0.72114815E-06  0.56527370E-06
     atom   19 type  1   force =  -0.29727150E-06  0.64095994E-06  0.10079415E-05
     atom   20 type  1   force =   0.46377912E-07  0.18806474E-05  0.25634744E-05
     atom   21 type  2   force =   0.10052087E-05  0.47579708E-05  0.62314293E-05
     atom   22 type  2   force =   0.75039483E-06  0.57341371E-05  0.17897216E-05
     atom   23 type  1   force =  -0.99990769E-06  0.57753607E-06 -0.57509442E-06
     atom   24 type  2   force =  -0.14285335E-04  0.10991217E-05 -0.52011701E-05
     atom   25 type  1   force =  -0.55578688E-07  0.10466804E-05  0.83577709E-06
     atom   26 type  2   force =   0.25953316E-05  0.41740808E-05  0.54486184E-05
     atom   27 type  2   force =   0.10798750E-05  0.95583569E-05  0.84760092E-05
     atom   28 type  1   force =  -0.66493133E-06  0.34207248E-06  0.97657716E-06
     atom   29 type  1   force =  -0.14127743E-05 -0.57397370E-06  0.81125427E-07
     atom   30 type  2   force =  -0.69618384E-05 -0.84664871E-05 -0.12438006E-05
     atom   31 type  2   force =   0.32313163E-05 -0.37654661E-06 -0.50282283E-05
     atom   32 type  1   force =   0.46704869E-06  0.48776655E-06 -0.34087079E-06
     atom   33 type  1   force =  -0.95184405E-06  0.77117245E-06  0.10913982E-05
     atom   34 type  2   force =  -0.10165905E-04 -0.50999807E-05  0.31146546E-05
     atom   35 type  2   force =  -0.53057621E-05 -0.69854358E-05  0.34050226E-05
     atom   36 type  1   force =  -0.13745677E-05 -0.15762642E-05  0.17331844E-05
     atom   37 type  2   force =   0.17230695E-05 -0.27961534E-05  0.75480456E-05
     atom   38 type  1   force =   0.21778403E-05  0.13469689E-05  0.26878502E-05
     atom   39 type  1   force =   0.17310440E-05  0.26825264E-05  0.18506931E-05
     atom   40 type  1   force =   0.82107712E-06  0.18768150E-05  0.18124120E-05
     atom   41 type  2   force =  -0.81534483E-05 -0.24085010E-05  0.15457824E-05
     atom   42 type  2   force =  -0.76959836E-05  0.23206698E-05  0.30913405E-06
     atom   43 type  1   force =  -0.10725829E-05  0.18377704E-06  0.21775276E-05
     atom   44 type  1   force =   0.40761492E-06  0.13340479E-05  0.34178264E-05
     atom   45 type  1   force =   0.14340046E-05  0.17087574E-05  0.31651682E-05
     atom   46 type  1   force =   0.50538570E-07  0.13065404E-05  0.17268053E-05
     atom   47 type  2   force =  -0.25949854E-05  0.43808802E-05  0.41424678E-05
     atom   48 type  2   force =  -0.67808468E-05  0.30542393E-05  0.24743684E-05
     atom   49 type  2   force =  -0.27591755E-05  0.59497084E-05  0.55325679E-05
     atom   50 type  1   force =   0.56610428E-06  0.25173189E-05  0.18789080E-05
     atom   51 type  1   force =   0.11333184E-06  0.17534139E-05  0.31931033E-05
     atom   52 type  1   force =  -0.16876365E-05  0.10118857E-05  0.14290641E-05
     atom   53 type  2   force =  -0.77539065E-05  0.19953882E-05  0.37502444E-05
     atom   54 type  1   force =  -0.26303503E-05  0.32275736E-06 -0.16641415E-05
     atom   55 type  1   force =  -0.29012724E-05  0.10031027E-05 -0.10838248E-05
     atom   56 type  1   force =  -0.14441639E-05  0.13638680E-05 -0.90183580E-06
     atom   57 type  2   force =   0.34539425E-06  0.11122215E-04  0.60547357E-05
     atom   58 type  1   force =  -0.86652623E-06  0.13510557E-05  0.65702037E-06
     atom   59 type  1   force =  -0.24776385E-05  0.27217151E-06 -0.29178014E-06
     atom   60 type  2   force =  -0.13332860E-04 -0.69694308E-05 -0.49110180E-05
     atom   61 type  1   force =  -0.32054179E-05 -0.48126647E-06 -0.16352030E-05
     atom   62 type  2   force =  -0.66108479E-06  0.16028404E-05 -0.88841926E-05
     atom   63 type  1   force =   0.10339796E-06  0.25128838E-05 -0.83103736E-06
     atom   64 type  1   force =   0.12739835E-05  0.32406461E-05  0.41570446E-06
     atom   65 type  1   force =  -0.10458641E-05 -0.25544112E-05 -0.65057387E-06
     atom   66 type  2   force =   0.15589390E-05 -0.12211722E-04 -0.29077730E-05
     atom   67 type  1   force =   0.31382033E-06 -0.23754296E-05  0.14319652E-05
     atom   68 type  2   force =   0.72306507E-05 -0.37874195E-05  0.10530553E-04
     atom   69 type  1   force =   0.28064076E-05  0.68754981E-06  0.22920128E-05
     atom   70 type  1   force =   0.27154084E-05  0.37737767E-07  0.12638418E-05
     atom   71 type  1   force =   0.19987101E-05  0.11347827E-06  0.33103832E-06
     atom   72 type  2   force =   0.42981138E-05 -0.74266824E-05 -0.29340416E-05
     atom   73 type  2   force =   0.81062614E-06 -0.33734998E-05  0.42670875E-05
     atom   74 type  2   force =   0.72361881E-05  0.94080561E-07  0.59306314E-06
     atom   75 type  1   force =   0.20252504E-05  0.19649581E-06  0.28973614E-05
     atom   76 type  2   force =   0.39956315E-05 -0.16949669E-05  0.31922162E-05
     atom   77 type  1   force =   0.79500973E-06 -0.76958424E-06  0.59905680E-06
     atom   78 type  1   force =  -0.26616478E-06 -0.75795213E-06 -0.23867268E-05
     atom   79 type  1   force =  -0.65183441E-06 -0.93262673E-06 -0.15351434E-05
     atom   80 type  2   force =  -0.26466512E-05 -0.31065695E-05 -0.10369752E-04
     atom   81 type  2   force =   0.83500989E-05  0.63325571E-05  0.40698659E-05
     atom   82 type  1   force =   0.11638079E-05  0.26680089E-06 -0.12145093E-05
     atom   83 type  2   force =  -0.40501940E-05 -0.63471539E-05 -0.26342862E-05
     atom   84 type  2   force =  -0.72440960E-05 -0.67225273E-05 -0.11819412E-04
     atom   85 type  1   force =  -0.21303701E-05 -0.78554777E-06 -0.24229083E-05
     atom   86 type  1   force =  -0.12046378E-05  0.42526428E-06 -0.29156870E-05
     atom   87 type  2   force =   0.50760374E-06  0.44371026E-05 -0.63276939E-05
     atom   88 type  1   force =   0.22244092E-05  0.17002398E-05 -0.11552311E-05
     atom   89 type  1   force =  -0.18293611E-06  0.55256033E-06 -0.16084813E-05
     atom   90 type  2   force =  -0.33479719E-05 -0.11500805E-04 -0.63454371E-05
     atom   91 type  1   force =  -0.32332069E-05 -0.23081067E-05 -0.18969320E-05
     atom   92 type  2   force =  -0.45075420E-05 -0.12063097E-04 -0.11620776E-05
     atom   93 type  2   force =  -0.21751843E-05  0.70566944E-05 -0.30866979E-05
     atom   94 type  1   force =   0.22557392E-05  0.20728126E-05  0.48205133E-06
     atom   95 type  1   force =   0.21282956E-05  0.26921714E-05 -0.72321091E-06
     atom   96 type  2   force =   0.89418307E-05  0.29931562E-05 -0.38090881E-05
     atom   97 type  2   force =   0.47751218E-05 -0.67239864E-05  0.64955368E-05
     atom   98 type  1   force =   0.15565069E-05  0.48625245E-06  0.19777196E-05
     atom   99 type  2   force =   0.59820680E-05  0.14661780E-05  0.12896816E-04
     atom  100 type  2   force =   0.69387945E-05 -0.19498628E-05  0.46793778E-05
     atom  101 type  1   force =   0.11633071E-05 -0.88579771E-06  0.10145814E-05
     atom  102 type  1   force =   0.45736340E-06 -0.17655419E-05 -0.99592871E-06
     atom  103 type  2   force =   0.14962364E-05 -0.84759888E-05 -0.30726622E-05
     atom  104 type  1   force =   0.42302686E-06 -0.18860357E-05 -0.76982673E-06
     atom  105 type  2   force =   0.62263467E-05  0.63906573E-06  0.10674662E-05
     atom  106 type  2   force =   0.74110666E-05 -0.29161472E-06 -0.24533684E-05
     atom  107 type  2   force =   0.32981707E-05 -0.46900290E-05 -0.52377629E-05
     atom  108 type  2   force =  -0.15485106E-05 -0.67355729E-05 -0.10957539E-04
     atom  109 type  1   force =  -0.70189488E-06 -0.21401225E-05 -0.25086896E-05
     atom  110 type  2   force =  -0.12225986E-05 -0.59865978E-05 -0.88485962E-05
     atom  111 type  2   force =   0.69967033E-05  0.97567185E-06 -0.93070626E-05
     atom  112 type  1   force =   0.16336674E-05  0.86058903E-06 -0.61327820E-06
     atom  113 type  2   force =   0.46407077E-05 -0.64971804E-05 -0.10606562E-04
     atom  114 type  2   force =  -0.11257221E-05 -0.77311349E-05 -0.11024390E-04
     atom  115 type  2   force =  -0.44348578E-05 -0.62718183E-05 -0.10319120E-04
     atom  116 type  1   force =  -0.13559617E-05 -0.53383269E-06 -0.16834830E-05
     atom  117 type  1   force =   0.12496791E-06 -0.43048453E-07 -0.14962964E-05
     atom  118 type  1   force =   0.72136124E-06  0.15216447E-05  0.25485179E-06
     atom  119 type  2   force =   0.64315497E-05  0.42631283E-05 -0.35568324E-05
     atom  120 type  2   force =   0.45160783E-05  0.73956516E-05 -0.16681802E-05
     atom  121 type  2   force =  -0.40468703E-05 -0.10197458E-04 -0.91152201E-05
     atom  122 type  2   force =  -0.62923879E-05 -0.40213911E-05 -0.70696352E-07
     atom  123 type  2   force =  -0.17217452E-05  0.16125050E-05 -0.77766529E-06
     atom  124 type  2   force =   0.55712997E-05  0.56814745E-05  0.89952882E-05
     atom  125 type  1   force =   0.11879573E-05  0.16570279E-05  0.11340080E-05
     atom  126 type  1   force =   0.10429855E-05  0.35516257E-06  0.79213388E-06
     atom  127 type  2   force =   0.29028269E-05 -0.15067490E-05 -0.19710062E-05
     atom  128 type  2   force =   0.45783966E-05 -0.93638952E-05 -0.67319837E-05

     Total force =     0.191505     Total SCF correction =     0.000084


     entering subroutine stress ...

          total   stress  (Ry/bohr**3)                   (kbar)     P=    6.70
   0.0000454743  -0.0000012770   0.0000011986          6.69     -0.19      0.18
  -0.0000012770   0.0000455693   0.0000005587         -0.19      6.70      0.08
   0.0000011986   0.0000005587   0.0000455548          0.18      0.08      6.70

     kinetic stress (kbar)   6755.89     -0.11     -0.16
                               -0.11   6755.89     -0.05
                               -0.16     -0.05   6755.88

     local   stress (kbar)  -6828.47   2465.02  -3573.19
                             2465.02  -6993.14   -894.23
                            -3573.19   -894.23  -7907.18

     nonloc. stress (kbar)   2550.60      0.76      0.22
                                0.76   2550.61     -0.04
                                0.22     -0.04   2550.60

     hartree stress (kbar)  19173.43  -1180.37   1772.22
                            -1180.37  19259.73    434.29
                             1772.22    434.29  19710.11

     exc-cor stress (kbar)  11717.73      0.01      0.01
                                0.01  11717.73     -0.00
                                0.01     -0.00  11717.73

     corecor stress (kbar) -17755.75      0.02      0.01
                                0.02 -17755.75     -0.02
                                0.01     -0.02 -17755.75

     ewald   stress (kbar) -15606.74  -1285.54   1801.07
                            -1285.54 -15528.36    460.14
                             1801.07    460.14 -15064.69

     hubbard stress (kbar)      0.00      0.00      0.00
                                0.00      0.00      0.00
                                0.00      0.00      0.00

     london  stress (kbar)      0.00      0.00      0.00
                                0.00      0.00      0.00
                                0.00      0.00      0.00

     XDM     stress (kbar)      0.00      0.00      0.00
                                0.00      0.00      0.00
                                0.00      0.00      0.00

     dft-nl  stress (kbar)      0.00      0.00      0.00
                                0.00      0.00      0.00
                                0.00      0.00      0.00



     Writing output data file SiGe_zns.scf.in.super.444.a.011.save

     init_run     :    894.53s CPU    705.99s WALL (       1 calls)
     electrons    :  45379.72s CPU  35676.11s WALL (       1 calls)
     forces       :    640.42s CPU    439.32s WALL (       1 calls)
     stress       :   3766.37s CPU   3734.52s WALL (       1 calls)

     Called by init_run:
     wfcinit      :    871.84s CPU    682.33s WALL (       1 calls)
     potinit      :      0.70s CPU      0.76s WALL (       1 calls)

     Called by electrons:
     c_bands      :  41066.77s CPU  31743.07s WALL (      16 calls)
     sum_band     :   3896.32s CPU   3505.27s WALL (      16 calls)
     v_of_rho     :      6.49s CPU      7.55s WALL (      16 calls)
     v_h          :      0.38s CPU      0.56s WALL (      16 calls)
     v_xc         :      6.89s CPU      7.88s WALL (      18 calls)
     newd         :    416.94s CPU    423.08s WALL (      16 calls)
     mix_rho      :     12.31s CPU     14.15s WALL (      16 calls)

     Called by c_bands:
     init_us_2    :     41.37s CPU     42.24s WALL (     280 calls)
     cegterg      :  40816.91s CPU  31479.90s WALL (     128 calls)

     Called by sum_band:
     sum_band:bec :     15.45s CPU     15.51s WALL (     128 calls)
     addusdens    :    322.10s CPU    325.52s WALL (      16 calls)

     Called by *egterg:
     h_psi        :  15631.08s CPU  13358.34s WALL (     506 calls)
     s_psi        :   4533.80s CPU   2652.08s WALL (     506 calls)
     g_psi        :      7.04s CPU      7.28s WALL (     370 calls)
     cdiaghg      :  11783.25s CPU   9799.30s WALL (     490 calls)
     cegterg:over :   4227.18s CPU   2669.35s WALL (     370 calls)
     cegterg:upda :   2057.58s CPU   1261.38s WALL (     370 calls)
     cegterg:last :   1338.32s CPU    801.53s WALL (     128 calls)

     Called by h_psi:
     h_psi:vloc   :   6292.35s CPU   7693.47s WALL (     506 calls)
     h_psi:vnl    :   9321.42s CPU   5646.74s WALL (     506 calls)
     add_vuspsi   :   4529.34s CPU   2671.12s WALL (     506 calls)

     General routines
     calbec       :   7315.45s CPU   4631.76s WALL (     650 calls)
     fft          :     70.49s CPU     73.88s WALL (     281 calls)
     ffts         :      7.94s CPU     10.68s WALL (     452 calls)
     fftw         :   7071.41s CPU   8794.60s WALL (  532478 calls)
     interpolate  :      1.51s CPU      3.67s WALL (      32 calls)

     Parallel routines
     fft_scatter  :   4480.81s CPU   5700.26s WALL (  533211 calls)

     PWSCF        :    14h 5m CPU       11h17m WALL


   This run was terminated on:  23:46:26   3Feb2017            

=------------------------------------------------------------------------------=
   JOB DONE.
=------------------------------------------------------------------------------=
