
     Program PWSCF v.5.1 starts on  2Nov2017 at 12:21:58 

     This program is part of the open-source Quantum ESPRESSO suite
     for quantum simulation of materials; please cite
         "P. Giannozzi et al., J. Phys.:Condens. Matter 21 395502 (2009);
          URL http://www.quantum-espresso.org", 
     in publications or presentations arising from this work. More details at
     http://www.quantum-espresso.org/quote

     Parallel version (MPI), running on     8 processors
     R & G space division:  proc/nbgrp/npool/nimage =       8
     Reading input from /tmp/SiGe_zns.scf.in.super.444.b.06.4314/SiGe_zns.scf.in.super.444.b.06.t
Warning: card &IONS ignored
Warning: card   ION_DYNAMICS='BFGS', ignored
Warning: card / ignored
Warning: card &CELL ignored
Warning: card  CELL_DYNAMICS = 'BFGS' ignored
Warning: card / ignored
     Message from routine read_cards :
     DEPRECATED: no units specified in CELL_PARAMETERS card

     Current dimensions of program PWSCF are:
     Max number of different atomic species (ntypx) = 10
     Max number of k-points (npk) =  40000
     Max angular momentum in pseudopotentials (lmaxx) =  3
 kfg - two_fermi_energies  F

     Subspace diagonalization in iterative solution of the eigenvalue problem:
     a serial algorithm will be used


     Parallelization info
     --------------------
     sticks:   dense  smooth     PW     G-vecs:    dense   smooth      PW
     Min        1511    1056    278               109553    64147    8645
     Max        1512    1057    279               109554    64179    8648
     Sum       12089    8453   2225               876425   513335   69173



     bravais-lattice index     =            0
     lattice parameter (alat)  =    29.618420471  a.u.
     unit-cell volume          =   18347.0002 (a.u.)^3
     number of atoms/cell      =          128
     number of atomic types    =            2
     number of electrons       =      1122.00
     number of Kohn-Sham states=          673
     kinetic-energy cutoff     =      35.0000  Ry
     charge density cutoff     =     200.0000  Ry
     convergence threshold     =      1.0E-09
     mixing beta               =       0.3000
     number of iterations used =            8  local-TF  mixing
     Exchange-correlation      = SLA  PW   PSX  PSC ( 1  4 10  8 0)
     A smooth kinetic-energy cutoff is imposed at      34.5000 Ry
     height of the smooth step-function =             800.0000 Ry
     width of the smooth step-function  =               1.0000 Ry


     celldm(1)=  29.618420  celldm(2)=   0.000000  celldm(3)=   0.000000
     celldm(4)=   0.000000  celldm(5)=   0.000000  celldm(6)=   0.000000

     crystal axes: (cart. coord. in units of alat)
               a(1) = (   0.000222940192   0.706277500306   0.707935055538 )  
               a(2) = (   0.706129445078  -0.000420008006   0.706805783187 )  
               a(3) = (   0.708032668332   0.706010222873   0.000719069538 )  

     reciprocal axes: (cart. coord. in units 2 pi/alat)
               b(1) = ( -0.706695  0.708000  0.706439 )  
               b(2) = (  0.707104 -0.709851  0.707966 )  
               b(3) = (  0.707383  0.707720 -0.706286 )  


     PseudoPot. # 1 for Si read from file:
     /users/kfg/psuedo/gbrv_1.5/si.pbesol.UPF
     MD5 check sum: ef58ba74faed4df802eb8a9742fc00a8
     Pseudo is Ultrasoft + core correction, Zval =  4.0
     Generated by new atomic code, or converted to UPF format
     Using radial grid of  899 points,  6 beta functions with: 
                l(1) =   0
                l(2) =   0
                l(3) =   1
                l(4) =   1
                l(5) =   2
                l(6) =   2
     Q(r) pseudized with  8 coefficients,  rinner =    0.900   0.900   0.900
                                                       0.900   0.900

     PseudoPot. # 2 for Ge read from file:
     /users/kfg/psuedo/gbrv_1.5/ge.pbesol.UPF
     MD5 check sum: 7bed0412183f5e553a4d27ec7023354d
     Pseudo is Ultrasoft + core correction, Zval = 14.0
     Generated by new atomic code, or converted to UPF format
     Using radial grid of  873 points,  6 beta functions with: 
                l(1) =   0
                l(2) =   0
                l(3) =   1
                l(4) =   1
                l(5) =   2
                l(6) =   2
     Q(r) pseudized with  8 coefficients,  rinner =    1.400   1.400   1.400
                                                       1.400   1.400

     atomic species   valence    mass     pseudopotential
        Si             4.00    28.08550     Si( 1.00)
        Ge            14.00    72.64000     Ge( 1.00)

     No symmetry found


                                    s                        frac. trans.

      isym =  1     identity                                     

 cryst.   s( 1) = (     1          0          0      )
                  (     0          1          0      )
                  (     0          0          1      )

 cart.    s( 1) = (  1.0000000  0.0000000  0.0000000 )
                  ( -0.0000000  1.0000000  0.0000000 )
                  (  0.0000000  0.0000000  1.0000000 )


     point group C_1 (1)    
     there are  1 classes
     the character table:

       E    
A      1.00

     the symmetry operations in each class:
     E        1

   Cartesian axes

     site n.     atom                  positions (alat units)
         1           Si  tau(   1) = (    0.00110225696   -0.00099038494   -0.00088238647  )
         2           Si  tau(   2) = (    0.08836481618    0.08813065848    0.08984647524  )
         3           Si  tau(   3) = (    0.17647938627    0.17524063950    0.00078356434  )
         4           Si  tau(   4) = (    0.26697986066    0.26465799797    0.08731622478  )
         5           Si  tau(   5) = (    0.35465892027    0.35189301297    0.00004305762  )
         6           Ge  tau(   6) = (    0.44295486990    0.44219438514    0.08982299508  )
         7           Ge  tau(   7) = (    0.53054712466    0.53011722499    0.00181182121  )
         8           Ge  tau(   8) = (    0.61966356435    0.61847023322    0.08792216393  )
         9           Ge  tau(   9) = (    0.17814172684   -0.00081248274    0.17519250283  )
        10           Ge  tau(  10) = (    0.26535701328    0.08693278976    0.26453678948  )
        11           Si  tau(  11) = (    0.35387421368    0.17479562667    0.17776666647  )
        12           Si  tau(  12) = (    0.44317875021    0.26507355990    0.26683789767  )
        13           Ge  tau(  13) = (    0.53163857609    0.35358321945    0.17844060539  )
        14           Si  tau(  14) = (    0.61880218762    0.44220355971    0.26710727741  )
        15           Si  tau(  15) = (    0.70787582988    0.52910877539    0.17684759785  )
        16           Ge  tau(  16) = (    0.79472288176    0.61777702839    0.26500750944  )
        17           Ge  tau(  17) = (    0.35461925968    0.00138190801    0.35347142551  )
        18           Si  tau(  18) = (    0.44177396531    0.08850511465    0.44312022266  )
        19           Ge  tau(  19) = (    0.53156905070    0.17643310174    0.35273959984  )
        20           Si  tau(  20) = (    0.61821952195    0.26614803852    0.44047416915  )
        21           Ge  tau(  21) = (    0.70566724275    0.35218958596    0.35228674281  )
        22           Si  tau(  22) = (    0.79470781612    0.44173289632    0.44367336287  )
        23           Ge  tau(  23) = (    0.88302092132    0.52985905304    0.35231665377  )
        24           Ge  tau(  24) = (    0.97350464515    0.61754641849    0.44142436005  )
        25           Ge  tau(  25) = (    0.52994637504   -0.00108951549    0.53115574072  )
        26           Ge  tau(  26) = (    0.61828165948    0.08732297219    0.61997247168  )
        27           Ge  tau(  27) = (    0.70692645722    0.17553759740    0.52888501589  )
        28           Si  tau(  28) = (    0.79337502649    0.26383275030    0.61814268102  )
        29           Ge  tau(  29) = (    0.88500162512    0.35436924136    0.53202902647  )
        30           Si  tau(  30) = (    0.97217405568    0.44148137732    0.61830264181  )
        31           Si  tau(  31) = (    1.05937444990    0.52797302040    0.52920479654  )
        32           Ge  tau(  32) = (    1.14897444936    0.61641948823    0.61835475703  )
        33           Ge  tau(  33) = (   -0.00127615263    0.17578301777    0.17684767773  )
        34           Ge  tau(  34) = (    0.08738668491    0.26423817673    0.26606008398  )
        35           Si  tau(  35) = (    0.17795672473    0.35181306994    0.17625505067  )
        36           Ge  tau(  36) = (    0.26637397800    0.44090967003    0.26446098632  )
        37           Si  tau(  37) = (    0.35387692482    0.53077840030    0.17572401388  )
        38           Ge  tau(  38) = (    0.44196878017    0.61860275330    0.26685479807  )
        39           Si  tau(  39) = (    0.53132940657    0.70687801723    0.17889573877  )
        40           Si  tau(  40) = (    0.61907253722    0.79371290844    0.26477413483  )
        41           Ge  tau(  41) = (    0.17641308579    0.17751432245    0.35283618068  )
        42           Ge  tau(  42) = (    0.26479421074    0.26571668758    0.44158465705  )
        43           Ge  tau(  43) = (    0.35409476545    0.35408475628    0.35285707730  )
        44           Ge  tau(  44) = (    0.44288514849    0.44190223355    0.44179337143  )
        45           Ge  tau(  45) = (    0.52998829962    0.52889473876    0.35254390160  )
        46           Si  tau(  46) = (    0.62009962646    0.61745914071    0.44276638517  )
        47           Si  tau(  47) = (    0.70754372113    0.70520342430    0.35413973015  )
        48           Si  tau(  48) = (    0.79651144538    0.79552654431    0.44196382776  )
        49           Si  tau(  49) = (    0.35157251890    0.17653407469    0.52931995003  )
        50           Si  tau(  50) = (    0.44057462706    0.26343142617    0.61763754736  )
        51           Si  tau(  51) = (    0.53101983499    0.35170988430    0.53088886172  )
        52           Si  tau(  52) = (    0.61916580264    0.44258144025    0.61822178793  )
        53           Si  tau(  53) = (    0.70713883087    0.52980722374    0.52950103200  )
        54           Si  tau(  54) = (    0.79435249454    0.61595335155    0.61967657944  )
        55           Ge  tau(  55) = (    0.88333125774    0.70628816905    0.53109326222  )
        56           Si  tau(  56) = (    0.97144874679    0.79396614159    0.61908392733  )
        57           Si  tau(  57) = (    0.53011802391    0.17702064351    0.70856048537  )
        58           Ge  tau(  58) = (    0.61946321445    0.26468631211    0.79647126972  )
        59           Si  tau(  59) = (    0.70734049150    0.35183355832    0.70664152308  )
        60           Ge  tau(  60) = (    0.79424436221    0.44083097096    0.79729721337  )
        61           Si  tau(  61) = (    0.88315792028    0.52924835911    0.70733078617  )
        62           Si  tau(  62) = (    0.97344730329    0.61643199976    0.79755226021  )
        63           Si  tau(  63) = (    1.06009958305    0.70670524415    0.70615396386  )
        64           Si  tau(  64) = (    1.14843920010    0.79450476921    0.79602080719  )
        65           Ge  tau(  65) = (   -0.00085173630    0.35412580978    0.35383401691  )
        66           Si  tau(  66) = (    0.08840978268    0.44093588885    0.44185363270  )
        67           Si  tau(  67) = (    0.17655649199    0.52979535287    0.35543081904  )
        68           Si  tau(  68) = (    0.26500721115    0.61790974307    0.44395589700  )
        69           Ge  tau(  69) = (    0.35420473869    0.70761266153    0.35462720019  )
        70           Si  tau(  70) = (    0.44380418503    0.79541303009    0.44387507510  )
        71           Si  tau(  71) = (    0.53211595693    0.88410396832    0.35499014746  )
        72           Ge  tau(  72) = (    0.62058958660    0.97030857764    0.44277643914  )
        73           Si  tau(  73) = (    0.17800800838    0.35213193075    0.53221078874  )
        74           Ge  tau(  74) = (    0.26429388771    0.44002104846    0.61994638553  )
        75           Ge  tau(  75) = (    0.35363921788    0.53092980277    0.52997164398  )
        76           Ge  tau(  76) = (    0.44269425118    0.61778444014    0.61819525609  )
        77           Si  tau(  77) = (    0.53124600969    0.70549940060    0.52986290738  )
        78           Si  tau(  78) = (    0.61937657858    0.79541379720    0.61816364171  )
        79           Ge  tau(  79) = (    0.70845853860    0.88383158951    0.53088793269  )
        80           Si  tau(  80) = (    0.79716318375    0.97139403277    0.62082453337  )
        81           Ge  tau(  81) = (    0.35389729891    0.35389544562    0.70611623220  )
        82           Si  tau(  82) = (    0.44082427757    0.43981341935    0.79619686377  )
        83           Si  tau(  83) = (    0.52904126118    0.53077864986    0.70806811742  )
        84           Ge  tau(  84) = (    0.61710847076    0.61796282050    0.79679891754  )
        85           Si  tau(  85) = (    0.70582194194    0.70471762411    0.70753299934  )
        86           Si  tau(  86) = (    0.79715854638    0.79480306325    0.79492232731  )
        87           Si  tau(  87) = (    0.88584794565    0.88109439005    0.70666625737  )
        88           Ge  tau(  88) = (    0.97413436040    0.97027279160    0.79650639922  )
        89           Ge  tau(  89) = (    0.52906772724    0.35435524955    0.88515419325  )
        90           Si  tau(  90) = (    0.61911527602    0.44124981353    0.97375742998  )
        91           Si  tau(  91) = (    0.70704693402    0.53091374503    0.88268103288  )
        92           Ge  tau(  92) = (    0.79373390402    0.61886594764    0.97327537778  )
        93           Ge  tau(  93) = (    0.88507898949    0.70498682466    0.88541805695  )
        94           Si  tau(  94) = (    0.97321464069    0.79412505364    0.97314554529  )
        95           Ge  tau(  95) = (    1.05936735812    0.88285197500    0.88307036140  )
        96           Ge  tau(  96) = (    1.14965665011    0.96921384489    0.97347574446  )
        97           Ge  tau(  97) = (    0.00028069136    0.53066024175    0.52976576097  )
        98           Si  tau(  98) = (    0.08904120253    0.61673772173    0.61802466672  )
        99           Si  tau(  99) = (    0.17570451098    0.70637219686    0.53104116590  )
       100           Si  tau( 100) = (    0.26496620628    0.79381006939    0.61889335219  )
       101           Si  tau( 101) = (    0.35288716763    0.88300143315    0.53238768731  )
       102           Si  tau( 102) = (    0.44414734893    0.97042925619    0.62085642800  )
       103           Ge  tau( 103) = (    0.53153616694    1.05800766213    0.53167056117  )
       104           Ge  tau( 104) = (    0.62042367631    1.14769507168    0.62040935074  )
       105           Ge  tau( 105) = (    0.17637720074    0.52801217847    0.70863647766  )
       106           Ge  tau( 106) = (    0.26623016381    0.61800534209    0.79496788794  )
       107           Si  tau( 107) = (    0.35336550575    0.70573678458    0.70635553454  )
       108           Ge  tau( 108) = (    0.44178030379    0.79294255553    0.79592569609  )
       109           Si  tau( 109) = (    0.53153293849    0.88385745438    0.70957158456  )
       110           Ge  tau( 110) = (    0.61758476004    0.97035005662    0.79555214775  )
       111           Ge  tau( 111) = (    0.70607734539    1.05752356782    0.70692098202  )
       112           Si  tau( 112) = (    0.79615103608    1.14853315835    0.79555953137  )
       113           Si  tau( 113) = (    0.35234315789    0.53096492857    0.88548461137  )
       114           Ge  tau( 114) = (    0.44125923167    0.61725547264    0.97425096203  )
       115           Ge  tau( 115) = (    0.53166359170    0.70449632760    0.88494642485  )
       116           Si  tau( 116) = (    0.61944793061    0.79358923265    0.97436323809  )
       117           Si  tau( 117) = (    0.70778518509    0.88085190022    0.88615753973  )
       118           Ge  tau( 118) = (    0.79617313676    0.97218626227    0.97385594267  )
       119           Ge  tau( 119) = (    0.88367121479    1.05875778998    0.88632577098  )
       120           Ge  tau( 120) = (    0.97371000142    1.14560471244    0.97301083666  )
       121           Ge  tau( 121) = (    0.53025124313    0.52823683968    1.05981243671  )
       122           Ge  tau( 122) = (    0.61872411660    0.61736777422    1.14937612201  )
       123           Si  tau( 123) = (    0.70544075642    0.70425794674    1.06223299288  )
       124           Si  tau( 124) = (    0.79577718204    0.79372088273    1.15040004000  )
       125           Ge  tau( 125) = (    0.88322040958    0.88357515076    1.06266462634  )
       126           Si  tau( 126) = (    0.97141223288    0.97168901709    1.14895872343  )
       127           Ge  tau( 127) = (    1.06107439593    1.06012291366    1.06327918410  )
       128           Si  tau( 128) = (    1.14752670050    1.14646269032    1.15130703180  )

   Crystallographic axes

     site n.     atom                  positions (cryst. coord.)
         1           Si  tau(   1) = (   -0.00210350430    0.00085773656    0.00070201968  )
         2           Si  tau(   2) = (    0.06342061343    0.06353178467    0.06142232593  )
         3           Si  tau(   3) = (   -0.00009320378    0.00094933715    0.24830641297  )
         4           Si  tau(   4) = (    0.06038812489    0.06273182065    0.31449059058  )
         5           Si  tau(   5) = (   -0.00146504975    0.00101974448    0.49989102356  )
         6           Ge  tau(   6) = (    0.06349409129    0.06291484355    0.56284788652  )
         7           Ge  tau(   7) = (    0.00166788404    0.00013065028    0.74919494614  )
         8           Ge  tau(   8) = (    0.06207540134    0.06139102020    0.81394509602  )
         9           Ge  tau(   9) = (   -0.00270420345    0.25057191457    0.00170348457  )
        10           Ge  tau(  10) = (    0.06090115779    0.31320889581    0.06239459583  )
        11           Si  tau(  11) = (   -0.00074445869    0.25199995091    0.24847694467  )
        12           Si  tau(  12) = (    0.06298466635    0.31412312419    0.31263122582  )
        13           Ge  tau(  13) = (    0.00068804998    0.25126248087    0.50028000451  )
        14           Si  tau(  14) = (    0.06447078376    0.31276202653    0.56203245423  )
        15           Si  tau(  15) = (   -0.00071122323    0.25015582413    0.75029531675  )
        16           Ge  tau(  16) = (    0.06297114833    0.31103874889    0.81221566395  )
        17           Ge  tau(  17) = (    0.00007690498    0.50001771935    0.00217787669  )
        18           Si  tau(  18) = (    0.06349977407    0.56326902087    0.06217081428  )
        19           Ge  tau(  19) = (   -0.00155339022    0.50036131500    0.25175326971  )
        20           Si  tau(  20) = (    0.06270847724    0.56006111922    0.31457573124  )
        21           Ge  tau(  21) = (   -0.00047205496    0.49838538184    0.49961360641  )
        22           Si  tau(  22) = (    0.06455918054    0.56248259561    0.56142593126  )
        23           Ge  tau(  23) = (    0.00000408238    0.49769526803    0.75078970328  )
        24           Ge  tau(  24) = (    0.06109152767    0.56251699000    0.81391896330  )
        25           Ge  tau(  25) = (   -0.00005244217    0.75154112977   -0.00104364419  )
        26           Ge  tau(  26) = (    0.06286112429    0.81412295146    0.06128454125  )
        27           Ge  tau(  27) = (   -0.00167553250    0.74969798795    0.25075538814  )
        28           Si  tau(  28) = (    0.06279978623    0.81134116187    0.31135447748  )
        29           Ge  tau(  29) = (    0.00131347566    0.75089774747    0.50106490622  )
        30           Si  tau(  30) = (    0.06233161920    0.81177992600    0.56344638972  )
        31           Si  tau(  31) = (   -0.00099861673    0.74896525619    0.74927086775  )
        32           Ge  tau(  32) = (    0.06128064646    0.81265315780    0.81228238443  )
        33           Ge  tau(  33) = (    0.25028836080   -0.00047993146   -0.00140255989  )
        34           Ge  tau(  34) = (    0.31328017902    0.06258333897    0.06090807061  )
        35           Si  tau(  35) = (    0.24783598708    0.00088174875    0.25038229350  )
        36           Ge  tau(  36) = (    0.31074448816    0.06260349061    0.31368401829  )
        37           Si  tau(  37) = (    0.24984635172   -0.00213898585    0.50185766958  )
        38           Ge  tau(  38) = (    0.31415028741    0.06232646570    0.56196304013  )
        39           Si  tau(  39) = (    0.25136071288    0.00057942248    0.74977362576  )
        40           Si  tau(  40) = (    0.31150005787    0.06178214608    0.81264173893  )
        41           Ge  tau(  41) = (    0.25026725547    0.24852985780    0.00121892764  )
        42           Ge  tau(  42) = (    0.31295144221    0.31124492727    0.06347903921  )
        43           Ge  tau(  43) = (    0.24972711268    0.24884544298    0.25185560591  )
        44           Ge  tau(  44) = (    0.31198226016    0.31225608229    0.31400017391  )
        45           Ge  tau(  45) = (    0.24896824215    0.24890976891    0.50021742419  )
        46           Si  tau(  46) = (    0.31172732277    0.31363482685    0.56291660187  )
        47           Si  tau(  47) = (    0.24944460157    0.25043687737    0.74946719323  )
        48           Si  tau(  48) = (    0.31256271806    0.31140688483    0.81429603123  )
        49           Si  tau(  49) = (    0.25046404777    0.49802624080   -0.00021794567  )
        50           Si  tau(  50) = (    0.31148104949    0.56180172762    0.06186217842  )
        51           Si  tau(  51) = (    0.24878232385    0.50167623303    0.24958736972  )
        52           Si  tau(  52) = (    0.31252248126    0.56132813224    0.31456995737  )
        53           Si  tau(  53) = (    0.24943239083    0.49880563153    0.50119421666  )
        54           Si  tau(  54) = (    0.31249394011    0.56316512433    0.56016532582  )
        55           Ge  tau(  55) = (    0.25099138952    0.49924413429    0.74960427944  )
        56           Si  tau(  56) = (    0.31295526883    0.56160852146    0.81184200756  )
        57           Si  tau(  57) = (    0.25125391424    0.75082740612   -0.00016853787  )
        58           Ge  tau(  58) = (    0.31228504106    0.81401208743    0.06298535643  )
        59           Si  tau(  59) = (    0.24842357840    0.75069250240    0.25026956479  )
        60           Ge  tau(  60) = (    0.31406195773    0.81314887684    0.31070032478  )
        61           Si  tau(  61) = (    0.25027086428    0.74956367387    0.49971302115  )
        62           Si  tau(  62) = (    0.31192582161    0.81539405617    0.56156167345  )
        63           Si  tau(  63) = (    0.25003517911    0.74787879702    0.75129951488  )
        64           Si  tau(  64) = (    0.31325354705    0.81164223859    0.81245527994  )
        65           Ge  tau(  65) = (    0.50128521375   -0.00147627387    0.00011150267  )
        66           Si  tau(  66) = (    0.56184659643    0.06233363298    0.06252382524  )
        67           Si  tau(  67) = (    0.50141376892    0.00040113879    0.24880412822  )
        68           Si  tau(  68) = (    0.56382867013    0.06306970919    0.31120899103  )
        69           Ge  tau(  69) = (    0.50119756998   -0.00077574109    0.50088193821  )
        70           Si  tau(  70) = (    0.56308895650    0.06343972373    0.56336665072  )
        71           Si  tau(  71) = (    0.50068082957    0.00000048055    0.75138340292  )
        72           Ge  tau(  72) = (    0.56120550778    0.06351787515    0.81297467638  )
        73           Si  tau(  73) = (    0.49948665547    0.25269632462   -0.00076220034  )
        74           Ge  tau(  74) = (    0.56271422448    0.31343511121    0.06050946074  )
        75           Ge  tau(  75) = (    0.50037601307    0.24838083116    0.25159664722  )
        76           Ge  tau(  76) = (    0.56125897641    0.31215752385    0.31375036046  )
        77           Si  tau(  77) = (    0.49838062361    0.24997198229    0.50085587762  )
        78           Si  tau(  78) = (    0.56213769239    0.31097760899    0.56446662267  )
        79           Ge  tau(  79) = (    0.50012870561    0.24941613459    0.75169831408  )
        80           Si  tau(  80) = (    0.56297053554    0.31365536771    0.81289523772  )
        81           Ge  tau(  81) = (    0.49928881368    0.49893576259    0.00208006532  )
        82           Si  tau(  82) = (    0.56232437645    0.56318729735    0.06075394687  )
        83           Si  tau(  83) = (    0.50212763067    0.49860197119    0.24977912945  )
        84           Ge  tau(  84) = (    0.56430029111    0.56180532192    0.31110907051  )
        85           Si  tau(  85) = (    0.49996835566    0.49975476067    0.49830882507  )
        86           Si  tau(  86) = (    0.56093698014    0.56226072938    0.56495222897  )
        87           Si  tau(  87) = (    0.49700731128    0.50123708475    0.75109370234  )
        88           Ge  tau(  88) = (    0.56122065835    0.56396520615    0.81320655028  )
        89           Ge  tau(  89) = (    0.50230177368    0.74922597984   -0.00013386585  )
        90           Si  tau(  90) = (    0.56277978122    0.81394490403    0.06248206949  )
        91           Si  tau(  91) = (    0.49978101753    0.74799471396    0.25246634576  )
        92           Ge  tau(  92) = (    0.56478933418    0.81099622988    0.31204728524  )
        93           Ge  tau(  93) = (    0.49914391907    0.75225372738    0.49966508467  )
        94           Si  tau(  94) = (    0.56194290613    0.81340807233    0.56313499098  )
        95           Ge  tau(  95) = (    0.50024520415    0.74757394841    0.75049059143  )
        96           Ge  tau(  96) = (    0.56144833283    0.81411780253    0.81162770348  )
        97           Ge  tau(  97) = (    0.74975639260   -0.00143492999    0.00159143341  )
        98           Si  tau(  98) = (    0.81032219878    0.06271015747    0.06296186947  )
        99           Si  tau(  99) = (    0.75109029934   -0.00121834592    0.24913733587  )
       100           Si  tau( 100) = (    0.81197775626    0.06202751135    0.31211233819  )
       101           Si  tau( 101) = (    0.75188091928   -0.00035886543    0.49852635957  )
       102           Si  tau( 102) = (    0.81178449960    0.06474376335    0.56247248136  )
       103           Ge  tau( 103) = (    0.74902835153    0.00122857283    0.74926153932  )
       104           Ge  tau( 104) = (    0.81239924701    0.06324069075    0.81293769587  )
       105           Ge  tau( 105) = (    0.74979637843    0.25159784243   -0.00204878099  )
       106           Ge  tau( 106) = (    0.81100079895    0.31237125369    0.06422700695  )
       107           Si  tau( 107) = (    0.74893728346    0.24897422415    0.25054000292  )
       108           Ge  tau( 108) = (    0.81147255590    0.31300226278    0.31153828021  )
       109           Si  tau( 109) = (    0.75140861045    0.25079491176    0.50036073658  )
       110           Ge  tau( 110) = (    0.81257302935    0.31111700836    0.56171804235  )
       111           Ge  tau( 111) = (    0.74914205182    0.24906242113    0.74860955716  )
       112           Si  tau( 112) = (    0.81253996925    0.31090377485    0.81413133043  )
       113           Si  tau( 113) = (    0.75246516738    0.49913063735   -0.00038901710  )
       114           Ge  tau( 114) = (    0.81343036665    0.56359373394    0.06088384997  )
       115           Ge  tau( 115) = (    0.74822033094    0.50236644258    0.24965097501  )
       116           Si  tau( 116) = (    0.81242890493    0.56450053137    0.31164714633  )
       117           Si  tau( 117) = (    0.74947138856    0.50257403781    0.49819137894  )
       118           Ge  tau( 118) = (    0.81362639088    0.56232726679    0.56341454812  )
       119           Ge  tau( 119) = (    0.75124980799    0.50077624433    0.74839891322  )
       120           Ge  tau( 120) = (    0.81034520591    0.56416479074    0.81232971022  )
       121           Ge  tau( 121) = (    0.74795898622    0.75028497536    0.00040418998  )
       122           Ge  tau( 122) = (    0.81181165743    0.81298291512    0.06281059961  )
       123           Si  tau( 123) = (    0.75048633552    0.75092715703    0.24719433719  )
       124           Si  tau( 124) = (    0.81227046062    0.81371837835    0.31214038171  )
       125           Ge  tau( 125) = (    0.75211182882    0.74965301000    0.49955416677  )
       126           Si  tau( 126) = (    0.81313326672    0.81055942666    0.56335123008  )
       127           Ge  tau( 127) = (    0.75185325237    0.75052681904    0.74987739285  )
       128           Si  tau( 128) = (    0.81407273390    0.81268999071    0.80996386813  )

     number of k points=     8  gaussian smearing, width (Ry)=  0.0150
                       cart. coord. in units 2pi/alat
        k(    1) = (   0.0000000   0.0000000   0.0000000), wk =   0.2500000
        k(    2) = (  -0.3536916  -0.3538600   0.3531428), wk =   0.2500000
        k(    3) = (  -0.3535522   0.3549255  -0.3539831), wk =   0.2500000
        k(    4) = (  -0.7072437   0.0010655  -0.0008403), wk =   0.2500000
        k(    5) = (   0.3533475  -0.3539999  -0.3532197), wk =   0.2500000
        k(    6) = (  -0.0003441  -0.7078599  -0.0000769), wk =   0.2500000
        k(    7) = (  -0.0002047   0.0009256  -0.7072028), wk =   0.2500000
        k(    8) = (  -0.3538963  -0.3529344  -0.3540600), wk =   0.2500000

                       cryst. coord.
        k(    1) = (   0.0000000   0.0000000   0.0000000), wk =   0.2500000
        k(    2) = (   0.0000000   0.0000000  -0.5000000), wk =   0.2500000
        k(    3) = (   0.0000000  -0.5000000  -0.0000000), wk =   0.2500000
        k(    4) = (  -0.0000000  -0.5000000  -0.5000000), wk =   0.2500000
        k(    5) = (  -0.5000000   0.0000000   0.0000000), wk =   0.2500000
        k(    6) = (  -0.5000000   0.0000000  -0.5000000), wk =   0.2500000
        k(    7) = (  -0.5000000  -0.5000000  -0.0000000), wk =   0.2500000
        k(    8) = (  -0.5000000  -0.5000000  -0.5000000), wk =   0.2500000

     Dense  grid:   876425 G-vectors     FFT dimensions: ( 135, 135, 135)

     Smooth grid:   513335 G-vectors     FFT dimensions: ( 120, 120, 120)

     Largest allocated arrays     est. size (Mb)     dimensions
        Kohn-Sham Wavefunctions        82.67 Mb     (    8050,  673)
        NL pseudopotentials           283.01 Mb     (    8050, 2304)
        Each V/rho on FFT grid          4.73 Mb     (  309825)
        Each G-vector array             0.84 Mb     (  109554)
        G-vector shells                 0.82 Mb     (  107668)
     Largest temporary arrays     est. size (Mb)     dimensions
        Auxiliary wavefunctions       330.67 Mb     (    8050, 2692)
        Each subspace H/S matrix      110.58 Mb     (    2692, 2692)
        Each <psi_i|beta_j> matrix     23.66 Mb     (    2304,  673)
        Arrays for rho mixing          37.82 Mb     (  309825,    8)

     Check: negative/imaginary core charge=   -0.000001    0.000000

     Initial potential from superposition of free atoms

     starting charge 1121.90728, renormalised to 1122.00000
     Starting wfc are  817 randomized atomic wfcs

     total cpu time spent up to now is     1213.3 secs

     per-process dynamical memory:  1168.0 Mb

     Self-consistent Calculation

     iteration #  1     ecut=    35.00 Ry     beta=0.30
     Davidson diagonalization with overlap
     ethr =  1.00E-02,  avg # of iterations =  3.0

     Threshold (ethr) on eigenvalues was too large:
     Diagonalizing with lowered threshold

     Davidson diagonalization with overlap
     ethr =  2.52E-04,  avg # of iterations =  4.4

     total cpu time spent up to now is     8113.2 secs

     total energy              =  -13645.14501814 Ry
     Harris-Foulkes estimate   =  -13645.43917288 Ry
     estimated scf accuracy    <       2.83781744 Ry

     iteration #  2     ecut=    35.00 Ry     beta=0.30
     Davidson diagonalization with overlap
     ethr =  2.53E-04,  avg # of iterations =  1.0

     total cpu time spent up to now is    10800.2 secs

     total energy              =  -13644.58416901 Ry
     Harris-Foulkes estimate   =  -13645.15929412 Ry
     estimated scf accuracy    <       1.75303114 Ry

     iteration #  3     ecut=    35.00 Ry     beta=0.30
     Davidson diagonalization with overlap
     ethr =  1.56E-04,  avg # of iterations =  2.0

     total cpu time spent up to now is    13973.2 secs

     total energy              =  -13644.69213060 Ry
     Harris-Foulkes estimate   =  -13644.69092065 Ry
     estimated scf accuracy    <       0.02504025 Ry

     iteration #  4     ecut=    35.00 Ry     beta=0.30
     Davidson diagonalization with overlap
     ethr =  2.23E-06,  avg # of iterations =  9.4

     total cpu time spent up to now is    21042.6 secs

     total energy              =  -13644.69652248 Ry
     Harris-Foulkes estimate   =  -13644.69718306 Ry
     estimated scf accuracy    <       0.01111241 Ry

     iteration #  5     ecut=    35.00 Ry     beta=0.30
     Davidson diagonalization with overlap
     ethr =  9.90E-07,  avg # of iterations =  2.0

     total cpu time spent up to now is    24216.4 secs

     total energy              =  -13644.69743365 Ry
     Harris-Foulkes estimate   =  -13644.69757363 Ry
     estimated scf accuracy    <       0.00072455 Ry

     iteration #  6     ecut=    35.00 Ry     beta=0.30
     Davidson diagonalization with overlap
     ethr =  6.46E-08,  avg # of iterations =  2.0

     total cpu time spent up to now is    26967.1 secs

     total energy              =  -13644.69739803 Ry
     Harris-Foulkes estimate   =  -13644.69746842 Ry
     estimated scf accuracy    <       0.00023330 Ry

     iteration #  7     ecut=    35.00 Ry     beta=0.30
     Davidson diagonalization with overlap
     ethr =  2.08E-08,  avg # of iterations =  2.0

     total cpu time spent up to now is    30200.2 secs

     total energy              =  -13644.69742819 Ry
     Harris-Foulkes estimate   =  -13644.69742340 Ry
     estimated scf accuracy    <       0.00004737 Ry

     iteration #  8     ecut=    35.00 Ry     beta=0.30
     Davidson diagonalization with overlap
     ethr =  4.22E-09,  avg # of iterations =  2.0

     total cpu time spent up to now is    33053.0 secs

     total energy              =  -13644.69742467 Ry
     Harris-Foulkes estimate   =  -13644.69743103 Ry
     estimated scf accuracy    <       0.00002886 Ry

     iteration #  9     ecut=    35.00 Ry     beta=0.30
     Davidson diagonalization with overlap
     ethr =  2.57E-09,  avg # of iterations =  2.4

     total cpu time spent up to now is    36851.9 secs

     total energy              =  -13644.69742858 Ry
     Harris-Foulkes estimate   =  -13644.69742989 Ry
     estimated scf accuracy    <       0.00000645 Ry

     iteration # 10     ecut=    35.00 Ry     beta=0.30
     Davidson diagonalization with overlap
     ethr =  5.75E-10,  avg # of iterations =  2.0

     total cpu time spent up to now is    39628.8 secs

     total energy              =  -13644.69742818 Ry
     Harris-Foulkes estimate   =  -13644.69742898 Ry
     estimated scf accuracy    <       0.00000262 Ry

     iteration # 11     ecut=    35.00 Ry     beta=0.30
     Davidson diagonalization with overlap
     ethr =  2.34E-10,  avg # of iterations =  2.4

     total cpu time spent up to now is    43176.3 secs

     total energy              =  -13644.69742875 Ry
     Harris-Foulkes estimate   =  -13644.69742862 Ry
     estimated scf accuracy    <       0.00000018 Ry

     iteration # 12     ecut=    35.00 Ry     beta=0.30
     Davidson diagonalization with overlap
     ethr =  1.58E-11,  avg # of iterations =  2.0

     total cpu time spent up to now is    46052.5 secs

     total energy              =  -13644.69742882 Ry
     Harris-Foulkes estimate   =  -13644.69742877 Ry
     estimated scf accuracy    <       0.00000007 Ry

     iteration # 13     ecut=    35.00 Ry     beta=0.30
     Davidson diagonalization with overlap
     ethr =  5.99E-12,  avg # of iterations =  2.4

     total cpu time spent up to now is    49227.1 secs

     total energy              =  -13644.69742887 Ry
     Harris-Foulkes estimate   =  -13644.69742883 Ry
     estimated scf accuracy    <          3.8E-09 Ry

     iteration # 14     ecut=    35.00 Ry     beta=0.30
     Davidson diagonalization with overlap
     ethr =  3.43E-13,  avg # of iterations =  3.0

     total cpu time spent up to now is    53586.7 secs

     total energy              =  -13644.69742889 Ry
     Harris-Foulkes estimate   =  -13644.69742887 Ry
     estimated scf accuracy    <          2.0E-09 Ry

     iteration # 15     ecut=    35.00 Ry     beta=0.30
     Davidson diagonalization with overlap
     ethr =  1.78E-13,  avg # of iterations =  2.4

     total cpu time spent up to now is    56804.5 secs

     End of self-consistent calculation

          k = 0.0000 0.0000 0.0000 ( 64141 PWs)   bands (ev):

   -17.4288 -17.4191 -17.4162 -17.4142 -17.4106 -17.4085 -17.4038 -17.4028
   -17.4002 -17.3992 -17.3978 -17.3951 -17.3944 -17.3929 -17.3916 -17.3866
   -17.3861 -17.3848 -17.3824 -17.3800 -17.3796 -17.3777 -17.3759 -17.3689
   -17.3648 -17.3619 -17.3593 -17.3564 -17.3553 -17.3480 -17.3452 -17.3435
   -17.3418 -17.3403 -17.3372 -17.3360 -17.3343 -17.3305 -17.3299 -17.3269
   -17.3258 -17.3201 -17.3171 -17.3141 -17.3118 -17.3097 -17.3091 -17.3072
   -17.3051 -17.3018 -17.3012 -17.3001 -17.2991 -17.2980 -17.2946 -17.2925
   -17.2909 -17.2899 -17.2889 -17.2861 -17.2854 -17.2850 -17.2813 -17.2762
   -17.2758 -17.2737 -17.2722 -17.2710 -17.2707 -17.2690 -17.2668 -17.2655
   -17.2644 -17.2631 -17.2604 -17.2589 -17.2563 -17.2559 -17.2547 -17.2532
   -17.2499 -17.2469 -17.2428 -17.2416 -17.2411 -17.2399 -17.2367 -17.2363
   -17.2347 -17.2343 -17.2324 -17.2308 -17.2299 -17.2278 -17.2259 -17.2252
   -17.2221 -17.2212 -17.2185 -17.2182 -17.2165 -17.2159 -17.2146 -17.2119
   -17.2093 -17.2082 -17.2065 -17.2061 -17.2050 -17.2028 -17.1999 -17.1987
   -17.1934 -17.1903 -17.1895 -17.1884 -17.1881 -17.1864 -17.1851 -17.1839
   -17.1832 -17.1820 -17.1797 -17.1780 -17.1769 -17.1763 -17.1758 -17.1755
   -17.1728 -17.1720 -17.1707 -17.1702 -17.1683 -17.1661 -17.1644 -17.1628
   -17.1619 -17.1612 -17.1602 -17.1591 -17.1580 -17.1575 -17.1568 -17.1563
   -17.1557 -17.1551 -17.1543 -17.1532 -17.1524 -17.1492 -17.1485 -17.1475
   -17.1469 -17.1464 -17.1461 -17.1453 -17.1438 -17.1430 -17.1427 -17.1414
   -17.1407 -17.1393 -17.1381 -17.1370 -17.1368 -17.1364 -17.1349 -17.1343
   -17.1340 -17.1334 -17.1324 -17.1318 -17.1314 -17.1313 -17.1305 -17.1292
   -17.1284 -17.1273 -17.1260 -17.1255 -17.1245 -17.1232 -17.1226 -17.1220
   -17.1211 -17.1205 -17.1203 -17.1192 -17.1188 -17.1180 -17.1167 -17.1153
   -17.1146 -17.1137 -17.1132 -17.1105 -17.1105 -17.1100 -17.1091 -17.1086
   -17.1079 -17.1076 -17.1063 -17.1062 -17.1054 -17.1053 -17.1044 -17.1041
   -17.1035 -17.1029 -17.1025 -17.1022 -17.1018 -17.1013 -17.1008 -17.1003
   -17.0997 -17.0993 -17.0981 -17.0976 -17.0973 -17.0967 -17.0963 -17.0953
   -17.0947 -17.0939 -17.0934 -17.0920 -17.0904 -17.0895 -17.0883 -17.0872
   -17.0867 -17.0849 -17.0839 -17.0829 -17.0822 -17.0811 -17.0802 -17.0799
   -17.0795 -17.0789 -17.0778 -17.0762 -17.0752 -17.0738 -17.0731 -17.0722
   -17.0717 -17.0714 -17.0710 -17.0699 -17.0679 -17.0672 -17.0667 -17.0643
   -17.0631 -17.0627 -17.0623 -17.0612 -17.0611 -17.0606 -17.0598 -17.0590
   -17.0580 -17.0563 -17.0562 -17.0561 -17.0548 -17.0522 -17.0508 -17.0487
   -17.0484 -17.0467 -17.0453 -17.0441 -17.0406 -17.0390 -17.0388 -17.0385
   -17.0368 -17.0362 -17.0347 -17.0339 -17.0325 -17.0315 -17.0309 -17.0301
   -17.0269 -17.0260 -17.0232 -17.0199 -17.0187 -17.0172 -17.0150 -17.0083
   -17.0070 -17.0050 -17.0037 -17.0035 -17.0022 -16.9991 -16.9956 -16.9945
   -16.9819  -5.2443  -4.6439  -4.6376  -4.6130  -4.5529  -4.4652  -4.4467
    -4.3741  -4.2672  -4.2263  -4.1536  -4.1067  -4.0750  -4.0082  -3.9604
    -3.5112  -3.4569  -3.4173  -3.3690  -3.3374  -3.3205  -3.2710  -3.2056
    -3.1658  -3.1596  -3.0876  -3.0211  -2.9904  -2.9463  -2.9175  -2.8695
    -2.8135  -2.7829  -2.7439  -2.7015  -2.6642  -2.6512  -2.6076  -2.5908
    -2.5640  -2.5093  -2.4645  -2.4557  -2.4180  -2.4008  -2.3925  -2.3290
    -2.3158  -2.2792  -2.2390  -2.2072  -2.1861  -2.1469  -2.1228  -2.0671
    -1.3327  -1.3078  -1.2175  -1.1486  -1.1296  -1.0968  -1.0585  -1.0168
    -0.9794  -0.9291  -0.9056  -0.8896  -0.8410  -0.8303  -0.7747  -0.7318
    -0.7028  -0.6592  -0.1406  -0.0549  -0.0536   0.0145   0.0966   0.1520
     0.2016   0.2333   0.2857   0.3018   0.3157   0.3434   0.3530   0.3869
     0.3976   0.4290   0.4331   0.4589   0.4799   0.4948   0.5191   0.5351
     0.5861   0.6000   0.6391   0.6613   0.6713   0.7045   1.1597   1.2290
     1.2625   1.2674   1.3231   1.3525   1.3592   1.3881   1.4115   1.4341
     1.4417   1.5137   2.8713   2.8983   2.9097   2.9331   2.9837   3.0110
     3.0236   3.0946   3.1389   3.2063   3.2352   3.2533   3.2851   3.3010
     3.3087   3.3178   3.3276   3.3288   3.3336   3.3367   3.3432   3.3516
     3.3564   3.3590   3.3620   3.3669   3.3899   3.3984   3.3994   3.4059
     3.4127   3.4178   3.4203   3.4228   3.4319   3.4456   3.4541   3.4573
     3.5439   3.5475   3.5576   3.5678   3.5731   3.5805   3.5856   3.5891
     3.5901   3.5982   3.6021   3.6078   3.6120   3.6140   3.6216   3.6229
     3.6288   3.6358   3.6380   3.6414   3.6498   3.6515   3.6587   3.6690
     4.2689   4.2753   4.2824   4.2850   4.2886   4.2972   4.8930   4.9047
     4.9087   4.9201   4.9253   4.9260   4.9274   4.9301   4.9346   4.9406
     4.9441   4.9481   4.9520   4.9553   4.9582   4.9597   4.9612   4.9647
     4.9719   4.9761   4.9778   4.9820   4.9878   4.9936   5.2459   5.2588
     5.2702   5.2738   5.2764   5.2920   5.2975   5.3022   5.3062   5.3202
     5.3242   5.3335   5.7953   5.8029   5.8222   5.8266   5.8308   5.8413
     5.8449   5.8514   5.8645   5.8694   5.8802   5.8810   5.9343   5.9396
     5.9568   5.9607   5.9781   5.9824   5.9922   6.0029   6.3780   6.3934
     6.4109   6.4150   6.4217   6.4365   6.4419   6.4505   6.4518   6.4672
     6.4703   6.4748   6.4853   6.4971   6.5098   6.5213   7.2662   7.2821
     7.2960   7.8435   7.8761   7.8856   7.8998   7.9164   7.9330   7.9710
     8.0338   8.0881   8.1497   8.2092   8.2147   8.2455   8.2598   8.2829
     8.3055   8.4316   8.4638   8.4951   8.5114   8.5207   8.5408   8.5536
     8.5718   8.5862   8.5949   8.6150   8.6214   8.6309   8.6435   8.6556
     8.6652   8.6711   8.6818   8.6888   8.7043   8.7170   8.7267   8.7323
     8.7398   8.7453   8.7618   8.7760   8.7839   8.8142   8.8368   8.8487
     8.8740   9.0410   9.3776   9.4140   9.4350   9.4417   9.4561   9.4720
     9.4896   9.4993   9.5183   9.5379   9.5461   9.6185   9.7660   9.7705
     9.8156  10.1614  10.1831  10.2120  10.2305  10.2595  10.2919  10.6237
    10.6437  10.6625  10.6791  10.6825  10.6900  10.7019  10.7156  10.7256
    10.7361  10.7517  10.7595  10.7718  10.7961  10.8022  10.8055  10.8134
    10.8240  10.8470  10.8495  10.8554  10.8704  10.8889  10.9106  11.4546
    11.4777  11.4800  11.5064  11.5216  11.5253  11.5329  11.5424  11.5526
    11.5586  11.5674  11.5721  11.5820  11.5980  11.6103  11.6141  11.6172
    11.6214

     occupation numbers 
     1.0000   1.0000   1.0000   1.0000   1.0000   1.0000   1.0000   1.0000
     1.0000   1.0000   1.0000   1.0000   1.0000   1.0000   1.0000   1.0000
     1.0000   1.0000   1.0000   1.0000   1.0000   1.0000   1.0000   1.0000
     1.0000   1.0000   1.0000   1.0000   1.0000   1.0000   1.0000   1.0000
     1.0000   1.0000   1.0000   1.0000   1.0000   1.0000   1.0000   1.0000
     1.0000   1.0000   1.0000   1.0000   1.0000   1.0000   1.0000   1.0000
     1.0000   1.0000   1.0000   1.0000   1.0000   1.0000   1.0000   1.0000
     1.0000   1.0000   1.0000   1.0000   1.0000   1.0000   1.0000   1.0000
     1.0000   1.0000   1.0000   1.0000   1.0000   1.0000   1.0000   1.0000
     1.0000   1.0000   1.0000   1.0000   1.0000   1.0000   1.0000   1.0000
     1.0000   1.0000   1.0000   1.0000   1.0000   1.0000   1.0000   1.0000
     1.0000   1.0000   1.0000   1.0000   1.0000   1.0000   1.0000   1.0000
     1.0000   1.0000   1.0000   1.0000   1.0000   1.0000   1.0000   1.0000
     1.0000   1.0000   1.0000   1.0000   1.0000   1.0000   1.0000   1.0000
     1.0000   1.0000   1.0000   1.0000   1.0000   1.0000   1.0000   1.0000
     1.0000   1.0000   1.0000   1.0000   1.0000   1.0000   1.0000   1.0000
     1.0000   1.0000   1.0000   1.0000   1.0000   1.0000   1.0000   1.0000
     1.0000   1.0000   1.0000   1.0000   1.0000   1.0000   1.0000   1.0000
     1.0000   1.0000   1.0000   1.0000   1.0000   1.0000   1.0000   1.0000
     1.0000   1.0000   1.0000   1.0000   1.0000   1.0000   1.0000   1.0000
     1.0000   1.0000   1.0000   1.0000   1.0000   1.0000   1.0000   1.0000
     1.0000   1.0000   1.0000   1.0000   1.0000   1.0000   1.0000   1.0000
     1.0000   1.0000   1.0000   1.0000   1.0000   1.0000   1.0000   1.0000
     1.0000   1.0000   1.0000   1.0000   1.0000   1.0000   1.0000   1.0000
     1.0000   1.0000   1.0000   1.0000   1.0000   1.0000   1.0000   1.0000
     1.0000   1.0000   1.0000   1.0000   1.0000   1.0000   1.0000   1.0000
     1.0000   1.0000   1.0000   1.0000   1.0000   1.0000   1.0000   1.0000
     1.0000   1.0000   1.0000   1.0000   1.0000   1.0000   1.0000   1.0000
     1.0000   1.0000   1.0000   1.0000   1.0000   1.0000   1.0000   1.0000
     1.0000   1.0000   1.0000   1.0000   1.0000   1.0000   1.0000   1.0000
     1.0000   1.0000   1.0000   1.0000   1.0000   1.0000   1.0000   1.0000
     1.0000   1.0000   1.0000   1.0000   1.0000   1.0000   1.0000   1.0000
     1.0000   1.0000   1.0000   1.0000   1.0000   1.0000   1.0000   1.0000
     1.0000   1.0000   1.0000   1.0000   1.0000   1.0000   1.0000   1.0000
     1.0000   1.0000   1.0000   1.0000   1.0000   1.0000   1.0000   1.0000
     1.0000   1.0000   1.0000   1.0000   1.0000   1.0000   1.0000   1.0000
     1.0000   1.0000   1.0000   1.0000   1.0000   1.0000   1.0000   1.0000
     1.0000   1.0000   1.0000   1.0000   1.0000   1.0000   1.0000   1.0000
     1.0000   1.0000   1.0000   1.0000   1.0000   1.0000   1.0000   1.0000
     1.0000   1.0000   1.0000   1.0000   1.0000   1.0000   1.0000   1.0000
     1.0000   1.0000   1.0000   1.0000   1.0000   1.0000   1.0000   1.0000
     1.0000   1.0000   1.0000   1.0000   1.0000   1.0000   1.0000   1.0000
     1.0000   1.0000   1.0000   1.0000   1.0000   1.0000   1.0000   1.0000
     1.0000   1.0000   1.0000   1.0000   1.0000   1.0000   1.0000   1.0000
     1.0000   1.0000   1.0000   1.0000   1.0000   1.0000   1.0000   1.0000
     1.0000   1.0000   1.0000   1.0000   1.0000   1.0000   1.0000   1.0000
     1.0000   1.0000   1.0000   1.0000   1.0000   1.0000   1.0000   1.0000
     1.0000   1.0000   1.0000   1.0000   1.0000   1.0000   1.0000   1.0000
     1.0000   1.0000   1.0000   1.0000   1.0000   1.0000   1.0000   1.0000
     1.0000   1.0000   1.0000   1.0000   1.0000   1.0000   1.0000   1.0000
     1.0000   1.0000   1.0000   1.0000   1.0000   1.0000   1.0000   1.0000
     1.0000   1.0000   1.0000   1.0000   1.0000   1.0000   1.0000   1.0000
     1.0000   1.0000   1.0000   1.0000   1.0000   1.0000   1.0000   1.0000
     1.0000   1.0000   1.0000   1.0000   1.0000   1.0000   1.0000   1.0000
     1.0000   1.0000   1.0000   1.0000   1.0000   1.0000   1.0000   1.0000
     1.0000   1.0000   1.0000   1.0000   1.0000   1.0000   1.0000   1.0000
     1.0000   1.0000   1.0000   1.0000   1.0000   1.0000   1.0000   1.0000
     1.0000   1.0000   1.0000   1.0000   1.0000   1.0000   1.0000   1.0000
     1.0000   1.0000   1.0000   1.0000   1.0000   1.0000   1.0000   1.0000
     1.0000   1.0000   1.0000   1.0000   1.0000   1.0000   1.0000   1.0000
     1.0000   1.0000   1.0000   1.0000   1.0000   1.0000   1.0000   1.0000
     1.0000   1.0000   1.0000   1.0000   1.0000   1.0000   1.0000   1.0000
     1.0000   1.0000   1.0000   1.0000   1.0000   1.0000   1.0000   1.0000
     1.0000   1.0000   1.0000   1.0000   1.0000   1.0000   1.0000   1.0000
     1.0000   1.0000   1.0000   1.0000   1.0000   1.0000   1.0000   1.0000
     1.0000   1.0000   1.0000   1.0000   1.0000   1.0000   1.0000   1.0000
     1.0000   1.0000   1.0000   1.0000   1.0000   1.0000   1.0000   1.0000
     1.0000   1.0000   1.0000   1.0000   1.0000   1.0000   1.0000   1.0000
     1.0000   1.0000   1.0000   1.0000   1.0000   1.0000   1.0000   1.0000
     1.0000   1.0000   1.0000   1.0000   1.0000   1.0000   0.9457   0.9325
     0.9190   0.0083   0.0044   0.0036   0.0027   0.0019   0.0013   0.0005
     0.0001   0.0000   0.0000   0.0000   0.0000   0.0000   0.0000   0.0000
     0.0000   0.0000   0.0000   0.0000   0.0000   0.0000   0.0000   0.0000
     0.0000   0.0000   0.0000   0.0000   0.0000   0.0000   0.0000   0.0000
     0.0000   0.0000   0.0000   0.0000   0.0000   0.0000   0.0000   0.0000
     0.0000   0.0000   0.0000   0.0000   0.0000   0.0000   0.0000   0.0000
     0.0000   0.0000   0.0000   0.0000   0.0000   0.0000   0.0000   0.0000
     0.0000   0.0000   0.0000   0.0000   0.0000   0.0000   0.0000   0.0000
     0.0000   0.0000   0.0000   0.0000   0.0000   0.0000   0.0000   0.0000
     0.0000   0.0000   0.0000   0.0000   0.0000   0.0000   0.0000   0.0000
     0.0000   0.0000   0.0000   0.0000   0.0000   0.0000   0.0000   0.0000
     0.0000   0.0000   0.0000   0.0000   0.0000   0.0000   0.0000   0.0000
     0.0000   0.0000   0.0000   0.0000   0.0000   0.0000   0.0000   0.0000
     0.0000   0.0000   0.0000   0.0000   0.0000   0.0000   0.0000   0.0000
     0.0000

          k =-0.3537-0.3539 0.3531 ( 64150 PWs)   bands (ev):

   -17.4288 -17.4191 -17.4162 -17.4143 -17.4107 -17.4086 -17.4038 -17.4029
   -17.4002 -17.3992 -17.3978 -17.3952 -17.3943 -17.3930 -17.3916 -17.3867
   -17.3861 -17.3849 -17.3825 -17.3800 -17.3797 -17.3778 -17.3759 -17.3688
   -17.3647 -17.3620 -17.3593 -17.3565 -17.3554 -17.3480 -17.3452 -17.3436
   -17.3418 -17.3404 -17.3373 -17.3359 -17.3342 -17.3307 -17.3298 -17.3270
   -17.3258 -17.3201 -17.3171 -17.3141 -17.3117 -17.3097 -17.3091 -17.3071
   -17.3053 -17.3017 -17.3013 -17.3002 -17.2991 -17.2980 -17.2948 -17.2924
   -17.2910 -17.2900 -17.2889 -17.2861 -17.2854 -17.2850 -17.2812 -17.2762
   -17.2758 -17.2736 -17.2722 -17.2709 -17.2708 -17.2690 -17.2668 -17.2655
   -17.2644 -17.2632 -17.2605 -17.2589 -17.2562 -17.2559 -17.2548 -17.2532
   -17.2500 -17.2470 -17.2428 -17.2416 -17.2411 -17.2399 -17.2367 -17.2363
   -17.2348 -17.2344 -17.2324 -17.2308 -17.2300 -17.2278 -17.2259 -17.2252
   -17.2221 -17.2213 -17.2187 -17.2181 -17.2164 -17.2159 -17.2145 -17.2119
   -17.2093 -17.2081 -17.2066 -17.2061 -17.2050 -17.2028 -17.2000 -17.1987
   -17.1934 -17.1903 -17.1896 -17.1885 -17.1881 -17.1865 -17.1850 -17.1841
   -17.1831 -17.1822 -17.1798 -17.1781 -17.1768 -17.1765 -17.1759 -17.1754
   -17.1728 -17.1721 -17.1706 -17.1704 -17.1683 -17.1660 -17.1643 -17.1628
   -17.1617 -17.1614 -17.1603 -17.1591 -17.1581 -17.1576 -17.1569 -17.1563
   -17.1555 -17.1552 -17.1543 -17.1531 -17.1526 -17.1491 -17.1486 -17.1475
   -17.1469 -17.1465 -17.1464 -17.1452 -17.1439 -17.1431 -17.1427 -17.1415
   -17.1408 -17.1392 -17.1383 -17.1371 -17.1368 -17.1364 -17.1350 -17.1344
   -17.1340 -17.1334 -17.1325 -17.1319 -17.1314 -17.1312 -17.1305 -17.1292
   -17.1280 -17.1275 -17.1261 -17.1254 -17.1241 -17.1232 -17.1227 -17.1224
   -17.1212 -17.1207 -17.1201 -17.1195 -17.1187 -17.1182 -17.1168 -17.1153
   -17.1147 -17.1139 -17.1132 -17.1107 -17.1104 -17.1100 -17.1091 -17.1087
   -17.1078 -17.1077 -17.1065 -17.1062 -17.1056 -17.1050 -17.1043 -17.1043
   -17.1036 -17.1031 -17.1028 -17.1021 -17.1017 -17.1014 -17.1005 -17.1003
   -17.0998 -17.0989 -17.0981 -17.0978 -17.0973 -17.0970 -17.0964 -17.0954
   -17.0945 -17.0941 -17.0936 -17.0920 -17.0904 -17.0896 -17.0882 -17.0871
   -17.0868 -17.0848 -17.0839 -17.0830 -17.0823 -17.0812 -17.0803 -17.0799
   -17.0795 -17.0789 -17.0779 -17.0761 -17.0750 -17.0738 -17.0734 -17.0725
   -17.0717 -17.0713 -17.0712 -17.0700 -17.0680 -17.0671 -17.0668 -17.0645
   -17.0631 -17.0626 -17.0623 -17.0612 -17.0611 -17.0607 -17.0599 -17.0591
   -17.0581 -17.0563 -17.0562 -17.0561 -17.0547 -17.0522 -17.0508 -17.0488
   -17.0485 -17.0468 -17.0454 -17.0442 -17.0407 -17.0391 -17.0388 -17.0385
   -17.0368 -17.0364 -17.0347 -17.0338 -17.0328 -17.0316 -17.0309 -17.0301
   -17.0269 -17.0261 -17.0232 -17.0199 -17.0187 -17.0172 -17.0151 -17.0084
   -17.0071 -17.0051 -17.0038 -17.0035 -17.0022 -16.9991 -16.9957 -16.9945
   -16.9819  -5.1327  -4.9618  -4.6971  -4.6172  -4.5695  -4.4991  -4.4269
    -4.3997  -4.1329  -4.0651  -4.0447  -3.9675  -3.9385  -3.8589  -3.6940
    -3.6193  -3.5395  -3.5292  -3.4901  -3.4409  -3.4182  -3.3766  -3.3115
    -3.2232  -3.1829  -3.1331  -3.1160  -3.0848  -3.0286  -2.9837  -2.9630
    -2.9181  -2.8841  -2.8661  -2.7870  -2.7250  -2.7078  -2.6844  -2.6474
    -2.5716  -2.4369  -2.3829  -2.3130  -2.2712  -2.2163  -2.1795  -2.0960
    -2.0500  -2.0282  -1.9904  -1.9026  -1.8969  -1.8399  -1.8235  -1.7769
    -1.7642  -1.7266  -1.6635  -1.6346  -1.6035  -1.5793  -1.5449  -1.5199
    -1.4518  -0.4581  -0.4253  -0.3916  -0.3486  -0.3387  -0.3171  -0.2462
    -0.2324  -0.2107  -0.1819  -0.1513  -0.1151  -0.0990  -0.0824  -0.0612
    -0.0314   0.0340   0.0900   0.1025   0.1141   0.1372   0.1557   0.2101
     0.2204   0.2472   0.2674   0.2904   0.3432   0.3597   0.3747   0.7498
     0.8017   0.8848   0.9093   0.9258   0.9914   1.0147   1.0418   1.0562
     1.0711   1.0971   1.1259   1.1462   1.2044   1.7087   1.7320   1.8416
     1.8635   1.8971   1.9400   2.1901   2.2121   2.2640   2.2774   2.3188
     2.3361   3.0774   3.0825   3.0954   3.0971   3.1021   3.1088   3.1168
     3.1201   3.1310   3.1369   3.1409   3.1450   3.1480   3.1534   3.1593
     3.1621   3.1777   3.1877   3.5412   3.5943   3.6189   3.6522   3.6787
     3.7032   3.7138   3.7213   3.7247   3.7323   3.7418   3.7453   3.7581
     3.7672   3.7758   3.7845   3.7977   3.8031   3.8109   3.8165   3.8286
     3.8365   3.8412   3.8518   4.1776   4.1910   4.1994   4.2029   4.2087
     4.2123   4.2153   4.2193   4.2235   4.2289   4.2348   4.2443   4.4315
     4.4360   4.4446   4.4501   4.4584   4.4628   4.4741   4.4764   4.4806
     4.4893   4.4976   4.5000   4.7185   4.7491   4.7696   4.7743   4.7791
     4.7948   4.8110   4.8218   4.8316   4.8454   4.8464   4.8609   4.9268
     4.9413   4.9553   4.9666   4.9725   4.9813   5.1748   5.1975   5.2081
     5.2179   5.2251   5.2281   5.2352   5.2376   5.2426   5.2545   5.2681
     5.2695   5.2744   5.2807   5.2864   5.2978   5.3012   5.3027   5.3641
     5.4522   5.5809   5.5834   5.5898   5.5945   5.6121   5.6327   5.8342
     5.8574   5.8631   5.8716   5.8798   5.8845   5.8874   5.8938   5.9118
     5.9129   5.9244   5.9356   6.0707   6.0853   6.0955   6.1262   6.3870
     6.3944   6.4088   6.4295   6.4426   6.4644   6.9252   6.9541   6.9739
     7.0065   8.0015   8.0377   8.0652   8.0760   8.1004   8.1508   8.1753
     8.2592   8.4509   8.4575   8.4859   8.5182   8.5317   8.5503   8.8647
     8.8919   8.9141   8.9337   8.9411   8.9425   8.9544   8.9825   9.0230
     9.0310   9.0483   9.0794   9.0900   9.1207   9.1299   9.1535   9.1670
     9.1787   9.2124   9.2382   9.2397   9.2661   9.2736   9.2900   9.2987
     9.3016   9.3748   9.3979   9.4238   9.4411   9.4474   9.4724   9.5158
     9.5203   9.5251   9.5517   9.5674   9.5698   9.5876   9.5969   9.6128
     9.6277   9.6544   9.6615   9.8868   9.8934   9.9171   9.9254   9.9432
     9.9460   9.9556   9.9607   9.9764   9.9978  10.0192  10.0265  10.0354
    10.0454  10.0806  10.0902  10.1010  10.1371  10.1778  10.2064  10.2384
    10.2864  10.3905  10.3981  10.4212  10.4286  10.4388  10.4537  10.5440
    10.5932  10.6197  10.6246  10.6354  10.6417  10.6611  10.6710  10.6757
    10.6953  10.7049  10.7140  10.7352  10.7459  10.7540  10.7618  10.7804
    10.7908  10.8009  10.8446  10.8693  10.8877  10.9184  10.9410  10.9675
    10.9808

     occupation numbers 
     1.0000   1.0000   1.0000   1.0000   1.0000   1.0000   1.0000   1.0000
     1.0000   1.0000   1.0000   1.0000   1.0000   1.0000   1.0000   1.0000
     1.0000   1.0000   1.0000   1.0000   1.0000   1.0000   1.0000   1.0000
     1.0000   1.0000   1.0000   1.0000   1.0000   1.0000   1.0000   1.0000
     1.0000   1.0000   1.0000   1.0000   1.0000   1.0000   1.0000   1.0000
     1.0000   1.0000   1.0000   1.0000   1.0000   1.0000   1.0000   1.0000
     1.0000   1.0000   1.0000   1.0000   1.0000   1.0000   1.0000   1.0000
     1.0000   1.0000   1.0000   1.0000   1.0000   1.0000   1.0000   1.0000
     1.0000   1.0000   1.0000   1.0000   1.0000   1.0000   1.0000   1.0000
     1.0000   1.0000   1.0000   1.0000   1.0000   1.0000   1.0000   1.0000
     1.0000   1.0000   1.0000   1.0000   1.0000   1.0000   1.0000   1.0000
     1.0000   1.0000   1.0000   1.0000   1.0000   1.0000   1.0000   1.0000
     1.0000   1.0000   1.0000   1.0000   1.0000   1.0000   1.0000   1.0000
     1.0000   1.0000   1.0000   1.0000   1.0000   1.0000   1.0000   1.0000
     1.0000   1.0000   1.0000   1.0000   1.0000   1.0000   1.0000   1.0000
     1.0000   1.0000   1.0000   1.0000   1.0000   1.0000   1.0000   1.0000
     1.0000   1.0000   1.0000   1.0000   1.0000   1.0000   1.0000   1.0000
     1.0000   1.0000   1.0000   1.0000   1.0000   1.0000   1.0000   1.0000
     1.0000   1.0000   1.0000   1.0000   1.0000   1.0000   1.0000   1.0000
     1.0000   1.0000   1.0000   1.0000   1.0000   1.0000   1.0000   1.0000
     1.0000   1.0000   1.0000   1.0000   1.0000   1.0000   1.0000   1.0000
     1.0000   1.0000   1.0000   1.0000   1.0000   1.0000   1.0000   1.0000
     1.0000   1.0000   1.0000   1.0000   1.0000   1.0000   1.0000   1.0000
     1.0000   1.0000   1.0000   1.0000   1.0000   1.0000   1.0000   1.0000
     1.0000   1.0000   1.0000   1.0000   1.0000   1.0000   1.0000   1.0000
     1.0000   1.0000   1.0000   1.0000   1.0000   1.0000   1.0000   1.0000
     1.0000   1.0000   1.0000   1.0000   1.0000   1.0000   1.0000   1.0000
     1.0000   1.0000   1.0000   1.0000   1.0000   1.0000   1.0000   1.0000
     1.0000   1.0000   1.0000   1.0000   1.0000   1.0000   1.0000   1.0000
     1.0000   1.0000   1.0000   1.0000   1.0000   1.0000   1.0000   1.0000
     1.0000   1.0000   1.0000   1.0000   1.0000   1.0000   1.0000   1.0000
     1.0000   1.0000   1.0000   1.0000   1.0000   1.0000   1.0000   1.0000
     1.0000   1.0000   1.0000   1.0000   1.0000   1.0000   1.0000   1.0000
     1.0000   1.0000   1.0000   1.0000   1.0000   1.0000   1.0000   1.0000
     1.0000   1.0000   1.0000   1.0000   1.0000   1.0000   1.0000   1.0000
     1.0000   1.0000   1.0000   1.0000   1.0000   1.0000   1.0000   1.0000
     1.0000   1.0000   1.0000   1.0000   1.0000   1.0000   1.0000   1.0000
     1.0000   1.0000   1.0000   1.0000   1.0000   1.0000   1.0000   1.0000
     1.0000   1.0000   1.0000   1.0000   1.0000   1.0000   1.0000   1.0000
     1.0000   1.0000   1.0000   1.0000   1.0000   1.0000   1.0000   1.0000
     1.0000   1.0000   1.0000   1.0000   1.0000   1.0000   1.0000   1.0000
     1.0000   1.0000   1.0000   1.0000   1.0000   1.0000   1.0000   1.0000
     1.0000   1.0000   1.0000   1.0000   1.0000   1.0000   1.0000   1.0000
     1.0000   1.0000   1.0000   1.0000   1.0000   1.0000   1.0000   1.0000
     1.0000   1.0000   1.0000   1.0000   1.0000   1.0000   1.0000   1.0000
     1.0000   1.0000   1.0000   1.0000   1.0000   1.0000   1.0000   1.0000
     1.0000   1.0000   1.0000   1.0000   1.0000   1.0000   1.0000   1.0000
     1.0000   1.0000   1.0000   1.0000   1.0000   1.0000   1.0000   1.0000
     1.0000   1.0000   1.0000   1.0000   1.0000   1.0000   1.0000   1.0000
     1.0000   1.0000   1.0000   1.0000   1.0000   1.0000   1.0000   1.0000
     1.0000   1.0000   1.0000   1.0000   1.0000   1.0000   1.0000   1.0000
     1.0000   1.0000   1.0000   1.0000   1.0000   1.0000   1.0000   1.0000
     1.0000   1.0000   1.0000   1.0000   1.0000   1.0000   1.0000   1.0000
     1.0000   1.0000   1.0000   1.0000   1.0000   1.0000   1.0000   1.0000
     1.0000   1.0000   1.0000   1.0000   1.0000   1.0000   1.0000   1.0000
     1.0000   1.0000   1.0000   1.0000   1.0000   1.0000   1.0000   1.0000
     1.0000   1.0000   1.0000   1.0000   1.0000   1.0000   1.0000   1.0000
     1.0000   1.0000   1.0000   1.0000   1.0000   1.0000   1.0000   1.0000
     1.0000   1.0000   1.0000   1.0000   1.0000   1.0000   1.0000   1.0000
     1.0000   1.0000   1.0000   1.0000   1.0000   1.0000   1.0000   1.0000
     1.0000   1.0000   1.0000   1.0000   1.0000   1.0000   1.0000   1.0000
     1.0000   1.0000   1.0000   1.0000   1.0000   1.0000   1.0000   1.0000
     1.0000   1.0000   1.0000   1.0000   1.0000   1.0000   1.0000   1.0000
     1.0000   1.0000   1.0000   1.0000   1.0000   1.0000   1.0000   1.0000
     1.0000   1.0000   1.0000   1.0000   1.0000   1.0000   1.0000   1.0000
     1.0000   1.0000   1.0000   1.0000   1.0000   1.0000   1.0000   1.0000
     1.0000   1.0000   1.0000   1.0000   1.0000   1.0000   1.0000   1.0000
     1.0000   1.0000   1.0000   1.0000   1.0000   1.0000   1.0000   1.0000
     1.0000   1.0000   1.0000   1.0000   1.0000   1.0000   1.0000   1.0000
     1.0000   1.0000   1.0000   1.0000   1.0000   1.0000   0.9999   0.9999
     0.9997   0.0002   0.0001   0.0000   0.0000   0.0000   0.0000   0.0000
     0.0000   0.0000   0.0000   0.0000   0.0000   0.0000   0.0000   0.0000
     0.0000   0.0000   0.0000   0.0000   0.0000   0.0000   0.0000   0.0000
     0.0000   0.0000   0.0000   0.0000   0.0000   0.0000   0.0000   0.0000
     0.0000   0.0000   0.0000   0.0000   0.0000   0.0000   0.0000   0.0000
     0.0000   0.0000   0.0000   0.0000   0.0000   0.0000   0.0000   0.0000
     0.0000   0.0000   0.0000   0.0000   0.0000   0.0000   0.0000   0.0000
     0.0000   0.0000   0.0000   0.0000   0.0000   0.0000   0.0000   0.0000
     0.0000   0.0000   0.0000   0.0000   0.0000   0.0000   0.0000   0.0000
     0.0000   0.0000   0.0000   0.0000   0.0000   0.0000   0.0000   0.0000
     0.0000   0.0000   0.0000   0.0000   0.0000   0.0000   0.0000   0.0000
     0.0000   0.0000   0.0000   0.0000   0.0000   0.0000   0.0000   0.0000
     0.0000   0.0000   0.0000   0.0000   0.0000   0.0000   0.0000   0.0000
     0.0000   0.0000   0.0000   0.0000   0.0000   0.0000   0.0000   0.0000
     0.0000

          k =-0.3536 0.3549-0.3540 ( 64136 PWs)   bands (ev):

   -17.4288 -17.4191 -17.4163 -17.4142 -17.4107 -17.4086 -17.4038 -17.4029
   -17.4003 -17.3997 -17.3973 -17.3951 -17.3945 -17.3930 -17.3917 -17.3868
   -17.3858 -17.3850 -17.3824 -17.3802 -17.3797 -17.3778 -17.3756 -17.3685
   -17.3650 -17.3621 -17.3592 -17.3565 -17.3553 -17.3488 -17.3448 -17.3437
   -17.3414 -17.3403 -17.3374 -17.3363 -17.3338 -17.3312 -17.3291 -17.3265
   -17.3258 -17.3206 -17.3175 -17.3148 -17.3109 -17.3099 -17.3094 -17.3065
   -17.3053 -17.3017 -17.3011 -17.3002 -17.2991 -17.2986 -17.2948 -17.2930
   -17.2908 -17.2895 -17.2881 -17.2864 -17.2855 -17.2852 -17.2809 -17.2778
   -17.2753 -17.2734 -17.2733 -17.2709 -17.2696 -17.2681 -17.2669 -17.2658
   -17.2641 -17.2633 -17.2604 -17.2597 -17.2562 -17.2560 -17.2547 -17.2529
   -17.2501 -17.2470 -17.2430 -17.2415 -17.2411 -17.2398 -17.2368 -17.2364
   -17.2347 -17.2344 -17.2325 -17.2308 -17.2300 -17.2276 -17.2264 -17.2254
   -17.2221 -17.2214 -17.2185 -17.2176 -17.2164 -17.2151 -17.2146 -17.2123
   -17.2094 -17.2083 -17.2069 -17.2063 -17.2046 -17.2027 -17.2001 -17.1991
   -17.1930 -17.1901 -17.1898 -17.1883 -17.1881 -17.1861 -17.1847 -17.1840
   -17.1836 -17.1823 -17.1801 -17.1781 -17.1768 -17.1762 -17.1758 -17.1755
   -17.1728 -17.1720 -17.1704 -17.1700 -17.1684 -17.1665 -17.1646 -17.1634
   -17.1615 -17.1608 -17.1604 -17.1592 -17.1578 -17.1576 -17.1572 -17.1563
   -17.1554 -17.1551 -17.1539 -17.1531 -17.1526 -17.1490 -17.1488 -17.1480
   -17.1469 -17.1468 -17.1462 -17.1453 -17.1441 -17.1433 -17.1429 -17.1414
   -17.1407 -17.1389 -17.1383 -17.1374 -17.1367 -17.1363 -17.1351 -17.1345
   -17.1335 -17.1334 -17.1327 -17.1315 -17.1313 -17.1312 -17.1305 -17.1289
   -17.1281 -17.1270 -17.1266 -17.1257 -17.1244 -17.1234 -17.1226 -17.1223
   -17.1214 -17.1209 -17.1203 -17.1193 -17.1191 -17.1178 -17.1168 -17.1152
   -17.1147 -17.1132 -17.1129 -17.1109 -17.1104 -17.1102 -17.1096 -17.1089
   -17.1081 -17.1074 -17.1064 -17.1060 -17.1055 -17.1051 -17.1049 -17.1041
   -17.1036 -17.1030 -17.1025 -17.1021 -17.1018 -17.1009 -17.1005 -17.1004
   -17.0994 -17.0992 -17.0981 -17.0977 -17.0974 -17.0966 -17.0962 -17.0954
   -17.0945 -17.0942 -17.0936 -17.0929 -17.0910 -17.0890 -17.0879 -17.0876
   -17.0861 -17.0847 -17.0844 -17.0832 -17.0828 -17.0812 -17.0802 -17.0800
   -17.0796 -17.0787 -17.0778 -17.0762 -17.0748 -17.0737 -17.0734 -17.0718
   -17.0716 -17.0713 -17.0709 -17.0699 -17.0680 -17.0675 -17.0669 -17.0645
   -17.0630 -17.0623 -17.0619 -17.0618 -17.0612 -17.0606 -17.0598 -17.0591
   -17.0579 -17.0569 -17.0563 -17.0561 -17.0550 -17.0523 -17.0507 -17.0496
   -17.0487 -17.0467 -17.0444 -17.0431 -17.0418 -17.0388 -17.0385 -17.0381
   -17.0368 -17.0362 -17.0350 -17.0338 -17.0331 -17.0319 -17.0313 -17.0303
   -17.0269 -17.0257 -17.0233 -17.0198 -17.0187 -17.0172 -17.0151 -17.0084
   -17.0070 -17.0052 -17.0035 -17.0034 -17.0024 -16.9991 -16.9957 -16.9946
   -16.9819  -5.0843  -5.0379  -4.7076  -4.5863  -4.5358  -4.5158  -4.4680
    -4.3038  -4.1822  -4.0945  -4.0201  -3.9873  -3.9137  -3.8820  -3.6803
    -3.6218  -3.5645  -3.5517  -3.4655  -3.4421  -3.3754  -3.3625  -3.3015
    -3.2604  -3.2080  -3.1497  -3.1133  -3.0887  -3.0475  -3.0054  -2.9713
    -2.8880  -2.8744  -2.8576  -2.7714  -2.7213  -2.7109  -2.6577  -2.6160
    -2.5631  -2.4367  -2.3114  -2.3010  -2.2818  -2.2728  -2.2094  -2.1604
    -2.1000  -2.0433  -1.9729  -1.9222  -1.8834  -1.8532  -1.7817  -1.7727
    -1.7390  -1.6988  -1.6535  -1.6264  -1.6055  -1.5805  -1.5507  -1.5116
    -1.4614  -0.4892  -0.4471  -0.4007  -0.3712  -0.3317  -0.2975  -0.2702
    -0.2451  -0.1871  -0.1720  -0.1438  -0.1178  -0.0740  -0.0170  -0.0083
     0.0053   0.0309   0.0638   0.0801   0.0971   0.1313   0.1736   0.1971
     0.2215   0.2399   0.2599   0.2833   0.3096   0.3209   0.3688   0.8020
     0.8763   0.8900   0.9277   0.9461   0.9667   1.0042   1.0235   1.0441
     1.0715   1.0890   1.0996   1.1257   1.1613   1.7056   1.7440   1.7990
     1.8686   1.8993   1.9406   2.1792   2.2163   2.2402   2.3177   2.3295
     2.3563   3.0772   3.0829   3.0869   3.0941   3.1051   3.1100   3.1151
     3.1209   3.1252   3.1268   3.1312   3.1382   3.1486   3.1497   3.1631
     3.1714   3.1774   3.1926   3.4955   3.6056   3.6273   3.6523   3.6737
     3.7096   3.7156   3.7209   3.7237   3.7273   3.7377   3.7478   3.7693
     3.7786   3.7876   3.7972   3.8080   3.8120   3.8192   3.8209   3.8349
     3.8453   3.8492   3.8601   4.1875   4.1894   4.1986   4.2056   4.2117
     4.2218   4.2262   4.2283   4.2303   4.2373   4.2456   4.2476   4.4323
     4.4421   4.4426   4.4510   4.4586   4.4697   4.4708   4.4817   4.4868
     4.4950   4.5004   4.5108   4.7342   4.7505   4.7580   4.7680   4.7873
     4.7997   4.8077   4.8183   4.8233   4.8279   4.8497   4.8523   4.9344
     4.9408   4.9435   4.9546   4.9559   4.9729   5.1811   5.1906   5.2036
     5.2107   5.2233   5.2238   5.2288   5.2411   5.2463   5.2531   5.2590
     5.2623   5.2662   5.2740   5.2798   5.2874   5.2901   5.2951   5.3864
     5.4200   5.5863   5.6005   5.6044   5.6091   5.6158   5.6261   5.8237
     5.8314   5.8482   5.8574   5.8678   5.8762   5.8894   5.8932   5.8986
     5.9043   5.9069   5.9322   6.0651   6.0847   6.0945   6.1028   6.3881
     6.4100   6.4249   6.4339   6.4575   6.4712   6.9525   6.9666   6.9713
     6.9837   8.0337   8.0494   8.0646   8.0761   8.0866   8.1084   8.1822
     8.2146   8.4465   8.4670   8.4833   8.5096   8.5274   8.5306   8.8613
     8.8972   8.9048   8.9222   8.9353   8.9708   8.9841   9.0050   9.0267
     9.0342   9.0550   9.0756   9.0844   9.1072   9.1281   9.1405   9.1486
     9.1694   9.1907   9.1987   9.2471   9.2684   9.2720   9.2811   9.3007
     9.3359   9.3451   9.4018   9.4371   9.4623   9.4772   9.4825   9.5125
     9.5349   9.5512   9.5649   9.5763   9.5863   9.5922   9.6215   9.6227
     9.6396   9.6472   9.6662   9.8985   9.9176   9.9241   9.9297   9.9457
     9.9635   9.9726   9.9901   9.9936   9.9986  10.0183  10.0500  10.0521
    10.0689  10.0807  10.1044  10.1169  10.1447  10.2017  10.2041  10.2281
    10.2467  10.4261  10.4386  10.4478  10.4652  10.4811  10.4877  10.5778
    10.5965  10.6132  10.6282  10.6419  10.6489  10.6667  10.6756  10.6806
    10.6940  10.7064  10.7162  10.7299  10.7334  10.7449  10.7615  10.7748
    10.7811  10.7992  10.8161  10.8401  10.8525  10.8887  10.9229  10.9559
    10.9628

     occupation numbers 
     1.0000   1.0000   1.0000   1.0000   1.0000   1.0000   1.0000   1.0000
     1.0000   1.0000   1.0000   1.0000   1.0000   1.0000   1.0000   1.0000
     1.0000   1.0000   1.0000   1.0000   1.0000   1.0000   1.0000   1.0000
     1.0000   1.0000   1.0000   1.0000   1.0000   1.0000   1.0000   1.0000
     1.0000   1.0000   1.0000   1.0000   1.0000   1.0000   1.0000   1.0000
     1.0000   1.0000   1.0000   1.0000   1.0000   1.0000   1.0000   1.0000
     1.0000   1.0000   1.0000   1.0000   1.0000   1.0000   1.0000   1.0000
     1.0000   1.0000   1.0000   1.0000   1.0000   1.0000   1.0000   1.0000
     1.0000   1.0000   1.0000   1.0000   1.0000   1.0000   1.0000   1.0000
     1.0000   1.0000   1.0000   1.0000   1.0000   1.0000   1.0000   1.0000
     1.0000   1.0000   1.0000   1.0000   1.0000   1.0000   1.0000   1.0000
     1.0000   1.0000   1.0000   1.0000   1.0000   1.0000   1.0000   1.0000
     1.0000   1.0000   1.0000   1.0000   1.0000   1.0000   1.0000   1.0000
     1.0000   1.0000   1.0000   1.0000   1.0000   1.0000   1.0000   1.0000
     1.0000   1.0000   1.0000   1.0000   1.0000   1.0000   1.0000   1.0000
     1.0000   1.0000   1.0000   1.0000   1.0000   1.0000   1.0000   1.0000
     1.0000   1.0000   1.0000   1.0000   1.0000   1.0000   1.0000   1.0000
     1.0000   1.0000   1.0000   1.0000   1.0000   1.0000   1.0000   1.0000
     1.0000   1.0000   1.0000   1.0000   1.0000   1.0000   1.0000   1.0000
     1.0000   1.0000   1.0000   1.0000   1.0000   1.0000   1.0000   1.0000
     1.0000   1.0000   1.0000   1.0000   1.0000   1.0000   1.0000   1.0000
     1.0000   1.0000   1.0000   1.0000   1.0000   1.0000   1.0000   1.0000
     1.0000   1.0000   1.0000   1.0000   1.0000   1.0000   1.0000   1.0000
     1.0000   1.0000   1.0000   1.0000   1.0000   1.0000   1.0000   1.0000
     1.0000   1.0000   1.0000   1.0000   1.0000   1.0000   1.0000   1.0000
     1.0000   1.0000   1.0000   1.0000   1.0000   1.0000   1.0000   1.0000
     1.0000   1.0000   1.0000   1.0000   1.0000   1.0000   1.0000   1.0000
     1.0000   1.0000   1.0000   1.0000   1.0000   1.0000   1.0000   1.0000
     1.0000   1.0000   1.0000   1.0000   1.0000   1.0000   1.0000   1.0000
     1.0000   1.0000   1.0000   1.0000   1.0000   1.0000   1.0000   1.0000
     1.0000   1.0000   1.0000   1.0000   1.0000   1.0000   1.0000   1.0000
     1.0000   1.0000   1.0000   1.0000   1.0000   1.0000   1.0000   1.0000
     1.0000   1.0000   1.0000   1.0000   1.0000   1.0000   1.0000   1.0000
     1.0000   1.0000   1.0000   1.0000   1.0000   1.0000   1.0000   1.0000
     1.0000   1.0000   1.0000   1.0000   1.0000   1.0000   1.0000   1.0000
     1.0000   1.0000   1.0000   1.0000   1.0000   1.0000   1.0000   1.0000
     1.0000   1.0000   1.0000   1.0000   1.0000   1.0000   1.0000   1.0000
     1.0000   1.0000   1.0000   1.0000   1.0000   1.0000   1.0000   1.0000
     1.0000   1.0000   1.0000   1.0000   1.0000   1.0000   1.0000   1.0000
     1.0000   1.0000   1.0000   1.0000   1.0000   1.0000   1.0000   1.0000
     1.0000   1.0000   1.0000   1.0000   1.0000   1.0000   1.0000   1.0000
     1.0000   1.0000   1.0000   1.0000   1.0000   1.0000   1.0000   1.0000
     1.0000   1.0000   1.0000   1.0000   1.0000   1.0000   1.0000   1.0000
     1.0000   1.0000   1.0000   1.0000   1.0000   1.0000   1.0000   1.0000
     1.0000   1.0000   1.0000   1.0000   1.0000   1.0000   1.0000   1.0000
     1.0000   1.0000   1.0000   1.0000   1.0000   1.0000   1.0000   1.0000
     1.0000   1.0000   1.0000   1.0000   1.0000   1.0000   1.0000   1.0000
     1.0000   1.0000   1.0000   1.0000   1.0000   1.0000   1.0000   1.0000
     1.0000   1.0000   1.0000   1.0000   1.0000   1.0000   1.0000   1.0000
     1.0000   1.0000   1.0000   1.0000   1.0000   1.0000   1.0000   1.0000
     1.0000   1.0000   1.0000   1.0000   1.0000   1.0000   1.0000   1.0000
     1.0000   1.0000   1.0000   1.0000   1.0000   1.0000   1.0000   1.0000
     1.0000   1.0000   1.0000   1.0000   1.0000   1.0000   1.0000   1.0000
     1.0000   1.0000   1.0000   1.0000   1.0000   1.0000   1.0000   1.0000
     1.0000   1.0000   1.0000   1.0000   1.0000   1.0000   1.0000   1.0000
     1.0000   1.0000   1.0000   1.0000   1.0000   1.0000   1.0000   1.0000
     1.0000   1.0000   1.0000   1.0000   1.0000   1.0000   1.0000   1.0000
     1.0000   1.0000   1.0000   1.0000   1.0000   1.0000   1.0000   1.0000
     1.0000   1.0000   1.0000   1.0000   1.0000   1.0000   1.0000   1.0000
     1.0000   1.0000   1.0000   1.0000   1.0000   1.0000   1.0000   1.0000
     1.0000   1.0000   1.0000   1.0000   1.0000   1.0000   1.0000   1.0000
     1.0000   1.0000   1.0000   1.0000   1.0000   1.0000   1.0000   1.0000
     1.0000   1.0000   1.0000   1.0000   1.0000   1.0000   1.0000   1.0000
     1.0000   1.0000   1.0000   1.0000   1.0000   1.0000   1.0000   1.0000
     1.0000   1.0000   1.0000   1.0000   1.0000   1.0000   1.0000   1.0000
     1.0000   1.0000   1.0000   1.0000   1.0000   1.0000   1.0000   1.0000
     1.0000   1.0000   1.0000   1.0000   1.0000   1.0000   1.0000   1.0000
     1.0000   1.0000   1.0000   1.0000   1.0000   1.0000   1.0000   1.0000
     1.0000   1.0000   1.0000   1.0000   1.0000   1.0000   1.0000   1.0000
     1.0000   1.0000   1.0000   1.0000   1.0000   0.9999   0.9999   0.9999
     0.9998   0.0001   0.0001   0.0000   0.0000   0.0000   0.0000   0.0000
     0.0000   0.0000   0.0000   0.0000   0.0000   0.0000   0.0000   0.0000
     0.0000   0.0000   0.0000   0.0000   0.0000   0.0000   0.0000   0.0000
     0.0000   0.0000   0.0000   0.0000   0.0000   0.0000   0.0000   0.0000
     0.0000   0.0000   0.0000   0.0000   0.0000   0.0000   0.0000   0.0000
     0.0000   0.0000   0.0000   0.0000   0.0000   0.0000   0.0000   0.0000
     0.0000   0.0000   0.0000   0.0000   0.0000   0.0000   0.0000   0.0000
     0.0000   0.0000   0.0000   0.0000   0.0000   0.0000   0.0000   0.0000
     0.0000   0.0000   0.0000   0.0000   0.0000   0.0000   0.0000   0.0000
     0.0000   0.0000   0.0000   0.0000   0.0000   0.0000   0.0000   0.0000
     0.0000   0.0000   0.0000   0.0000   0.0000   0.0000   0.0000   0.0000
     0.0000   0.0000   0.0000   0.0000   0.0000   0.0000   0.0000   0.0000
     0.0000   0.0000   0.0000   0.0000   0.0000   0.0000   0.0000   0.0000
     0.0000   0.0000   0.0000   0.0000   0.0000   0.0000   0.0000   0.0000
     0.0000

          k =-0.7072 0.0011-0.0008 ( 64204 PWs)   bands (ev):

   -17.4288 -17.4191 -17.4163 -17.4142 -17.4107 -17.4086 -17.4038 -17.4029
   -17.4003 -17.3998 -17.3973 -17.3951 -17.3943 -17.3930 -17.3917 -17.3868
   -17.3858 -17.3851 -17.3824 -17.3802 -17.3797 -17.3778 -17.3756 -17.3687
   -17.3650 -17.3619 -17.3592 -17.3565 -17.3554 -17.3489 -17.3448 -17.3437
   -17.3414 -17.3402 -17.3373 -17.3363 -17.3338 -17.3310 -17.3294 -17.3265
   -17.3258 -17.3206 -17.3175 -17.3147 -17.3109 -17.3098 -17.3094 -17.3066
   -17.3052 -17.3018 -17.3010 -17.3002 -17.2992 -17.2986 -17.2947 -17.2929
   -17.2909 -17.2895 -17.2881 -17.2863 -17.2855 -17.2851 -17.2810 -17.2778
   -17.2754 -17.2734 -17.2734 -17.2709 -17.2697 -17.2682 -17.2669 -17.2658
   -17.2642 -17.2632 -17.2605 -17.2597 -17.2563 -17.2560 -17.2548 -17.2529
   -17.2501 -17.2470 -17.2431 -17.2415 -17.2411 -17.2398 -17.2368 -17.2364
   -17.2348 -17.2345 -17.2325 -17.2308 -17.2300 -17.2276 -17.2264 -17.2254
   -17.2222 -17.2215 -17.2185 -17.2177 -17.2164 -17.2150 -17.2147 -17.2123
   -17.2094 -17.2082 -17.2070 -17.2064 -17.2046 -17.2027 -17.2002 -17.1991
   -17.1930 -17.1902 -17.1899 -17.1883 -17.1882 -17.1861 -17.1846 -17.1842
   -17.1835 -17.1823 -17.1801 -17.1782 -17.1768 -17.1763 -17.1759 -17.1756
   -17.1727 -17.1720 -17.1704 -17.1701 -17.1684 -17.1665 -17.1646 -17.1634
   -17.1618 -17.1607 -17.1604 -17.1592 -17.1579 -17.1575 -17.1573 -17.1562
   -17.1554 -17.1549 -17.1540 -17.1534 -17.1523 -17.1489 -17.1488 -17.1481
   -17.1468 -17.1467 -17.1463 -17.1454 -17.1442 -17.1434 -17.1428 -17.1414
   -17.1408 -17.1390 -17.1384 -17.1375 -17.1367 -17.1362 -17.1351 -17.1343
   -17.1337 -17.1333 -17.1325 -17.1315 -17.1313 -17.1311 -17.1302 -17.1291
   -17.1283 -17.1270 -17.1266 -17.1257 -17.1249 -17.1233 -17.1226 -17.1219
   -17.1216 -17.1209 -17.1196 -17.1193 -17.1191 -17.1179 -17.1170 -17.1152
   -17.1146 -17.1133 -17.1130 -17.1110 -17.1103 -17.1101 -17.1097 -17.1090
   -17.1079 -17.1074 -17.1063 -17.1060 -17.1056 -17.1053 -17.1048 -17.1040
   -17.1035 -17.1032 -17.1025 -17.1021 -17.1017 -17.1009 -17.1006 -17.1004
   -17.0995 -17.0989 -17.0984 -17.0977 -17.0973 -17.0967 -17.0962 -17.0953
   -17.0944 -17.0943 -17.0935 -17.0928 -17.0909 -17.0891 -17.0878 -17.0875
   -17.0861 -17.0849 -17.0844 -17.0832 -17.0828 -17.0812 -17.0802 -17.0800
   -17.0795 -17.0788 -17.0779 -17.0760 -17.0746 -17.0738 -17.0735 -17.0718
   -17.0716 -17.0713 -17.0710 -17.0699 -17.0677 -17.0677 -17.0668 -17.0646
   -17.0630 -17.0624 -17.0620 -17.0617 -17.0611 -17.0607 -17.0598 -17.0591
   -17.0578 -17.0569 -17.0563 -17.0561 -17.0550 -17.0523 -17.0507 -17.0496
   -17.0487 -17.0468 -17.0445 -17.0432 -17.0419 -17.0388 -17.0385 -17.0380
   -17.0368 -17.0364 -17.0350 -17.0338 -17.0329 -17.0320 -17.0313 -17.0304
   -17.0269 -17.0258 -17.0233 -17.0197 -17.0187 -17.0172 -17.0151 -17.0084
   -17.0071 -17.0052 -17.0036 -17.0034 -17.0024 -16.9992 -16.9957 -16.9946
   -16.9819  -5.0291  -4.9971  -4.8280  -4.7547  -4.6533  -4.5342  -4.1452
    -4.1085  -4.0814  -4.0521  -3.9620  -3.9205  -3.9024  -3.8522  -3.8013
    -3.7490  -3.7018  -3.6718  -3.6098  -3.5660  -3.5144  -3.4502  -3.2698
    -3.2111  -3.1693  -3.1407  -3.0824  -3.0443  -2.9914  -2.9218  -2.9072
    -2.8038  -2.7957  -2.7596  -2.7230  -2.6623  -2.6335  -2.6028  -2.5420
    -2.4886  -2.4461  -2.4227  -2.3917  -2.3682  -2.3107  -2.2462  -2.2106
    -2.1817  -2.1418  -2.1076  -2.0669  -2.0225  -2.0017  -1.9897  -1.9040
    -1.8737  -1.5970  -1.5236  -1.4756  -1.3919  -1.0834  -1.0692  -1.0278
    -1.0079  -0.9737  -0.9569  -0.9355  -0.8385  -0.5781  -0.5165  -0.4569
    -0.3908  -0.1742  -0.0712  -0.0420   0.0009   0.0395   0.0473   0.0664
     0.1116   0.1367   0.1431   0.1919   0.1983   0.2461   0.2550   0.2943
     0.3038   0.4344   0.4759   0.4923   0.5398   0.5436   0.5839   0.6131
     0.6226   0.6893   0.7337   0.7475   0.8008   0.8479   0.8885   0.9396
     0.9857   1.0355   1.0713   1.4931   1.5525   1.5633   1.5835   1.6552
     1.6581   1.6914   1.7514   2.4168   2.4277   2.4593   2.4959   2.5382
     2.5680   2.5936   2.6271   2.8774   2.8860   2.8992   2.9033   2.9472
     2.9519   2.9573   2.9641   2.9651   2.9707   2.9748   2.9886   3.5991
     3.6110   3.6226   3.6341   3.6413   3.6444   3.6634   3.6778   3.7318
     3.7396   3.7399   3.7462   3.7540   3.7579   3.7608   3.7630   3.7860
[...]
     atom   77 type  1   force =   0.00000000E+00  0.00000000E+00  0.00000000E+00
     atom   78 type  1   force =   0.00000000E+00  0.00000000E+00  0.00000000E+00
     atom   79 type  2   force =   0.00000000E+00  0.00000000E+00  0.00000000E+00
     atom   80 type  1   force =   0.00000000E+00  0.00000000E+00  0.00000000E+00
     atom   81 type  2   force =   0.00000000E+00  0.00000000E+00  0.00000000E+00
     atom   82 type  1   force =   0.00000000E+00  0.00000000E+00  0.00000000E+00
     atom   83 type  1   force =   0.00000000E+00  0.00000000E+00  0.00000000E+00
     atom   84 type  2   force =   0.00000000E+00  0.00000000E+00  0.00000000E+00
     atom   85 type  1   force =   0.00000000E+00  0.00000000E+00  0.00000000E+00
     atom   86 type  1   force =   0.00000000E+00  0.00000000E+00  0.00000000E+00
     atom   87 type  1   force =   0.00000000E+00  0.00000000E+00  0.00000000E+00
     atom   88 type  2   force =   0.00000000E+00  0.00000000E+00  0.00000000E+00
     atom   89 type  2   force =   0.00000000E+00  0.00000000E+00  0.00000000E+00
     atom   90 type  1   force =   0.00000000E+00  0.00000000E+00  0.00000000E+00
     atom   91 type  1   force =   0.00000000E+00  0.00000000E+00  0.00000000E+00
     atom   92 type  2   force =   0.00000000E+00  0.00000000E+00  0.00000000E+00
     atom   93 type  2   force =   0.00000000E+00  0.00000000E+00  0.00000000E+00
     atom   94 type  1   force =   0.00000000E+00  0.00000000E+00  0.00000000E+00
     atom   95 type  2   force =   0.00000000E+00  0.00000000E+00  0.00000000E+00
     atom   96 type  2   force =   0.00000000E+00  0.00000000E+00  0.00000000E+00
     atom   97 type  2   force =   0.00000000E+00  0.00000000E+00  0.00000000E+00
     atom   98 type  1   force =   0.00000000E+00  0.00000000E+00  0.00000000E+00
     atom   99 type  1   force =   0.00000000E+00  0.00000000E+00  0.00000000E+00
     atom  100 type  1   force =   0.00000000E+00  0.00000000E+00  0.00000000E+00
     atom  101 type  1   force =   0.00000000E+00  0.00000000E+00  0.00000000E+00
     atom  102 type  1   force =   0.00000000E+00  0.00000000E+00  0.00000000E+00
     atom  103 type  2   force =   0.00000000E+00  0.00000000E+00  0.00000000E+00
     atom  104 type  2   force =   0.00000000E+00  0.00000000E+00  0.00000000E+00
     atom  105 type  2   force =   0.00000000E+00  0.00000000E+00  0.00000000E+00
     atom  106 type  2   force =   0.00000000E+00  0.00000000E+00  0.00000000E+00
     atom  107 type  1   force =   0.00000000E+00  0.00000000E+00  0.00000000E+00
     atom  108 type  2   force =   0.00000000E+00  0.00000000E+00  0.00000000E+00
     atom  109 type  1   force =   0.00000000E+00  0.00000000E+00  0.00000000E+00
     atom  110 type  2   force =   0.00000000E+00  0.00000000E+00  0.00000000E+00
     atom  111 type  2   force =   0.00000000E+00  0.00000000E+00  0.00000000E+00
     atom  112 type  1   force =   0.00000000E+00  0.00000000E+00  0.00000000E+00
     atom  113 type  1   force =   0.00000000E+00  0.00000000E+00  0.00000000E+00
     atom  114 type  2   force =   0.00000000E+00  0.00000000E+00  0.00000000E+00
     atom  115 type  2   force =   0.00000000E+00  0.00000000E+00  0.00000000E+00
     atom  116 type  1   force =   0.00000000E+00  0.00000000E+00  0.00000000E+00
     atom  117 type  1   force =   0.00000000E+00  0.00000000E+00  0.00000000E+00
     atom  118 type  2   force =   0.00000000E+00  0.00000000E+00  0.00000000E+00
     atom  119 type  2   force =   0.00000000E+00  0.00000000E+00  0.00000000E+00
     atom  120 type  2   force =   0.00000000E+00  0.00000000E+00  0.00000000E+00
     atom  121 type  2   force =   0.00000000E+00  0.00000000E+00  0.00000000E+00
     atom  122 type  2   force =   0.00000000E+00  0.00000000E+00  0.00000000E+00
     atom  123 type  1   force =   0.00000000E+00  0.00000000E+00  0.00000000E+00
     atom  124 type  1   force =   0.00000000E+00  0.00000000E+00  0.00000000E+00
     atom  125 type  2   force =   0.00000000E+00  0.00000000E+00  0.00000000E+00
     atom  126 type  1   force =   0.00000000E+00  0.00000000E+00  0.00000000E+00
     atom  127 type  2   force =   0.00000000E+00  0.00000000E+00  0.00000000E+00
     atom  128 type  1   force =   0.00000000E+00  0.00000000E+00  0.00000000E+00
     The SCF correction term to forces
     atom    1 type  1   force =   0.18728023E-05 -0.10241048E-05  0.11831016E-05
     atom    2 type  1   force =   0.15854602E-05 -0.15211121E-05  0.77590011E-06
     atom    3 type  1   force =   0.56204143E-06 -0.13193669E-05  0.16112885E-05
     atom    4 type  1   force =   0.39878626E-06 -0.23786332E-05  0.15269420E-06
     atom    5 type  1   force =   0.72217128E-06 -0.16070589E-05 -0.16664623E-05
     atom    6 type  2   force =   0.12902071E-05 -0.72041892E-05 -0.14047376E-04
     atom    7 type  2   force =   0.49711896E-05 -0.12432454E-05 -0.10097535E-04
     atom    8 type  2   force =   0.12322521E-04 -0.25713237E-05 -0.18684082E-05
     atom    9 type  2   force =   0.24178752E-05  0.80526208E-06  0.30643551E-05
     atom   10 type  2   force =   0.42238320E-05 -0.47979411E-05 -0.46509512E-05
     atom   11 type  1   force =  -0.78888026E-06 -0.27661832E-05 -0.50202033E-06
     atom   12 type  1   force =  -0.10309562E-05 -0.34044560E-05 -0.20663567E-05
     atom   13 type  2   force =   0.25609259E-05 -0.38854866E-05 -0.14554283E-05
     atom   14 type  1   force =   0.28554824E-05  0.87166881E-06 -0.19022999E-05
     atom   15 type  1   force =   0.29341775E-05  0.97910612E-06 -0.95650554E-06
     atom   16 type  2   force =   0.27520015E-05  0.20324876E-05 -0.11672391E-05
     atom   17 type  2   force =  -0.68297184E-05 -0.31829883E-05 -0.55322802E-05
     atom   18 type  1   force =  -0.17379659E-05 -0.24585553E-05 -0.16819244E-05
     atom   19 type  2   force =  -0.45022446E-05 -0.70051446E-05 -0.45553125E-05
     atom   20 type  1   force =  -0.35430929E-07 -0.43987098E-06  0.41800348E-06
     atom   21 type  2   force =   0.17063800E-05  0.82004115E-05  0.24000473E-05
     atom   22 type  1   force =   0.18623919E-05  0.24863078E-05 -0.44184986E-06
     atom   23 type  2   force =   0.50189794E-05  0.61259305E-05 -0.28067782E-05
     atom   24 type  2   force =   0.83384715E-05 -0.65809243E-05 -0.57311266E-05
     atom   25 type  2   force =  -0.55228200E-05 -0.56928474E-05 -0.23917256E-05
     atom   26 type  2   force =   0.24036536E-05 -0.66869979E-05  0.71157309E-05
     atom   27 type  2   force =   0.39888347E-05 -0.10811250E-05  0.25884052E-05
     atom   28 type  1   force =   0.65514792E-06 -0.25668429E-06  0.15556213E-05
     atom   29 type  2   force =   0.42110653E-05  0.63720557E-05  0.16293956E-05
     atom   30 type  1   force =   0.18743420E-05  0.27652064E-06 -0.21858397E-05
     atom   31 type  1   force =   0.95262882E-06 -0.40418726E-06 -0.23802800E-05
     atom   32 type  2   force =  -0.56345326E-05 -0.79126366E-05 -0.79543925E-05
     atom   33 type  2   force =   0.42649970E-05 -0.83821496E-05  0.40773230E-05
     atom   34 type  2   force =  -0.19014966E-05 -0.17003882E-05  0.62128525E-05
     atom   35 type  1   force =  -0.91058514E-06 -0.26349147E-05 -0.49494220E-06
     atom   36 type  2   force =  -0.11587021E-04 -0.43032705E-05 -0.90263019E-06
     atom   37 type  1   force =  -0.31319892E-06 -0.11410292E-05 -0.24362267E-05
     atom   38 type  2   force =   0.71674696E-05  0.42224598E-05 -0.53172943E-05
     atom   39 type  1   force =   0.34688395E-05  0.14327160E-05 -0.96930313E-06
     atom   40 type  1   force =   0.22770872E-05  0.10969450E-05  0.15605897E-05
     atom   41 type  2   force =  -0.48576105E-05 -0.13625518E-04 -0.71781528E-06
     atom   42 type  2   force =  -0.12325789E-04 -0.76455825E-05  0.47537387E-05
     atom   43 type  2   force =  -0.26249811E-06 -0.11196139E-04 -0.11853766E-05
     atom   44 type  2   force =   0.10874818E-05 -0.40376598E-06  0.10594836E-04
     atom   45 type  2   force =   0.15414011E-04 -0.11179368E-05  0.62527663E-05
     atom   46 type  1   force =   0.26910307E-05  0.26634460E-05  0.12282400E-05
     atom   47 type  1   force =   0.27907283E-05  0.11739690E-05  0.31593583E-06
     atom   48 type  1   force =  -0.72599174E-06  0.30348580E-06 -0.13521315E-06
     atom   49 type  1   force =  -0.13553166E-05 -0.17360666E-05 -0.11581784E-05
     atom   50 type  1   force =  -0.22387227E-06 -0.31290048E-08  0.57971519E-06
     atom   51 type  1   force =   0.88735976E-06 -0.64996749E-07  0.10859083E-05
     atom   52 type  1   force =   0.29976103E-06  0.12626699E-05  0.16016362E-05
     atom   53 type  1   force =   0.15118112E-05  0.14177917E-05 -0.14588708E-06
     atom   54 type  1   force =  -0.74987299E-06  0.12648840E-05 -0.15500723E-05
     atom   55 type  2   force =  -0.22961110E-05  0.24628914E-05 -0.86157907E-05
     atom   56 type  1   force =  -0.16924919E-05 -0.20593010E-06 -0.19906544E-05
     atom   57 type  1   force =   0.85592324E-06 -0.18306781E-06  0.47002665E-06
     atom   58 type  2   force =   0.13271689E-05  0.23113064E-05  0.20513305E-05
     atom   59 type  1   force =   0.24257189E-06 -0.15027715E-06  0.32727501E-06
     atom   60 type  2   force =  -0.53952772E-05 -0.85197883E-06  0.76616598E-06
     atom   61 type  1   force =  -0.50232609E-06 -0.31860034E-06 -0.22187103E-05
     atom   62 type  1   force =  -0.20906487E-07 -0.59614651E-06 -0.21749295E-05
     atom   63 type  1   force =   0.49212082E-06 -0.67548334E-06 -0.26500600E-05
     atom   64 type  1   force =   0.12141867E-05  0.65249921E-06 -0.57414033E-06
     atom   65 type  2   force =  -0.58989119E-05  0.31607071E-05  0.52839032E-05
     atom   66 type  1   force =  -0.20747137E-05 -0.16426369E-05  0.11242385E-05
     atom   67 type  1   force =  -0.26686448E-05 -0.11981620E-05  0.22587162E-05
     atom   68 type  1   force =  -0.15050423E-05 -0.37225438E-06  0.30585045E-05
     atom   69 type  2   force =  -0.14971044E-05  0.88829061E-05  0.15080218E-04
     atom   70 type  1   force =   0.25431652E-05  0.24175945E-05  0.23793465E-05
     atom   71 type  1   force =   0.20232736E-05  0.18843183E-05  0.17460250E-05
     atom   72 type  2   force =   0.50948717E-06 -0.89578015E-07  0.15789077E-05
     atom   73 type  1   force =  -0.31489695E-05 -0.54517489E-06  0.10751708E-05
     atom   74 type  2   force =  -0.10117699E-04  0.19044594E-05  0.16546861E-05
     atom   75 type  2   force =  -0.51193935E-05  0.65172305E-05  0.96557131E-05
     atom   76 type  2   force =   0.30629362E-05  0.60742553E-05  0.11475868E-04
     atom   77 type  1   force =   0.11836848E-05  0.19948739E-05  0.25609163E-05
     atom   78 type  1   force =  -0.65721531E-07  0.12354178E-05 -0.47854473E-06
     atom   79 type  2   force =   0.55395678E-06 -0.11409886E-06  0.25801112E-05
     atom   80 type  1   force =  -0.18929184E-05  0.13802304E-06 -0.13582079E-05
     atom   81 type  2   force =   0.27318525E-05  0.11212199E-04  0.47964333E-05
     atom   82 type  1   force =  -0.24780701E-06  0.28444076E-05  0.17775740E-05
     atom   83 type  1   force =  -0.11519624E-05  0.17372875E-05  0.21227899E-05
     atom   84 type  2   force =  -0.54831178E-05 -0.12272336E-05 -0.34070456E-05
     atom   85 type  1   force =  -0.21140218E-05  0.81442522E-06 -0.13814933E-05
     atom   86 type  1   force =  -0.22269962E-05  0.79514604E-06 -0.26642737E-05
     atom   87 type  1   force =  -0.23592943E-05  0.12400531E-05 -0.24208927E-05
     atom   88 type  2   force =  -0.59235043E-05  0.25676508E-05 -0.27324339E-05
     atom   89 type  2   force =  -0.20252769E-05  0.13847381E-04  0.60553197E-05
     atom   90 type  1   force =  -0.95470910E-06  0.12523781E-06  0.81592628E-06
     atom   91 type  1   force =  -0.34446282E-05 -0.74229064E-06  0.49962407E-06
     atom   92 type  2   force =  -0.11986684E-04 -0.90667207E-05  0.46275758E-05
     atom   93 type  2   force =  -0.67736161E-05  0.32502185E-05 -0.62118204E-05
     atom   94 type  1   force =   0.36196715E-06  0.15280400E-05  0.17153588E-06
     atom   95 type  2   force =   0.76735850E-05  0.36441946E-05 -0.15113797E-05
     atom   96 type  2   force =   0.82742164E-05  0.57837839E-05  0.80192972E-05
     atom   97 type  2   force =   0.24161952E-05 -0.72721751E-05  0.23575075E-05
     atom   98 type  1   force =   0.87441219E-07 -0.69461686E-06  0.17847074E-05
     atom   99 type  1   force =  -0.13877730E-06 -0.88448084E-06  0.25151289E-05
     atom  100 type  1   force =   0.10887109E-05 -0.80087404E-06  0.26642942E-05
     atom  101 type  1   force =   0.18825492E-05  0.91095611E-06  0.16499380E-05
     atom  102 type  1   force =   0.15921376E-05 -0.16035172E-06 -0.43670623E-06
     atom  103 type  2   force =  -0.21108082E-05 -0.15744711E-06 -0.26169520E-05
     atom  104 type  2   force =   0.22981981E-06 -0.64497064E-05 -0.24127204E-05
     atom  105 type  2   force =  -0.45860200E-05  0.12239692E-05  0.55332970E-05
     atom  106 type  2   force =   0.49640274E-05  0.15778690E-05  0.69215251E-05
     atom  107 type  1   force =   0.45926063E-06 -0.23125674E-06  0.18534403E-05
     atom  108 type  2   force =  -0.48891903E-05 -0.67437604E-06 -0.58059612E-06
     atom  109 type  1   force =  -0.28344821E-06 -0.10747169E-05 -0.14438195E-05
     atom  110 type  2   force =  -0.12631206E-05 -0.49806532E-05 -0.12163103E-04
     atom  111 type  2   force =   0.70342033E-05  0.15736326E-05 -0.10014230E-04
     atom  112 type  1   force =  -0.26132589E-07  0.16482407E-05 -0.73990271E-06
     atom  113 type  1   force =  -0.59530955E-07  0.13938743E-05  0.40767943E-06
     atom  114 type  2   force =  -0.88464282E-05 -0.34731616E-05 -0.25974503E-05
     atom  115 type  2   force =  -0.66926093E-05 -0.22125896E-05 -0.13361360E-05
     atom  116 type  1   force =  -0.19379340E-05 -0.16954193E-05 -0.12316748E-05
     atom  117 type  1   force =  -0.16010489E-05 -0.60878607E-06 -0.20744910E-05
     atom  118 type  2   force =  -0.99850723E-06  0.40569689E-05 -0.77766517E-05
     atom  119 type  2   force =   0.16218673E-06  0.17028557E-04 -0.38772462E-05
     atom  120 type  2   force =   0.55912960E-05  0.13842584E-04 -0.92056705E-06
     atom  121 type  2   force =  -0.63118064E-05 -0.88029273E-05 -0.21716469E-05
     atom  122 type  2   force =  -0.42631254E-05 -0.57974469E-05 -0.30034032E-05
     atom  123 type  1   force =  -0.19268916E-05 -0.10743719E-05  0.62702211E-07
     atom  124 type  1   force =  -0.43327950E-06 -0.11910629E-05  0.14734317E-05
     atom  125 type  2   force =   0.45548802E-06  0.17565400E-05  0.84172460E-05
     atom  126 type  1   force =   0.24154713E-05  0.19585914E-05  0.98651008E-06
     atom  127 type  2   force =   0.69719662E-05  0.12643653E-04  0.49715388E-05
     atom  128 type  1   force =   0.12613055E-06  0.60304689E-06  0.18011375E-06

     Total force =     0.251130     Total SCF correction =     0.000085


     entering subroutine stress ...

          total   stress  (Ry/bohr**3)                   (kbar)     P=   -0.09
  -0.0000015689  -0.0000140202   0.0000129480         -0.23     -2.06      1.90
  -0.0000140202   0.0000026180  -0.0000133234         -2.06      0.39     -1.96
   0.0000129480  -0.0000133234  -0.0000029047          1.90     -1.96     -0.43

     kinetic stress (kbar)   6202.33      0.36      0.34
                                0.36   6203.29      0.11
                                0.34      0.11   6202.32

     local   stress (kbar)  -7130.98   2542.72  -1221.79
                             2542.72  -6790.58   -943.16
                            -1221.79   -943.16  -4864.62

     nonloc. stress (kbar)   2462.71     -0.73      0.94
                               -0.73   2462.40     -0.90
                                0.94     -0.90   2462.68

     hartree stress (kbar)  17479.33  -1228.37    607.87
                            -1228.37  17314.04    487.77
                              607.87    487.77  16348.20

     exc-cor stress (kbar)  10462.92     -0.03      0.04
                               -0.03  10462.90     -0.03
                                0.04     -0.03  10462.91

     corecor stress (kbar) -15904.87      0.11     -0.02
                                0.11 -15904.85      0.10
                               -0.02      0.10 -15904.87

     ewald   stress (kbar) -13571.67  -1316.12    614.53
                            -1316.12 -13746.82    454.15
                              614.53    454.15 -14707.05

     hubbard stress (kbar)      0.00      0.00      0.00
                                0.00      0.00      0.00
                                0.00      0.00      0.00

     london  stress (kbar)      0.00      0.00      0.00
                                0.00      0.00      0.00
                                0.00      0.00      0.00

     XDM     stress (kbar)      0.00      0.00      0.00
                                0.00      0.00      0.00
                                0.00      0.00      0.00

     dft-nl  stress (kbar)      0.00      0.00      0.00
                                0.00      0.00      0.00
                                0.00      0.00      0.00



     Writing output data file SiGe_zns.scf.in.super.444.b.066.save

     init_run     :   1623.46s CPU   1212.61s WALL (       1 calls)
     electrons    :  72998.03s CPU  55591.74s WALL (       1 calls)
     forces       :   1267.52s CPU    881.23s WALL (       1 calls)
     stress       :   5487.47s CPU   5437.93s WALL (       1 calls)

     Called by init_run:
     wfcinit      :   1501.37s CPU   1090.34s WALL (       1 calls)
     potinit      :      8.56s CPU      8.57s WALL (       1 calls)

     Called by electrons:
     c_bands      :  63741.29s CPU  47790.65s WALL (      16 calls)
     sum_band     :   7880.10s CPU   6401.16s WALL (      16 calls)
     v_of_rho     :     15.28s CPU     16.19s WALL (      16 calls)
     v_h          :      0.96s CPU      1.04s WALL (      16 calls)
     v_xc         :     15.88s CPU     16.73s WALL (      18 calls)
     newd         :   1428.32s CPU   1450.17s WALL (      16 calls)
     mix_rho      :     25.97s CPU     26.27s WALL (      16 calls)

     Called by c_bands:
     init_us_2    :     79.32s CPU     81.45s WALL (     280 calls)
     cegterg      :  63175.98s CPU  47205.85s WALL (     128 calls)

     Called by sum_band:
     sum_band:bec :     18.36s CPU     18.86s WALL (     128 calls)
     addusdens    :   1049.49s CPU   1064.78s WALL (      16 calls)

     Called by *egterg:
     h_psi        :  29053.46s CPU  22135.28s WALL (     490 calls)
     s_psi        :   8482.19s CPU   4971.25s WALL (     490 calls)
     g_psi        :     13.46s CPU     16.00s WALL (     354 calls)
     cdiaghg      :  10946.50s CPU  10527.04s WALL (     474 calls)
     cegterg:over :   7051.51s CPU   4585.67s WALL (     354 calls)
     cegterg:upda :   3424.04s CPU   2061.97s WALL (     354 calls)
     cegterg:last :   2332.49s CPU   1383.68s WALL (     128 calls)

     Called by h_psi:
     h_psi:vloc   :  10985.56s CPU  11253.81s WALL (     490 calls)
     h_psi:vnl    :  18044.42s CPU  10856.82s WALL (     490 calls)
     add_vuspsi   :   8478.51s CPU   4986.61s WALL (     490 calls)

     General routines
     calbec       :  14767.58s CPU   9318.16s WALL (     634 calls)
     fft          :    237.00s CPU    238.85s WALL (     281 calls)
     ffts         :     14.96s CPU     15.16s WALL (     456 calls)
     fftw         :  11911.97s CPU  12201.18s WALL (  500356 calls)
     interpolate  :      3.44s CPU      3.51s WALL (      32 calls)

     Parallel routines
     fft_scatter  :   6594.11s CPU   6762.22s WALL (  501093 calls)

     PWSCF        :    22h36m CPU       17h32m WALL


   This run was terminated on:   5:54:42   3Nov2017            

=------------------------------------------------------------------------------=
   JOB DONE.
=------------------------------------------------------------------------------=
