
     Program PWSCF v.5.1 starts on 10Feb2017 at 12: 3: 0 

     This program is part of the open-source Quantum ESPRESSO suite
     for quantum simulation of materials; please cite
         "P. Giannozzi et al., J. Phys.:Condens. Matter 21 395502 (2009);
          URL http://www.quantum-espresso.org", 
     in publications or presentations arising from this work. More details at
     http://www.quantum-espresso.org/quote

     Parallel version (MPI), running on    16 processors
     R & G space division:  proc/nbgrp/npool/nimage =      16
     Reading input from /tmp/SiGe_zns.scf.in.super.228.b.03.23466/SiGe_zns.scf.in.super.228.b.03.t
Warning: card &IONS ignored
Warning: card   ION_DYNAMICS='BFGS', ignored
Warning: card / ignored
Warning: card &CELL ignored
Warning: card  CELL_DYNAMICS = 'BFGS' ignored
Warning: card / ignored
     Message from routine read_cards :
     DEPRECATED: no units specified in CELL_PARAMETERS card

     Current dimensions of program PWSCF are:
     Max number of different atomic species (ntypx) = 10
     Max number of k-points (npk) =  40000
     Max angular momentum in pseudopotentials (lmaxx) =  3

     Subspace diagonalization in iterative solution of the eigenvalue problem:
     a serial algorithm will be used

     warning: symmetry operation #  3 not compatible with FFT grid. 
  -1   1   0
   0   1   0
   0   4  -1
     warning: symmetry operation #  4 not compatible with FFT grid. 
   1   0   0
   1  -1   0
   4   0  -1
     warning: symmetry operation #  5 not compatible with FFT grid. 
  -1   1   0
  -1   0   0
  -4   0   1
     warning: symmetry operation #  6 not compatible with FFT grid. 
   0  -1   0
   1  -1   0
   0  -4   1
     warning: symmetry operation #  9 not compatible with FFT grid. 
   1  -1   0
   0  -1   0
   0  -4   1
     warning: symmetry operation # 10 not compatible with FFT grid. 
  -1   0   0
  -1   1   0
  -4   0   1
     warning: symmetry operation # 11 not compatible with FFT grid. 
   1  -1   0
   1   0   0
   4   0  -1
     warning: symmetry operation # 12 not compatible with FFT grid. 
   0   1   0
  -1   1   0
   0   4  -1

     Parallelization info
     --------------------
     sticks:   dense  smooth     PW     G-vecs:    dense   smooth      PW
     Min         189     131     36                27389    16001    2346
     Max         192     132     37                27391    16042    2363
     Sum        3037    2107    583               438235   256383   37657



     bravais-lattice index     =            0
     lattice parameter (alat)  =    14.799446477  a.u.
     unit-cell volume          =    9168.1437 (a.u.)^3
     number of atoms/cell      =           64
     number of atomic types    =            2
     number of electrons       =       526.00
     number of Kohn-Sham states=          316
     kinetic-energy cutoff     =      35.0000  Ry
     charge density cutoff     =     200.0000  Ry
     convergence threshold     =      1.0E-09
     mixing beta               =       0.3000
     number of iterations used =            8  local-TF  mixing
     Exchange-correlation      = SLA  PW   PSX  PSC ( 1  4 10  8 0)
     A smooth kinetic-energy cutoff is imposed at      34.5000 Ry
     height of the smooth step-function =             800.0000 Ry
     width of the smooth step-function  =               1.0000 Ry


     celldm(1)=  14.799446  celldm(2)=   0.000000  celldm(3)=   0.000000
     celldm(4)=   0.000000  celldm(5)=   0.000000  celldm(6)=   0.000000

     crystal axes: (cart. coord. in units of alat)
               a(1) = (   0.000000000000   0.707106781187   0.707106781187 )  
               a(2) = (   0.707106781187  -0.000000000000   0.707106781187 )  
               a(3) = (   2.828427124746   2.828427124746  -0.000000000000 )  

     reciprocal axes: (cart. coord. in units 2 pi/alat)
               b(1) = ( -0.707107  0.707107  0.707107 )  
               b(2) = (  0.707107 -0.707107  0.707107 )  
               b(3) = (  0.176777  0.176777 -0.176777 )  


     PseudoPot. # 1 for Si read from file:
     /users/kfg/psuedo/gbrv_1.5/si.pbesol.UPF
     MD5 check sum: ef58ba74faed4df802eb8a9742fc00a8
     Pseudo is Ultrasoft + core correction, Zval =  4.0
     Generated by new atomic code, or converted to UPF format
     Using radial grid of  899 points,  6 beta functions with: 
                l(1) =   0
                l(2) =   0
                l(3) =   1
                l(4) =   1
                l(5) =   2
                l(6) =   2
     Q(r) pseudized with  8 coefficients,  rinner =    0.900   0.900   0.900
                                                       0.900   0.900

     PseudoPot. # 2 for Ge read from file:
     /users/kfg/psuedo/gbrv_1.5/ge.pbesol.UPF
     MD5 check sum: 7bed0412183f5e553a4d27ec7023354d
     Pseudo is Ultrasoft + core correction, Zval = 14.0
     Generated by new atomic code, or converted to UPF format
     Using radial grid of  873 points,  6 beta functions with: 
                l(1) =   0
                l(2) =   0
                l(3) =   1
                l(4) =   1
                l(5) =   2
                l(6) =   2
     Q(r) pseudized with  8 coefficients,  rinner =    1.400   1.400   1.400
                                                       1.400   1.400

     atomic species   valence    mass     pseudopotential
        Si             4.00    28.08550     Si( 1.00)
        Ge            14.00    72.64000     Ge( 1.00)

     No symmetry found


                                    s                        frac. trans.

      isym =  1     identity                                     

 cryst.   s( 1) = (     1          0          0      )
                  (     0          1          0      )
                  (     0          0          1      )

 cart.    s( 1) = (  1.0000000  0.0000000  0.0000000 )
                  (  0.0000000  1.0000000  0.0000000 )
                  (  0.0000000  0.0000000  1.0000000 )


     point group C_1 (1)    
     there are  1 classes
     the character table:

       E    
A      1.00

     the symmetry operations in each class:
     E        1

   Cartesian axes

     site n.     atom                  positions (alat units)
         1           Si  tau(   1) = (    0.00039332277    0.00053270923    0.00123873354  )
         2           Si  tau(   2) = (    0.17809319110    0.17555956670    0.17665118394  )
         3           Ge  tau(   3) = (    0.35461705740    0.35369091801    0.00118243103  )
         4           Ge  tau(   4) = (    0.53091156606    0.53121149409    0.17661460409  )
         5           Si  tau(   5) = (    0.70710597154    0.70659583254    0.00097584770  )
         6           Si  tau(   6) = (    0.88314455835    0.88458476400    0.17606144327  )
         7           Si  tau(   7) = (    1.06072901619    1.06010842808    0.00010726928  )
         8           Ge  tau(   8) = (    1.23777976094    1.23678132278    0.17620221806  )
         9           Si  tau(   9) = (    1.41467044682    1.41462491987   -0.00043357972  )
        10           Ge  tau(  10) = (    1.59233453451    1.59216873637    0.17625766368  )
        11           Si  tau(  11) = (    1.76892162515    1.76786603784    0.00000398854  )
        12           Si  tau(  12) = (    1.94356199728    1.94376787044    0.17760669160  )
        13           Ge  tau(  13) = (    2.12171271824    2.12205371587    0.00010084271  )
        14           Si  tau(  14) = (    2.29895197232    2.29788484336    0.17557054587  )
        15           Ge  tau(  15) = (    2.47590713651    2.47446845574   -0.00107307524  )
        16           Si  tau(  16) = (    2.65110285741    2.65254497688    0.17645444572  )
        17           Si  tau(  17) = (    0.35382524946    0.00128876406    0.35241882811  )
        18           Si  tau(  18) = (    0.52999955446    0.17554315812    0.53128219896  )
        19           Si  tau(  19) = (    0.70675213744    0.35313979680    0.35332174558  )
        20           Ge  tau(  20) = (    0.88310083544    0.52964282444    0.53165307314  )
        21           Si  tau(  21) = (    1.06163484205    0.70661717529    0.35354040004  )
        22           Ge  tau(  22) = (    1.23670436141    0.88384184608    0.52904190035  )
        23           Si  tau(  23) = (    1.41306961418    1.06016429914    0.35437216127  )
        24           Ge  tau(  24) = (    1.59127679647    1.23873494211    0.52984932488  )
        25           Ge  tau(  25) = (    1.76722121970    1.41326115182    0.35438835556  )
        26           Si  tau(  26) = (    1.94395120939    1.58985009206    0.53128705908  )
        27           Si  tau(  27) = (    2.12081529664    1.76668333635    0.35433321090  )
        28           Si  tau(  28) = (    2.29813966482    1.94319744435    0.53101548188  )
        29           Ge  tau(  29) = (    2.47467129422    2.12266887473    0.35228974094  )
        30           Si  tau(  30) = (    2.65197981397    2.29853980420    0.53098085033  )
        31           Ge  tau(  31) = (    2.82741940016    2.47354356157    0.35285449542  )
        32           Ge  tau(  32) = (    3.00593012227    2.65257730320    0.52903423867  )
        33           Si  tau(  33) = (   -0.00002722595    0.35249016859    0.35361637797  )
        34           Ge  tau(  34) = (    0.17617578426    0.52966851245    0.52984450300  )
        35           Si  tau(  35) = (    0.35255645533    0.70584697867    0.35464025890  )
        36           Ge  tau(  36) = (    0.53164063780    0.88292402565    0.53135173581  )
        37           Si  tau(  37) = (    0.70756580140    1.05950894735    0.35229563579  )
        38           Si  tau(  38) = (    0.88352989834    1.23770400074    0.53032583388  )
        39           Ge  tau(  39) = (    1.05958555726    1.41553116405    0.35262386480  )
        40           Si  tau(  40) = (    1.23620481119    1.59076993448    0.53042913258  )
        41           Si  tau(  41) = (    1.41504814071    1.76862382670    0.35283206105  )
        42           Ge  tau(  42) = (    1.59081783846    1.94548408383    0.53102450840  )
        43           Si  tau(  43) = (    1.76686029727    2.12162075431    0.35375445610  )
        44           Si  tau(  44) = (    1.94481362671    2.29790496809    0.52924516550  )
        45           Si  tau(  45) = (    2.12150428870    2.47541646402    0.35272640911  )
        46           Ge  tau(  46) = (    2.29798146642    2.65271540225    0.53098626500  )
        47           Ge  tau(  47) = (    2.47496348324    2.82729594679    0.35277694468  )
        48           Si  tau(  48) = (    2.65283479848    3.00413911636    0.52900261071  )
        49           Si  tau(  49) = (    0.35401291054    0.35391359926    0.70765871576  )
        50           Si  tau(  50) = (    0.53057954073    0.53051484139    0.88458896670  )
        51           Ge  tau(  51) = (    0.70802912797    0.70838492031    0.70692572335  )
        52           Ge  tau(  52) = (    0.88290740714    0.88488444989    0.88300729455  )
        53           Ge  tau(  53) = (    1.05982709441    1.06187276314    0.70799663013  )
        54           Si  tau(  54) = (    1.23713249873    1.23698807164    0.88446914460  )
        55           Si  tau(  55) = (    1.41444803609    1.41452945494    0.70657869570  )
        56           Si  tau(  56) = (    1.58968753892    1.58994299573    0.88317324326  )
        57           Si  tau(  57) = (    1.76713437584    1.76815155857    0.70751009698  )
        58           Ge  tau(  58) = (    1.94339736896    1.94543495690    0.88438672573  )
        59           Ge  tau(  59) = (    2.12176530361    2.12216061428    0.70815689560  )
        60           Si  tau(  60) = (    2.29705586183    2.29880989505    0.88423991633  )
        61           Ge  tau(  61) = (    2.47585573673    2.47421947218    0.70639325969  )
        62           Si  tau(  62) = (    2.65079115480    2.65102394120    0.88493570407  )
        63           Ge  tau(  63) = (    2.82909305633    2.82907569382    0.70811888850  )
        64           Ge  tau(  64) = (    3.00420965046    3.00520253499    0.88365707571  )

   Crystallographic axes

     site n.     atom                  positions (cryst. coord.)
         1           Si  tau(   1) = (    0.00097447800    0.00077735578   -0.00005527835  )
         2           Si  tau(   2) = (    0.12311970708    0.12670279306    0.03128975329  )
         3           Ge  tau(   3) = (    0.00018122556    0.00149098444    0.12500331690  )
         4           Ge  tau(   4) = (    0.12509746534    0.12467330307    0.15653725852  )
         5           Si  tau(   5) = (    0.00032930578    0.00105075127    0.24973702593  )
         6           Si  tau(   6) = (    0.12551261962    0.12347586126    0.28136978767  )
         7           Si  tau(   7) = (   -0.00036297122    0.00051467289    0.37489567195  )
         8           Ge  tau(   8) = (    0.12388778086    0.12529978564    0.40629628488  )
         9           Si  tau(   9) = (   -0.00033877957   -0.00027439475    0.50023013173  )
        10           Ge  tau(  10) = (    0.12451575223    0.12475022621    0.53178771708  )
        11           Si  tau(  11) = (   -0.00074359262    0.00074923327    0.62522092995  )
        12           Si  tau(  12) = (    0.12573247032    0.12544132171    0.65579260354  )
        13           Ge  tau(  13) = (    0.00031242830   -0.00016981517    0.75018117919  )
        14           Si  tau(  14) = (    0.12339254944    0.12490169768    0.78157684020  )
        15           Ge  tau(  15) = (   -0.00177607970    0.00025852214    0.87530073237  )
        16           Si  tau(  16) = (    0.12579186760    0.12375240268    0.90636830338  )
        17           Si  tau(  17) = (   -0.00008319627    0.49847868261    0.00047644597  )
        18           Si  tau(  18) = (    0.12503472412    0.62631176709    0.03080519772  )
        19           Si  tau(  19) = (   -0.00020548174    0.49987788622    0.12490514295  )
        20           Ge  tau(  20) = (    0.12600293681    0.62586804970    0.15575628218  )
        21           Si  tau(  21) = (   -0.00104458531    0.50102621389    0.25008804451  )
        22           Ge  tau(  22) = (    0.12457763785    0.62360059268    0.28134087197  )
        23           Si  tau(  23) = (    0.00103721692    0.50012069967    0.37456537832  )
        24           Ge  tau(  24) = (    0.12537531476    0.62394478650    0.40661511014  )
        25           Ge  tau(  25) = (    0.00030284512    0.50087797365    0.49958756074  )
        26           Si  tau(  26) = (    0.12528938095    0.62606398352    0.53077454535  )
        27           Si  tau(  27) = (    0.00014230568    0.50096052678    0.62458130725  )
        28           Si  tau(  28) = (    0.12450259713    0.62646669918    0.65589839576  )
        29           Ge  tau(  29) = (    0.00020316694    0.49800976258    0.75042598603  )
        30           Si  tau(  30) = (    0.12554033230    0.62537998760    0.78127145811  )
        31           Ge  tau(  31) = (   -0.00072219868    0.49973381165    0.87471026264  )
        32           Ge  tau(  32) = (    0.12422552313    0.62394187216    0.90677131858  )
        33           Si  tau(  33) = (    0.49931197896    0.00077709864   -0.00020390049  )
        34           Ge  tau(  34) = (    0.62461374625    0.12469953585    0.03111266191  )
        35           Si  tau(  35) = (    0.50058265673    0.00095440717    0.12440892837  )
        36           Ge  tau(  36) = (    0.62411728125    0.12732754992    0.15613146259  )
        37           Si  tau(  37) = (    0.49797201815    0.00024924795    0.25009997616  )
        38           Si  tau(  38) = (    0.62543590290    0.12455808385    0.28123547029  )
        39           Ge  tau(  39) = (    0.50103427830   -0.00234882628    0.37520727297  )
        40           Si  tau(  40) = (    0.62578543964    0.12435463353    0.40597574408  )
        41           Si  tau(  41) = (    0.49950570822   -0.00052582223    0.50042652356  )
        42           Ge  tau(  42) = (    0.62627793802    0.12470412371    0.53126300968  )
        43           Si  tau(  43) = (    0.50099569966   -0.00071135009    0.62485728633  )
        44           Si  tau(  44) = (    0.62390612730    0.12455956357    0.65645556090  )
        45           Si  tau(  45) = (    0.49966893490   -0.00083846333    0.75027465026  )
        46           Ge  tau(  46) = (    0.62629876025    0.12462921716    0.78130183468  )
        47           Ge  tau(  47) = (    0.49858764404    0.00031429562    0.87495315719  )
        48           Si  tau(  48) = (    0.62247099873    0.12565166787    0.90650582072  )
        49           Si  tau(  49) = (    0.50032005301    0.50046050035    0.00004733975  )
        50           Si  tau(  50) = (    0.62545310758    0.62554460626    0.03120204404  )
        51           Ge  tau(  51) = (    0.50012355595    0.49962038960    0.12542100143  )
        52           Ge  tau(  52) = (    0.62577842615    0.62298246548    0.15640929101  )
        53           Ge  tau(  53) = (    0.50207572446    0.49918271199    0.24990978467  )
        54           Si  tau(  54) = (    0.62531200453    0.62551625527    0.28101332572  )
        55           Si  tau(  55) = (    0.49968415900    0.49956901535    0.37519064514  )
        56           Si  tau(  56) = (    0.62467842451    0.62431715403    0.40596013086  )
        57           Si  tau(  57) = (    0.50100444414    0.49956593053    0.49988486758  )
        58           Ge  tau(  58) = (    0.62679664321    0.62391505870    0.53111596439  )
        59           Ge  tau(  59) = (    0.50102206988    0.50046301617    0.62504156309  )
        60           Si  tau(  60) = (    0.62649232981    0.62401175225    0.65612895027  )
        61           Ge  tau(  61) = (    0.49833845035    0.50065247787    0.75018407087  )
        62           Si  tau(  62) = (    0.62590864210    0.62557943242    0.78080134243  )
        63           Ge  tau(  63) = (    0.50070339080    0.50072794510    0.87505345610  )
        64           Ge  tau(  64) = (    0.62554198586    0.62413783509    0.90611404920  )

     number of k points=    10  gaussian smearing, width (Ry)=  0.0150
                       cart. coord. in units 2pi/alat
        k(    1) = (   0.0000000   0.0000000   0.0000000), wk =   0.1250000
        k(    2) = (   0.1767767  -0.1767767   0.1767767), wk =   0.2500000
        k(    3) = (  -0.3535534   0.3535534  -0.3535534), wk =   0.1250000
        k(    4) = (  -0.5303301   0.5303301  -0.1767767), wk =   0.2500000
        k(    5) = (   0.1767767  -0.1767767  -0.1767767), wk =   0.2500000
        k(    6) = (   0.1767767   0.1767767   0.1767767), wk =   0.2500000
        k(    7) = (  -0.3535534   0.3535534   0.3535534), wk =   0.1250000
        k(    8) = (  -0.3535534  -0.3535534  -0.3535534), wk =   0.1250000
        k(    9) = (  -0.5303301   0.5303301   0.1767767), wk =   0.2500000
        k(   10) = (   0.5303301  -0.1767767   0.5303301), wk =   0.2500000

                       cryst. coord.
        k(    1) = (   0.0000000   0.0000000   0.0000000), wk =   0.1250000
        k(    2) = (   0.0000000   0.2500000   0.0000000), wk =   0.2500000
        k(    3) = (   0.0000000  -0.5000000   0.0000000), wk =   0.1250000
        k(    4) = (   0.2500000  -0.5000000   0.0000000), wk =   0.2500000
        k(    5) = (  -0.2500000   0.0000000   0.0000000), wk =   0.2500000
        k(    6) = (   0.2500000   0.2500000   1.0000000), wk =   0.2500000
        k(    7) = (   0.5000000   0.0000000   0.0000000), wk =   0.1250000
        k(    8) = (  -0.5000000  -0.5000000  -2.0000000), wk =   0.1250000
        k(    9) = (   0.5000000  -0.2500000   0.0000000), wk =   0.2500000
        k(   10) = (   0.2500000   0.7500000   1.0000000), wk =   0.2500000

     Dense  grid:   438235 G-vectors     FFT dimensions: (  72,  72, 270)

     Smooth grid:   256383 G-vectors     FFT dimensions: (  60,  60, 225)

     Largest allocated arrays     est. size (Mb)     dimensions
        Kohn-Sham Wavefunctions         9.72 Mb     (    2015,  316)
        NL pseudopotentials            35.42 Mb     (    2015, 1152)
        Each V/rho on FFT grid          1.34 Mb     (   88128)
        Each G-vector array             0.21 Mb     (   27391)
        G-vector shells                 0.04 Mb     (    5735)
     Largest temporary arrays     est. size (Mb)     dimensions
        Auxiliary wavefunctions        38.86 Mb     (    2015, 1264)
        Each subspace H/S matrix       24.38 Mb     (    1264, 1264)
        Each <psi_i|beta_j> matrix      5.55 Mb     (    1152,  316)
        Arrays for rho mixing          10.76 Mb     (   88128,    8)

     Initial potential from superposition of free atoms

     starting charge  525.95420, renormalised to  526.00000
     Starting wfc are  391 randomized atomic wfcs

     total cpu time spent up to now is      142.9 secs

     Self-consistent Calculation

     iteration #  1     ecut=    35.00 Ry     beta=0.30
     Davidson diagonalization with overlap
     ethr =  1.00E-02,  avg # of iterations =  3.1

     Threshold (ethr) on eigenvalues was too large:
     Diagonalizing with lowered threshold

     Davidson diagonalization with overlap
     ethr =  2.72E-04,  avg # of iterations =  7.4

     total cpu time spent up to now is     1065.2 secs

     total energy              =   -6109.89869213 Ry
     Harris-Foulkes estimate   =   -6110.04684911 Ry
     estimated scf accuracy    <       1.43297409 Ry

     iteration #  2     ecut=    35.00 Ry     beta=0.30
     Davidson diagonalization with overlap
     ethr =  2.72E-04,  avg # of iterations =  1.0

     total cpu time spent up to now is     1341.6 secs

     total energy              =   -6109.61633616 Ry
     Harris-Foulkes estimate   =   -6109.90631164 Ry
     estimated scf accuracy    <       0.88477464 Ry

     iteration #  3     ecut=    35.00 Ry     beta=0.30
     Davidson diagonalization with overlap
     ethr =  1.68E-04,  avg # of iterations =  2.5

     total cpu time spent up to now is     1685.4 secs

     total energy              =   -6109.67016197 Ry
     Harris-Foulkes estimate   =   -6109.66919661 Ry
     estimated scf accuracy    <       0.01192349 Ry

     iteration #  4     ecut=    35.00 Ry     beta=0.30
     Davidson diagonalization with overlap
     ethr =  2.27E-06,  avg # of iterations = 11.5

     total cpu time spent up to now is     3012.9 secs

     total energy              =   -6109.67309863 Ry
     Harris-Foulkes estimate   =   -6109.67346267 Ry
     estimated scf accuracy    <       0.00534504 Ry

     iteration #  5     ecut=    35.00 Ry     beta=0.30
     Davidson diagonalization with overlap
     ethr =  1.02E-06,  avg # of iterations =  2.0

     total cpu time spent up to now is     3468.1 secs

     total energy              =   -6109.67348096 Ry
     Harris-Foulkes estimate   =   -6109.67354376 Ry
     estimated scf accuracy    <       0.00042315 Ry

     iteration #  6     ecut=    35.00 Ry     beta=0.30
     Davidson diagonalization with overlap
     ethr =  8.04E-08,  avg # of iterations =  1.9

     total cpu time spent up to now is     3857.8 secs

     total energy              =   -6109.67345367 Ry
     Harris-Foulkes estimate   =   -6109.67349770 Ry
     estimated scf accuracy    <       0.00017852 Ry

     iteration #  7     ecut=    35.00 Ry     beta=0.30
     Davidson diagonalization with overlap
     ethr =  3.39E-08,  avg # of iterations =  2.0

     total cpu time spent up to now is     4286.2 secs

     total energy              =   -6109.67347194 Ry
     Harris-Foulkes estimate   =   -6109.67347100 Ry
     estimated scf accuracy    <       0.00005987 Ry

     iteration #  8     ecut=    35.00 Ry     beta=0.30
     Davidson diagonalization with overlap
     ethr =  1.14E-08,  avg # of iterations =  1.0

     total cpu time spent up to now is     4642.3 secs

     total energy              =   -6109.67346869 Ry
     Harris-Foulkes estimate   =   -6109.67347389 Ry
     estimated scf accuracy    <       0.00004436 Ry

     iteration #  9     ecut=    35.00 Ry     beta=0.30
     Davidson diagonalization with overlap
     ethr =  8.43E-09,  avg # of iterations =  2.1

     total cpu time spent up to now is     5058.8 secs

     total energy              =   -6109.67347068 Ry
     Harris-Foulkes estimate   =   -6109.67347418 Ry
     estimated scf accuracy    <       0.00002259 Ry

     iteration # 10     ecut=    35.00 Ry     beta=0.30
     Davidson diagonalization with overlap
     ethr =  4.29E-09,  avg # of iterations =  1.0

     total cpu time spent up to now is     5406.6 secs

     total energy              =   -6109.67346843 Ry
     Harris-Foulkes estimate   =   -6109.67347142 Ry
     estimated scf accuracy    <       0.00001041 Ry

     iteration # 11     ecut=    35.00 Ry     beta=0.30
     Davidson diagonalization with overlap
     ethr =  1.98E-09,  avg # of iterations =  2.4

     total cpu time spent up to now is     5867.2 secs

     total energy              =   -6109.67346977 Ry
     Harris-Foulkes estimate   =   -6109.67346991 Ry
     estimated scf accuracy    <       0.00000122 Ry

     iteration # 12     ecut=    35.00 Ry     beta=0.30
     Davidson diagonalization with overlap
     ethr =  2.32E-10,  avg # of iterations =  2.0

     total cpu time spent up to now is     6283.2 secs

     total energy              =   -6109.67346977 Ry
     Harris-Foulkes estimate   =   -6109.67346986 Ry
     estimated scf accuracy    <       0.00000044 Ry

     iteration # 13     ecut=    35.00 Ry     beta=0.30
     Davidson diagonalization with overlap
     ethr =  8.37E-11,  avg # of iterations =  2.0

     total cpu time spent up to now is     6708.8 secs

     total energy              =   -6109.67346984 Ry
     Harris-Foulkes estimate   =   -6109.67346982 Ry
     estimated scf accuracy    <       0.00000005 Ry

     iteration # 14     ecut=    35.00 Ry     beta=0.30
     Davidson diagonalization with overlap
     ethr =  9.33E-12,  avg # of iterations =  2.1

     total cpu time spent up to now is     7146.6 secs

     total energy              =   -6109.67346984 Ry
     Harris-Foulkes estimate   =   -6109.67346984 Ry
     estimated scf accuracy    <       0.00000003 Ry

     iteration # 15     ecut=    35.00 Ry     beta=0.30
     Davidson diagonalization with overlap
     ethr =  5.10E-12,  avg # of iterations =  2.4

     total cpu time spent up to now is     7627.3 secs

     total energy              =   -6109.67346985 Ry
     Harris-Foulkes estimate   =   -6109.67346985 Ry
     estimated scf accuracy    <          5.9E-09 Ry

     iteration # 16     ecut=    35.00 Ry     beta=0.30
     Davidson diagonalization with overlap
     ethr =  1.12E-12,  avg # of iterations =  2.0

     total cpu time spent up to now is     8012.0 secs

     total energy              =   -6109.67346985 Ry
     Harris-Foulkes estimate   =   -6109.67346985 Ry
     estimated scf accuracy    <          2.5E-09 Ry

     iteration # 17     ecut=    35.00 Ry     beta=0.30
     Davidson diagonalization with overlap
     ethr =  4.83E-13,  avg # of iterations =  2.4

     total cpu time spent up to now is     8411.6 secs

     total energy              =   -6109.67346985 Ry
     Harris-Foulkes estimate   =   -6109.67346985 Ry
     estimated scf accuracy    <          1.0E-09 Ry

     iteration # 18     ecut=    35.00 Ry     beta=0.30
     Davidson diagonalization with overlap
     ethr =  1.98E-13,  avg # of iterations =  2.0

     total cpu time spent up to now is     8791.3 secs

     End of self-consistent calculation

          k = 0.0000 0.0000 0.0000 ( 32017 PWs)   bands (ev):

   -17.5494 -17.5440 -17.5412 -17.5410 -17.5284 -17.5271 -17.5259 -17.5157
   -17.5136 -17.5119 -17.4915 -17.4848 -17.4817 -17.4719 -17.4699 -17.4581
   -17.4557 -17.4522 -17.4508 -17.4410 -17.4326 -17.4276 -17.4273 -17.4265
   -17.4247 -17.4240 -17.4140 -17.4137 -17.4134 -17.4125 -17.4019 -17.3912
   -17.3858 -17.3757 -17.3648 -17.3644 -17.3614 -17.3613 -17.3463 -17.3383
   -17.3373 -17.3276 -17.3229 -17.3204 -17.3197 -17.3167 -17.3154 -17.3152
   -17.3117 -17.3094 -17.3084 -17.3076 -17.3051 -17.3049 -17.3028 -17.3026
   -17.3014 -17.2997 -17.2989 -17.2979 -17.2966 -17.2953 -17.2948 -17.2939
   -17.2924 -17.2923 -17.2917 -17.2906 -17.2905 -17.2882 -17.2867 -17.2855
   -17.2840 -17.2830 -17.2809 -17.2802 -17.2759 -17.2747 -17.2742 -17.2739
   -17.2736 -17.2735 -17.2704 -17.2695 -17.2679 -17.2673 -17.2669 -17.2667
   -17.2663 -17.2650 -17.2640 -17.2637 -17.2631 -17.2624 -17.2599 -17.2589
   -17.2560 -17.2555 -17.2526 -17.2515 -17.2501 -17.2493 -17.2491 -17.2490
   -17.2485 -17.2475 -17.2442 -17.2426 -17.2421 -17.2417 -17.2413 -17.2381
   -17.2376 -17.2376 -17.2307 -17.2299 -17.2297 -17.2284 -17.2221 -17.2188
   -17.2092 -17.2091 -17.2071 -17.2034 -17.1944 -17.1914 -17.1850 -17.1841
   -17.1809 -17.1801 -17.1749 -17.1743 -17.1676 -17.1654 -17.1560  -5.3288
    -5.1741  -5.0836  -4.5450  -4.4408  -3.7359  -3.6095  -3.3511  -3.2888
    -3.2383  -3.1768  -3.0461  -3.0006  -2.9499  -2.8965  -2.8880  -2.7714
    -2.7196  -2.6511  -2.5563  -2.5283  -2.4506  -2.3271  -2.2343  -2.1731
    -2.0080  -1.9054  -1.8815  -1.7746  -1.3766  -1.2535  -1.2314  -1.1501
    -1.0463  -0.9826  -0.4825  -0.3673  -0.3359  -0.2813  -0.1807  -0.1690
    -0.0923  -0.0817  -0.0372  -0.0142   0.0208   0.0241   0.0839   0.0941
     0.1129   0.1908   0.2484   0.3037   0.3559   0.4062   0.4406   0.4933
     0.8403   0.9091   2.8133   2.8957   3.4104   3.4143   3.4267   3.4401
     3.4576   3.4740   3.5642   3.5684   3.5697   3.5794   3.5804   3.5869
     4.1102   4.1162   4.1192   4.1222   4.1258   4.1276   4.2792   4.2868
     4.2898   4.2934   4.2988   4.3060   4.5872   4.6146   4.6258   4.6417
     4.6465   4.6578   4.7568   4.7697   4.7722   4.7828   4.7929   4.7981
     5.2193   5.2540   5.3916   5.4124   5.4133   5.4335   5.4456   5.4475
     5.7482   5.7611   5.7705   5.7755   5.7920   5.7945   5.8135   5.8184
     5.8859   5.9016   5.9198   5.9302   6.2338   6.2389   6.2808   6.2965
     6.7603   6.7690   6.7814   6.7971   7.0800   7.0859   7.0949   7.6240
     7.6612   7.6796   7.6930   7.7201   7.7572   7.7608   7.8168   7.8335
     7.8639   7.8983   7.9231   7.9573   7.9930   8.0066   8.0520   8.1223
     8.1388   8.3819   8.4516   8.4718   8.4771   8.4965   8.5175   8.5277
     8.5939   8.7490   8.8381   8.8533   8.8800   8.9089   8.9335   8.9517
     8.9851   9.0053   9.0248   9.0463   9.0531   9.0737   9.1243   9.1543
     9.5791   9.5874   9.5965   9.9742   9.9881  10.0131  10.0306  10.3590
    10.4387  10.4441  10.4591  10.4612

     occupation numbers 
     1.0000   1.0000   1.0000   1.0000   1.0000   1.0000   1.0000   1.0000
     1.0000   1.0000   1.0000   1.0000   1.0000   1.0000   1.0000   1.0000
     1.0000   1.0000   1.0000   1.0000   1.0000   1.0000   1.0000   1.0000
     1.0000   1.0000   1.0000   1.0000   1.0000   1.0000   1.0000   1.0000
     1.0000   1.0000   1.0000   1.0000   1.0000   1.0000   1.0000   1.0000
     1.0000   1.0000   1.0000   1.0000   1.0000   1.0000   1.0000   1.0000
     1.0000   1.0000   1.0000   1.0000   1.0000   1.0000   1.0000   1.0000
     1.0000   1.0000   1.0000   1.0000   1.0000   1.0000   1.0000   1.0000
     1.0000   1.0000   1.0000   1.0000   1.0000   1.0000   1.0000   1.0000
     1.0000   1.0000   1.0000   1.0000   1.0000   1.0000   1.0000   1.0000
     1.0000   1.0000   1.0000   1.0000   1.0000   1.0000   1.0000   1.0000
     1.0000   1.0000   1.0000   1.0000   1.0000   1.0000   1.0000   1.0000
     1.0000   1.0000   1.0000   1.0000   1.0000   1.0000   1.0000   1.0000
     1.0000   1.0000   1.0000   1.0000   1.0000   1.0000   1.0000   1.0000
     1.0000   1.0000   1.0000   1.0000   1.0000   1.0000   1.0000   1.0000
     1.0000   1.0000   1.0000   1.0000   1.0000   1.0000   1.0000   1.0000
     1.0000   1.0000   1.0000   1.0000   1.0000   1.0000   1.0000   1.0000
     1.0000   1.0000   1.0000   1.0000   1.0000   1.0000   1.0000   1.0000
     1.0000   1.0000   1.0000   1.0000   1.0000   1.0000   1.0000   1.0000
     1.0000   1.0000   1.0000   1.0000   1.0000   1.0000   1.0000   1.0000
     1.0000   1.0000   1.0000   1.0000   1.0000   1.0000   1.0000   1.0000
     1.0000   1.0000   1.0000   1.0000   1.0000   1.0000   1.0000   1.0000
     1.0000   1.0000   1.0000   1.0000   1.0000   1.0000   1.0000   1.0000
     1.0000   1.0000   1.0000   1.0000   1.0000   1.0000   1.0000   1.0000
     1.0000   1.0000   1.0000   1.0000   1.0000   1.0000   1.0000   1.0000
     1.0000   1.0000   1.0000   1.0000   1.0000   1.0000   1.0000   1.0000
     1.0000   1.0000   1.0000   1.0000   1.0000   1.0000   1.0000   1.0000
     1.0000   1.0000   1.0000   1.0000   1.0000   1.0000   1.0000   1.0000
     1.0000   1.0000   1.0000   1.0000   1.0000   1.0000   1.0000   1.0000
     1.0000   1.0000   1.0000   1.0000   1.0000   1.0000   1.0000   1.0000
     1.0000   1.0000   1.0000   1.0000   1.0000   1.0000   1.0000   1.0000
     1.0000   1.0000   1.0000   1.0000   1.0000   1.0000   1.0000   1.0000
     0.9999   0.9999   0.9999   0.9998   0.9420   0.9371   0.9290   0.0140
     0.0070   0.0049   0.0037   0.0021   0.0009   0.0008   0.0002   0.0001
     0.0001   0.0000   0.0000   0.0000   0.0000   0.0000   0.0000   0.0000
     0.0000   0.0000   0.0000   0.0000   0.0000   0.0000   0.0000   0.0000
     0.0000   0.0000   0.0000   0.0000   0.0000   0.0000   0.0000   0.0000
     0.0000   0.0000   0.0000   0.0000   0.0000   0.0000   0.0000   0.0000
     0.0000   0.0000   0.0000   0.0000   0.0000   0.0000   0.0000   0.0000
     0.0000   0.0000   0.0000   0.0000

          k = 0.1768-0.1768 0.1768 ( 32087 PWs)   bands (ev):

   -17.5525 -17.5461 -17.5443 -17.5411 -17.5285 -17.5275 -17.5259 -17.5205
   -17.5138 -17.5073 -17.4890 -17.4846 -17.4817 -17.4697 -17.4673 -17.4578
   -17.4529 -17.4521 -17.4507 -17.4412 -17.4325 -17.4272 -17.4266 -17.4262
   -17.4237 -17.4167 -17.4137 -17.4136 -17.4129 -17.4121 -17.4018 -17.3914
   -17.3850 -17.3758 -17.3645 -17.3644 -17.3615 -17.3612 -17.3462 -17.3383
   -17.3373 -17.3277 -17.3231 -17.3207 -17.3199 -17.3175 -17.3170 -17.3145
   -17.3127 -17.3098 -17.3097 -17.3078 -17.3064 -17.3050 -17.3026 -17.3022
   -17.3015 -17.3014 -17.2982 -17.2976 -17.2961 -17.2951 -17.2947 -17.2939
   -17.2927 -17.2923 -17.2915 -17.2903 -17.2893 -17.2878 -17.2868 -17.2853
   -17.2852 -17.2835 -17.2810 -17.2805 -17.2761 -17.2747 -17.2742 -17.2739
   -17.2736 -17.2734 -17.2710 -17.2699 -17.2679 -17.2678 -17.2671 -17.2665
   -17.2654 -17.2649 -17.2635 -17.2632 -17.2630 -17.2621 -17.2596 -17.2588
   -17.2566 -17.2554 -17.2532 -17.2520 -17.2513 -17.2495 -17.2492 -17.2488
   -17.2485 -17.2482 -17.2442 -17.2433 -17.2426 -17.2422 -17.2415 -17.2409
   -17.2376 -17.2375 -17.2306 -17.2299 -17.2292 -17.2276 -17.2217 -17.2210
   -17.2088 -17.2073 -17.2071 -17.2016 -17.1940 -17.1917 -17.1848 -17.1820
   -17.1812 -17.1749 -17.1745 -17.1743 -17.1681 -17.1652 -17.1568  -5.1453
    -5.0490  -4.8544  -4.5040  -4.1378  -3.8894  -3.7952  -3.6789  -3.6056
    -3.4249  -3.3360  -3.2631  -3.1252  -3.0976  -3.0146  -2.9981  -2.9186
    -2.8534  -2.8316  -2.7453  -2.5784  -2.5414  -2.3750  -2.2692  -2.1979
    -2.0130  -1.9218  -1.8249  -1.7533  -1.5782  -1.2735  -1.1540  -1.0346
    -0.9905  -0.6291  -0.4759  -0.3148  -0.2472  -0.1636  -0.1211  -0.0847
    -0.0510   0.0127   0.0609   0.1217   0.1540   0.3495   0.4052   0.4395
     0.5121   0.6149   0.7559   0.7903   0.8536   0.9469   1.0109   1.4309
     1.5290   1.7234   2.1338   2.7402   2.9499   2.9713   2.9943   3.4546
     3.4854   3.5151   3.5646   3.5668   3.5757   3.5844   3.5897   3.5916
     3.5964   3.6269   3.6336   3.6491   3.6558   4.0436   4.0485   4.0668
     4.2499   4.2505   4.2863   4.2948   4.2983   4.3131   4.3719   4.3787
     4.4441   4.4518   4.4647   4.4835   4.5517   4.6122   4.6247   4.6458
     4.6536   4.7802   4.8361   4.8447   5.0544   5.0673   5.0824   5.0982
     5.0992   5.2349   5.3726   5.3864   5.3925   5.4058   5.4268   5.4331
     5.4458   5.6830   5.7051   5.7193   5.7264   5.7373   5.7535   5.9077
     5.9167   6.1929   6.2477   6.2805   6.7408   6.7737   6.7772   7.5863
     7.8387   7.9025   7.9288   8.0606   8.1664   8.3244   8.5414   8.7363
     8.7618   8.7982   8.8215   8.8645   8.8885   8.8995   8.9194   8.9293
     8.9426   8.9529   8.9704   8.9920   9.0115   9.0158   9.0433   9.0574
     9.0684   9.0914   9.1171   9.1383   9.1722   9.3328   9.3605   9.4044
     9.5529   9.6262   9.6733   9.7487   9.7799   9.8269   9.8738   9.9145
    10.0262  10.0368  10.1472  10.2082  10.2479  10.2715  10.3413  10.3873
    10.4201  10.4470  10.4922  10.5018

     occupation numbers 
     1.0000   1.0000   1.0000   1.0000   1.0000   1.0000   1.0000   1.0000
     1.0000   1.0000   1.0000   1.0000   1.0000   1.0000   1.0000   1.0000
     1.0000   1.0000   1.0000   1.0000   1.0000   1.0000   1.0000   1.0000
     1.0000   1.0000   1.0000   1.0000   1.0000   1.0000   1.0000   1.0000
     1.0000   1.0000   1.0000   1.0000   1.0000   1.0000   1.0000   1.0000
     1.0000   1.0000   1.0000   1.0000   1.0000   1.0000   1.0000   1.0000
     1.0000   1.0000   1.0000   1.0000   1.0000   1.0000   1.0000   1.0000
     1.0000   1.0000   1.0000   1.0000   1.0000   1.0000   1.0000   1.0000
     1.0000   1.0000   1.0000   1.0000   1.0000   1.0000   1.0000   1.0000
     1.0000   1.0000   1.0000   1.0000   1.0000   1.0000   1.0000   1.0000
     1.0000   1.0000   1.0000   1.0000   1.0000   1.0000   1.0000   1.0000
     1.0000   1.0000   1.0000   1.0000   1.0000   1.0000   1.0000   1.0000
     1.0000   1.0000   1.0000   1.0000   1.0000   1.0000   1.0000   1.0000
     1.0000   1.0000   1.0000   1.0000   1.0000   1.0000   1.0000   1.0000
     1.0000   1.0000   1.0000   1.0000   1.0000   1.0000   1.0000   1.0000
     1.0000   1.0000   1.0000   1.0000   1.0000   1.0000   1.0000   1.0000
     1.0000   1.0000   1.0000   1.0000   1.0000   1.0000   1.0000   1.0000
     1.0000   1.0000   1.0000   1.0000   1.0000   1.0000   1.0000   1.0000
     1.0000   1.0000   1.0000   1.0000   1.0000   1.0000   1.0000   1.0000
     1.0000   1.0000   1.0000   1.0000   1.0000   1.0000   1.0000   1.0000
     1.0000   1.0000   1.0000   1.0000   1.0000   1.0000   1.0000   1.0000
     1.0000   1.0000   1.0000   1.0000   1.0000   1.0000   1.0000   1.0000
     1.0000   1.0000   1.0000   1.0000   1.0000   1.0000   1.0000   1.0000
     1.0000   1.0000   1.0000   1.0000   1.0000   1.0000   1.0000   1.0000
     1.0000   1.0000   1.0000   1.0000   1.0000   1.0000   1.0000   1.0000
     1.0000   1.0000   1.0000   1.0000   1.0000   1.0000   1.0000   1.0000
     1.0000   1.0000   1.0000   1.0000   1.0000   1.0000   1.0000   1.0000
     1.0000   1.0000   1.0000   1.0000   1.0000   1.0000   1.0000   1.0000
     1.0000   1.0000   1.0000   1.0000   1.0000   1.0000   1.0000   1.0000
     1.0000   1.0000   1.0000   1.0000   1.0000   1.0000   1.0000   1.0000
     1.0000   1.0000   1.0000   1.0000   1.0000   1.0000   1.0000   1.0000
     1.0000   1.0000   1.0000   1.0000   1.0000   1.0000   1.0000   1.0000
     1.0000   1.0000   1.0000   1.0000   1.0000   0.9999   0.9999   0.0264
     0.0001   0.0000   0.0000   0.0000   0.0000   0.0000   0.0000   0.0000
     0.0000   0.0000   0.0000   0.0000   0.0000   0.0000   0.0000   0.0000
     0.0000   0.0000   0.0000   0.0000   0.0000   0.0000   0.0000   0.0000
     0.0000   0.0000   0.0000   0.0000   0.0000   0.0000   0.0000   0.0000
     0.0000   0.0000   0.0000   0.0000   0.0000   0.0000   0.0000   0.0000
     0.0000   0.0000   0.0000   0.0000   0.0000   0.0000   0.0000   0.0000
     0.0000   0.0000   0.0000   0.0000

          k =-0.3536 0.3536-0.3536 ( 32056 PWs)   bands (ev):

   -17.5555 -17.5500 -17.5445 -17.5411 -17.5286 -17.5278 -17.5260 -17.5228
   -17.5141 -17.5051 -17.4876 -17.4844 -17.4819 -17.4696 -17.4635 -17.4574
   -17.4519 -17.4505 -17.4474 -17.4446 -17.4324 -17.4269 -17.4260 -17.4258
   -17.4234 -17.4137 -17.4134 -17.4127 -17.4113 -17.4016 -17.4010 -17.3967
   -17.3841 -17.3764 -17.3646 -17.3640 -17.3620 -17.3611 -17.3462 -17.3382
   -17.3372 -17.3278 -17.3235 -17.3222 -17.3201 -17.3179 -17.3170 -17.3143
   -17.3134 -17.3108 -17.3101 -17.3087 -17.3078 -17.3052 -17.3027 -17.3025
   -17.3018 -17.3012 -17.2977 -17.2970 -17.2955 -17.2951 -17.2944 -17.2940
   -17.2929 -17.2923 -17.2913 -17.2899 -17.2874 -17.2871 -17.2871 -17.2867
   -17.2847 -17.2843 -17.2815 -17.2807 -17.2763 -17.2746 -17.2743 -17.2739
   -17.2736 -17.2734 -17.2720 -17.2706 -17.2696 -17.2676 -17.2670 -17.2664
   -17.2651 -17.2643 -17.2633 -17.2629 -17.2622 -17.2618 -17.2592 -17.2587
   -17.2585 -17.2559 -17.2553 -17.2515 -17.2512 -17.2498 -17.2492 -17.2490
   -17.2481 -17.2474 -17.2441 -17.2437 -17.2429 -17.2426 -17.2423 -17.2414
   -17.2376 -17.2375 -17.2305 -17.2298 -17.2290 -17.2266 -17.2218 -17.2214
   -17.2087 -17.2070 -17.2066 -17.1999 -17.1938 -17.1917 -17.1846 -17.1813
   -17.1799 -17.1748 -17.1745 -17.1689 -17.1683 -17.1655 -17.1575  -4.6832
    -4.6301  -4.5949  -4.5053  -4.3875  -4.2942  -4.0195  -3.9846  -3.6436
    -3.5836  -3.4613  -3.3423  -3.3396  -3.2030  -3.1608  -3.1106  -3.0475
    -2.9109  -2.7580  -2.6958  -2.6556  -2.5555  -2.4974  -2.4011  -2.3569
    -2.2570  -2.0801  -1.8083  -1.7666  -1.7132  -1.2036  -1.0940  -0.9612
    -0.9393  -0.5285  -0.3195  -0.2153  -0.1763  -0.0177   0.0633   0.1927
     0.2250   0.2936   0.3432   0.3573   0.4558   0.7577   0.8686   0.9082
     0.9726   1.1051   1.1759   1.2261   1.3118   1.6548   1.7675   2.0938
     2.1614   2.8261   2.8795   2.9429   2.9549   2.9635   2.9714   2.9759
     3.0021   3.0606   3.1556   3.1743   3.1836   3.1858   3.1907   3.2452
     3.2496   3.2527   3.2624   3.4151   3.4254   3.4355   3.4406   3.4511
     3.4631   3.5138   3.5389   3.6278   3.6398   3.6531   3.6678   4.0364
     4.0424   4.0563   4.0599   4.3109   4.3205   4.6427   4.6563   4.7568
     4.7666   4.7677   4.7786   4.7817   4.7891   4.7919   4.8030   5.0634
     5.0663   5.0743   5.0817   5.0907   5.0939   5.1028   5.1194   5.1331
     5.1408   5.6426   5.6495   5.6715   5.6875   5.7049   5.7060   5.7252
     5.7297   6.2183   6.2380   6.2480   6.2604   6.2741   6.2925   8.0232
     8.1019   8.2727   8.3322   8.4044   8.4260   8.4505   8.4720   8.5015
     8.5130   8.5177   8.5633   8.7460   8.8053   9.0595   9.0938   9.2015
     9.2411   9.2746   9.2906   9.3196   9.3380   9.3724   9.3912   9.4163
     9.4492   9.7152   9.7681   9.7787   9.8274   9.8844   9.9001  10.0355
    10.0527  10.2577  10.2666  10.4324  10.4725  10.5432  10.5468  10.5662
    10.5804  10.6127  10.6237  10.7382  10.7554  10.9021  10.9411  11.2437
    11.2485  11.2784  11.2909  11.3553

     occupation numbers 
     1.0000   1.0000   1.0000   1.0000   1.0000   1.0000   1.0000   1.0000
     1.0000   1.0000   1.0000   1.0000   1.0000   1.0000   1.0000   1.0000
     1.0000   1.0000   1.0000   1.0000   1.0000   1.0000   1.0000   1.0000
     1.0000   1.0000   1.0000   1.0000   1.0000   1.0000   1.0000   1.0000
     1.0000   1.0000   1.0000   1.0000   1.0000   1.0000   1.0000   1.0000
     1.0000   1.0000   1.0000   1.0000   1.0000   1.0000   1.0000   1.0000
     1.0000   1.0000   1.0000   1.0000   1.0000   1.0000   1.0000   1.0000
     1.0000   1.0000   1.0000   1.0000   1.0000   1.0000   1.0000   1.0000
     1.0000   1.0000   1.0000   1.0000   1.0000   1.0000   1.0000   1.0000
     1.0000   1.0000   1.0000   1.0000   1.0000   1.0000   1.0000   1.0000
     1.0000   1.0000   1.0000   1.0000   1.0000   1.0000   1.0000   1.0000
     1.0000   1.0000   1.0000   1.0000   1.0000   1.0000   1.0000   1.0000
     1.0000   1.0000   1.0000   1.0000   1.0000   1.0000   1.0000   1.0000
     1.0000   1.0000   1.0000   1.0000   1.0000   1.0000   1.0000   1.0000
     1.0000   1.0000   1.0000   1.0000   1.0000   1.0000   1.0000   1.0000
     1.0000   1.0000   1.0000   1.0000   1.0000   1.0000   1.0000   1.0000
     1.0000   1.0000   1.0000   1.0000   1.0000   1.0000   1.0000   1.0000
     1.0000   1.0000   1.0000   1.0000   1.0000   1.0000   1.0000   1.0000
     1.0000   1.0000   1.0000   1.0000   1.0000   1.0000   1.0000   1.0000
     1.0000   1.0000   1.0000   1.0000   1.0000   1.0000   1.0000   1.0000
     1.0000   1.0000   1.0000   1.0000   1.0000   1.0000   1.0000   1.0000
     1.0000   1.0000   1.0000   1.0000   1.0000   1.0000   1.0000   1.0000
     1.0000   1.0000   1.0000   1.0000   1.0000   1.0000   1.0000   1.0000
     1.0000   1.0000   1.0000   1.0000   1.0000   1.0000   1.0000   1.0000
     1.0000   1.0000   1.0000   1.0000   1.0000   1.0000   1.0000   1.0000
     1.0000   1.0000   1.0000   1.0000   1.0000   1.0000   1.0000   1.0000
     1.0000   1.0000   1.0000   1.0000   1.0000   1.0000   1.0000   1.0000
     1.0000   1.0000   1.0000   1.0000   1.0000   1.0000   1.0000   1.0000
     1.0000   1.0000   1.0000   1.0000   1.0000   1.0000   1.0000   1.0000
     1.0000   1.0000   1.0000   1.0000   1.0000   1.0000   1.0000   1.0000
     1.0000   1.0000   1.0000   1.0000   1.0000   1.0000   1.0000   1.0000
     1.0000   1.0000   1.0000   1.0000   1.0000   1.0000   1.0000   1.0000
     1.0000   1.0000   1.0000   1.0000   1.0000   1.0000   1.0000   0.0000
     0.0000   0.0000   0.0000   0.0000   0.0000   0.0000   0.0000   0.0000
     0.0000   0.0000   0.0000   0.0000   0.0000   0.0000   0.0000   0.0000
     0.0000   0.0000   0.0000   0.0000   0.0000   0.0000   0.0000   0.0000
     0.0000   0.0000   0.0000   0.0000   0.0000   0.0000   0.0000   0.0000
     0.0000   0.0000   0.0000   0.0000   0.0000   0.0000   0.0000   0.0000
     0.0000   0.0000   0.0000   0.0000   0.0000   0.0000   0.0000   0.0000
     0.0000   0.0000   0.0000   0.0000

          k =-0.5303 0.5303-0.1768 ( 32066 PWs)   bands (ev):

   -17.5531 -17.5463 -17.5447 -17.5410 -17.5311 -17.5284 -17.5266 -17.5205
   -17.5180 -17.5074 -17.4889 -17.4869 -17.4772 -17.4698 -17.4671 -17.4563
   -17.4528 -17.4506 -17.4496 -17.4411 -17.4325 -17.4262 -17.4258 -17.4250
   -17.4205 -17.4167 -17.4136 -17.4128 -17.4125 -17.4100 -17.3972 -17.3914
   -17.3844 -17.3758 -17.3646 -17.3644 -17.3615 -17.3612 -17.3462 -17.3382
   -17.3373 -17.3271 -17.3234 -17.3229 -17.3198 -17.3170 -17.3163 -17.3141
   -17.3127 -17.3107 -17.3103 -17.3077 -17.3066 -17.3058 -17.3036 -17.3030
   -17.3025 -17.3014 -17.2979 -17.2976 -17.2956 -17.2951 -17.2945 -17.2940
   -17.2927 -17.2923 -17.2920 -17.2902 -17.2894 -17.2875 -17.2874 -17.2858
   -17.2846 -17.2830 -17.2806 -17.2802 -17.2754 -17.2744 -17.2742 -17.2739
   -17.2736 -17.2733 -17.2713 -17.2694 -17.2677 -17.2671 -17.2671 -17.2665
   -17.2652 -17.2647 -17.2635 -17.2630 -17.2623 -17.2620 -17.2606 -17.2589
   -17.2563 -17.2560 -17.2529 -17.2524 -17.2514 -17.2502 -17.2491 -17.2489
   -17.2478 -17.2474 -17.2442 -17.2430 -17.2426 -17.2424 -17.2414 -17.2409
   -17.2378 -17.2376 -17.2375 -17.2305 -17.2299 -17.2294 -17.2226 -17.2208
   -17.2126 -17.2071 -17.2070 -17.2014 -17.1926 -17.1871 -17.1847 -17.1825
   -17.1822 -17.1748 -17.1745 -17.1743 -17.1659 -17.1622 -17.1546  -4.8264
    -4.6867  -4.6057  -4.2286  -4.1912  -4.0691  -4.0506  -3.9583  -3.9046
    -3.8446  -3.7186  -3.5119  -3.4107  -3.2167  -3.1430  -3.0622  -2.9552
    -2.7782  -2.6472  -2.5850  -2.5696  -2.4516  -2.4028  -2.2803  -2.2188
    -2.1252  -2.0642  -1.9567  -1.8585  -1.7783  -1.6869  -1.5654  -0.6217
    -0.4511  -0.3542  -0.3171  -0.2339  -0.1025  -0.0637  -0.0071   0.0298
     0.1146   0.1358   0.1861   0.2325   0.6099   0.6461   0.8003   0.8421
     0.9130   0.9925   1.4054   1.4852   1.7116   1.7597   2.0912   2.1376
     2.3090   2.3555   2.4114   2.4712   2.7355   2.7916   2.7956   2.8013
     2.8059   2.9511   2.9562   2.9615   2.9684   2.9902   3.0005   3.4534
     3.4847   3.4935   3.5535   3.6156   3.6316   3.6373   3.6449   3.6505
     3.6583   4.0373   4.0465   4.0519   4.0555   4.0575   4.2356   4.2547
     4.2702   4.2762   4.2863   4.2975   4.3146   4.3265   4.4131   4.4199
     4.4255   4.4295   4.5560   4.6458   4.6503   4.7800   4.7923   4.8402
     4.8480   5.0419   5.0596   5.0636   5.0706   5.0810   5.0963   5.1060
     5.1139   5.3906   5.4016   5.4325   5.5350   5.5600   5.5734   5.5829
     5.7019   5.7091   5.7148   5.7224   6.2388   6.2476   6.7534   8.1829
     8.3066   8.3229   8.7540   8.7838   8.8980   8.9032   9.0140   9.0183
     9.0479   9.0965   9.2290   9.2686   9.3193   9.3298   9.3457   9.3637
     9.3858   9.4141   9.4554   9.4830   9.5298   9.6317   9.6552   9.7116
     9.7284   9.7691   9.7747   9.7942   9.8241   9.8293   9.8522   9.8632
     9.8894   9.9235   9.9560  10.1800  10.2181  10.2290  10.2639  10.2814
    10.3090  10.4061  10.4335  10.4475  10.4698  10.4835  10.5466  10.5570
    10.5750  10.6112  10.6266  10.7358

     occupation numbers 
     1.0000   1.0000   1.0000   1.0000   1.0000   1.0000   1.0000   1.0000
     1.0000   1.0000   1.0000   1.0000   1.0000   1.0000   1.0000   1.0000
     1.0000   1.0000   1.0000   1.0000   1.0000   1.0000   1.0000   1.0000
     1.0000   1.0000   1.0000   1.0000   1.0000   1.0000   1.0000   1.0000
     1.0000   1.0000   1.0000   1.0000   1.0000   1.0000   1.0000   1.0000
     1.0000   1.0000   1.0000   1.0000   1.0000   1.0000   1.0000   1.0000
     1.0000   1.0000   1.0000   1.0000   1.0000   1.0000   1.0000   1.0000
     1.0000   1.0000   1.0000   1.0000   1.0000   1.0000   1.0000   1.0000
     1.0000   1.0000   1.0000   1.0000   1.0000   1.0000   1.0000   1.0000
     1.0000   1.0000   1.0000   1.0000   1.0000   1.0000   1.0000   1.0000
     1.0000   1.0000   1.0000   1.0000   1.0000   1.0000   1.0000   1.0000
     1.0000   1.0000   1.0000   1.0000   1.0000   1.0000   1.0000   1.0000
     1.0000   1.0000   1.0000   1.0000   1.0000   1.0000   1.0000   1.0000
     1.0000   1.0000   1.0000   1.0000   1.0000   1.0000   1.0000   1.0000
     1.0000   1.0000   1.0000   1.0000   1.0000   1.0000   1.0000   1.0000
     1.0000   1.0000   1.0000   1.0000   1.0000   1.0000   1.0000   1.0000
     1.0000   1.0000   1.0000   1.0000   1.0000   1.0000   1.0000   1.0000
     1.0000   1.0000   1.0000   1.0000   1.0000   1.0000   1.0000   1.0000
     1.0000   1.0000   1.0000   1.0000   1.0000   1.0000   1.0000   1.0000
     1.0000   1.0000   1.0000   1.0000   1.0000   1.0000   1.0000   1.0000
     1.0000   1.0000   1.0000   1.0000   1.0000   1.0000   1.0000   1.0000
     1.0000   1.0000   1.0000   1.0000   1.0000   1.0000   1.0000   1.0000
     1.0000   1.0000   1.0000   1.0000   1.0000   1.0000   1.0000   1.0000
     1.0000   1.0000   1.0000   1.0000   1.0000   1.0000   1.0000   1.0000
     1.0000   1.0000   1.0000   1.0000   1.0000   1.0000   1.0000   1.0000
     1.0000   1.0000   1.0000   1.0000   1.0000   1.0000   1.0000   1.0000
     1.0000   1.0000   1.0000   1.0000   1.0000   1.0000   1.0000   1.0000
     1.0000   1.0000   1.0000   1.0000   1.0000   1.0000   1.0000   1.0000
     1.0000   1.0000   1.0000   1.0000   1.0000   1.0000   1.0000   1.0000
     1.0000   1.0000   1.0000   1.0000   1.0000   1.0000   1.0000   1.0000
     1.0000   1.0000   1.0000   1.0000   1.0000   1.0000   1.0000   1.0000
     1.0000   1.0000   1.0000   1.0000   1.0000   1.0000   1.0000   1.0000
     1.0000   1.0000   1.0000   1.0000   1.0000   1.0000   0.9999   0.0000
     0.0000   0.0000   0.0000   0.0000   0.0000   0.0000   0.0000   0.0000
     0.0000   0.0000   0.0000   0.0000   0.0000   0.0000   0.0000   0.0000
     0.0000   0.0000   0.0000   0.0000   0.0000   0.0000   0.0000   0.0000
     0.0000   0.0000   0.0000   0.0000   0.0000   0.0000   0.0000   0.0000
     0.0000   0.0000   0.0000   0.0000   0.0000   0.0000   0.0000   0.0000
     0.0000   0.0000   0.0000   0.0000   0.0000   0.0000   0.0000   0.0000
     0.0000   0.0000   0.0000   0.0000

          k = 0.1768-0.1768-0.1768 ( 32087 PWs)   bands (ev):

   -17.5523 -17.5463 -17.5444 -17.5410 -17.5310 -17.5285 -17.5266 -17.5205
   -17.5177 -17.5073 -17.4890 -17.4870 -17.4770 -17.4698 -17.4673 -17.4565
   -17.4529 -17.4507 -17.4497 -17.4413 -17.4325 -17.4266 -17.4262 -17.4250
   -17.4208 -17.4168 -17.4137 -17.4136 -17.4131 -17.4103 -17.3973 -17.3914
   -17.3854 -17.3758 -17.3647 -17.3645 -17.3615 -17.3612 -17.3462 -17.3383
   -17.3373 -17.3272 -17.3230 -17.3213 -17.3198 -17.3177 -17.3173 -17.3148
   -17.3126 -17.3100 -17.3089 -17.3079 -17.3060 -17.3054 -17.3046 -17.3025
   -17.3013 -17.3009 -17.2985 -17.2977 -17.2965 -17.2951 -17.2946 -17.2939
   -17.2932 -17.2922 -17.2915 -17.2903 -17.2893 -17.2878 -17.2866 -17.2852
   -17.2846 -17.2835 -17.2808 -17.2803 -17.2751 -17.2745 -17.2741 -17.2739
   -17.2735 -17.2733 -17.2710 -17.2697 -17.2681 -17.2680 -17.2671 -17.2667
   -17.2655 -17.2651 -17.2636 -17.2632 -17.2631 -17.2622 -17.2607 -17.2587
   -17.2564 -17.2561 -17.2532 -17.2525 -17.2513 -17.2508 -17.2493 -17.2490
   -17.2485 -17.2483 -17.2441 -17.2432 -17.2426 -17.2422 -17.2416 -17.2409
   -17.2378 -17.2376 -17.2376 -17.2304 -17.2301 -17.2298 -17.2230 -17.2210
   -17.2128 -17.2073 -17.2070 -17.2016 -17.1927 -17.1876 -17.1848 -17.1822
   -17.1819 -17.1749 -17.1745 -17.1742 -17.1653 -17.1618 -17.1541  -5.1439
    -5.0496  -4.8546  -4.5018  -4.1254  -3.8634  -3.7992  -3.7204  -3.5714
    -3.3874  -3.3394  -3.2880  -3.1928  -3.1407  -3.0918  -3.0184  -2.9228
    -2.8306  -2.7597  -2.7159  -2.5639  -2.4959  -2.3753  -2.2955  -2.1747
    -2.0120  -1.9093  -1.8475  -1.7231  -1.5871  -1.2348  -1.1805  -1.0508
    -0.9755  -0.6109  -0.4531  -0.3305  -0.2709  -0.1747  -0.1700  -0.1227
    -0.0371   0.0227   0.0857   0.1198   0.1516   0.3458   0.4241   0.4388
     0.5138   0.6104   0.7336   0.8034   0.8412   0.9848   1.0149   1.4323
     1.5290   1.7204   2.1301   2.7385   2.9504   2.9698   2.9944   3.4445
     3.4830   3.5155   3.5637   3.5707   3.5727   3.5839   3.5875   3.5923
     3.5974   3.6283   3.6303   3.6522   3.6577   4.0421   4.0461   4.0669
     4.2463   4.2510   4.2886   4.2929   4.3001   4.3150   4.3733   4.3766
     4.4428   4.4534   4.4626   4.4846   4.5533   4.6051   4.6263   4.6384
     4.6529   4.7826   4.8378   4.8471   5.0550   5.0638   5.0801   5.0903
     5.0998   5.2304   5.3716   5.3883   5.3951   5.4136   5.4210   5.4387
     5.4511   5.6744   5.7008   5.7137   5.7283   5.7470   5.7538   5.9074
     5.9179   6.1929   6.2433   6.2917   6.7486   6.7741   6.7835   7.5848
     7.8434   7.8972   7.9417   8.0715   8.1744   8.3334   8.5417   8.7339
     8.7724   8.7976   8.8162   8.8539   8.8687   8.8909   8.9055   8.9228
     8.9337   8.9547   8.9723   8.9906   9.0068   9.0206   9.0443   9.0576
     9.0735   9.1165   9.1347   9.1471   9.1755   9.3336   9.3539   9.4116
     9.5513   9.6058   9.6867   9.7450   9.8014   9.8087   9.8808   9.9223
    10.0265  10.0325  10.1471  10.2141  10.2507  10.2690  10.3465  10.3833
    10.4246  10.4485  10.4829  10.5056

     occupation numbers 
     1.0000   1.0000   1.0000   1.0000   1.0000   1.0000   1.0000   1.0000
     1.0000   1.0000   1.0000   1.0000   1.0000   1.0000   1.0000   1.0000
     1.0000   1.0000   1.0000   1.0000   1.0000   1.0000   1.0000   1.0000
     1.0000   1.0000   1.0000   1.0000   1.0000   1.0000   1.0000   1.0000
     1.0000   1.0000   1.0000   1.0000   1.0000   1.0000   1.0000   1.0000
     1.0000   1.0000   1.0000   1.0000   1.0000   1.0000   1.0000   1.0000
     1.0000   1.0000   1.0000   1.0000   1.0000   1.0000   1.0000   1.0000
     1.0000   1.0000   1.0000   1.0000   1.0000   1.0000   1.0000   1.0000
     1.0000   1.0000   1.0000   1.0000   1.0000   1.0000   1.0000   1.0000
     1.0000   1.0000   1.0000   1.0000   1.0000   1.0000   1.0000   1.0000
     1.0000   1.0000   1.0000   1.0000   1.0000   1.0000   1.0000   1.0000
     1.0000   1.0000   1.0000   1.0000   1.0000   1.0000   1.0000   1.0000
     1.0000   1.0000   1.0000   1.0000   1.0000   1.0000   1.0000   1.0000
     1.0000   1.0000   1.0000   1.0000   1.0000   1.0000   1.0000   1.0000
     1.0000   1.0000   1.0000   1.0000   1.0000   1.0000   1.0000   1.0000
     1.0000   1.0000   1.0000   1.0000   1.0000   1.0000   1.0000   1.0000
     1.0000   1.0000   1.0000   1.0000   1.0000   1.0000   1.0000   1.0000
     1.0000   1.0000   1.0000   1.0000   1.0000   1.0000   1.0000   1.0000
     1.0000   1.0000   1.0000   1.0000   1.0000   1.0000   1.0000   1.0000
     1.0000   1.0000   1.0000   1.0000   1.0000   1.0000   1.0000   1.0000
     1.0000   1.0000   1.0000   1.0000   1.0000   1.0000   1.0000   1.0000
     1.0000   1.0000   1.0000   1.0000   1.0000   1.0000   1.0000   1.0000
     1.0000   1.0000   1.0000   1.0000   1.0000   1.0000   1.0000   1.0000
     1.0000   1.0000   1.0000   1.0000   1.0000   1.0000   1.0000   1.0000
     1.0000   1.0000   1.0000   1.0000   1.0000   1.0000   1.0000   1.0000
     1.0000   1.0000   1.0000   1.0000   1.0000   1.0000   1.0000   1.0000
     1.0000   1.0000   1.0000   1.0000   1.0000   1.0000   1.0000   1.0000
     1.0000   1.0000   1.0000   1.0000   1.0000   1.0000   1.0000   1.0000
     1.0000   1.0000   1.0000   1.0000   1.0000   1.0000   1.0000   1.0000
     1.0000   1.0000   1.0000   1.0000   1.0000   1.0000   1.0000   1.0000
     1.0000   1.0000   1.0000   1.0000   1.0000   1.0000   1.0000   1.0000
     1.0000   1.0000   1.0000   1.0000   1.0000   1.0000   1.0000   1.0000
     1.0000   1.0000   1.0000   1.0000   0.9999   0.9999   0.9999   0.0271
     0.0001   0.0000   0.0000   0.0000   0.0000   0.0000   0.0000   0.0000
     0.0000   0.0000   0.0000   0.0000   0.0000   0.0000   0.0000   0.0000
     0.0000   0.0000   0.0000   0.0000   0.0000   0.0000   0.0000   0.0000
     0.0000   0.0000   0.0000   0.0000   0.0000   0.0000   0.0000   0.0000
     0.0000   0.0000   0.0000   0.0000   0.0000   0.0000   0.0000   0.0000
     0.0000   0.0000   0.0000   0.0000   0.0000   0.0000   0.0000   0.0000
     0.0000   0.0000   0.0000   0.0000

          k = 0.1768 0.1768 0.1768 ( 32087 PWs)   bands (ev):

   -17.5500 -17.5444 -17.5414 -17.5409 -17.5309 -17.5283 -17.5263 -17.5177
   -17.5158 -17.5117 -17.4913 -17.4870 -17.4771 -17.4715 -17.4699 -17.4566
   -17.4555 -17.4508 -17.4497 -17.4409 -17.4325 -17.4266 -17.4265 -17.4254
   -17.4246 -17.4207 -17.4136 -17.4132 -17.4131 -17.4104 -17.3973 -17.3911
   -17.3853 -17.3756 -17.3648 -17.3644 -17.3613 -17.3612 -17.3463 -17.3383
   -17.3373 -17.3271 -17.3231 -17.3225 -17.3195 -17.3170 -17.3149 -17.3146
   -17.3117 -17.3096 -17.3090 -17.3075 -17.3055 -17.3051 -17.3047 -17.3024
   -17.3017 -17.3015 -17.2984 -17.2980 -17.2962 -17.2952 -17.2947 -17.2939
   -17.2929 -17.2922 -17.2914 -17.2906 -17.2905 -17.2879 -17.2871 -17.2846
   -17.2843 -17.2836 -17.2805 -17.2799 -17.2751 -17.2743 -17.2741 -17.2739
   -17.2736 -17.2733 -17.2698 -17.2696 -17.2679 -17.2673 -17.2667 -17.2661
   -17.2658 -17.2650 -17.2636 -17.2631 -17.2630 -17.2623 -17.2608 -17.2590
   -17.2561 -17.2558 -17.2529 -17.2516 -17.2510 -17.2492 -17.2491 -17.2485
   -17.2481 -17.2465 -17.2443 -17.2426 -17.2423 -17.2415 -17.2410 -17.2379
   -17.2378 -17.2377 -17.2376 -17.2305 -17.2302 -17.2299 -17.2230 -17.2185
   -17.2129 -17.2087 -17.2071 -17.2034 -17.1922 -17.1876 -17.1849 -17.1846
   -17.1822 -17.1803 -17.1748 -17.1742 -17.1660 -17.1619 -17.1540  -5.1462
    -5.0529  -4.8583  -4.5045  -4.1495  -3.8714  -3.7383  -3.6979  -3.5982
    -3.3947  -3.3211  -3.2425  -3.1872  -3.1272  -3.0799  -2.9778  -2.9160
    -2.8816  -2.8351  -2.6711  -2.5946  -2.4682  -2.4418  -2.3329  -2.1164
    -2.0221  -1.9983  -1.8188  -1.7699  -1.5409  -1.1819  -1.1625  -1.0850
    -1.0152  -0.6526  -0.3655  -0.3438  -0.2574  -0.1811  -0.1369  -0.1027
    -0.0236   0.0198   0.0582   0.1075   0.1474   0.3536   0.4152   0.4547
     0.5074   0.6883   0.7187   0.7994   0.8906   0.9061   0.9885   1.4487
     1.5062   1.7144   2.1333   2.7373   2.9570   2.9632   2.9942   3.4498
     3.4859   3.5099   3.5588   3.5675   3.5713   3.5821   3.5872   3.5937
     3.5975   3.6270   3.6354   3.6512   3.6559   4.0446   4.0463   4.0629
     4.2395   4.2528   4.2925   4.2933   4.2991   4.3122   4.3753   4.3760
     4.4423   4.4541   4.4636   4.4864   4.5554   4.6070   4.6195   4.6303
     4.6554   4.7835   4.8412   4.8466   5.0519   5.0629   5.0770   5.0896
     5.1018   5.2242   5.3750   5.3929   5.3971   5.4114   5.4284   5.4361
     5.4513   5.6835   5.7027   5.7175   5.7256   5.7371   5.7500   5.9116
     5.9194   6.2046   6.2415   6.2859   6.7498   6.7771   6.7846   7.5858
     7.8758   7.8893   7.9076   8.0542   8.1759   8.3198   8.5446   8.7335
     8.7961   8.8115   8.8376   8.8572   8.8677   8.8823   8.8993   8.9293
     8.9405   8.9544   8.9729   8.9827   9.0049   9.0235   9.0459   9.0610
     9.0853   9.0917   9.1069   9.1497   9.1655   9.3351   9.3750   9.3894
     9.5395   9.6501   9.6615   9.7798   9.7990   9.8162   9.8574   9.8973
    10.0219  10.0377  10.1415  10.2214  10.2441  10.2786  10.3507  10.3766
    10.4498  10.4698  10.4927  10.5138

     occupation numbers 
     1.0000   1.0000   1.0000   1.0000   1.0000   1.0000   1.0000   1.0000
     1.0000   1.0000   1.0000   1.0000   1.0000   1.0000   1.0000   1.0000
     1.0000   1.0000   1.0000   1.0000   1.0000   1.0000   1.0000   1.0000
     1.0000   1.0000   1.0000   1.0000   1.0000   1.0000   1.0000   1.0000
     1.0000   1.0000   1.0000   1.0000   1.0000   1.0000   1.0000   1.0000
     1.0000   1.0000   1.0000   1.0000   1.0000   1.0000   1.0000   1.0000
     1.0000   1.0000   1.0000   1.0000   1.0000   1.0000   1.0000   1.0000
     1.0000   1.0000   1.0000   1.0000   1.0000   1.0000   1.0000   1.0000
     1.0000   1.0000   1.0000   1.0000   1.0000   1.0000   1.0000   1.0000
     1.0000   1.0000   1.0000   1.0000   1.0000   1.0000   1.0000   1.0000
     1.0000   1.0000   1.0000   1.0000   1.0000   1.0000   1.0000   1.0000
     1.0000   1.0000   1.0000   1.0000   1.0000   1.0000   1.0000   1.0000
     1.0000   1.0000   1.0000   1.0000   1.0000   1.0000   1.0000   1.0000
     1.0000   1.0000   1.0000   1.0000   1.0000   1.0000   1.0000   1.0000
     1.0000   1.0000   1.0000   1.0000   1.0000   1.0000   1.0000   1.0000
     1.0000   1.0000   1.0000   1.0000   1.0000   1.0000   1.0000   1.0000
     1.0000   1.0000   1.0000   1.0000   1.0000   1.0000   1.0000   1.0000
     1.0000   1.0000   1.0000   1.0000   1.0000   1.0000   1.0000   1.0000
     1.0000   1.0000   1.0000   1.0000   1.0000   1.0000   1.0000   1.0000
     1.0000   1.0000   1.0000   1.0000   1.0000   1.0000   1.0000   1.0000
     1.0000   1.0000   1.0000   1.0000   1.0000   1.0000   1.0000   1.0000
     1.0000   1.0000   1.0000   1.0000   1.0000   1.0000   1.0000   1.0000
     1.0000   1.0000   1.0000   1.0000   1.0000   1.0000   1.0000   1.0000
     1.0000   1.0000   1.0000   1.0000   1.0000   1.0000   1.0000   1.0000
     1.0000   1.0000   1.0000   1.0000   1.0000   1.0000   1.0000   1.0000
     1.0000   1.0000   1.0000   1.0000   1.0000   1.0000   1.0000   1.0000
     1.0000   1.0000   1.0000   1.0000   1.0000   1.0000   1.0000   1.0000
     1.0000   1.0000   1.0000   1.0000   1.0000   1.0000   1.0000   1.0000
     1.0000   1.0000   1.0000   1.0000   1.0000   1.0000   1.0000   1.0000
     1.0000   1.0000   1.0000   1.0000   1.0000   1.0000   1.0000   1.0000
     1.0000   1.0000   1.0000   1.0000   1.0000   1.0000   1.0000   1.0000
     1.0000   1.0000   1.0000   1.0000   1.0000   1.0000   1.0000   1.0000
     1.0000   1.0000   1.0000   1.0000   0.9999   0.9999   0.9999   0.0266
     0.0000   0.0000   0.0000   0.0000   0.0000   0.0000   0.0000   0.0000
     0.0000   0.0000   0.0000   0.0000   0.0000   0.0000   0.0000   0.0000
     0.0000   0.0000   0.0000   0.0000   0.0000   0.0000   0.0000   0.0000
     0.0000   0.0000   0.0000   0.0000   0.0000   0.0000   0.0000   0.0000
     0.0000   0.0000   0.0000   0.0000   0.0000   0.0000   0.0000   0.0000
     0.0000   0.0000   0.0000   0.0000   0.0000   0.0000   0.0000   0.0000
     0.0000   0.0000   0.0000   0.0000

          k =-0.3536 0.3536 0.3536 ( 32056 PWs)   bands (ev):

   -17.5551 -17.5504 -17.5448 -17.5412 -17.5346 -17.5286 -17.5269 -17.5228
   -17.5212 -17.5051 -17.4877 -17.4876 -17.4747 -17.4696 -17.4634 -17.4558
   -17.4505 -17.4476 -17.4469 -17.4446 -17.4325 -17.4260 -17.4258 -17.4243
   -17.4161 -17.4137 -17.4135 -17.4133 -17.4100 -17.4010 -17.3967 -17.3874
   -17.3828 -17.3764 -17.3683 -17.3646 -17.3620 -17.3612 -17.3462 -17.3381
   -17.3372 -17.3254 -17.3245 -17.3232 -17.3200 -17.3184 -17.3178 -17.3149
   -17.3141 -17.3116 -17.3103 -17.3082 -17.3070 -17.3058 -17.3043 -17.3025
   -17.3018 -17.3010 -17.2983 -17.2972 -17.2964 -17.2949 -17.2943 -17.2938
   -17.2933 -17.2925 -17.2920 -17.2901 -17.2875 -17.2867 -17.2866 -17.2856
   -17.2849 -17.2843 -17.2815 -17.2801 -17.2751 -17.2744 -17.2739 -17.2736
   -17.2735 -17.2719 -17.2709 -17.2708 -17.2694 -17.2679 -17.2670 -17.2668
   -17.2662 -17.2651 -17.2636 -17.2632 -17.2627 -17.2620 -17.2617 -17.2584
   -17.2580 -17.2570 -17.2558 -17.2535 -17.2517 -17.2511 -17.2498 -17.2490
   -17.2490 -17.2478 -17.2445 -17.2441 -17.2437 -17.2428 -17.2426 -17.2421
   -17.2416 -17.2377 -17.2375 -17.2315 -17.2302 -17.2298 -17.2238 -17.2218
   -17.2140 -17.2070 -17.2068 -17.1999 -17.1931 -17.1846 -17.1839 -17.1829
   -17.1798 -17.1748 -17.1744 -17.1688 -17.1656 -17.1574 -17.1519  -4.6819
    -4.6564  -4.5424  -4.5086  -4.4178  -4.2404  -4.0586  -3.9356  -3.6918
    -3.5686  -3.4699  -3.4230  -3.2948  -3.2421  -3.1955  -3.1230  -3.0936
    -2.8733  -2.7628  -2.6894  -2.5682  -2.5413  -2.4853  -2.4048  -2.3620
    -2.2687  -2.0548  -1.8164  -1.7807  -1.6562  -1.1608  -1.1185  -1.0019
    -0.8911  -0.4674  -0.3589  -0.2955  -0.1901   0.0110   0.0297   0.1653
     0.2227   0.2850   0.3401   0.3951   0.4373   0.7925   0.8336   0.9210
     0.9689   1.1094   1.1966   1.2279   1.3397   1.6622   1.7579   2.1143
     2.1304   2.8333   2.8536   2.9420   2.9509   2.9551   2.9699   2.9763
     2.9997   3.0651   3.1665   3.1744   3.1824   3.1862   3.1919   3.2432
     3.2501   3.2572   3.2604   3.4129   3.4178   3.4280   3.4459   3.4492
     3.4560   3.4827   3.5643   3.6242   3.6318   3.6541   3.6671   4.0366
     4.0434   4.0589   4.0619   4.3068   4.3135   4.6496   4.6509   4.7619
     4.7641   4.7743   4.7755   4.7853   4.7920   4.7970   4.8015   5.0572
     5.0594   5.0762   5.0779   5.0823   5.1050   5.1099   5.1128   5.1353
     5.1460   5.6288   5.6527   5.6657   5.6853   5.7116   5.7171   5.7219
     5.7403   6.2167   6.2492   6.2589   6.2658   6.2741   6.2854   8.0213
     8.1038   8.2753   8.3323   8.4097   8.4379   8.4603   8.4724   8.4802
     8.5117   8.5236   8.5807   8.7670   8.7977   9.0481   9.1099   9.2027
     9.2585   9.2690   9.2943   9.3105   9.3379   9.3615   9.4121   9.4229
     9.4419   9.7022   9.7805   9.7906   9.8434   9.8782   9.9021  10.0469
    10.0489  10.2458  10.2629  10.4049  10.4721  10.5515  10.5620  10.5804
    10.5853  10.5926  10.6073  10.7303  10.7622  10.9124  10.9410  11.2271
    11.2416  11.2894  11.3041  11.3370

     occupation numbers 
     1.0000   1.0000   1.0000   1.0000   1.0000   1.0000   1.0000   1.0000
     1.0000   1.0000   1.0000   1.0000   1.0000   1.0000   1.0000   1.0000
     1.0000   1.0000   1.0000   1.0000   1.0000   1.0000   1.0000   1.0000
     1.0000   1.0000   1.0000   1.0000   1.0000   1.0000   1.0000   1.0000
     1.0000   1.0000   1.0000   1.0000   1.0000   1.0000   1.0000   1.0000
     1.0000   1.0000   1.0000   1.0000   1.0000   1.0000   1.0000   1.0000
     1.0000   1.0000   1.0000   1.0000   1.0000   1.0000   1.0000   1.0000
     1.0000   1.0000   1.0000   1.0000   1.0000   1.0000   1.0000   1.0000
     1.0000   1.0000   1.0000   1.0000   1.0000   1.0000   1.0000   1.0000
     1.0000   1.0000   1.0000   1.0000   1.0000   1.0000   1.0000   1.0000
     1.0000   1.0000   1.0000   1.0000   1.0000   1.0000   1.0000   1.0000
     1.0000   1.0000   1.0000   1.0000   1.0000   1.0000   1.0000   1.0000
     1.0000   1.0000   1.0000   1.0000   1.0000   1.0000   1.0000   1.0000
     1.0000   1.0000   1.0000   1.0000   1.0000   1.0000   1.0000   1.0000
     1.0000   1.0000   1.0000   1.0000   1.0000   1.0000   1.0000   1.0000
     1.0000   1.0000   1.0000   1.0000   1.0000   1.0000   1.0000   1.0000
     1.0000   1.0000   1.0000   1.0000   1.0000   1.0000   1.0000   1.0000
     1.0000   1.0000   1.0000   1.0000   1.0000   1.0000   1.0000   1.0000
     1.0000   1.0000   1.0000   1.0000   1.0000   1.0000   1.0000   1.0000
     1.0000   1.0000   1.0000   1.0000   1.0000   1.0000   1.0000   1.0000
     1.0000   1.0000   1.0000   1.0000   1.0000   1.0000   1.0000   1.0000
     1.0000   1.0000   1.0000   1.0000   1.0000   1.0000   1.0000   1.0000
     1.0000   1.0000   1.0000   1.0000   1.0000   1.0000   1.0000   1.0000
     1.0000   1.0000   1.0000   1.0000   1.0000   1.0000   1.0000   1.0000
     1.0000   1.0000   1.0000   1.0000   1.0000   1.0000   1.0000   1.0000
     1.0000   1.0000   1.0000   1.0000   1.0000   1.0000   1.0000   1.0000
     1.0000   1.0000   1.0000   1.0000   1.0000   1.0000   1.0000   1.0000
     1.0000   1.0000   1.0000   1.0000   1.0000   1.0000   1.0000   1.0000
     1.0000   1.0000   1.0000   1.0000   1.0000   1.0000   1.0000   1.0000
     1.0000   1.0000   1.0000   1.0000   1.0000   1.0000   1.0000   1.0000
     1.0000   1.0000   1.0000   1.0000   1.0000   1.0000   1.0000   1.0000
     1.0000   1.0000   1.0000   1.0000   1.0000   1.0000   1.0000   1.0000
     1.0000   1.0000   1.0000   1.0000   1.0000   1.0000   1.0000   0.0000
     0.0000   0.0000   0.0000   0.0000   0.0000   0.0000   0.0000   0.0000
     0.0000   0.0000   0.0000   0.0000   0.0000   0.0000   0.0000   0.0000
     0.0000   0.0000   0.0000   0.0000   0.0000   0.0000   0.0000   0.0000
     0.0000   0.0000   0.0000   0.0000   0.0000   0.0000   0.0000   0.0000
     0.0000   0.0000   0.0000   0.0000   0.0000   0.0000   0.0000   0.0000
     0.0000   0.0000   0.0000   0.0000   0.0000   0.0000   0.0000   0.0000
     0.0000   0.0000   0.0000   0.0000

          k =-0.3536-0.3536-0.3536 ( 32056 PWs)   bands (ev):

   -17.5506 -17.5448 -17.5416 -17.5408 -17.5345 -17.5282 -17.5263 -17.5212
   -17.5160 -17.5115 -17.4911 -17.4878 -17.4747 -17.4712 -17.4699 -17.4559
   -17.4553 -17.4507 -17.4469 -17.4408 -17.4324 -17.4264 -17.4258 -17.4250
   -17.4245 -17.4161 -17.4136 -17.4135 -17.4124 -17.4101 -17.3909 -17.3874
   -17.3828 -17.3756 -17.3683 -17.3643 -17.3613 -17.3612 -17.3462 -17.3382
   -17.3373 -17.3269 -17.3242 -17.3234 -17.3195 -17.3182 -17.3144 -17.3140
   -17.3125 -17.3099 -17.3098 -17.3074 -17.3063 -17.3051 -17.3045 -17.3033
   -17.3022 -17.3013 -17.2980 -17.2980 -17.2955 -17.2951 -17.2945 -17.2942
   -17.2937 -17.2922 -17.2913 -17.2906 -17.2904 -17.2876 -17.2875 -17.2849
   -17.2841 -17.2831 -17.2801 -17.2796 -17.2746 -17.2742 -17.2739 -17.2736
   -17.2733 -17.2710 -17.2700 -17.2693 -17.2676 -17.2674 -17.2670 -17.2662
   -17.2654 -17.2650 -17.2636 -17.2630 -17.2622 -17.2622 -17.2621 -17.2592
   -17.2568 -17.2556 -17.2538 -17.2524 -17.2516 -17.2492 -17.2489 -17.2485
   -17.2478 -17.2454 -17.2445 -17.2443 -17.2425 -17.2424 -17.2413 -17.2408
   -17.2378 -17.2378 -17.2375 -17.2318 -17.2305 -17.2298 -17.2237 -17.2183
   -17.2141 -17.2081 -17.2070 -17.2034 -17.1920 -17.1848 -17.1848 -17.1839
   -17.1831 -17.1805 -17.1746 -17.1741 -17.1665 -17.1576 -17.1517  -4.7344
    -4.6567  -4.5808  -4.5201  -4.3135  -4.2470  -4.0540  -3.9696  -3.5607
    -3.5518  -3.4781  -3.4011  -3.3078  -3.2550  -3.1807  -3.1221  -3.0702
    -2.9583  -2.7045  -2.6546  -2.5897  -2.5563  -2.5194  -2.4933  -2.4311
    -2.2270  -1.9844  -1.9085  -1.7559  -1.7272  -1.1278  -1.1017  -1.0215
    -0.9432  -0.4052  -0.3563  -0.2259  -0.1929  -0.0737   0.0841   0.2345
     0.2672   0.3250   0.3309   0.3389   0.4143   0.8333   0.8474   0.9200
     0.9590   1.0964   1.2064   1.2103   1.3205   1.6632   1.7402   2.0740
     2.1813   2.8126   2.8363   2.9388   2.9511   2.9628   2.9695   2.9813
     3.0008   3.0709   3.1641   3.1730   3.1795   3.1881   3.1901   3.2433
     3.2488   3.2559   3.2615   3.3887   3.4239   3.4256   3.4359   3.4426
     3.4570   3.4729   3.5783   3.6186   3.6429   3.6504   3.6644   4.0340
     4.0492   4.0568   4.0642   4.2932   4.3235   4.6343   4.6679   4.7629
     4.7666   4.7751   4.7803   4.7864   4.7923   4.7966   4.8044   5.0545
     5.0656   5.0717   5.0767   5.0921   5.1012   5.1127   5.1204   5.1311
     5.1345   5.6351   5.6645   5.6653   5.6782   5.6907   5.7024   5.7402
     5.7516   6.2095   6.2474   6.2599   6.2723   6.2790   6.2918   8.0330
     8.0869   8.2833   8.3275   8.4268   8.4654   8.4696   8.4754   8.4889
     8.4923   8.5139   8.5348   8.7358   8.8250   9.0424   9.1207   9.1920
     9.2266   9.2656   9.2929   9.3274   9.3384   9.3794   9.3946   9.4382
     9.4394   9.7255   9.7353   9.7991   9.8379   9.8647   9.9157  10.0449
    10.0494  10.2437  10.2798  10.4580  10.4593  10.5415  10.5595  10.5789
    10.5870  10.6049  10.6171  10.6856  10.8094  10.8762  10.9899  11.1993
    11.2252  11.3009  11.3178  11.3634

     occupation numbers 
     1.0000   1.0000   1.0000   1.0000   1.0000   1.0000   1.0000   1.0000
     1.0000   1.0000   1.0000   1.0000   1.0000   1.0000   1.0000   1.0000
     1.0000   1.0000   1.0000   1.0000   1.0000   1.0000   1.0000   1.0000
     1.0000   1.0000   1.0000   1.0000   1.0000   1.0000   1.0000   1.0000
     1.0000   1.0000   1.0000   1.0000   1.0000   1.0000   1.0000   1.0000
     1.0000   1.0000   1.0000   1.0000   1.0000   1.0000   1.0000   1.0000
     1.0000   1.0000   1.0000   1.0000   1.0000   1.0000   1.0000   1.0000
     1.0000   1.0000   1.0000   1.0000   1.0000   1.0000   1.0000   1.0000
     1.0000   1.0000   1.0000   1.0000   1.0000   1.0000   1.0000   1.0000
     1.0000   1.0000   1.0000   1.0000   1.0000   1.0000   1.0000   1.0000
     1.0000   1.0000   1.0000   1.0000   1.0000   1.0000   1.0000   1.0000
     1.0000   1.0000   1.0000   1.0000   1.0000   1.0000   1.0000   1.0000
     1.0000   1.0000   1.0000   1.0000   1.0000   1.0000   1.0000   1.0000
     1.0000   1.0000   1.0000   1.0000   1.0000   1.0000   1.0000   1.0000
     1.0000   1.0000   1.0000   1.0000   1.0000   1.0000   1.0000   1.0000
     1.0000   1.0000   1.0000   1.0000   1.0000   1.0000   1.0000   1.0000
     1.0000   1.0000   1.0000   1.0000   1.0000   1.0000   1.0000   1.0000
     1.0000   1.0000   1.0000   1.0000   1.0000   1.0000   1.0000   1.0000
     1.0000   1.0000   1.0000   1.0000   1.0000   1.0000   1.0000   1.0000
     1.0000   1.0000   1.0000   1.0000   1.0000   1.0000   1.0000   1.0000
     1.0000   1.0000   1.0000   1.0000   1.0000   1.0000   1.0000   1.0000
     1.0000   1.0000   1.0000   1.0000   1.0000   1.0000   1.0000   1.0000
     1.0000   1.0000   1.0000   1.0000   1.0000   1.0000   1.0000   1.0000
     1.0000   1.0000   1.0000   1.0000   1.0000   1.0000   1.0000   1.0000
     1.0000   1.0000   1.0000   1.0000   1.0000   1.0000   1.0000   1.0000
     1.0000   1.0000   1.0000   1.0000   1.0000   1.0000   1.0000   1.0000
     1.0000   1.0000   1.0000   1.0000   1.0000   1.0000   1.0000   1.0000
     1.0000   1.0000   1.0000   1.0000   1.0000   1.0000   1.0000   1.0000
     1.0000   1.0000   1.0000   1.0000   1.0000   1.0000   1.0000   1.0000
     1.0000   1.0000   1.0000   1.0000   1.0000   1.0000   1.0000   1.0000
     1.0000   1.0000   1.0000   1.0000   1.0000   1.0000   1.0000   1.0000
     1.0000   1.0000   1.0000   1.0000   1.0000   1.0000   1.0000   1.0000
     1.0000   1.0000   1.0000   1.0000   1.0000   1.0000   1.0000   0.0000
     0.0000   0.0000   0.0000   0.0000   0.0000   0.0000   0.0000   0.0000
     0.0000   0.0000   0.0000   0.0000   0.0000   0.0000   0.0000   0.0000
     0.0000   0.0000   0.0000   0.0000   0.0000   0.0000   0.0000   0.0000
     0.0000   0.0000   0.0000   0.0000   0.0000   0.0000   0.0000   0.0000
     0.0000   0.0000   0.0000   0.0000   0.0000   0.0000   0.0000   0.0000
     0.0000   0.0000   0.0000   0.0000   0.0000   0.0000   0.0000   0.0000
     0.0000   0.0000   0.0000   0.0000

          k =-0.5303 0.5303 0.1768 ( 32066 PWs)   bands (ev):

   -17.5529 -17.5466 -17.5448 -17.5410 -17.5346 -17.5285 -17.5267 -17.5212
   -17.5205 -17.5074 -17.4889 -17.4878 -17.4747 -17.4698 -17.4671 -17.4559
   -17.4527 -17.4507 -17.4469 -17.4412 -17.4325 -17.4262 -17.4258 -17.4247
   -17.4167 -17.4161 -17.4137 -17.4136 -17.4128 -17.4101 -17.3914 -17.3874
   -17.3828 -17.3758 -17.3683 -17.3644 -17.3615 -17.3612 -17.3462 -17.3382
   -17.3373 -17.3260 -17.3240 -17.3234 -17.3197 -17.3181 -17.3165 -17.3148
   -17.3129 -17.3107 -17.3105 -17.3078 -17.3060 -17.3060 -17.3046 -17.3026
   -17.3024 -17.3012 -17.2982 -17.2978 -17.2961 -17.2950 -17.2945 -17.2939
   -17.2934 -17.2922 -17.2920 -17.2904 -17.2894 -17.2875 -17.2872 -17.2853
   -17.2846 -17.2830 -17.2805 -17.2800 -17.2747 -17.2743 -17.2739 -17.2736
   -17.2735 -17.2714 -17.2710 -17.2694 -17.2678 -17.2674 -17.2672 -17.2669
   -17.2662 -17.2651 -17.2636 -17.2631 -17.2624 -17.2621 -17.2619 -17.2588
   -17.2569 -17.2561 -17.2536 -17.2529 -17.2520 -17.2514 -17.2492 -17.2490
   -17.2479 -17.2477 -17.2446 -17.2442 -17.2430 -17.2426 -17.2423 -17.2415
   -17.2409 -17.2378 -17.2375 -17.2317 -17.2304 -17.2298 -17.2238 -17.2208
   -17.2141 -17.2072 -17.2070 -17.2014 -17.1926 -17.1848 -17.1840 -17.1830
   -17.1822 -17.1748 -17.1745 -17.1742 -17.1659 -17.1575 -17.1519  -4.8247
    -4.6842  -4.6120  -4.1886  -4.1697  -4.0908  -4.0481  -3.9870  -3.9356
    -3.8174  -3.7185  -3.5034  -3.4106  -3.2782  -3.1555  -3.0505  -2.9501
    -2.7725  -2.6706  -2.5882  -2.5569  -2.4834  -2.3868  -2.2492  -2.2160
    -2.0855  -2.0508  -1.9285  -1.8410  -1.7913  -1.7056  -1.5838  -0.6060
    -0.4603  -0.3313  -0.3140  -0.2529  -0.1505  -0.0396   0.0052   0.0310
     0.0954   0.1265   0.1865   0.2307   0.5960   0.6584   0.7755   0.8673
     0.9325   0.9843   1.4134   1.4807   1.6924   1.7783   2.1038   2.1434
     2.2884   2.3703   2.3996   2.4765   2.7335   2.7923   2.7968   2.7975
     2.8084   2.9492   2.9578   2.9599   2.9684   2.9876   2.9992   3.4457
     3.4782   3.4953   3.5546   3.6148   3.6301   3.6351   3.6398   3.6506
     3.6568   4.0376   4.0420   4.0517   4.0565   4.0592   4.2409   4.2471
     4.2713   4.2760   4.2898   4.2940   4.3085   4.3246   4.4141   4.4182
     4.4232   4.4308   4.5588   4.6497   4.6515   4.7793   4.7908   4.8439
     4.8487   5.0427   5.0544   5.0605   5.0757   5.0901   5.0991   5.1014
     5.1112   5.3904   5.4093   5.4310   5.5329   5.5565   5.5735   5.5841
     5.7013   5.7109   5.7174   5.7361   6.2345   6.2450   6.7597   8.1859
     8.2998   8.3305   8.7477   8.7769   8.8959   8.9100   9.0171   9.0376
     9.0554   9.1073   9.2260   9.2821   9.3025   9.3301   9.3569   9.3769
     9.3974   9.4215   9.4456   9.4684   9.5213   9.6258   9.6497   9.7091
     9.7219   9.7525   9.7720   9.7923   9.8113   9.8344   9.8444   9.8735
     9.9048   9.9309   9.9866  10.1713  10.2255  10.2354  10.2476  10.2755
    10.3193  10.4039  10.4300  10.4478  10.4740  10.4892  10.5268  10.5551
    10.5843  10.6059  10.6347  10.7429

     occupation numbers 
     1.0000   1.0000   1.0000   1.0000   1.0000   1.0000   1.0000   1.0000
     1.0000   1.0000   1.0000   1.0000   1.0000   1.0000   1.0000   1.0000
     1.0000   1.0000   1.0000   1.0000   1.0000   1.0000   1.0000   1.0000
     1.0000   1.0000   1.0000   1.0000   1.0000   1.0000   1.0000   1.0000
     1.0000   1.0000   1.0000   1.0000   1.0000   1.0000   1.0000   1.0000
     1.0000   1.0000   1.0000   1.0000   1.0000   1.0000   1.0000   1.0000
     1.0000   1.0000   1.0000   1.0000   1.0000   1.0000   1.0000   1.0000
     1.0000   1.0000   1.0000   1.0000   1.0000   1.0000   1.0000   1.0000
     1.0000   1.0000   1.0000   1.0000   1.0000   1.0000   1.0000   1.0000
     1.0000   1.0000   1.0000   1.0000   1.0000   1.0000   1.0000   1.0000
     1.0000   1.0000   1.0000   1.0000   1.0000   1.0000   1.0000   1.0000
     1.0000   1.0000   1.0000   1.0000   1.0000   1.0000   1.0000   1.0000
     1.0000   1.0000   1.0000   1.0000   1.0000   1.0000   1.0000   1.0000
     1.0000   1.0000   1.0000   1.0000   1.0000   1.0000   1.0000   1.0000
[...]
     atom   13 type  2   force =   0.38079706E-03  0.91887453E-03 -0.21632296E-03
     atom   14 type  1   force =   0.26500915E-04 -0.24082706E-03 -0.91985153E-04
     atom   15 type  2   force =   0.23174076E-03 -0.34519625E-03  0.45698354E-03
     atom   16 type  1   force =  -0.11521948E-03  0.53077917E-03  0.78693798E-04
     atom   17 type  1   force =  -0.35309228E-03  0.26415491E-03 -0.39659089E-03
     atom   18 type  1   force =  -0.64988936E-04 -0.67927169E-04 -0.38103629E-05
     atom   19 type  1   force =   0.21245360E-03 -0.16984045E-03 -0.32876475E-03
     atom   20 type  2   force =  -0.35409254E-03  0.13442229E-04 -0.16131833E-03
     atom   21 type  1   force =   0.83947621E-03 -0.13937799E-03 -0.66966055E-04
     atom   22 type  2   force =   0.41500292E-03 -0.23452901E-03 -0.13735247E-02
     atom   23 type  1   force =  -0.47713584E-03 -0.40074794E-03  0.88287933E-05
     atom   24 type  2   force =   0.65609367E-04  0.46187576E-03 -0.16511333E-03
     atom   25 type  2   force =   0.40983745E-03 -0.41313710E-03  0.52160775E-03
     atom   26 type  1   force =   0.28781679E-03 -0.39275941E-03  0.30646199E-03
     atom   27 type  1   force =   0.29548970E-03 -0.29782878E-03 -0.10780068E-03
     atom   28 type  1   force =  -0.11384747E-04 -0.88373303E-03  0.42376682E-03
     atom   29 type  2   force =   0.25050635E-03  0.37645522E-03 -0.81958781E-03
     atom   30 type  1   force =   0.28262391E-03  0.59111381E-03  0.17065374E-03
     atom   31 type  2   force =  -0.70369265E-03 -0.63395858E-03 -0.78749255E-04
     atom   32 type  2   force =   0.47618106E-03  0.53460024E-03 -0.26038013E-03
     atom   33 type  1   force =  -0.63620970E-03 -0.48211752E-03  0.38037450E-03
     atom   34 type  2   force =   0.61741493E-03  0.23325964E-03 -0.62436692E-03
     atom   35 type  1   force =  -0.44209318E-04 -0.50243330E-03  0.31447105E-03
     atom   36 type  2   force =   0.41007074E-03 -0.53317418E-03  0.10426740E-03
     atom   37 type  1   force =   0.29601919E-03 -0.13223123E-03 -0.54204684E-03
     atom   38 type  1   force =  -0.14904203E-03  0.25759320E-04  0.45173061E-03
     atom   39 type  2   force =  -0.67693791E-03  0.76440702E-03  0.39296871E-03
     atom   40 type  1   force =  -0.29890901E-03  0.18964544E-03  0.46036711E-03
     atom   41 type  1   force =   0.22400115E-04  0.18491241E-03 -0.32055286E-03
     atom   42 type  2   force =  -0.24736439E-03  0.30259473E-03  0.15572676E-03
     atom   43 type  1   force =   0.50810421E-04  0.26178465E-03 -0.61590232E-04
     atom   44 type  1   force =  -0.28058304E-03  0.14935105E-03 -0.25777274E-03
     atom   45 type  1   force =  -0.52895354E-03  0.17167865E-03 -0.35432601E-03
     atom   46 type  2   force =  -0.22467828E-03  0.17804940E-03 -0.43527745E-03
     atom   47 type  2   force =   0.85227062E-03 -0.47683954E-03 -0.10482374E-03
     atom   48 type  1   force =   0.57480121E-03  0.21186084E-03 -0.34343085E-03
     atom   49 type  1   force =   0.28289377E-03 -0.15334396E-03  0.30012358E-03
     atom   50 type  1   force =  -0.39225197E-03 -0.91731392E-04  0.14807976E-03
     atom   51 type  2   force =  -0.52840114E-04  0.52750802E-03 -0.18056349E-03
     atom   52 type  2   force =  -0.66774945E-03  0.25546300E-03  0.79023766E-04
     atom   53 type  2   force =  -0.54482202E-03  0.92741166E-03  0.38673883E-03
     atom   54 type  1   force =  -0.39962227E-03 -0.20955192E-04  0.43973284E-03
     atom   55 type  1   force =   0.38607908E-03  0.50168549E-03  0.18203766E-03
     atom   56 type  1   force =  -0.24955821E-03 -0.34753214E-03 -0.22595325E-03
     atom   57 type  1   force =   0.26931013E-04 -0.15517984E-03  0.19492299E-03
     atom   58 type  2   force =  -0.25342527E-03 -0.45572838E-03  0.43536880E-03
     atom   59 type  2   force =   0.50313054E-03  0.62258138E-03  0.17636131E-03
     atom   60 type  1   force =  -0.47072095E-03 -0.21779187E-03  0.36240483E-03
     atom   61 type  2   force =   0.89911739E-03 -0.39652191E-03 -0.49972415E-04
     atom   62 type  1   force =   0.19000460E-03 -0.45485480E-03  0.52113821E-03
     atom   63 type  2   force =  -0.19387440E-03  0.73401183E-03  0.13803843E-03
     atom   64 type  2   force =  -0.44838468E-03  0.62718134E-04 -0.53280725E-03
     The Hubbard contrib.    to forces
     atom    1 type  1   force =   0.00000000E+00  0.00000000E+00  0.00000000E+00
     atom    2 type  1   force =   0.00000000E+00  0.00000000E+00  0.00000000E+00
     atom    3 type  2   force =   0.00000000E+00  0.00000000E+00  0.00000000E+00
     atom    4 type  2   force =   0.00000000E+00  0.00000000E+00  0.00000000E+00
     atom    5 type  1   force =   0.00000000E+00  0.00000000E+00  0.00000000E+00
     atom    6 type  1   force =   0.00000000E+00  0.00000000E+00  0.00000000E+00
     atom    7 type  1   force =   0.00000000E+00  0.00000000E+00  0.00000000E+00
     atom    8 type  2   force =   0.00000000E+00  0.00000000E+00  0.00000000E+00
     atom    9 type  1   force =   0.00000000E+00  0.00000000E+00  0.00000000E+00
     atom   10 type  2   force =   0.00000000E+00  0.00000000E+00  0.00000000E+00
     atom   11 type  1   force =   0.00000000E+00  0.00000000E+00  0.00000000E+00
     atom   12 type  1   force =   0.00000000E+00  0.00000000E+00  0.00000000E+00
     atom   13 type  2   force =   0.00000000E+00  0.00000000E+00  0.00000000E+00
     atom   14 type  1   force =   0.00000000E+00  0.00000000E+00  0.00000000E+00
     atom   15 type  2   force =   0.00000000E+00  0.00000000E+00  0.00000000E+00
     atom   16 type  1   force =   0.00000000E+00  0.00000000E+00  0.00000000E+00
     atom   17 type  1   force =   0.00000000E+00  0.00000000E+00  0.00000000E+00
     atom   18 type  1   force =   0.00000000E+00  0.00000000E+00  0.00000000E+00
     atom   19 type  1   force =   0.00000000E+00  0.00000000E+00  0.00000000E+00
     atom   20 type  2   force =   0.00000000E+00  0.00000000E+00  0.00000000E+00
     atom   21 type  1   force =   0.00000000E+00  0.00000000E+00  0.00000000E+00
     atom   22 type  2   force =   0.00000000E+00  0.00000000E+00  0.00000000E+00
     atom   23 type  1   force =   0.00000000E+00  0.00000000E+00  0.00000000E+00
     atom   24 type  2   force =   0.00000000E+00  0.00000000E+00  0.00000000E+00
     atom   25 type  2   force =   0.00000000E+00  0.00000000E+00  0.00000000E+00
     atom   26 type  1   force =   0.00000000E+00  0.00000000E+00  0.00000000E+00
     atom   27 type  1   force =   0.00000000E+00  0.00000000E+00  0.00000000E+00
     atom   28 type  1   force =   0.00000000E+00  0.00000000E+00  0.00000000E+00
     atom   29 type  2   force =   0.00000000E+00  0.00000000E+00  0.00000000E+00
     atom   30 type  1   force =   0.00000000E+00  0.00000000E+00  0.00000000E+00
     atom   31 type  2   force =   0.00000000E+00  0.00000000E+00  0.00000000E+00
     atom   32 type  2   force =   0.00000000E+00  0.00000000E+00  0.00000000E+00
     atom   33 type  1   force =   0.00000000E+00  0.00000000E+00  0.00000000E+00
     atom   34 type  2   force =   0.00000000E+00  0.00000000E+00  0.00000000E+00
     atom   35 type  1   force =   0.00000000E+00  0.00000000E+00  0.00000000E+00
     atom   36 type  2   force =   0.00000000E+00  0.00000000E+00  0.00000000E+00
     atom   37 type  1   force =   0.00000000E+00  0.00000000E+00  0.00000000E+00
     atom   38 type  1   force =   0.00000000E+00  0.00000000E+00  0.00000000E+00
     atom   39 type  2   force =   0.00000000E+00  0.00000000E+00  0.00000000E+00
     atom   40 type  1   force =   0.00000000E+00  0.00000000E+00  0.00000000E+00
     atom   41 type  1   force =   0.00000000E+00  0.00000000E+00  0.00000000E+00
     atom   42 type  2   force =   0.00000000E+00  0.00000000E+00  0.00000000E+00
     atom   43 type  1   force =   0.00000000E+00  0.00000000E+00  0.00000000E+00
     atom   44 type  1   force =   0.00000000E+00  0.00000000E+00  0.00000000E+00
     atom   45 type  1   force =   0.00000000E+00  0.00000000E+00  0.00000000E+00
     atom   46 type  2   force =   0.00000000E+00  0.00000000E+00  0.00000000E+00
     atom   47 type  2   force =   0.00000000E+00  0.00000000E+00  0.00000000E+00
     atom   48 type  1   force =   0.00000000E+00  0.00000000E+00  0.00000000E+00
     atom   49 type  1   force =   0.00000000E+00  0.00000000E+00  0.00000000E+00
     atom   50 type  1   force =   0.00000000E+00  0.00000000E+00  0.00000000E+00
     atom   51 type  2   force =   0.00000000E+00  0.00000000E+00  0.00000000E+00
     atom   52 type  2   force =   0.00000000E+00  0.00000000E+00  0.00000000E+00
     atom   53 type  2   force =   0.00000000E+00  0.00000000E+00  0.00000000E+00
     atom   54 type  1   force =   0.00000000E+00  0.00000000E+00  0.00000000E+00
     atom   55 type  1   force =   0.00000000E+00  0.00000000E+00  0.00000000E+00
     atom   56 type  1   force =   0.00000000E+00  0.00000000E+00  0.00000000E+00
     atom   57 type  1   force =   0.00000000E+00  0.00000000E+00  0.00000000E+00
     atom   58 type  2   force =   0.00000000E+00  0.00000000E+00  0.00000000E+00
     atom   59 type  2   force =   0.00000000E+00  0.00000000E+00  0.00000000E+00
     atom   60 type  1   force =   0.00000000E+00  0.00000000E+00  0.00000000E+00
     atom   61 type  2   force =   0.00000000E+00  0.00000000E+00  0.00000000E+00
     atom   62 type  1   force =   0.00000000E+00  0.00000000E+00  0.00000000E+00
     atom   63 type  2   force =   0.00000000E+00  0.00000000E+00  0.00000000E+00
     atom   64 type  2   force =   0.00000000E+00  0.00000000E+00  0.00000000E+00
     The SCF correction term to forces
     atom    1 type  1   force =  -0.22965152E-05 -0.16563556E-05  0.18578174E-05
     atom    2 type  1   force =  -0.23266136E-05 -0.29782592E-05  0.28473248E-05
     atom    3 type  2   force =  -0.11260368E-04 -0.98151982E-05  0.85202579E-05
     atom    4 type  2   force =   0.35110471E-06 -0.68897649E-05  0.19349909E-05
     atom    5 type  1   force =   0.17621883E-05  0.10578823E-05  0.12116667E-06
     atom    6 type  1   force =   0.11627647E-05  0.18560053E-05 -0.38985680E-06
     atom    7 type  1   force =   0.89275406E-06  0.12712832E-05 -0.18732812E-05
     atom    8 type  2   force =   0.27529711E-05  0.97149571E-05 -0.13757318E-04
     atom    9 type  1   force =   0.22263127E-05  0.11114511E-05 -0.27776616E-05
     atom   10 type  2   force =   0.40162805E-05  0.67828849E-05 -0.65320265E-05
     atom   11 type  1   force =   0.83228074E-06  0.80073513E-06  0.12884587E-06
     atom   12 type  1   force =   0.68713632E-06  0.54243017E-06  0.25117810E-06
     atom   13 type  2   force =  -0.33962278E-05 -0.32017587E-05  0.76740758E-05
     atom   14 type  1   force =   0.38710803E-06 -0.32173169E-06 -0.55172371E-06
     atom   15 type  2   force =  -0.42900161E-05 -0.16509124E-05  0.65898569E-06
     atom   16 type  1   force =  -0.10168944E-05 -0.81572501E-06  0.35826327E-07
     atom   17 type  1   force =  -0.20600692E-05 -0.23396589E-05  0.25030234E-05
     atom   18 type  1   force =  -0.31005936E-05 -0.31983411E-05  0.25842947E-05
     atom   19 type  1   force =  -0.24362496E-05 -0.19210299E-05  0.33171278E-05
     atom   20 type  2   force =  -0.20919958E-05 -0.58109693E-06  0.66987513E-06
     atom   21 type  1   force =  -0.46814220E-08  0.22752097E-06 -0.18319624E-05
     atom   22 type  2   force =   0.67620033E-06 -0.40095846E-05 -0.64744249E-05
     atom   23 type  1   force =   0.27725674E-05  0.21584105E-05 -0.18063622E-05
     atom   24 type  2   force =   0.58445038E-05  0.11956554E-04  0.57784587E-05
     atom   25 type  2   force =  -0.21475923E-05  0.69491370E-05  0.46571165E-05
     atom   26 type  1   force =   0.85554439E-06  0.16890304E-05 -0.11019740E-05
     atom   27 type  1   force =  -0.33410137E-06  0.92972025E-06 -0.60849796E-06
     atom   28 type  1   force =   0.57472276E-06  0.15937143E-06 -0.14988164E-05
     atom   29 type  2   force =  -0.15329064E-05  0.22535138E-06 -0.20380285E-05
     atom   30 type  1   force =   0.27749836E-06 -0.52772902E-06 -0.15762233E-06
     atom   31 type  2   force =   0.88893713E-06 -0.25743506E-06  0.28207295E-05
     atom   32 type  2   force =   0.41148901E-05 -0.66703457E-07  0.17703047E-05
     atom   33 type  1   force =  -0.22745972E-05 -0.19873684E-05  0.17937633E-05
     atom   34 type  2   force =  -0.16108009E-04 -0.14812480E-04  0.16643952E-04
     atom   35 type  1   force =  -0.16531346E-05 -0.21601482E-05  0.28358713E-05
     atom   36 type  2   force =   0.59236568E-05  0.45217548E-05  0.76705524E-06
     atom   37 type  1   force =   0.89898080E-06  0.65674124E-06 -0.18181594E-05
     atom   38 type  1   force =   0.53323378E-06  0.82499798E-06 -0.22596795E-05
     atom   39 type  2   force =   0.49395761E-05  0.10748455E-04 -0.20480832E-05
     atom   40 type  1   force =   0.24990339E-05  0.14939346E-05 -0.74390583E-06
     atom   41 type  1   force =   0.26099058E-05  0.11988429E-05  0.50245464E-06
     atom   42 type  2   force =   0.81402287E-05  0.34042219E-05 -0.43964360E-05
     atom   43 type  1   force =   0.25144875E-06 -0.98257227E-06  0.95681806E-07
     atom   44 type  1   force =  -0.19714446E-06  0.24021866E-06 -0.10648441E-05
     atom   45 type  1   force =   0.26609250E-06  0.39095420E-07 -0.60751805E-06
     atom   46 type  2   force =   0.33096971E-06  0.32570648E-05  0.17904567E-05
     atom   47 type  2   force =  -0.20834732E-05 -0.29418930E-06  0.13348681E-05
     atom   48 type  1   force =  -0.10051223E-05 -0.29017471E-06  0.10702123E-05
     atom   49 type  1   force =  -0.15629465E-05 -0.22188482E-05  0.20549050E-05
     atom   50 type  1   force =  -0.30108028E-05 -0.23714219E-05  0.29766678E-05
     atom   51 type  2   force =  -0.12235862E-04 -0.14262511E-04  0.68650526E-05
     atom   52 type  2   force =  -0.91825016E-05 -0.28428818E-05  0.28300970E-05
     atom   53 type  2   force =   0.59144279E-05  0.10609287E-04  0.29232811E-05
     atom   54 type  1   force =   0.24110001E-05  0.17111070E-05 -0.70352932E-06
     atom   55 type  1   force =   0.19233637E-05  0.14971831E-05 -0.19272807E-05
     atom   56 type  1   force =   0.17890116E-05  0.87577567E-06 -0.35665321E-05
     atom   57 type  1   force =   0.13628401E-06  0.12997793E-05 -0.32280143E-05
     atom   58 type  2   force =   0.19130999E-05 -0.16298189E-05 -0.57707302E-05
     atom   59 type  2   force =   0.45903625E-05  0.30988988E-05 -0.41367033E-05
     atom   60 type  1   force =   0.54454253E-06  0.66371150E-06  0.66464953E-06
     atom   61 type  2   force =   0.39859612E-06  0.10046374E-06  0.22421281E-05
     atom   62 type  1   force =  -0.29805950E-07  0.63643381E-06  0.21838915E-07
     atom   63 type  2   force =   0.56809286E-06 -0.28868373E-05  0.79963643E-07
     atom   64 type  2   force =  -0.13489277E-05 -0.28789477E-05  0.13335386E-05

     Total force =     0.134157     Total SCF correction =     0.000058


     entering subroutine stress ...

          total   stress  (Ry/bohr**3)                   (kbar)     P=   -6.00
  -0.0000409754  -0.0000005753   0.0000002670         -6.03     -0.08      0.04
  -0.0000005753  -0.0000408060   0.0000047475         -0.08     -6.00      0.70
   0.0000002670   0.0000047475  -0.0000406422          0.04      0.70     -5.98

     kinetic stress (kbar)   5725.94     -0.16     -0.11
                               -0.16   5725.93     -0.54
                               -0.11     -0.54   5725.96

     local   stress (kbar)  -5826.91   7003.11  -4113.17
                             7003.11  -5376.02  -5054.66
                            -4113.17  -5054.66  -4778.97

     nonloc. stress (kbar)   2388.29      0.67      0.46
                                0.67   2388.29      0.40
                                0.46      0.40   2388.30

     hartree stress (kbar)  15233.44  -3430.00   2050.12
                            -3430.00  15010.05   2486.61
                             2050.12   2486.61  14716.24

     exc-cor stress (kbar)   9376.22      0.02      0.01
                                0.02   9376.23      0.01
                                0.01      0.01   9376.23

     corecor stress (kbar) -14302.75      0.03     -0.01
                                0.03 -14302.74     -0.07
                               -0.01     -0.07 -14302.74

     ewald   stress (kbar) -12600.26  -3573.76   2062.74
                            -3573.76 -12827.74   2568.95
                             2062.74   2568.95 -13130.99

     hubbard stress (kbar)      0.00      0.00      0.00
                                0.00      0.00      0.00
                                0.00      0.00      0.00

     london  stress (kbar)      0.00      0.00      0.00
                                0.00      0.00      0.00
                                0.00      0.00      0.00

     XDM     stress (kbar)      0.00      0.00      0.00
                                0.00      0.00      0.00
                                0.00      0.00      0.00

     dft-nl  stress (kbar)      0.00      0.00      0.00
                                0.00      0.00      0.00
                                0.00      0.00      0.00



     Writing output data file SiGe_zns.scf.in.super.228.b.033.save

     init_run     :    150.20s CPU    142.52s WALL (       1 calls)
     electrons    :   8439.34s CPU   8648.63s WALL (       1 calls)
     forces       :     86.90s CPU     75.28s WALL (       1 calls)
     stress       :    432.82s CPU    442.38s WALL (       1 calls)

     Called by init_run:
     wfcinit      :    143.38s CPU    135.14s WALL (       1 calls)
     potinit      :      0.60s CPU      0.63s WALL (       1 calls)

     Called by electrons:
     c_bands      :   7337.51s CPU   7506.05s WALL (      19 calls)
     sum_band     :    993.43s CPU   1025.43s WALL (      19 calls)
     v_of_rho     :      6.58s CPU      7.19s WALL (      19 calls)
     v_h          :      0.63s CPU      0.70s WALL (      19 calls)
     v_xc         :      6.66s CPU      7.37s WALL (      21 calls)
     newd         :     96.68s CPU    103.21s WALL (      19 calls)
     mix_rho      :      8.79s CPU     10.45s WALL (      19 calls)

     Called by c_bands:
     init_us_2    :     14.72s CPU     16.10s WALL (     410 calls)
     cegterg      :   7248.56s CPU   7403.97s WALL (     190 calls)

     Called by sum_band:
     sum_band:bec :      5.40s CPU      5.54s WALL (     190 calls)
     addusdens    :     97.65s CPU    106.36s WALL (      19 calls)

     Called by *egterg:
     h_psi        :   3671.87s CPU   3727.49s WALL (     728 calls)
     s_psi        :    663.81s CPU    495.89s WALL (     728 calls)
     g_psi        :      1.96s CPU      1.97s WALL (     528 calls)
     cdiaghg      :   1681.51s CPU   2103.74s WALL (     708 calls)
     cegterg:over :    601.00s CPU    529.05s WALL (     528 calls)
     cegterg:upda :    244.33s CPU    191.42s WALL (     528 calls)
     cegterg:last :    167.94s CPU    124.69s WALL (     190 calls)

     Called by h_psi:
     h_psi:vloc   :   2210.28s CPU   2571.71s WALL (     728 calls)
     h_psi:vnl    :   1457.12s CPU   1150.88s WALL (     728 calls)
     add_vuspsi   :    653.98s CPU    488.44s WALL (     728 calls)

     General routines
     calbec       :   1269.19s CPU   1063.83s WALL (     938 calls)
     fft          :     27.23s CPU     29.89s WALL (     329 calls)
     ffts         :      5.74s CPU      6.79s WALL (     553 calls)
     fftw         :   2588.85s CPU   3014.90s WALL (  339016 calls)
     interpolate  :      1.17s CPU      1.37s WALL (      38 calls)

     Parallel routines
     fft_scatter  :   1935.00s CPU   2285.25s WALL (  339898 calls)

     PWSCF        :     2h32m CPU        2h35m WALL


   This run was terminated on:  14:38:25  10Feb2017            

=------------------------------------------------------------------------------=
   JOB DONE.
=------------------------------------------------------------------------------=
