
     Program PWSCF v.5.1 starts on  2Nov2017 at 12:21:59 

     This program is part of the open-source Quantum ESPRESSO suite
     for quantum simulation of materials; please cite
         "P. Giannozzi et al., J. Phys.:Condens. Matter 21 395502 (2009);
          URL http://www.quantum-espresso.org", 
     in publications or presentations arising from this work. More details at
     http://www.quantum-espresso.org/quote

     Parallel version (MPI), running on     8 processors
     R & G space division:  proc/nbgrp/npool/nimage =       8
     Reading input from /tmp/SiGe_zns.scf.in.super.444.b.07.29911/SiGe_zns.scf.in.super.444.b.07.t
Warning: card &IONS ignored
Warning: card   ION_DYNAMICS='BFGS', ignored
Warning: card / ignored
Warning: card &CELL ignored
Warning: card  CELL_DYNAMICS = 'BFGS' ignored
Warning: card / ignored
     Message from routine read_cards :
     DEPRECATED: no units specified in CELL_PARAMETERS card

     Current dimensions of program PWSCF are:
     Max number of different atomic species (ntypx) = 10
     Max number of k-points (npk) =  40000
     Max angular momentum in pseudopotentials (lmaxx) =  3
 kfg - two_fermi_energies  F

     Subspace diagonalization in iterative solution of the eigenvalue problem:
     a serial algorithm will be used


     Parallelization info
     --------------------
     sticks:   dense  smooth     PW     G-vecs:    dense   smooth      PW
     Min        1508    1055    277               109354    64053    8631
     Max        1509    1056    278               109356    64085    8635
     Sum       12067    8443   2221               874841   512561   69065



     bravais-lattice index     =            0
     lattice parameter (alat)  =    29.588285137  a.u.
     unit-cell volume          =   18316.3507 (a.u.)^3
     number of atoms/cell      =          128
     number of atomic types    =            2
     number of electrons       =      1102.00
     number of Kohn-Sham states=          661
     kinetic-energy cutoff     =      35.0000  Ry
     charge density cutoff     =     200.0000  Ry
     convergence threshold     =      1.0E-09
     mixing beta               =       0.3000
     number of iterations used =            8  local-TF  mixing
     Exchange-correlation      = SLA  PW   PSX  PSC ( 1  4 10  8 0)
     A smooth kinetic-energy cutoff is imposed at      34.5000 Ry
     height of the smooth step-function =             800.0000 Ry
     width of the smooth step-function  =               1.0000 Ry


     celldm(1)=  29.588285  celldm(2)=   0.000000  celldm(3)=   0.000000
     celldm(4)=   0.000000  celldm(5)=   0.000000  celldm(6)=   0.000000

     crystal axes: (cart. coord. in units of alat)
               a(1) = (   0.001604773594   0.707361145448   0.706850503722 )  
               a(2) = (   0.706786869196  -0.000679969244   0.707698372680 )  
               a(3) = (   0.708133433139   0.705697556373  -0.001014694553 )  

     reciprocal axes: (cart. coord. in units 2 pi/alat)
               b(1) = ( -0.706296  0.709749  0.706068 )  
               b(2) = (  0.706466 -0.707888  0.706795 )  
               b(3) = (  0.708642  0.704933 -0.707052 )  


     PseudoPot. # 1 for Si read from file:
     /users/kfg/psuedo/gbrv_1.5/si.pbesol.UPF
     MD5 check sum: ef58ba74faed4df802eb8a9742fc00a8
     Pseudo is Ultrasoft + core correction, Zval =  4.0
     Generated by new atomic code, or converted to UPF format
     Using radial grid of  899 points,  6 beta functions with: 
                l(1) =   0
                l(2) =   0
                l(3) =   1
                l(4) =   1
                l(5) =   2
                l(6) =   2
     Q(r) pseudized with  8 coefficients,  rinner =    0.900   0.900   0.900
                                                       0.900   0.900

     PseudoPot. # 2 for Ge read from file:
     /users/kfg/psuedo/gbrv_1.5/ge.pbesol.UPF
     MD5 check sum: 7bed0412183f5e553a4d27ec7023354d
     Pseudo is Ultrasoft + core correction, Zval = 14.0
     Generated by new atomic code, or converted to UPF format
     Using radial grid of  873 points,  6 beta functions with: 
                l(1) =   0
                l(2) =   0
                l(3) =   1
                l(4) =   1
                l(5) =   2
                l(6) =   2
     Q(r) pseudized with  8 coefficients,  rinner =    1.400   1.400   1.400
                                                       1.400   1.400

     atomic species   valence    mass     pseudopotential
        Si             4.00    28.08550     Si( 1.00)
        Ge            14.00    72.64000     Ge( 1.00)

     No symmetry found


                                    s                        frac. trans.

      isym =  1     identity                                     

 cryst.   s( 1) = (     1          0          0      )
                  (     0          1          0      )
                  (     0          0          1      )

 cart.    s( 1) = (  1.0000000  0.0000000  0.0000000 )
                  (  0.0000000  1.0000000  0.0000000 )
                  (  0.0000000 -0.0000000  1.0000000 )


     point group C_1 (1)    
     there are  1 classes
     the character table:

       E    
A      1.00

     the symmetry operations in each class:
     E        1

   Cartesian axes

     site n.     atom                  positions (alat units)
         1           Si  tau(   1) = (   -0.00113819864    0.00148001730    0.00073943192  )
         2           Ge  tau(   2) = (    0.08787345149    0.08782406702    0.08898616586  )
         3           Si  tau(   3) = (    0.17840237298    0.17766381064    0.00030476945  )
         4           Si  tau(   4) = (    0.26581582512    0.26548876595    0.08834452373  )
         5           Si  tau(   5) = (    0.35395028841    0.35127204173    0.00012001018  )
         6           Si  tau(   6) = (    0.44098573564    0.44096327413    0.08831162451  )
         7           Si  tau(   7) = (    0.53041335699    0.52888732411   -0.00222978807  )
         8           Si  tau(   8) = (    0.61954959201    0.61813292081    0.08622826826  )
         9           Ge  tau(   9) = (    0.17610592854   -0.00137431659    0.17842800036  )
        10           Ge  tau(  10) = (    0.26524412786    0.08933605162    0.26636342678  )
        11           Si  tau(  11) = (    0.35315668244    0.17736694197    0.17519263929  )
        12           Ge  tau(  12) = (    0.44195058939    0.26557983854    0.26589473360  )
        13           Si  tau(  13) = (    0.52948189146    0.35240348773    0.17577640221  )
        14           Si  tau(  14) = (    0.61791611508    0.44142798756    0.26468812695  )
        15           Si  tau(  15) = (    0.70647080904    0.52757335771    0.17481159102  )
        16           Ge  tau(  16) = (    0.79513243719    0.61677236072    0.26396109695  )
        17           Si  tau(  17) = (    0.35279897284   -0.00157819495    0.35479818907  )
        18           Ge  tau(  18) = (    0.44152067778    0.08662111605    0.44384655279  )
        19           Ge  tau(  19) = (    0.52884643711    0.17550446685    0.35513264404  )
        20           Si  tau(  20) = (    0.61983765111    0.26307443479    0.44213899221  )
        21           Ge  tau(  21) = (    0.70620216097    0.35159336946    0.35356734950  )
        22           Ge  tau(  22) = (    0.79639099033    0.44128659983    0.44069645527  )
        23           Si  tau(  23) = (    0.88590234639    0.52965637136    0.35178683194  )
        24           Ge  tau(  24) = (    0.97246174687    0.61737747577    0.44113364546  )
        25           Ge  tau(  25) = (    0.52884196422   -0.00187971872    0.52929232788  )
        26           Si  tau(  26) = (    0.61827170774    0.08773665687    0.61868185582  )
        27           Si  tau(  27) = (    0.70640780286    0.17669887708    0.53174495604  )
        28           Si  tau(  28) = (    0.79713903421    0.26527104137    0.61724402042  )
        29           Si  tau(  29) = (    0.88438047447    0.35297951750    0.52863680027  )
        30           Si  tau(  30) = (    0.97180044386    0.44129634334    0.61767400190  )
        31           Ge  tau(  31) = (    1.06038350670    0.52735482025    0.52911128780  )
        32           Si  tau(  32) = (    1.14985981647    0.61655520138    0.61782885046  )
        33           Ge  tau(  33) = (    0.00071325407    0.17520414970    0.17595344487  )
        34           Ge  tau(  34) = (    0.08998383308    0.26502319843    0.26513641211  )
        35           Si  tau(  35) = (    0.17764170834    0.35173574469    0.17500889313  )
        36           Ge  tau(  36) = (    0.26692257784    0.44161155196    0.26393337409  )
        37           Ge  tau(  37) = (    0.35427507412    0.52922944258    0.17737318721  )
        38           Ge  tau(  38) = (    0.44357583314    0.61730973968    0.26326777161  )
        39           Si  tau(  39) = (    0.53185209626    0.70603732912    0.17594761185  )
        40           Ge  tau(  40) = (    0.61969991487    0.79484508041    0.26263173714  )
        41           Ge  tau(  41) = (    0.17800743734    0.17787840098    0.35208260413  )
        42           Si  tau(  42) = (    0.26694322862    0.26625475193    0.44133320190  )
        43           Si  tau(  43) = (    0.35444671369    0.35374592456    0.35169198207  )
        44           Ge  tau(  44) = (    0.44384354080    0.44072158686    0.44179686846  )
        45           Ge  tau(  45) = (    0.53128136549    0.52812024942    0.35441355221  )
        46           Si  tau(  46) = (    0.62072889582    0.61684999856    0.44052877023  )
        47           Si  tau(  47) = (    0.70722547250    0.70498860497    0.35239718976  )
        48           Si  tau(  48) = (    0.79808268754    0.79388244669    0.44048910386  )
        49           Ge  tau(  49) = (    0.35508623210    0.17565029539    0.53164433508  )
        50           Ge  tau(  50) = (    0.44093773788    0.26518662683    0.61954314065  )
        51           Ge  tau(  51) = (    0.52942576998    0.35340245534    0.53069573701  )
        52           Ge  tau(  52) = (    0.61976088646    0.44035959375    0.61698038493  )
        53           Ge  tau(  53) = (    0.70695992632    0.52916867440    0.52948542957  )
        54           Ge  tau(  54) = (    0.79615019058    0.61832137445    0.61676884916  )
        55           Si  tau(  55) = (    0.88383958259    0.70570763685    0.53064259572  )
        56           Si  tau(  56) = (    0.97369035910    0.79376568798    0.61956468777  )
        57           Si  tau(  57) = (    0.53082557243    0.17638710528    0.70669658897  )
        58           Si  tau(  58) = (    0.61797858913    0.26460900246    0.79621551894  )
        59           Si  tau(  59) = (    0.70809049719    0.35224012909    0.70685869086  )
        60           Si  tau(  60) = (    0.79455866141    0.44094783980    0.79457943169  )
        61           Si  tau(  61) = (    0.88466416315    0.52759700977    0.70544451058  )
        62           Ge  tau(  62) = (    0.97225517839    0.61887126505    0.79578272255  )
        63           Ge  tau(  63) = (    1.06116270161    0.70492527885    0.70558389181  )
        64           Si  tau(  64) = (    1.15073193993    0.79439470178    0.79441947792  )
        65           Ge  tau(  65) = (   -0.00083337067    0.35278486603    0.35180650223  )
        66           Ge  tau(  66) = (    0.08939710417    0.44107026818    0.44145485229  )
        67           Ge  tau(  67) = (    0.17836260329    0.53071581461    0.35297162563  )
        68           Si  tau(  68) = (    0.26748906650    0.61812452350    0.44295493431  )
        69           Si  tau(  69) = (    0.35342089457    0.70661839733    0.35193740268  )
        70           Si  tau(  70) = (    0.44454344935    0.79561679513    0.44020143336  )
        71           Si  tau(  71) = (    0.53282621776    0.88173494832    0.35138250505  )
        72           Ge  tau(  72) = (    0.61904631565    0.97012943695    0.44216924747  )
        73           Ge  tau(  73) = (    0.17761663318    0.35388016193    0.53003123355  )
        74           Si  tau(  74) = (    0.26517873947    0.44058329476    0.61966688377  )
        75           Si  tau(  75) = (    0.35435380902    0.52837912325    0.53081198258  )
        76           Si  tau(  76) = (    0.44177082283    0.61818868459    0.61685455427  )
        77           Ge  tau(  77) = (    0.53193526030    0.70623864667    0.52989978964  )
        78           Si  tau(  78) = (    0.61843864611    0.79565363966    0.61834987516  )
        79           Ge  tau(  79) = (    0.70949163861    0.88356027533    0.52827990529  )
        80           Si  tau(  80) = (    0.79840556152    0.96988990850    0.61648646556  )
        81           Ge  tau(  81) = (    0.35362605334    0.35228756623    0.70641106805  )
        82           Ge  tau(  82) = (    0.44227836556    0.44222954545    0.79679760947  )
        83           Ge  tau(  83) = (    0.52968653353    0.52929443754    0.70535487382  )
        84           Si  tau(  84) = (    0.62119549566    0.61773589031    0.79428431430  )
        85           Ge  tau(  85) = (    0.70697511229    0.70709348707    0.70730034781  )
        86           Si  tau(  86) = (    0.79684846516    0.79484166632    0.79668258798  )
        87           Ge  tau(  87) = (    0.88505952052    0.88270421396    0.70504406192  )
        88           Ge  tau(  88) = (    0.97266090698    0.97126806190    0.79498858797  )
        89           Ge  tau(  89) = (    0.53103575593    0.35293109477    0.88471476362  )
        90           Si  tau(  90) = (    0.61863731239    0.44131441185    0.97192219461  )
        91           Ge  tau(  91) = (    0.70797722878    0.52895045191    0.88441891510  )
        92           Ge  tau(  92) = (    0.79482877035    0.61675594477    0.97165419222  )
        93           Si  tau(  93) = (    0.88485791758    0.70689478278    0.88428585800  )
        94           Ge  tau(  94) = (    0.97325007036    0.79543764534    0.97140077415  )
        95           Ge  tau(  95) = (    1.06108009985    0.88388601535    0.88401959930  )
        96           Si  tau(  96) = (    1.15110376206    0.97076606523    0.97312592381  )
        97           Ge  tau(  97) = (    0.00001671969    0.53189170825    0.53117797373  )
        98           Ge  tau(  98) = (    0.09068009951    0.61768627289    0.61712516698  )
        99           Si  tau(  99) = (    0.17942283129    0.70856125254    0.53095817727  )
       100           Si  tau( 100) = (    0.26682415062    0.79592275961    0.61657293400  )
       101           Ge  tau( 101) = (    0.35631241905    0.88174812769    0.53123126914  )
       102           Si  tau( 102) = (    0.44220584947    0.97012801668    0.61933371515  )
       103           Si  tau( 103) = (    0.53109934479    1.05865088553    0.52957921099  )
       104           Ge  tau( 104) = (    0.62158140970    1.14664993087    0.61837276748  )
       105           Si  tau( 105) = (    0.17805570010    0.53098333894    0.70588385702  )
       106           Si  tau( 106) = (    0.26638872092    0.61864487225    0.79701488319  )
       107           Si  tau( 107) = (    0.35631543944    0.70559855082    0.70647586929  )
       108           Si  tau( 108) = (    0.44292884725    0.79612471998    0.79447000158  )
       109           Si  tau( 109) = (    0.53072483509    0.88193121673    0.70603209855  )
       110           Ge  tau( 110) = (    0.62174202103    0.97224311290    0.79544046152  )
       111           Ge  tau( 111) = (    0.70814143708    1.06036159345    0.70508097315  )
       112           Si  tau( 112) = (    0.79611087214    1.14675694041    0.79611971229  )
       113           Si  tau( 113) = (    0.35601494907    0.52851001038    0.88546747049  )
       114           Ge  tau( 114) = (    0.44339178374    0.61918633927    0.97205728104  )
       115           Si  tau( 115) = (    0.53114042803    0.70656090482    0.88367874875  )
       116           Si  tau( 116) = (    0.62126126160    0.79531689926    0.97375218825  )
       117           Si  tau( 117) = (    0.70838210272    0.88308513633    0.88469257545  )
       118           Si  tau( 118) = (    0.79814712829    0.97132413330    0.97068265547  )
       119           Si  tau( 119) = (    0.88672952561    1.05790742724    0.88250612140  )
       120           Ge  tau( 120) = (    0.97516985814    1.14903388775    0.97031114128  )
       121           Ge  tau( 121) = (    0.53278991239    0.53072325529    1.06160656786  )
       122           Si  tau( 122) = (    0.62059294444    0.61944329775    1.15049076869  )
       123           Ge  tau( 123) = (    0.70705176482    0.70536731222    1.06126100492  )
       124           Ge  tau( 124) = (    0.79555154897    0.79578931696    1.14852645572  )
       125           Si  tau( 125) = (    0.88402039930    0.88279948650    1.05933097693  )
       126           Si  tau( 126) = (    0.97224614934    0.97242978679    1.14767202449  )
       127           Si  tau( 127) = (    1.06279639157    1.05831996710    1.06027897277  )
       128           Ge  tau( 128) = (    1.15089022202    1.14599402609    1.14782965856  )

   Crystallographic axes

     site n.     atom                  positions (cryst. coord.)
         1           Si  tau(   1) = (    0.00237643504   -0.00132915760   -0.00028607765  )
         2           Ge  tau(   2) = (    0.06309868238    0.06280499643    0.06126309473  )
         3           Si  tau(   3) = (    0.00030704767    0.00048449537    0.25144900232  )
         4           Si  tau(   4) = (    0.06306302512    0.06229496984    0.31305591033  )
         5           Si  tau(   5) = (   -0.00059389733    0.00147731363    0.49836242592  )
         6           Si  tau(   6) = (    0.06386087526    0.06180695953    0.56090969214  )
         7           Si  tau(   7) = (   -0.00082587544   -0.00125012680    0.75027986348  )
         8           Si  tau(   8) = (    0.06201695618    0.06106743372    0.81381330350  )
         9           Ge  tau(   9) = (    0.00062401150    0.25149775600   -0.00233061221  )
        10           Ge  tau(  10) = (    0.06413606357    0.31241041771    0.06260631244  )
        11           Si  tau(  11) = (    0.00015084655    0.24776251834    0.25142316036  )
        12           Ge  tau(  12) = (    0.06408694874    0.31215534763    0.31239937720  )
        13           Si  tau(  13) = (    0.00025727621    0.24883656910    0.49935088844  )
        14           Si  tau(  14) = (    0.06375933305    0.31113534524    0.56191022851  )
        15           Si  tau(  15) = (   -0.00110384072    0.24919060345    0.74893785435  )
        16           Ge  tau(  16) = (    0.06252934442    0.31169456706    0.81161323229  )
        17           Si  tau(  17) = (    0.00021110784    0.50112729814   -0.00196510995  )
        18           Ge  tau(  18) = (    0.06302091731    0.56430988699    0.06011963735  )
        19           Ge  tau(  19) = (    0.00178990792    0.50038050114    0.24738444580  )
        20           Si  tau(  20) = (    0.06110829499    0.56416863738    0.31207762672  )
        21           Ge  tau(  21) = (    0.00039801761    0.49991868052    0.49830377535  )
        22           Ge  tau(  22) = (    0.06187678422    0.56172369217    0.56383831588  )
        23           Si  tau(  23) = (   -0.00140060323    0.49956358182    0.75242827008  )
        24           Ge  tau(  24) = (    0.06280775209    0.56176803641    0.81243259541  )
        25           Ge  tau(  25) = (   -0.00113658882    0.74904073867   -0.00080263178  )
        26           Si  tau(  26) = (    0.06241978130    0.81196154287    0.06254157656  )
        27           Si  tau(  27) = (    0.00192710190    0.74980478258    0.24917978343  )
        28           Si  tau(  28) = (    0.06107617652    0.81163446598    0.31546093883  )
        29           Si  tau(  29) = (   -0.00085381538    0.74855259822    0.50176235254  )
        30           Si  tau(  30) = (    0.06295092932    0.81072447892    0.56301536825  )
        31           Ge  tau(  31) = (   -0.00106630601    0.74978989273    0.74907290381  )
        32           Si  tau(  32) = (    0.06168746966    0.81256312985    0.81263197661  )
        33           Ge  tau(  33) = (    0.24808231297    0.00084207588   -0.00039544813  )
        34           Ge  tau(  34) = (    0.31174910145    0.06336096977    0.06312488975  )
        35           Si  tau(  35) = (    0.24774468854    0.00020376554    0.25009427195  )
        36           Ge  tau(  36) = (    0.31126198430    0.06250705369    0.31384467622  )
        37           Ge  tau(  37) = (    0.25063460587    0.00101460138    0.49871357411  )
        38           Ge  tau(  38) = (    0.31072417895    0.06246144374    0.56335465075  )
        39           Si  tau(  39) = (    0.24969536289    0.00029891322    0.75019777196  )
        40           Ge  tau(  40) = (    0.31188492123    0.06076239089    0.81376379534  )
        41           Ge  tau(  41) = (    0.24911739381    0.24868855026    0.00259535618  )
        42           Si  tau(  42) = (    0.31204443992    0.31203999743    0.06481362543  )
        43           Si  tau(  43) = (    0.24904506175    0.24856625562    0.25187864152  )
        44           Ge  tau(  44) = (    0.31125552871    0.31383874671    0.31283220162  )
        45           Ge  tau(  45) = (    0.24983110093    0.25197998080    0.49818902045  )
        46           Si  tau(  46) = (    0.31043374033    0.31322671564    0.56323592644  )
        47           Si  tau(  47) = (    0.24967096100    0.24965032324    0.74897641033  )
        48           Si  tau(  48) = (    0.31079009252    0.31317391256    0.81374032586  )
        49           Ge  tau(  49) = (    0.24924878904    0.50227930543   -0.00044931295  )
        50           Ge  tau(  50) = (    0.31422309083    0.56167523393    0.06135679919  )
        51           Ge  tau(  51) = (    0.25160314325    0.49894513131    0.24906907143  )
        52           Ge  tau(  52) = (    0.31044040460    0.56219347737    0.31337558963  )
        53           Ge  tau(  53) = (    0.25010684756    0.49908869419    0.49963638106  )
        54           Ge  tau(  54) = (    0.31201621174    0.56067995706    0.56397315116  )
        55           Si  tau(  55) = (    0.25129287392    0.49989617902    0.74861069160  )
        56           Si  tau(  56) = (    0.31311580938    0.56388716613    0.81148524769  )
        57           Si  tau(  57) = (    0.24924658336    0.74963767623    0.00083532546  )
        58           Si  tau(  58) = (    0.31351263313    0.81202864625    0.06149164227  )
        59           Si  tau(  59) = (    0.24897106882    0.75049960085    0.25030267388  )
        60           Si  tau(  60) = (    0.31279598875    0.81079189267    0.31208755432  )
        61           Si  tau(  61) = (    0.24771868787    0.75011027953    0.50004493243  )
        62           Ge  tau(  62) = (    0.31442025806    0.81122901777    0.56258406785  )
        63           Ge  tau(  63) = (    0.24901548030    0.74937041130    0.75002520206  )
        64           Si  tau(  64) = (    0.31197790566    0.81210226625    0.81375633578  )
        65           Ge  tau(  65) = (    0.49937665431   -0.00166567142   -0.00064603990  )
        66           Ge  tau(  66) = (    0.56160556019    0.06294593635    0.06214435170  )
        67           Ge  tau(  67) = (    0.49992025426   -0.00020153366    0.25094534094  )
        68           Si  tau(  68) = (    0.56254319037    0.06448747558    0.31209854066  )
        69           Si  tau(  69) = (    0.50039376336   -0.00177915899    0.49972977624  )
        70           Si  tau(  70) = (    0.56152122110    0.06197952099    0.56463373232  )
        71           Si  tau(  71) = (    0.49757753298    0.00060945193    0.75070169120  )
        72           Ge  tau(  72) = (    0.56352015791    0.06311525548    0.80992215976  )
        73           Ge  tau(  73) = (    0.49995433841    0.24959621482    0.00056909108  )
        74           Si  tau(  74) = (    0.56293592086    0.31343380493    0.06036215080  )
        75           Si  tau(  75) = (    0.49952733322    0.25148108443    0.24827051541  )
        76           Si  tau(  76) = (    0.56227922037    0.31047759686    0.31269107344  )
        77           Ge  tau(  77) = (    0.49969384312    0.25038694060    0.50013619808  )
        78           Si  tau(  78) = (    0.56451084609    0.31071893616    0.56192894064  )
        79           Ge  tau(  79) = (    0.49899661337    0.24915565972    0.75210530731  )
        80           Si  tau(  80) = (    0.55974928756    0.31320258355    0.81360346826  )
        81           Ge  tau(  81) = (    0.49904544547    0.49973267383   -0.00053562445  )
        82           Ge  tau(  82) = (    0.56408596832    0.56257844317    0.06178225278  )
        83           Ge  tau(  83) = (    0.49957936723    0.49806581879    0.24975298829  )
        84           Si  tau(  84) = (    0.56050844052    0.56296204558    0.31406768051  )
        85           Ge  tau(  85) = (    0.50192751788    0.49882736526    0.49934798155  )
        86           Si  tau(  86) = (    0.56383947239    0.56337888696    0.56169474871  )
        87           Ge  tau(  87) = (    0.49919368916    0.49873044045    0.75093517155  )
        88           Ge  tau(  88) = (    0.56368625624    0.56149691488    0.81184935596  )
        89           Ge  tau(  89) = (    0.50009300273    0.75063523515   -0.00043199186  )
        90           Si  tau(  90) = (    0.56252474269    0.81159505900    0.06229031800  )
        91           Ge  tau(  91) = (    0.49984065167    0.75082722947    0.24924719356  )
        92           Ge  tau(  92) = (    0.56241167512    0.81168590984    0.31101099546  )
        93           Si  tau(  93) = (    0.50111242214    0.74972867647    0.50012518127  )
        94           Ge  tau(  94) = (    0.56303368268    0.81106870010    0.56358562222  )
        95           Ge  tau(  95) = (    0.50207878306    0.74874545171    0.74995883344  )
        96           Si  tau(  96) = (    0.56307360552    0.81382268419    0.81199522923  )
        97           Ge  tau(  97) = (    0.75254561201   -0.00107374877   -0.00061010269  )
        98           Ge  tau(  98) = (    0.81008762077    0.06299096462    0.06334809730  )
        99           Si  tau(  99) = (    0.75106766446    0.00045292188    0.25122019407  )
       100           Si  tau( 100) = (    0.81179106599    0.06086891715    0.31420640230  )
       101           Ge  tau( 101) = (    0.74924331900    0.00301546550    0.49846363019  )
       102           Si  tau( 102) = (    0.81351100972    0.06340357613    0.55934025267  )
       103           Si  tau( 103) = (    0.75018213203    0.00010143470    0.74819766277  )
       104           Ge  tau( 104) = (    0.81142655697    0.06448932655    0.81156886215  )
       105           Si  tau( 105) = (    0.74950695460    0.24882902822    0.00138931628  )
       106           Si  tau( 106) = (    0.81368010433    0.31358972776    0.06134697875  )
       107           Si  tau( 107) = (    0.74795381686    0.25157384606    0.25038508787  )
       108           Si  tau( 108) = (    0.81315983391    0.31087471451    0.31336148422  )
       109           Si  tau( 109) = (    0.74960778881    0.24965067644    0.49859538865  )
       110           Ge  tau( 110) = (    0.81254989880    0.31321391613    0.56354150301  )
       111           Ge  tau( 111) = (    0.75026840467    0.24800845479    0.75077419309  )
       112           Si  tau( 112) = (    0.81373451808    0.31334338347    0.80964687821  )
       113           Si  tau( 113) = (    0.74885789248    0.50323085093   -0.00121976435  )
       114           Ge  tau( 114) = (    0.81263973328    0.56197218981    0.06339640842  )
       115           Si  tau( 115) = (    0.75027598179    0.49964665111    0.24966016916  )
       116           Si  tau( 116) = (    0.81321647132    0.56414812574    0.31240404050  )
       117           Si  tau( 117) = (    0.75109465337    0.50061900572    0.49898198504  )
       118           Si  tau( 118) = (    0.81103638039    0.56234899063    0.56399641276  )
       119           Si  tau( 119) = (    0.74766477286    0.50131537290    0.75015038857  )
       120           Ge  tau( 120) = (    0.81187297054    0.56134829819    0.81497829734  )
       121           Ge  tau( 121) = (    0.74993951437    0.75104387931    0.00107109359  )
       122           Si  tau( 122) = (    0.81365185713    0.81309280818    0.06298798373  )
       123           Ge  tau( 123) = (    0.75056854834    0.75028123424    0.24791704423  )
       124           Ge  tau( 124) = (    0.81385379629    0.81047347085    0.31267199160  )
       125           Si  tau( 125) = (    0.75014591672    0.74833727050    0.49976686860  )
       126           Si  tau( 126) = (    0.81382224693    0.80965657633    0.56300902276  )
       127           Si  tau( 127) = (    0.74912201391    0.75105758206    0.74951493391  )
       128           Ge  tau( 128) = (    0.81094502884    0.81310986677    0.81184341100  )

     number of k points=     8  gaussian smearing, width (Ry)=  0.0150
                       cart. coord. in units 2pi/alat
        k(    1) = (   0.0000000   0.0000000   0.0000000), wk =   0.2500000
        k(    2) = (  -0.3543208  -0.3524667   0.3535258), wk =   0.2500000
        k(    3) = (  -0.3532328   0.3539440  -0.3533977), wk =   0.2500000
        k(    4) = (  -0.7075536   0.0014773   0.0001280), wk =   0.2500000
        k(    5) = (   0.3531479  -0.3548745  -0.3530340), wk =   0.2500000
        k(    6) = (  -0.0011729  -0.7073412   0.0004917), wk =   0.2500000
        k(    7) = (  -0.0000849  -0.0009305  -0.7064318), wk =   0.2500000
        k(    8) = (  -0.3544057  -0.3533972  -0.3529060), wk =   0.2500000

                       cryst. coord.
        k(    1) = (   0.0000000   0.0000000   0.0000000), wk =   0.2500000
        k(    2) = (   0.0000000  -0.0000000  -0.5000000), wk =   0.2500000
        k(    3) = (   0.0000000  -0.5000000  -0.0000000), wk =   0.2500000
        k(    4) = (  -0.0000000  -0.5000000  -0.5000000), wk =   0.2500000
        k(    5) = (  -0.5000000  -0.0000000  -0.0000000), wk =   0.2500000
        k(    6) = (  -0.5000000  -0.0000000  -0.5000000), wk =   0.2500000
        k(    7) = (  -0.5000000  -0.5000000   0.0000000), wk =   0.2500000
        k(    8) = (  -0.5000000  -0.5000000  -0.5000000), wk =   0.2500000

     Dense  grid:   874841 G-vectors     FFT dimensions: ( 135, 135, 135)

     Smooth grid:   512561 G-vectors     FFT dimensions: ( 120, 120, 120)

     Largest allocated arrays     est. size (Mb)     dimensions
        Kohn-Sham Wavefunctions        81.02 Mb     (    8033,  661)
        NL pseudopotentials           282.41 Mb     (    8033, 2304)
        Each V/rho on FFT grid          4.73 Mb     (  309825)
        Each G-vector array             0.83 Mb     (  109355)
        G-vector shells                 0.82 Mb     (  107902)
     Largest temporary arrays     est. size (Mb)     dimensions
        Auxiliary wavefunctions       324.09 Mb     (    8033, 2644)
        Each subspace H/S matrix      106.67 Mb     (    2644, 2644)
        Each <psi_i|beta_j> matrix     23.24 Mb     (    2304,  661)
        Arrays for rho mixing          37.82 Mb     (  309825,    8)

     Check: negative/imaginary core charge=   -0.000001    0.000000

     Initial potential from superposition of free atoms

     starting charge 1101.90760, renormalised to 1102.00000
     Starting wfc are  807 randomized atomic wfcs

     total cpu time spent up to now is     1456.0 secs

     per-process dynamical memory:  1151.0 Mb

     Self-consistent Calculation

     iteration #  1     ecut=    35.00 Ry     beta=0.30
     Davidson diagonalization with overlap
     ethr =  1.00E-02,  avg # of iterations =  3.0

     Threshold (ethr) on eigenvalues was too large:
     Diagonalizing with lowered threshold

     Davidson diagonalization with overlap
     ethr =  2.59E-04,  avg # of iterations =  4.4

     total cpu time spent up to now is     9944.4 secs

     total energy              =  -13237.90017962 Ry
     Harris-Foulkes estimate   =  -13238.19673621 Ry
     estimated scf accuracy    <       2.85810836 Ry

     iteration #  2     ecut=    35.00 Ry     beta=0.30
     Davidson diagonalization with overlap
     ethr =  2.59E-04,  avg # of iterations =  1.0

     total cpu time spent up to now is    13156.3 secs

     total energy              =  -13237.33465162 Ry
     Harris-Foulkes estimate   =  -13237.91490828 Ry
     estimated scf accuracy    <       1.76560477 Ry

     iteration #  3     ecut=    35.00 Ry     beta=0.30
     Davidson diagonalization with overlap
     ethr =  1.60E-04,  avg # of iterations =  2.0

     total cpu time spent up to now is    16760.1 secs

     total energy              =  -13237.44401379 Ry
     Harris-Foulkes estimate   =  -13237.44272837 Ry
     estimated scf accuracy    <       0.02511199 Ry

     iteration #  4     ecut=    35.00 Ry     beta=0.30
     Davidson diagonalization with overlap
     ethr =  2.28E-06,  avg # of iterations =  9.8

     total cpu time spent up to now is    25703.5 secs

     total energy              =  -13237.44866352 Ry
     Harris-Foulkes estimate   =  -13237.44934963 Ry
     estimated scf accuracy    <       0.01134228 Ry

     iteration #  5     ecut=    35.00 Ry     beta=0.30
     Davidson diagonalization with overlap
     ethr =  1.03E-06,  avg # of iterations =  2.0

     total cpu time spent up to now is    29676.1 secs

     total energy              =  -13237.44958537 Ry
     Harris-Foulkes estimate   =  -13237.44971847 Ry
     estimated scf accuracy    <       0.00071774 Ry

     iteration #  6     ecut=    35.00 Ry     beta=0.30
     Davidson diagonalization with overlap
     ethr =  6.51E-08,  avg # of iterations =  2.0

     total cpu time spent up to now is    33050.6 secs

     total energy              =  -13237.44954164 Ry
     Harris-Foulkes estimate   =  -13237.44962027 Ry
     estimated scf accuracy    <       0.00025242 Ry

     iteration #  7     ecut=    35.00 Ry     beta=0.30
     Davidson diagonalization with overlap
     ethr =  2.29E-08,  avg # of iterations =  2.0

     total cpu time spent up to now is    36827.5 secs

     total energy              =  -13237.44957578 Ry
     Harris-Foulkes estimate   =  -13237.44957064 Ry
     estimated scf accuracy    <       0.00005346 Ry

     iteration #  8     ecut=    35.00 Ry     beta=0.30
     Davidson diagonalization with overlap
     ethr =  4.85E-09,  avg # of iterations =  2.0

     total cpu time spent up to now is    40207.4 secs

     total energy              =  -13237.44957119 Ry
     Harris-Foulkes estimate   =  -13237.44957877 Ry
     estimated scf accuracy    <       0.00003420 Ry

     iteration #  9     ecut=    35.00 Ry     beta=0.30
     Davidson diagonalization with overlap
     ethr =  3.10E-09,  avg # of iterations =  2.4

     total cpu time spent up to now is    44561.0 secs

     total energy              =  -13237.44957552 Ry
     Harris-Foulkes estimate   =  -13237.44957728 Ry
     estimated scf accuracy    <       0.00000748 Ry

     iteration # 10     ecut=    35.00 Ry     beta=0.30
     Davidson diagonalization with overlap
     ethr =  6.78E-10,  avg # of iterations =  2.0

     total cpu time spent up to now is    48068.4 secs

     total energy              =  -13237.44957514 Ry
     Harris-Foulkes estimate   =  -13237.44957608 Ry
     estimated scf accuracy    <       0.00000328 Ry

     iteration # 11     ecut=    35.00 Ry     beta=0.30
     Davidson diagonalization with overlap
     ethr =  2.97E-10,  avg # of iterations =  2.4

     total cpu time spent up to now is    51867.0 secs

     total energy              =  -13237.44957572 Ry
     Harris-Foulkes estimate   =  -13237.44957560 Ry
     estimated scf accuracy    <       0.00000022 Ry

     iteration # 12     ecut=    35.00 Ry     beta=0.30
     Davidson diagonalization with overlap
     ethr =  2.01E-11,  avg # of iterations =  2.9

     total cpu time spent up to now is    55788.1 secs

     total energy              =  -13237.44957580 Ry
     Harris-Foulkes estimate   =  -13237.44957574 Ry
     estimated scf accuracy    <       0.00000007 Ry

     iteration # 13     ecut=    35.00 Ry     beta=0.30
     Davidson diagonalization with overlap
     ethr =  6.41E-12,  avg # of iterations =  2.0

     total cpu time spent up to now is    59548.0 secs

     total energy              =  -13237.44957585 Ry
     Harris-Foulkes estimate   =  -13237.44957581 Ry
     estimated scf accuracy    <          4.0E-09 Ry

     iteration # 14     ecut=    35.00 Ry     beta=0.30
     Davidson diagonalization with overlap
     ethr =  3.64E-13,  avg # of iterations =  3.0

     total cpu time spent up to now is    64193.3 secs

     total energy              =  -13237.44957586 Ry
     Harris-Foulkes estimate   =  -13237.44957585 Ry
     estimated scf accuracy    <          1.9E-09 Ry

     iteration # 15     ecut=    35.00 Ry     beta=0.30
     Davidson diagonalization with overlap
     ethr =  1.76E-13,  avg # of iterations =  2.4

     total cpu time spent up to now is    67991.3 secs

     End of self-consistent calculation

          k = 0.0000 0.0000 0.0000 ( 64059 PWs)   bands (ev):

   -17.4628 -17.4534 -17.4377 -17.4357 -17.4347 -17.4327 -17.4292 -17.4247
   -17.4219 -17.4217 -17.4194 -17.4146 -17.4140 -17.4109 -17.4051 -17.4033
   -17.3989 -17.3956 -17.3915 -17.3885 -17.3884 -17.3866 -17.3840 -17.3826
   -17.3752 -17.3735 -17.3730 -17.3687 -17.3657 -17.3601 -17.3582 -17.3580
   -17.3559 -17.3526 -17.3500 -17.3479 -17.3445 -17.3441 -17.3360 -17.3357
   -17.3335 -17.3319 -17.3317 -17.3298 -17.3280 -17.3260 -17.3234 -17.3228
   -17.3216 -17.3211 -17.3188 -17.3171 -17.3170 -17.3099 -17.3076 -17.3047
   -17.3033 -17.2995 -17.2993 -17.2965 -17.2933 -17.2932 -17.2924 -17.2904
   -17.2878 -17.2853 -17.2830 -17.2812 -17.2810 -17.2729 -17.2706 -17.2701
   -17.2691 -17.2683 -17.2681 -17.2670 -17.2638 -17.2593 -17.2580 -17.2564
   -17.2536 -17.2527 -17.2519 -17.2508 -17.2505 -17.2491 -17.2475 -17.2467
   -17.2462 -17.2452 -17.2415 -17.2415 -17.2385 -17.2384 -17.2369 -17.2364
   -17.2364 -17.2355 -17.2334 -17.2308 -17.2301 -17.2288 -17.2261 -17.2243
   -17.2228 -17.2208 -17.2192 -17.2183 -17.2162 -17.2148 -17.2118 -17.2113
   -17.2087 -17.2081 -17.2079 -17.2074 -17.2054 -17.2046 -17.2026 -17.2017
   -17.2005 -17.1986 -17.1970 -17.1963 -17.1956 -17.1936 -17.1931 -17.1924
   -17.1921 -17.1907 -17.1901 -17.1870 -17.1847 -17.1841 -17.1831 -17.1825
   -17.1820 -17.1809 -17.1799 -17.1789 -17.1779 -17.1766 -17.1763 -17.1757
   -17.1748 -17.1746 -17.1743 -17.1732 -17.1722 -17.1714 -17.1708 -17.1703
   -17.1699 -17.1696 -17.1680 -17.1677 -17.1673 -17.1672 -17.1663 -17.1655
   -17.1643 -17.1634 -17.1632 -17.1622 -17.1617 -17.1602 -17.1597 -17.1590
   -17.1588 -17.1576 -17.1572 -17.1555 -17.1540 -17.1531 -17.1528 -17.1516
   -17.1510 -17.1508 -17.1496 -17.1491 -17.1490 -17.1484 -17.1481 -17.1474
   -17.1468 -17.1458 -17.1454 -17.1446 -17.1442 -17.1432 -17.1431 -17.1428
   -17.1421 -17.1417 -17.1413 -17.1404 -17.1398 -17.1391 -17.1382 -17.1380
   -17.1376 -17.1355 -17.1339 -17.1332 -17.1319 -17.1309 -17.1302 -17.1297
   -17.1283 -17.1282 -17.1277 -17.1274 -17.1270 -17.1265 -17.1258 -17.1256
   -17.1246 -17.1234 -17.1234 -17.1224 -17.1220 -17.1211 -17.1204 -17.1202
   -17.1199 -17.1195 -17.1188 -17.1181 -17.1172 -17.1170 -17.1166 -17.1155
   -17.1148 -17.1144 -17.1139 -17.1123 -17.1110 -17.1109 -17.1090 -17.1078
   -17.1067 -17.1057 -17.1055 -17.1051 -17.1034 -17.1011 -17.0999 -17.0976
   -17.0973 -17.0970 -17.0967 -17.0965 -17.0957 -17.0924 -17.0896 -17.0887
   -17.0874 -17.0864 -17.0849 -17.0832 -17.0830 -17.0829 -17.0818 -17.0798
   -17.0775 -17.0766 -17.0743 -17.0722 -17.0709 -17.0696 -17.0680 -17.0663
   -17.0649 -17.0611 -17.0600 -17.0599 -17.0560 -17.0554 -17.0546 -17.0539
   -17.0534 -17.0523 -17.0485 -17.0480 -17.0458 -17.0441 -17.0428 -17.0409
   -17.0373 -17.0343 -17.0320 -17.0319 -17.0283 -17.0195 -17.0182  -5.2588
    -4.7061  -4.6023  -4.5830  -4.5424  -4.5036  -4.4467  -4.4150  -4.3408
    -4.2348  -4.1867  -4.1455  -4.0686  -4.0143  -3.9777  -3.5166  -3.4907
    -3.4202  -3.3732  -3.3256  -3.2926  -3.2615  -3.2247  -3.2113  -3.1746
    -3.1191  -3.0663  -3.0268  -3.0193  -2.9666  -2.9028  -2.8525  -2.8369
    -2.7546  -2.7362  -2.7271  -2.6911  -2.6386  -2.5780  -2.5376  -2.5211
    -2.4804  -2.4635  -2.4243  -2.4062  -2.3700  -2.3495  -2.3332  -2.3192
    -2.3017  -2.2577  -2.2028  -2.1796  -2.1648  -2.1133  -1.3209  -1.2499
    -1.2199  -1.1838  -1.1650  -1.1202  -1.0387  -1.0154  -0.9710  -0.9517
    -0.9408  -0.9186  -0.8901  -0.8398  -0.8237  -0.8062  -0.7664  -0.7063
    -0.1229  -0.1023  -0.0503  -0.0190   0.0892   0.1516   0.1895   0.2224
     0.2398   0.2467   0.2947   0.3162   0.3274   0.3606   0.3917   0.4168
     0.4257   0.4518   0.4529   0.4890   0.5058   0.5181   0.5383   0.5786
     0.6352   0.6393   0.6590   0.6821   1.1323   1.1783   1.2195   1.2774
     1.3003   1.3259   1.3486   1.3620   1.3852   1.4003   1.4438   1.4993
     2.8330   2.8887   2.9280   2.9368   2.9531   2.9762   2.9851   3.0141
     3.1225   3.1911   3.2221   3.2313   3.2675   3.2735   3.2770   3.2792
     3.2914   3.2977   3.2988   3.3077   3.3104   3.3176   3.3218   3.3243
     3.3294   3.3338   3.3448   3.3531   3.3615   3.3720   3.3762   3.3807
     3.3864   3.3915   3.3988   3.4060   3.4145   3.4189   3.5037   3.5191
     3.5261   3.5292   3.5374   3.5442   3.5481   3.5523   3.5551   3.5639
     3.5676   3.5684   3.5791   3.5828   3.5854   3.5932   3.5971   3.5984
     3.6075   3.6128   3.6186   3.6251   3.6318   3.6351   4.2330   4.2396
     4.2467   4.2569   4.2595   4.2613   4.8549   4.8649   4.8691   4.8782
     4.8863   4.8894   4.8953   4.8963   4.8980   4.9019   4.9045   4.9084
     4.9171   4.9213   4.9245   4.9281   4.9331   4.9366   4.9373   4.9434
     4.9505   4.9609   4.9638   4.9679   5.2158   5.2198   5.2370   5.2383
     5.2484   5.2564   5.2594   5.2649   5.2666   5.2711   5.2917   5.3035
     5.7571   5.7791   5.7877   5.7895   5.7931   5.8034   5.8151   5.8214
     5.8256   5.8292   5.8396   5.8462   5.8953   5.9037   5.9194   5.9388
     5.9459   5.9495   5.9635   5.9721   6.3395   6.3546   6.3651   6.3785
     6.3828   6.3907   6.3955   6.4071   6.4172   6.4255   6.4393   6.4504
     6.4560   6.4574   6.4763   6.5076   7.2155   7.2434   7.2724   7.8166
     7.8248   7.8520   7.8592   7.8666   7.8882   7.9783   8.0171   8.0420
     8.1286   8.1740   8.2014   8.2109   8.2330   8.2428   8.2698   8.4020
     8.4266   8.4758   8.4941   8.5122   8.5270   8.5368   8.5477   8.5594
     8.5667   8.5766   8.5964   8.5993   8.6058   8.6141   8.6351   8.6483
     8.6525   8.6644   8.6728   8.6895   8.6960   8.7004   8.7158   8.7179
     8.7245   8.7383   8.7528   8.7641   8.7784   8.8057   8.8280   9.0434
     9.3368   9.3792   9.3912   9.4237   9.4377   9.4612   9.4735   9.4797
     9.4902   9.5083   9.5407   9.5521   9.7228   9.7416   9.7559  10.1233
    10.1828  10.1964  10.2102  10.2277  10.2446  10.5796  10.6134  10.6257
    10.6333  10.6439  10.6504  10.6666  10.6770  10.6883  10.6960  10.7060
    10.7163  10.7297  10.7378  10.7463  10.7582  10.7656  10.7875  10.7951
    10.8107  10.8191  10.8446  10.8664  10.8826  11.4237  11.4308  11.4463
    11.4579  11.4709  11.4827  11.4851  11.4983  11.5123  11.5215  11.5262
    11.5441  11.5483  11.5595  11.5638  11.5670

     occupation numbers 
     1.0000   1.0000   1.0000   1.0000   1.0000   1.0000   1.0000   1.0000
     1.0000   1.0000   1.0000   1.0000   1.0000   1.0000   1.0000   1.0000
     1.0000   1.0000   1.0000   1.0000   1.0000   1.0000   1.0000   1.0000
     1.0000   1.0000   1.0000   1.0000   1.0000   1.0000   1.0000   1.0000
     1.0000   1.0000   1.0000   1.0000   1.0000   1.0000   1.0000   1.0000
     1.0000   1.0000   1.0000   1.0000   1.0000   1.0000   1.0000   1.0000
     1.0000   1.0000   1.0000   1.0000   1.0000   1.0000   1.0000   1.0000
     1.0000   1.0000   1.0000   1.0000   1.0000   1.0000   1.0000   1.0000
     1.0000   1.0000   1.0000   1.0000   1.0000   1.0000   1.0000   1.0000
     1.0000   1.0000   1.0000   1.0000   1.0000   1.0000   1.0000   1.0000
     1.0000   1.0000   1.0000   1.0000   1.0000   1.0000   1.0000   1.0000
     1.0000   1.0000   1.0000   1.0000   1.0000   1.0000   1.0000   1.0000
     1.0000   1.0000   1.0000   1.0000   1.0000   1.0000   1.0000   1.0000
     1.0000   1.0000   1.0000   1.0000   1.0000   1.0000   1.0000   1.0000
     1.0000   1.0000   1.0000   1.0000   1.0000   1.0000   1.0000   1.0000
     1.0000   1.0000   1.0000   1.0000   1.0000   1.0000   1.0000   1.0000
     1.0000   1.0000   1.0000   1.0000   1.0000   1.0000   1.0000   1.0000
     1.0000   1.0000   1.0000   1.0000   1.0000   1.0000   1.0000   1.0000
     1.0000   1.0000   1.0000   1.0000   1.0000   1.0000   1.0000   1.0000
     1.0000   1.0000   1.0000   1.0000   1.0000   1.0000   1.0000   1.0000
     1.0000   1.0000   1.0000   1.0000   1.0000   1.0000   1.0000   1.0000
     1.0000   1.0000   1.0000   1.0000   1.0000   1.0000   1.0000   1.0000
     1.0000   1.0000   1.0000   1.0000   1.0000   1.0000   1.0000   1.0000
     1.0000   1.0000   1.0000   1.0000   1.0000   1.0000   1.0000   1.0000
     1.0000   1.0000   1.0000   1.0000   1.0000   1.0000   1.0000   1.0000
     1.0000   1.0000   1.0000   1.0000   1.0000   1.0000   1.0000   1.0000
     1.0000   1.0000   1.0000   1.0000   1.0000   1.0000   1.0000   1.0000
     1.0000   1.0000   1.0000   1.0000   1.0000   1.0000   1.0000   1.0000
     1.0000   1.0000   1.0000   1.0000   1.0000   1.0000   1.0000   1.0000
     1.0000   1.0000   1.0000   1.0000   1.0000   1.0000   1.0000   1.0000
     1.0000   1.0000   1.0000   1.0000   1.0000   1.0000   1.0000   1.0000
     1.0000   1.0000   1.0000   1.0000   1.0000   1.0000   1.0000   1.0000
     1.0000   1.0000   1.0000   1.0000   1.0000   1.0000   1.0000   1.0000
     1.0000   1.0000   1.0000   1.0000   1.0000   1.0000   1.0000   1.0000
     1.0000   1.0000   1.0000   1.0000   1.0000   1.0000   1.0000   1.0000
     1.0000   1.0000   1.0000   1.0000   1.0000   1.0000   1.0000   1.0000
     1.0000   1.0000   1.0000   1.0000   1.0000   1.0000   1.0000   1.0000
     1.0000   1.0000   1.0000   1.0000   1.0000   1.0000   1.0000   1.0000
     1.0000   1.0000   1.0000   1.0000   1.0000   1.0000   1.0000   1.0000
     1.0000   1.0000   1.0000   1.0000   1.0000   1.0000   1.0000   1.0000
     1.0000   1.0000   1.0000   1.0000   1.0000   1.0000   1.0000   1.0000
     1.0000   1.0000   1.0000   1.0000   1.0000   1.0000   1.0000   1.0000
     1.0000   1.0000   1.0000   1.0000   1.0000   1.0000   1.0000   1.0000
     1.0000   1.0000   1.0000   1.0000   1.0000   1.0000   1.0000   1.0000
     1.0000   1.0000   1.0000   1.0000   1.0000   1.0000   1.0000   1.0000
     1.0000   1.0000   1.0000   1.0000   1.0000   1.0000   1.0000   1.0000
     1.0000   1.0000   1.0000   1.0000   1.0000   1.0000   1.0000   1.0000
     1.0000   1.0000   1.0000   1.0000   1.0000   1.0000   1.0000   1.0000
     1.0000   1.0000   1.0000   1.0000   1.0000   1.0000   1.0000   1.0000
     1.0000   1.0000   1.0000   1.0000   1.0000   1.0000   1.0000   1.0000
     1.0000   1.0000   1.0000   1.0000   1.0000   1.0000   1.0000   1.0000
     1.0000   1.0000   1.0000   1.0000   1.0000   1.0000   1.0000   1.0000
     1.0000   1.0000   1.0000   1.0000   1.0000   1.0000   1.0000   1.0000
     1.0000   1.0000   1.0000   1.0000   1.0000   1.0000   1.0000   1.0000
     1.0000   1.0000   1.0000   1.0000   1.0000   1.0000   1.0000   1.0000
     1.0000   1.0000   1.0000   1.0000   1.0000   1.0000   1.0000   1.0000
     1.0000   1.0000   1.0000   1.0000   1.0000   1.0000   1.0000   1.0000
     1.0000   1.0000   1.0000   1.0000   1.0000   1.0000   1.0000   1.0000
     1.0000   1.0000   1.0000   1.0000   1.0000   1.0000   1.0000   1.0000
     1.0000   1.0000   1.0000   1.0000   1.0000   1.0000   1.0000   1.0000
     1.0000   1.0000   1.0000   1.0000   1.0000   1.0000   1.0000   1.0000
     1.0000   1.0000   1.0000   1.0000   1.0000   1.0000   1.0000   1.0000
     1.0000   1.0000   1.0000   1.0000   1.0000   1.0000   1.0000   1.0000
     1.0000   1.0000   1.0000   1.0000   1.0000   1.0000   1.0000   1.0000
     1.0000   1.0000   1.0000   1.0000   1.0000   1.0000   1.0000   1.0000
     1.0000   1.0000   1.0000   1.0000   1.0000   1.0000   1.0000   1.0000
     1.0000   1.0000   1.0000   1.0000   1.0000   1.0000   1.0000   1.0000
     1.0000   1.0000   1.0000   1.0000   1.0000   1.0000   1.0000   1.0000
     1.0000   1.0000   1.0000   1.0000   0.9558   0.9345   0.9047   0.0069
     0.0059   0.0034   0.0029   0.0025   0.0015   0.0002   0.0001   0.0000
     0.0000   0.0000   0.0000   0.0000   0.0000   0.0000   0.0000   0.0000
     0.0000   0.0000   0.0000   0.0000   0.0000   0.0000   0.0000   0.0000
     0.0000   0.0000   0.0000   0.0000   0.0000   0.0000   0.0000   0.0000
     0.0000   0.0000   0.0000   0.0000   0.0000   0.0000   0.0000   0.0000
     0.0000   0.0000   0.0000   0.0000   0.0000   0.0000   0.0000   0.0000
     0.0000   0.0000   0.0000   0.0000   0.0000   0.0000   0.0000   0.0000
     0.0000   0.0000   0.0000   0.0000   0.0000   0.0000   0.0000   0.0000
     0.0000   0.0000   0.0000   0.0000   0.0000   0.0000   0.0000   0.0000
     0.0000   0.0000   0.0000   0.0000   0.0000   0.0000   0.0000   0.0000
     0.0000   0.0000   0.0000   0.0000   0.0000   0.0000   0.0000   0.0000
     0.0000   0.0000   0.0000   0.0000   0.0000   0.0000   0.0000   0.0000
     0.0000   0.0000   0.0000   0.0000   0.0000   0.0000   0.0000   0.0000
     0.0000   0.0000   0.0000   0.0000   0.0000

          k =-0.3543-0.3525 0.3535 ( 64052 PWs)   bands (ev):

   -17.4628 -17.4534 -17.4378 -17.4358 -17.4347 -17.4327 -17.4292 -17.4247
   -17.4219 -17.4217 -17.4196 -17.4147 -17.4140 -17.4109 -17.4052 -17.4033
   -17.3990 -17.3957 -17.3915 -17.3885 -17.3884 -17.3867 -17.3840 -17.3826
   -17.3752 -17.3736 -17.3730 -17.3688 -17.3658 -17.3601 -17.3582 -17.3580
   -17.3560 -17.3526 -17.3498 -17.3479 -17.3448 -17.3442 -17.3362 -17.3356
   -17.3335 -17.3318 -17.3317 -17.3298 -17.3281 -17.3262 -17.3234 -17.3228
   -17.3216 -17.3212 -17.3188 -17.3171 -17.3170 -17.3100 -17.3077 -17.3047
   -17.3033 -17.2995 -17.2993 -17.2965 -17.2933 -17.2931 -17.2924 -17.2905
   -17.2878 -17.2854 -17.2828 -17.2813 -17.2812 -17.2728 -17.2706 -17.2701
   -17.2692 -17.2683 -17.2681 -17.2670 -17.2638 -17.2594 -17.2580 -17.2564
   -17.2536 -17.2527 -17.2519 -17.2508 -17.2506 -17.2491 -17.2477 -17.2467
   -17.2463 -17.2453 -17.2415 -17.2415 -17.2385 -17.2384 -17.2369 -17.2365
   -17.2364 -17.2356 -17.2334 -17.2309 -17.2301 -17.2287 -17.2262 -17.2244
   -17.2229 -17.2209 -17.2194 -17.2182 -17.2163 -17.2147 -17.2119 -17.2114
   -17.2086 -17.2083 -17.2080 -17.2074 -17.2055 -17.2047 -17.2025 -17.2018
   -17.2006 -17.1987 -17.1971 -17.1963 -17.1954 -17.1938 -17.1931 -17.1925
   -17.1919 -17.1908 -17.1904 -17.1871 -17.1847 -17.1841 -17.1830 -17.1825
   -17.1821 -17.1808 -17.1794 -17.1790 -17.1779 -17.1769 -17.1760 -17.1758
   -17.1749 -17.1746 -17.1742 -17.1734 -17.1723 -17.1720 -17.1708 -17.1702
   -17.1701 -17.1694 -17.1682 -17.1678 -17.1673 -17.1671 -17.1662 -17.1655
   -17.1646 -17.1632 -17.1632 -17.1628 -17.1616 -17.1601 -17.1596 -17.1589
   -17.1589 -17.1579 -17.1573 -17.1555 -17.1540 -17.1531 -17.1528 -17.1517
   -17.1510 -17.1508 -17.1497 -17.1492 -17.1487 -17.1484 -17.1480 -17.1475
   -17.1469 -17.1457 -17.1455 -17.1447 -17.1443 -17.1438 -17.1431 -17.1426
   -17.1424 -17.1417 -17.1414 -17.1401 -17.1398 -17.1391 -17.1382 -17.1381
   -17.1377 -17.1356 -17.1340 -17.1332 -17.1320 -17.1311 -17.1301 -17.1298
   -17.1284 -17.1282 -17.1278 -17.1275 -17.1270 -17.1267 -17.1259 -17.1254
   -17.1245 -17.1235 -17.1234 -17.1226 -17.1220 -17.1211 -17.1204 -17.1202
   -17.1198 -17.1196 -17.1187 -17.1178 -17.1176 -17.1171 -17.1166 -17.1156
   -17.1149 -17.1144 -17.1140 -17.1125 -17.1112 -17.1105 -17.1091 -17.1078
   -17.1068 -17.1057 -17.1055 -17.1052 -17.1035 -17.1011 -17.0999 -17.0976
   -17.0973 -17.0970 -17.0967 -17.0966 -17.0959 -17.0925 -17.0896 -17.0887
   -17.0875 -17.0867 -17.0849 -17.0832 -17.0830 -17.0830 -17.0818 -17.0799
   -17.0775 -17.0767 -17.0743 -17.0723 -17.0709 -17.0697 -17.0680 -17.0663
   -17.0649 -17.0611 -17.0601 -17.0599 -17.0560 -17.0555 -17.0546 -17.0539
   -17.0534 -17.0524 -17.0486 -17.0481 -17.0459 -17.0441 -17.0428 -17.0410
   -17.0373 -17.0343 -17.0321 -17.0319 -17.0283 -17.0195 -17.0183  -5.1339
    -4.9891  -4.7474  -4.5979  -4.5823  -4.5297  -4.4416  -4.3533  -4.2220
    -4.0467  -4.0175  -4.0037  -3.9518  -3.8794  -3.7616  -3.6346  -3.5790
    -3.5563  -3.4905  -3.4549  -3.3896  -3.3459  -3.3130  -3.2770  -3.2620
    -3.1904  -3.1422  -3.0661  -3.0528  -3.0395  -2.9874  -2.9536  -2.8877
    -2.8420  -2.8174  -2.7864  -2.7663  -2.6930  -2.6644  -2.5724  -2.5033
    -2.4298  -2.3714  -2.3128  -2.2666  -2.1604  -2.1087  -2.0252  -1.9998
    -1.9594  -1.9444  -1.9078  -1.8412  -1.8234  -1.7916  -1.7700  -1.7504
    -1.6903  -1.6749  -1.6637  -1.6271  -1.5845  -1.5820  -1.4672  -0.4765
    -0.4535  -0.3936  -0.3575  -0.3185  -0.3066  -0.2926  -0.2567  -0.2021
    -0.1941  -0.1810  -0.1570  -0.1158  -0.0871  -0.0717  -0.0425  -0.0285
    -0.0098   0.0749   0.0988   0.1287   0.1576   0.1723   0.2053   0.2173
     0.2469   0.2723   0.3021   0.3190   0.3763   0.7904   0.8041   0.8129
     0.8614   0.9334   0.9595   0.9894   1.0071   1.0461   1.0555   1.0981
     1.1204   1.1374   1.1432   1.6338   1.7773   1.8263   1.8347   1.8515
     1.8809   2.1398   2.2284   2.2611   2.2725   2.2778   2.3083   3.0452
     3.0455   3.0607   3.0687   3.0722   3.0767   3.0811   3.0855   3.0945
     3.0956   3.1009   3.1084   3.1178   3.1212   3.1294   3.1332   3.1453
     3.1518   3.4911   3.5616   3.6131   3.6264   3.6543   3.6673   3.6706
     3.6826   3.6862   3.7047   3.7074   3.7202   3.7282   3.7484   3.7580
     3.7643   3.7691   3.7747   3.7832   3.7860   3.7983   3.8033   3.8159
     3.8263   4.1443   4.1541   4.1612   4.1643   4.1673   4.1774   4.1794
     4.1889   4.1925   4.1968   4.2036   4.2109   4.4068   4.4110   4.4124
     4.4180   4.4287   4.4324   4.4419   4.4489   4.4540   4.4571   4.4617
     4.4810   4.6948   4.7076   4.7174   4.7415   4.7487   4.7625   4.7670
     4.7705   4.7823   4.7841   4.7924   4.8331   4.9042   4.9120   4.9213
     4.9257   4.9379   4.9497   5.1493   5.1574   5.1612   5.1743   5.1830
     5.1864   5.1922   5.2050   5.2110   5.2136   5.2214   5.2300   5.2362
     5.2425   5.2441   5.2566   5.2724   5.2747   5.3124   5.3998   5.5495
     5.5567   5.5688   5.5799   5.5970   5.6051   5.7916   5.8026   5.8056
     5.8243   5.8314   5.8462   5.8518   5.8582   5.8655   5.8771   5.8889
     5.9033   6.0411   6.0539   6.0737   6.0758   6.3700   6.3797   6.3850
     6.4038   6.4205   6.4334   6.9122   6.9352   6.9420   6.9614   7.9878
     7.9921   8.0300   8.0516   8.0740   8.1068   8.1750   8.2360   8.4252
     8.4434   8.4587   8.4656   8.4928   8.5027   8.8386   8.8574   8.8809
     8.9082   8.9124   8.9303   8.9430   8.9586   8.9698   9.0015   9.0394
     9.0453   9.0569   9.0791   9.1053   9.1127   9.1580   9.1606   9.1844
     9.1977   9.2230   9.2295   9.2310   9.2454   9.2667   9.2824   9.3314
     9.3583   9.3891   9.4138   9.4348   9.4469   9.4623   9.4883   9.4962
     9.5119   9.5200   9.5325   9.5491   9.5613   9.5825   9.6026   9.6134
     9.6334   9.8554   9.8660   9.8789   9.8898   9.9229   9.9284   9.9365
     9.9444   9.9473   9.9639   9.9686   9.9814  10.0027  10.0156  10.0540
    10.0674  10.0802  10.0913  10.1472  10.1596  10.1991  10.2187  10.3578
    10.3846  10.3971  10.4154  10.4298  10.4471  10.5065  10.5562  10.5688
    10.5828  10.6078  10.6175  10.6255  10.6406  10.6430  10.6563  10.6703
    10.6789  10.6869  10.7039  10.7090  10.7234  10.7289  10.7479  10.7588
    10.7763  10.8187  10.8506  10.8605  10.8683

     occupation numbers 
     1.0000   1.0000   1.0000   1.0000   1.0000   1.0000   1.0000   1.0000
     1.0000   1.0000   1.0000   1.0000   1.0000   1.0000   1.0000   1.0000
     1.0000   1.0000   1.0000   1.0000   1.0000   1.0000   1.0000   1.0000
     1.0000   1.0000   1.0000   1.0000   1.0000   1.0000   1.0000   1.0000
     1.0000   1.0000   1.0000   1.0000   1.0000   1.0000   1.0000   1.0000
     1.0000   1.0000   1.0000   1.0000   1.0000   1.0000   1.0000   1.0000
     1.0000   1.0000   1.0000   1.0000   1.0000   1.0000   1.0000   1.0000
     1.0000   1.0000   1.0000   1.0000   1.0000   1.0000   1.0000   1.0000
     1.0000   1.0000   1.0000   1.0000   1.0000   1.0000   1.0000   1.0000
     1.0000   1.0000   1.0000   1.0000   1.0000   1.0000   1.0000   1.0000
     1.0000   1.0000   1.0000   1.0000   1.0000   1.0000   1.0000   1.0000
     1.0000   1.0000   1.0000   1.0000   1.0000   1.0000   1.0000   1.0000
     1.0000   1.0000   1.0000   1.0000   1.0000   1.0000   1.0000   1.0000
     1.0000   1.0000   1.0000   1.0000   1.0000   1.0000   1.0000   1.0000
     1.0000   1.0000   1.0000   1.0000   1.0000   1.0000   1.0000   1.0000
     1.0000   1.0000   1.0000   1.0000   1.0000   1.0000   1.0000   1.0000
     1.0000   1.0000   1.0000   1.0000   1.0000   1.0000   1.0000   1.0000
     1.0000   1.0000   1.0000   1.0000   1.0000   1.0000   1.0000   1.0000
     1.0000   1.0000   1.0000   1.0000   1.0000   1.0000   1.0000   1.0000
     1.0000   1.0000   1.0000   1.0000   1.0000   1.0000   1.0000   1.0000
     1.0000   1.0000   1.0000   1.0000   1.0000   1.0000   1.0000   1.0000
     1.0000   1.0000   1.0000   1.0000   1.0000   1.0000   1.0000   1.0000
     1.0000   1.0000   1.0000   1.0000   1.0000   1.0000   1.0000   1.0000
     1.0000   1.0000   1.0000   1.0000   1.0000   1.0000   1.0000   1.0000
     1.0000   1.0000   1.0000   1.0000   1.0000   1.0000   1.0000   1.0000
     1.0000   1.0000   1.0000   1.0000   1.0000   1.0000   1.0000   1.0000
     1.0000   1.0000   1.0000   1.0000   1.0000   1.0000   1.0000   1.0000
     1.0000   1.0000   1.0000   1.0000   1.0000   1.0000   1.0000   1.0000
     1.0000   1.0000   1.0000   1.0000   1.0000   1.0000   1.0000   1.0000
     1.0000   1.0000   1.0000   1.0000   1.0000   1.0000   1.0000   1.0000
     1.0000   1.0000   1.0000   1.0000   1.0000   1.0000   1.0000   1.0000
     1.0000   1.0000   1.0000   1.0000   1.0000   1.0000   1.0000   1.0000
     1.0000   1.0000   1.0000   1.0000   1.0000   1.0000   1.0000   1.0000
     1.0000   1.0000   1.0000   1.0000   1.0000   1.0000   1.0000   1.0000
     1.0000   1.0000   1.0000   1.0000   1.0000   1.0000   1.0000   1.0000
     1.0000   1.0000   1.0000   1.0000   1.0000   1.0000   1.0000   1.0000
     1.0000   1.0000   1.0000   1.0000   1.0000   1.0000   1.0000   1.0000
     1.0000   1.0000   1.0000   1.0000   1.0000   1.0000   1.0000   1.0000
     1.0000   1.0000   1.0000   1.0000   1.0000   1.0000   1.0000   1.0000
     1.0000   1.0000   1.0000   1.0000   1.0000   1.0000   1.0000   1.0000
     1.0000   1.0000   1.0000   1.0000   1.0000   1.0000   1.0000   1.0000
     1.0000   1.0000   1.0000   1.0000   1.0000   1.0000   1.0000   1.0000
     1.0000   1.0000   1.0000   1.0000   1.0000   1.0000   1.0000   1.0000
     1.0000   1.0000   1.0000   1.0000   1.0000   1.0000   1.0000   1.0000
     1.0000   1.0000   1.0000   1.0000   1.0000   1.0000   1.0000   1.0000
     1.0000   1.0000   1.0000   1.0000   1.0000   1.0000   1.0000   1.0000
     1.0000   1.0000   1.0000   1.0000   1.0000   1.0000   1.0000   1.0000
     1.0000   1.0000   1.0000   1.0000   1.0000   1.0000   1.0000   1.0000
     1.0000   1.0000   1.0000   1.0000   1.0000   1.0000   1.0000   1.0000
     1.0000   1.0000   1.0000   1.0000   1.0000   1.0000   1.0000   1.0000
     1.0000   1.0000   1.0000   1.0000   1.0000   1.0000   1.0000   1.0000
     1.0000   1.0000   1.0000   1.0000   1.0000   1.0000   1.0000   1.0000
     1.0000   1.0000   1.0000   1.0000   1.0000   1.0000   1.0000   1.0000
     1.0000   1.0000   1.0000   1.0000   1.0000   1.0000   1.0000   1.0000
     1.0000   1.0000   1.0000   1.0000   1.0000   1.0000   1.0000   1.0000
     1.0000   1.0000   1.0000   1.0000   1.0000   1.0000   1.0000   1.0000
     1.0000   1.0000   1.0000   1.0000   1.0000   1.0000   1.0000   1.0000
     1.0000   1.0000   1.0000   1.0000   1.0000   1.0000   1.0000   1.0000
     1.0000   1.0000   1.0000   1.0000   1.0000   1.0000   1.0000   1.0000
     1.0000   1.0000   1.0000   1.0000   1.0000   1.0000   1.0000   1.0000
     1.0000   1.0000   1.0000   1.0000   1.0000   1.0000   1.0000   1.0000
     1.0000   1.0000   1.0000   1.0000   1.0000   1.0000   1.0000   1.0000
     1.0000   1.0000   1.0000   1.0000   1.0000   1.0000   1.0000   1.0000
     1.0000   1.0000   1.0000   1.0000   1.0000   1.0000   1.0000   1.0000
     1.0000   1.0000   1.0000   1.0000   1.0000   1.0000   1.0000   1.0000
     1.0000   1.0000   1.0000   1.0000   1.0000   1.0000   1.0000   1.0000
     1.0000   1.0000   1.0000   1.0000   1.0000   1.0000   1.0000   1.0000
     1.0000   1.0000   1.0000   1.0000   1.0000   1.0000   1.0000   1.0000
     1.0000   1.0000   1.0000   0.9999   0.9999   0.9998   0.9997   0.0001
     0.0001   0.0000   0.0000   0.0000   0.0000   0.0000   0.0000   0.0000
     0.0000   0.0000   0.0000   0.0000   0.0000   0.0000   0.0000   0.0000
     0.0000   0.0000   0.0000   0.0000   0.0000   0.0000   0.0000   0.0000
     0.0000   0.0000   0.0000   0.0000   0.0000   0.0000   0.0000   0.0000
     0.0000   0.0000   0.0000   0.0000   0.0000   0.0000   0.0000   0.0000
     0.0000   0.0000   0.0000   0.0000   0.0000   0.0000   0.0000   0.0000
     0.0000   0.0000   0.0000   0.0000   0.0000   0.0000   0.0000   0.0000
     0.0000   0.0000   0.0000   0.0000   0.0000   0.0000   0.0000   0.0000
     0.0000   0.0000   0.0000   0.0000   0.0000   0.0000   0.0000   0.0000
     0.0000   0.0000   0.0000   0.0000   0.0000   0.0000   0.0000   0.0000
     0.0000   0.0000   0.0000   0.0000   0.0000   0.0000   0.0000   0.0000
     0.0000   0.0000   0.0000   0.0000   0.0000   0.0000   0.0000   0.0000
     0.0000   0.0000   0.0000   0.0000   0.0000   0.0000   0.0000   0.0000
     0.0000   0.0000   0.0000   0.0000   0.0000

          k =-0.3532 0.3539-0.3534 ( 64048 PWs)   bands (ev):

   -17.4628 -17.4534 -17.4378 -17.4358 -17.4347 -17.4327 -17.4292 -17.4247
   -17.4219 -17.4218 -17.4195 -17.4146 -17.4141 -17.4109 -17.4051 -17.4033
   -17.3990 -17.3957 -17.3915 -17.3885 -17.3884 -17.3867 -17.3840 -17.3826
   -17.3752 -17.3737 -17.3730 -17.3688 -17.3658 -17.3600 -17.3582 -17.3580
   -17.3559 -17.3526 -17.3498 -17.3479 -17.3447 -17.3443 -17.3362 -17.3356
   -17.3335 -17.3318 -17.3316 -17.3297 -17.3281 -17.3262 -17.3234 -17.3228
   -17.3217 -17.3211 -17.3189 -17.3172 -17.3170 -17.3100 -17.3076 -17.3048
   -17.3033 -17.2995 -17.2993 -17.2965 -17.2934 -17.2932 -17.2924 -17.2904
   -17.2878 -17.2853 -17.2827 -17.2816 -17.2809 -17.2728 -17.2707 -17.2703
   -17.2690 -17.2684 -17.2681 -17.2670 -17.2637 -17.2594 -17.2579 -17.2564
   -17.2536 -17.2527 -17.2519 -17.2508 -17.2505 -17.2491 -17.2477 -17.2467
   -17.2463 -17.2452 -17.2416 -17.2415 -17.2387 -17.2383 -17.2369 -17.2365
   -17.2364 -17.2355 -17.2335 -17.2309 -17.2300 -17.2286 -17.2263 -17.2243
   -17.2228 -17.2209 -17.2193 -17.2185 -17.2162 -17.2145 -17.2116 -17.2116
   -17.2087 -17.2083 -17.2079 -17.2075 -17.2055 -17.2049 -17.2025 -17.2020
   -17.2003 -17.1987 -17.1970 -17.1963 -17.1956 -17.1937 -17.1930 -17.1924
   -17.1920 -17.1907 -17.1901 -17.1872 -17.1849 -17.1841 -17.1831 -17.1825
   -17.1822 -17.1812 -17.1790 -17.1789 -17.1778 -17.1770 -17.1762 -17.1758
   -17.1750 -17.1745 -17.1743 -17.1734 -17.1722 -17.1721 -17.1706 -17.1702
   -17.1700 -17.1695 -17.1683 -17.1677 -17.1675 -17.1668 -17.1664 -17.1655
   -17.1646 -17.1632 -17.1630 -17.1623 -17.1620 -17.1601 -17.1596 -17.1590
   -17.1587 -17.1580 -17.1572 -17.1555 -17.1540 -17.1530 -17.1528 -17.1517
   -17.1510 -17.1509 -17.1497 -17.1493 -17.1488 -17.1484 -17.1480 -17.1475
   -17.1469 -17.1459 -17.1454 -17.1446 -17.1443 -17.1438 -17.1432 -17.1428
   -17.1421 -17.1416 -17.1413 -17.1403 -17.1398 -17.1391 -17.1383 -17.1381
   -17.1377 -17.1355 -17.1339 -17.1333 -17.1320 -17.1311 -17.1302 -17.1298
   -17.1283 -17.1281 -17.1280 -17.1275 -17.1269 -17.1267 -17.1259 -17.1255
   -17.1247 -17.1235 -17.1234 -17.1225 -17.1220 -17.1209 -17.1204 -17.1202
   -17.1200 -17.1196 -17.1189 -17.1178 -17.1177 -17.1171 -17.1166 -17.1156
   -17.1148 -17.1144 -17.1140 -17.1123 -17.1113 -17.1105 -17.1091 -17.1078
   -17.1068 -17.1057 -17.1056 -17.1051 -17.1035 -17.1011 -17.0999 -17.0976
   -17.0973 -17.0970 -17.0967 -17.0965 -17.0960 -17.0924 -17.0896 -17.0887
   -17.0875 -17.0868 -17.0849 -17.0832 -17.0831 -17.0829 -17.0819 -17.0797
   -17.0776 -17.0767 -17.0744 -17.0723 -17.0709 -17.0696 -17.0681 -17.0663
   -17.0650 -17.0611 -17.0601 -17.0599 -17.0559 -17.0556 -17.0546 -17.0539
   -17.0534 -17.0523 -17.0488 -17.0480 -17.0459 -17.0441 -17.0429 -17.0409
   -17.0373 -17.0343 -17.0320 -17.0319 -17.0284 -17.0195 -17.0183  -5.0961
    -5.0568  -4.6834  -4.6528  -4.5679  -4.4912  -4.4306  -4.3360  -4.2448
    -4.1327  -4.0560  -4.0060  -3.9455  -3.8525  -3.6850  -3.6410  -3.6007
    -3.5330  -3.4910  -3.4605  -3.4326  -3.3603  -3.2660  -3.2328  -3.2093
    -3.1838  -3.1289  -3.0992  -3.0576  -3.0548  -2.9983  -2.9852  -2.9407
    -2.8903  -2.8215  -2.7569  -2.7200  -2.6970  -2.6220  -2.6080  -2.4902
    -2.4569  -2.3748  -2.3145  -2.2369  -2.2133  -2.0837  -2.0145  -1.9742
    -1.9520  -1.9226  -1.9175  -1.8782  -1.8251  -1.7859  -1.7551  -1.7225
    -1.6935  -1.6785  -1.6533  -1.6337  -1.5879  -1.5734  -1.5232  -0.4792
    -0.3925  -0.3816  -0.3298  -0.3175  -0.3071  -0.2914  -0.2800  -0.2505
    -0.2200  -0.1887  -0.1711  -0.1562  -0.1088  -0.0636  -0.0026   0.0061
     0.0101   0.0531   0.1046   0.1375   0.1593   0.1854   0.1923   0.2103
     0.2332   0.2626   0.2949   0.3196   0.3812   0.8422   0.8643   0.8876
     0.9056   0.9367   0.9610   0.9820   0.9961   1.0029   1.0207   1.0483
     1.0738   1.0926   1.1106   1.7348   1.7453   1.7635   1.8571   1.8823
     1.8966   2.1472   2.2025   2.2361   2.2831   2.3112   2.3375   3.0447
     3.0500   3.0571   3.0672   3.0715   3.0755   3.0789   3.0821   3.0933
     3.0961   3.0999   3.1004   3.1082   3.1132   3.1216   3.1307   3.1407
     3.1494   3.5196   3.5575   3.5958   3.6157   3.6568   3.6698   3.6781
     3.6840   3.6887   3.6997   3.7090   3.7169   3.7317   3.7407   3.7502
     3.7536   3.7646   3.7682   3.7749   3.7858   3.7956   3.8005   3.8014
     3.8117   4.1463   4.1573   4.1582   4.1657   4.1687   4.1744   4.1855
     4.1886   4.1950   4.1963   4.2039   4.2144   4.3976   4.4073   4.4146
     4.4186   4.4227   4.4298   4.4306   4.4338   4.4410   4.4578   4.4603
     4.4747   4.7172   4.7322   4.7378   4.7430   4.7504   4.7586   4.7724
     4.7873   4.8028   4.8083   4.8178   4.8234   4.8969   4.9050   4.9144
     4.9245   4.9347   4.9398   5.1672   5.1765   5.1812   5.1868   5.1955
     5.2017   5.2046   5.2096   5.2144   5.2272   5.2292   5.2311   5.2335
     5.2383   5.2441   5.2503   5.2601   5.2672   5.3635   5.3902   5.5381
     5.5531   5.5596   5.5626   5.5833   5.5901   5.7947   5.8123   5.8190
     5.8307   5.8351   5.8510   5.8562   5.8665   5.8738   5.8787   5.8933
     5.8964   6.0312   6.0392   6.0707   6.0868   6.3441   6.3605   6.3884
     6.3949   6.4027   6.4207   6.9002   6.9136   6.9280   6.9710   7.9948
     8.0009   8.0334   8.0477   8.0556   8.0688   8.1743   8.2156   8.4052
     8.4414   8.4480   8.4803   8.4882   8.4953   8.8216   8.8568   8.8671
     8.8892   8.9107   8.9432   8.9662   8.9881   8.9918   9.0144   9.0219
     9.0366   9.0611   9.0711   9.0946   9.1089   9.1202   9.1311   9.1486
     9.1542   9.2144   9.2304   9.2465   9.2532   9.2826   9.2919   9.3283
     9.3422   9.3951   9.4147   9.4260   9.4595   9.4825   9.5039   9.5201
     9.5249   9.5348   9.5549   9.5640   9.5648   9.6051   9.6168   9.6401
     9.6589   9.8313   9.8712   9.8886   9.8912   9.9019   9.9115   9.9290
     9.9450   9.9496   9.9638   9.9849   9.9886  10.0001  10.0268  10.0527
    10.0729  10.0917  10.1232  10.1614  10.1809  10.1920  10.2338  10.3768
    10.3842  10.3983  10.4161  10.4341  10.4487  10.5691  10.5764  10.5828
    10.5903  10.5972  10.6108  10.6164  10.6346  10.6502  10.6530  10.6769
    10.6794  10.7040  10.7066  10.7248  10.7321  10.7465  10.7520  10.7635
    10.7726  10.7759  10.8262  10.8372  10.8864

     occupation numbers 
     1.0000   1.0000   1.0000   1.0000   1.0000   1.0000   1.0000   1.0000
     1.0000   1.0000   1.0000   1.0000   1.0000   1.0000   1.0000   1.0000
     1.0000   1.0000   1.0000   1.0000   1.0000   1.0000   1.0000   1.0000
     1.0000   1.0000   1.0000   1.0000   1.0000   1.0000   1.0000   1.0000
     1.0000   1.0000   1.0000   1.0000   1.0000   1.0000   1.0000   1.0000
     1.0000   1.0000   1.0000   1.0000   1.0000   1.0000   1.0000   1.0000
     1.0000   1.0000   1.0000   1.0000   1.0000   1.0000   1.0000   1.0000
     1.0000   1.0000   1.0000   1.0000   1.0000   1.0000   1.0000   1.0000
     1.0000   1.0000   1.0000   1.0000   1.0000   1.0000   1.0000   1.0000
     1.0000   1.0000   1.0000   1.0000   1.0000   1.0000   1.0000   1.0000
     1.0000   1.0000   1.0000   1.0000   1.0000   1.0000   1.0000   1.0000
     1.0000   1.0000   1.0000   1.0000   1.0000   1.0000   1.0000   1.0000
     1.0000   1.0000   1.0000   1.0000   1.0000   1.0000   1.0000   1.0000
     1.0000   1.0000   1.0000   1.0000   1.0000   1.0000   1.0000   1.0000
     1.0000   1.0000   1.0000   1.0000   1.0000   1.0000   1.0000   1.0000
     1.0000   1.0000   1.0000   1.0000   1.0000   1.0000   1.0000   1.0000
     1.0000   1.0000   1.0000   1.0000   1.0000   1.0000   1.0000   1.0000
     1.0000   1.0000   1.0000   1.0000   1.0000   1.0000   1.0000   1.0000
     1.0000   1.0000   1.0000   1.0000   1.0000   1.0000   1.0000   1.0000
     1.0000   1.0000   1.0000   1.0000   1.0000   1.0000   1.0000   1.0000
     1.0000   1.0000   1.0000   1.0000   1.0000   1.0000   1.0000   1.0000
     1.0000   1.0000   1.0000   1.0000   1.0000   1.0000   1.0000   1.0000
     1.0000   1.0000   1.0000   1.0000   1.0000   1.0000   1.0000   1.0000
     1.0000   1.0000   1.0000   1.0000   1.0000   1.0000   1.0000   1.0000
     1.0000   1.0000   1.0000   1.0000   1.0000   1.0000   1.0000   1.0000
     1.0000   1.0000   1.0000   1.0000   1.0000   1.0000   1.0000   1.0000
     1.0000   1.0000   1.0000   1.0000   1.0000   1.0000   1.0000   1.0000
     1.0000   1.0000   1.0000   1.0000   1.0000   1.0000   1.0000   1.0000
     1.0000   1.0000   1.0000   1.0000   1.0000   1.0000   1.0000   1.0000
     1.0000   1.0000   1.0000   1.0000   1.0000   1.0000   1.0000   1.0000
     1.0000   1.0000   1.0000   1.0000   1.0000   1.0000   1.0000   1.0000
     1.0000   1.0000   1.0000   1.0000   1.0000   1.0000   1.0000   1.0000
     1.0000   1.0000   1.0000   1.0000   1.0000   1.0000   1.0000   1.0000
     1.0000   1.0000   1.0000   1.0000   1.0000   1.0000   1.0000   1.0000
     1.0000   1.0000   1.0000   1.0000   1.0000   1.0000   1.0000   1.0000
     1.0000   1.0000   1.0000   1.0000   1.0000   1.0000   1.0000   1.0000
     1.0000   1.0000   1.0000   1.0000   1.0000   1.0000   1.0000   1.0000
     1.0000   1.0000   1.0000   1.0000   1.0000   1.0000   1.0000   1.0000
     1.0000   1.0000   1.0000   1.0000   1.0000   1.0000   1.0000   1.0000
     1.0000   1.0000   1.0000   1.0000   1.0000   1.0000   1.0000   1.0000
     1.0000   1.0000   1.0000   1.0000   1.0000   1.0000   1.0000   1.0000
     1.0000   1.0000   1.0000   1.0000   1.0000   1.0000   1.0000   1.0000
     1.0000   1.0000   1.0000   1.0000   1.0000   1.0000   1.0000   1.0000
     1.0000   1.0000   1.0000   1.0000   1.0000   1.0000   1.0000   1.0000
     1.0000   1.0000   1.0000   1.0000   1.0000   1.0000   1.0000   1.0000
     1.0000   1.0000   1.0000   1.0000   1.0000   1.0000   1.0000   1.0000
     1.0000   1.0000   1.0000   1.0000   1.0000   1.0000   1.0000   1.0000
     1.0000   1.0000   1.0000   1.0000   1.0000   1.0000   1.0000   1.0000
     1.0000   1.0000   1.0000   1.0000   1.0000   1.0000   1.0000   1.0000
     1.0000   1.0000   1.0000   1.0000   1.0000   1.0000   1.0000   1.0000
     1.0000   1.0000   1.0000   1.0000   1.0000   1.0000   1.0000   1.0000
     1.0000   1.0000   1.0000   1.0000   1.0000   1.0000   1.0000   1.0000
     1.0000   1.0000   1.0000   1.0000   1.0000   1.0000   1.0000   1.0000
     1.0000   1.0000   1.0000   1.0000   1.0000   1.0000   1.0000   1.0000
     1.0000   1.0000   1.0000   1.0000   1.0000   1.0000   1.0000   1.0000
     1.0000   1.0000   1.0000   1.0000   1.0000   1.0000   1.0000   1.0000
     1.0000   1.0000   1.0000   1.0000   1.0000   1.0000   1.0000   1.0000
     1.0000   1.0000   1.0000   1.0000   1.0000   1.0000   1.0000   1.0000
     1.0000   1.0000   1.0000   1.0000   1.0000   1.0000   1.0000   1.0000
     1.0000   1.0000   1.0000   1.0000   1.0000   1.0000   1.0000   1.0000
     1.0000   1.0000   1.0000   1.0000   1.0000   1.0000   1.0000   1.0000
     1.0000   1.0000   1.0000   1.0000   1.0000   1.0000   1.0000   1.0000
     1.0000   1.0000   1.0000   1.0000   1.0000   1.0000   1.0000   1.0000
     1.0000   1.0000   1.0000   1.0000   1.0000   1.0000   1.0000   1.0000
     1.0000   1.0000   1.0000   1.0000   1.0000   1.0000   1.0000   1.0000
     1.0000   1.0000   1.0000   1.0000   1.0000   1.0000   1.0000   1.0000
     1.0000   1.0000   1.0000   1.0000   1.0000   1.0000   1.0000   1.0000
     1.0000   1.0000   1.0000   1.0000   1.0000   1.0000   1.0000   1.0000
     1.0000   1.0000   1.0000   0.9999   0.9999   0.9999   0.9997   0.0001
     0.0001   0.0000   0.0000   0.0000   0.0000   0.0000   0.0000   0.0000
     0.0000   0.0000   0.0000   0.0000   0.0000   0.0000   0.0000   0.0000
     0.0000   0.0000   0.0000   0.0000   0.0000   0.0000   0.0000   0.0000
     0.0000   0.0000   0.0000   0.0000   0.0000   0.0000   0.0000   0.0000
     0.0000   0.0000   0.0000   0.0000   0.0000   0.0000   0.0000   0.0000
     0.0000   0.0000   0.0000   0.0000   0.0000   0.0000   0.0000   0.0000
     0.0000   0.0000   0.0000   0.0000   0.0000   0.0000   0.0000   0.0000
     0.0000   0.0000   0.0000   0.0000   0.0000   0.0000   0.0000   0.0000
     0.0000   0.0000   0.0000   0.0000   0.0000   0.0000   0.0000   0.0000
     0.0000   0.0000   0.0000   0.0000   0.0000   0.0000   0.0000   0.0000
     0.0000   0.0000   0.0000   0.0000   0.0000   0.0000   0.0000   0.0000
     0.0000   0.0000   0.0000   0.0000   0.0000   0.0000   0.0000   0.0000
     0.0000   0.0000   0.0000   0.0000   0.0000   0.0000   0.0000   0.0000
     0.0000   0.0000   0.0000   0.0000   0.0000

          k =-0.7076 0.0015 0.0001 ( 64088 PWs)   bands (ev):

   -17.4628 -17.4534 -17.4378 -17.4358 -17.4347 -17.4327 -17.4292 -17.4247
   -17.4219 -17.4218 -17.4196 -17.4147 -17.4140 -17.4109 -17.4051 -17.4033
   -17.3990 -17.3958 -17.3915 -17.3886 -17.3884 -17.3867 -17.3840 -17.3826
   -17.3752 -17.3737 -17.3730 -17.3688 -17.3657 -17.3600 -17.3583 -17.3580
   -17.3560 -17.3526 -17.3500 -17.3479 -17.3446 -17.3441 -17.3362 -17.3356
   -17.3335 -17.3319 -17.3317 -17.3299 -17.3281 -17.3260 -17.3234 -17.3228
   -17.3217 -17.3212 -17.3189 -17.3172 -17.3170 -17.3100 -17.3077 -17.3047
   -17.3033 -17.2995 -17.2994 -17.2965 -17.2933 -17.2932 -17.2924 -17.2905
   -17.2878 -17.2854 -17.2829 -17.2815 -17.2809 -17.2728 -17.2707 -17.2703
   -17.2691 -17.2684 -17.2681 -17.2670 -17.2638 -17.2594 -17.2579 -17.2564
   -17.2537 -17.2527 -17.2519 -17.2507 -17.2506 -17.2492 -17.2476 -17.2467
   -17.2464 -17.2452 -17.2416 -17.2415 -17.2387 -17.2382 -17.2370 -17.2365
   -17.2364 -17.2356 -17.2335 -17.2309 -17.2300 -17.2288 -17.2262 -17.2243
   -17.2228 -17.2210 -17.2194 -17.2182 -17.2163 -17.2146 -17.2117 -17.2115
   -17.2089 -17.2082 -17.2081 -17.2072 -17.2054 -17.2048 -17.2026 -17.2020
   -17.2002 -17.1987 -17.1969 -17.1965 -17.1955 -17.1938 -17.1931 -17.1923
   -17.1920 -17.1908 -17.1904 -17.1869 -17.1848 -17.1841 -17.1830 -17.1826
   -17.1821 -17.1816 -17.1796 -17.1790 -17.1779 -17.1768 -17.1764 -17.1756
   -17.1748 -17.1745 -17.1743 -17.1733 -17.1723 -17.1715 -17.1709 -17.1703
   -17.1700 -17.1695 -17.1680 -17.1678 -17.1675 -17.1672 -17.1662 -17.1656
   -17.1644 -17.1634 -17.1630 -17.1626 -17.1617 -17.1602 -17.1596 -17.1589
   -17.1589 -17.1579 -17.1572 -17.1556 -17.1540 -17.1531 -17.1527 -17.1517
   -17.1510 -17.1509 -17.1497 -17.1493 -17.1491 -17.1485 -17.1481 -17.1475
   -17.1469 -17.1457 -17.1455 -17.1447 -17.1443 -17.1434 -17.1431 -17.1427
   -17.1424 -17.1416 -17.1413 -17.1403 -17.1398 -17.1391 -17.1383 -17.1381
   -17.1377 -17.1356 -17.1338 -17.1332 -17.1320 -17.1310 -17.1301 -17.1297
   -17.1282 -17.1280 -17.1278 -17.1275 -17.1269 -17.1266 -17.1260 -17.1258
   -17.1247 -17.1235 -17.1234 -17.1225 -17.1221 -17.1209 -17.1204 -17.1203
   -17.1200 -17.1196 -17.1188 -17.1182 -17.1172 -17.1171 -17.1166 -17.1156
   -17.1148 -17.1144 -17.1140 -17.1124 -17.1110 -17.1108 -17.1091 -17.1078
   -17.1068 -17.1057 -17.1055 -17.1053 -17.1034 -17.1011 -17.0999 -17.0976
   -17.0973 -17.0970 -17.0966 -17.0965 -17.0960 -17.0925 -17.0896 -17.0887
   -17.0876 -17.0866 -17.0850 -17.0832 -17.0830 -17.0830 -17.0818 -17.0797
   -17.0777 -17.0767 -17.0743 -17.0724 -17.0710 -17.0696 -17.0681 -17.0664
   -17.0649 -17.0611 -17.0602 -17.0598 -17.0560 -17.0556 -17.0546 -17.0541
   -17.0534 -17.0524 -17.0488 -17.0481 -17.0459 -17.0441 -17.0429 -17.0410
   -17.0373 -17.0343 -17.0320 -17.0319 -17.0285 -17.0196 -17.0183  -5.0314
    -5.0223  -4.8312  -4.7432  -4.6986  -4.5774  -4.1879  -4.1109  -4.0484
    -4.0272  -4.0172  -3.9392  -3.8652  -3.8608  -3.8385  -3.7469  -3.7444
    -3.6636  -3.6293  -3.6048  -3.5832  -3.4971  -3.2467  -3.2419  -3.1959
    -3.1565  -3.1172  -3.0760  -3.0355  -3.0069  -2.9186  -2.8248  -2.8073
    -2.7337  -2.7280  -2.7082  -2.6465  -2.6155  -2.5623  -2.5568  -2.5045
    -2.4338  -2.4030  -2.3640  -2.3525  -2.2860  -2.2513  -2.2153  -2.1411
    -2.1100  -2.0941  -2.0325  -2.0152  -1.9768  -1.9653  -1.8949  -1.5856
    -1.5239  -1.5004  -1.4127  -1.1549  -1.0865  -1.0646  -1.0415  -1.0137
    -0.9810  -0.9082  -0.8751  -0.5690  -0.5367  -0.4930  -0.4002  -0.1221
    -0.0986  -0.0538  -0.0281  -0.0184   0.0027   0.0239   0.0600   0.1029
     0.1351   0.1668   0.1866   0.1953   0.2374   0.2728   0.3355   0.4192
     0.4357   0.4863   0.5078   0.5389   0.5546   0.5898   0.5933   0.6759
     0.7391   0.7696   0.7791   0.8282   0.8355   0.9112   0.9396   1.0287
     1.0631   1.4587   1.5417   1.5650   1.5906   1.6203   1.6262   1.6566
     1.7032   2.4087   2.4251   2.4379   2.4599   2.4990   2.5224   2.5903
     2.5956   2.8451   2.8551   2.8622   2.8645   2.8985   2.9130   2.9171
     2.9279   2.9318   2.9365   2.9378   2.9432   3.5738   3.5802   3.5953
     3.5999   3.6052   3.6122   3.6226   3.6282   3.6898   3.7035   3.7063
     3.7167   3.7174   3.7218   3.7300   3.7334   3.7502   3.7627   3.7649
     3.7687   3.7722   3.7784   3.7887   3.7951   4.0962   4.1508   4.1946
     4.2149   4.3533   4.3579   4.3646   4.3693   4.3753   4.3784   4.3853
     4.3910   4.3942   4.4034   4.4106   4.4171   4.4198   4.4236   4.4293
     4.4423   4.4849   4.4873   4.5017   4.5185   4.5296   4.5325   4.5420
     4.5546   4.5611   4.5641   4.5672   4.5725   4.5744   4.5837   4.5904
     4.6051   4.6088   4.6216   4.6342   4.6416   4.6701   4.6811   4.6963
     4.7044   4.9548   4.9639   4.9697   4.9787   4.9807   4.9896   4.9985
     5.0091   5.1728   5.1783   5.2048   5.2186   5.2282   5.2344   5.2368
     5.2516   5.4658   5.5005   5.5125   5.5176   5.5205   5.5289   5.5327
     5.5378   5.5463   5.5524   5.5633   5.5683   5.5829   5.6023   5.6685
[...]
     atom   77 type  2   force =   0.00000000E+00  0.00000000E+00  0.00000000E+00
     atom   78 type  1   force =   0.00000000E+00  0.00000000E+00  0.00000000E+00
     atom   79 type  2   force =   0.00000000E+00  0.00000000E+00  0.00000000E+00
     atom   80 type  1   force =   0.00000000E+00  0.00000000E+00  0.00000000E+00
     atom   81 type  2   force =   0.00000000E+00  0.00000000E+00  0.00000000E+00
     atom   82 type  2   force =   0.00000000E+00  0.00000000E+00  0.00000000E+00
     atom   83 type  2   force =   0.00000000E+00  0.00000000E+00  0.00000000E+00
     atom   84 type  1   force =   0.00000000E+00  0.00000000E+00  0.00000000E+00
     atom   85 type  2   force =   0.00000000E+00  0.00000000E+00  0.00000000E+00
     atom   86 type  1   force =   0.00000000E+00  0.00000000E+00  0.00000000E+00
     atom   87 type  2   force =   0.00000000E+00  0.00000000E+00  0.00000000E+00
     atom   88 type  2   force =   0.00000000E+00  0.00000000E+00  0.00000000E+00
     atom   89 type  2   force =   0.00000000E+00  0.00000000E+00  0.00000000E+00
     atom   90 type  1   force =   0.00000000E+00  0.00000000E+00  0.00000000E+00
     atom   91 type  2   force =   0.00000000E+00  0.00000000E+00  0.00000000E+00
     atom   92 type  2   force =   0.00000000E+00  0.00000000E+00  0.00000000E+00
     atom   93 type  1   force =   0.00000000E+00  0.00000000E+00  0.00000000E+00
     atom   94 type  2   force =   0.00000000E+00  0.00000000E+00  0.00000000E+00
     atom   95 type  2   force =   0.00000000E+00  0.00000000E+00  0.00000000E+00
     atom   96 type  1   force =   0.00000000E+00  0.00000000E+00  0.00000000E+00
     atom   97 type  2   force =   0.00000000E+00  0.00000000E+00  0.00000000E+00
     atom   98 type  2   force =   0.00000000E+00  0.00000000E+00  0.00000000E+00
     atom   99 type  1   force =   0.00000000E+00  0.00000000E+00  0.00000000E+00
     atom  100 type  1   force =   0.00000000E+00  0.00000000E+00  0.00000000E+00
     atom  101 type  2   force =   0.00000000E+00  0.00000000E+00  0.00000000E+00
     atom  102 type  1   force =   0.00000000E+00  0.00000000E+00  0.00000000E+00
     atom  103 type  1   force =   0.00000000E+00  0.00000000E+00  0.00000000E+00
     atom  104 type  2   force =   0.00000000E+00  0.00000000E+00  0.00000000E+00
     atom  105 type  1   force =   0.00000000E+00  0.00000000E+00  0.00000000E+00
     atom  106 type  1   force =   0.00000000E+00  0.00000000E+00  0.00000000E+00
     atom  107 type  1   force =   0.00000000E+00  0.00000000E+00  0.00000000E+00
     atom  108 type  1   force =   0.00000000E+00  0.00000000E+00  0.00000000E+00
     atom  109 type  1   force =   0.00000000E+00  0.00000000E+00  0.00000000E+00
     atom  110 type  2   force =   0.00000000E+00  0.00000000E+00  0.00000000E+00
     atom  111 type  2   force =   0.00000000E+00  0.00000000E+00  0.00000000E+00
     atom  112 type  1   force =   0.00000000E+00  0.00000000E+00  0.00000000E+00
     atom  113 type  1   force =   0.00000000E+00  0.00000000E+00  0.00000000E+00
     atom  114 type  2   force =   0.00000000E+00  0.00000000E+00  0.00000000E+00
     atom  115 type  1   force =   0.00000000E+00  0.00000000E+00  0.00000000E+00
     atom  116 type  1   force =   0.00000000E+00  0.00000000E+00  0.00000000E+00
     atom  117 type  1   force =   0.00000000E+00  0.00000000E+00  0.00000000E+00
     atom  118 type  1   force =   0.00000000E+00  0.00000000E+00  0.00000000E+00
     atom  119 type  1   force =   0.00000000E+00  0.00000000E+00  0.00000000E+00
     atom  120 type  2   force =   0.00000000E+00  0.00000000E+00  0.00000000E+00
     atom  121 type  2   force =   0.00000000E+00  0.00000000E+00  0.00000000E+00
     atom  122 type  1   force =   0.00000000E+00  0.00000000E+00  0.00000000E+00
     atom  123 type  2   force =   0.00000000E+00  0.00000000E+00  0.00000000E+00
     atom  124 type  2   force =   0.00000000E+00  0.00000000E+00  0.00000000E+00
     atom  125 type  1   force =   0.00000000E+00  0.00000000E+00  0.00000000E+00
     atom  126 type  1   force =   0.00000000E+00  0.00000000E+00  0.00000000E+00
     atom  127 type  1   force =   0.00000000E+00  0.00000000E+00  0.00000000E+00
     atom  128 type  2   force =   0.00000000E+00  0.00000000E+00  0.00000000E+00
     The SCF correction term to forces
     atom    1 type  1   force =   0.20148711E-05  0.31384180E-06 -0.19427016E-05
     atom    2 type  2   force =   0.67174442E-05 -0.67313584E-06 -0.68766367E-05
     atom    3 type  1   force =   0.14301232E-05 -0.19929726E-05  0.34641393E-06
     atom    4 type  1   force =   0.56650670E-06 -0.18755449E-05  0.27096206E-06
     atom    5 type  1   force =   0.10819878E-05 -0.22713873E-05  0.11116338E-06
     atom    6 type  1   force =  -0.40705195E-07 -0.17183570E-05 -0.10808287E-05
     atom    7 type  1   force =   0.42169663E-06 -0.10929193E-05 -0.22268059E-05
     atom    8 type  1   force =   0.50948651E-06  0.69655023E-06 -0.28074205E-05
     atom    9 type  2   force =   0.10436338E-04  0.68335968E-05 -0.12260555E-04
     atom   10 type  2   force =   0.56256039E-05  0.12728265E-05 -0.74017246E-05
     atom   11 type  1   force =  -0.71952899E-06 -0.56174900E-06 -0.10184023E-05
     atom   12 type  2   force =  -0.60499910E-05 -0.42926493E-05 -0.67964794E-05
     atom   13 type  1   force =  -0.14056890E-05 -0.16366924E-05 -0.18021305E-05
     atom   14 type  1   force =  -0.12608233E-05 -0.14922952E-05 -0.21420052E-05
     atom   15 type  1   force =   0.27080736E-06  0.46321441E-07 -0.22711493E-05
     atom   16 type  2   force =   0.64095571E-05  0.73488000E-05 -0.88695293E-05
     atom   17 type  1   force =   0.15960211E-05  0.86231723E-06 -0.19556907E-05
     atom   18 type  2   force =   0.24238845E-05 -0.62043421E-05 -0.65678827E-05
     atom   19 type  2   force =   0.41828196E-05 -0.10511823E-04 -0.56425750E-05
     atom   20 type  1   force =   0.25605050E-07 -0.35955441E-05 -0.58496688E-06
     atom   21 type  2   force =  -0.10715834E-05 -0.12433731E-04 -0.63343860E-05
     atom   22 type  2   force =   0.88717205E-05 -0.60815869E-05  0.32188066E-05
     atom   23 type  1   force =   0.22783184E-05  0.73717380E-06 -0.14142820E-05
     atom   24 type  2   force =   0.94538065E-05  0.69256325E-05 -0.60541353E-05
     atom   25 type  2   force =   0.11364777E-04 -0.62510230E-05 -0.65025792E-05
     atom   26 type  1   force =   0.17454013E-05 -0.21176686E-05 -0.94324841E-06
     atom   27 type  1   force =   0.11591046E-05 -0.30302181E-05 -0.38796430E-06
     atom   28 type  1   force =   0.17258816E-05 -0.30604222E-05  0.82942047E-06
     atom   29 type  1   force =   0.24168554E-05 -0.29674933E-05  0.97544642E-06
     atom   30 type  1   force =   0.19153981E-05 -0.20936598E-05  0.79657856E-06
     atom   31 type  2   force =   0.97718599E-05 -0.45027726E-05  0.14892799E-06
     atom   32 type  1   force =   0.26582681E-05 -0.87167694E-06 -0.13230928E-05
     atom   33 type  2   force =   0.66673546E-05  0.37937677E-05 -0.63907439E-05
     atom   34 type  2   force =   0.15264628E-05  0.64582518E-05  0.10711062E-06
     atom   35 type  1   force =   0.60334103E-06 -0.14354267E-05  0.97223110E-06
     atom   36 type  2   force =  -0.65043644E-05 -0.29799075E-05  0.35266617E-05
     atom   37 type  2   force =   0.75483373E-07 -0.75944316E-05 -0.17956969E-05
     atom   38 type  2   force =  -0.11715866E-04  0.80938431E-05  0.17495814E-05
     atom   39 type  1   force =  -0.40157023E-06  0.89316052E-06 -0.52254677E-06
     atom   40 type  2   force =  -0.27934437E-05  0.76281646E-05  0.99308872E-06
     atom   41 type  2   force =   0.43877366E-05  0.40016984E-05 -0.35359589E-05
     atom   42 type  1   force =  -0.10310700E-05  0.65605928E-06 -0.11744779E-05
     atom   43 type  1   force =  -0.22316159E-05 -0.10018472E-05 -0.97463131E-06
     atom   44 type  2   force =  -0.14532940E-04  0.19012254E-06  0.85606883E-07
     atom   45 type  2   force =  -0.21040721E-05  0.23176054E-05 -0.20945910E-05
     atom   46 type  1   force =  -0.15845270E-05  0.22485197E-05  0.38084442E-06
     atom   47 type  1   force =  -0.35748301E-06  0.16938758E-05 -0.34329466E-06
     atom   48 type  1   force =   0.62501139E-06  0.25335874E-05 -0.27792430E-06
     atom   49 type  2   force =  -0.29137793E-05 -0.50402357E-06 -0.51013924E-05
     atom   50 type  2   force =  -0.21627706E-05 -0.37568325E-05  0.44605035E-05
     atom   51 type  2   force =  -0.20716632E-05 -0.73734639E-05 -0.10734681E-05
     atom   52 type  2   force =  -0.89543841E-06 -0.27456255E-05  0.86762308E-05
     atom   53 type  2   force =  -0.50420080E-05  0.46087528E-05 -0.99810191E-07
     atom   54 type  2   force =   0.37395821E-05  0.44738711E-05  0.58785229E-05
     atom   55 type  1   force =   0.11620862E-05  0.18684779E-05 -0.15223579E-07
     atom   56 type  1   force =  -0.18247960E-06  0.12271110E-05 -0.16552129E-06
     atom   57 type  1   force =   0.99731839E-06 -0.70915458E-06  0.21707259E-06
     atom   58 type  1   force =   0.55349784E-06 -0.24621622E-06  0.15172088E-05
     atom   59 type  1   force =   0.86599175E-06 -0.18010657E-05  0.19690112E-05
     atom   60 type  1   force =   0.33837221E-06 -0.79687488E-06  0.24970835E-05
     atom   61 type  1   force =   0.10370958E-05 -0.74151301E-06  0.17700332E-05
     atom   62 type  2   force =  -0.67546548E-05  0.10968225E-05  0.10086440E-04
     atom   63 type  2   force =   0.26456112E-05  0.17133902E-05 -0.81142995E-06
     atom   64 type  1   force =   0.37989704E-06  0.38863338E-06  0.57900759E-06
     atom   65 type  2   force =  -0.11648073E-05  0.66530208E-05  0.38895405E-05
     atom   66 type  2   force =  -0.61625167E-05  0.64881841E-05 -0.24020007E-05
     atom   67 type  2   force =  -0.43343138E-05  0.44844238E-05  0.80609367E-05
     atom   68 type  1   force =  -0.24154177E-05  0.12416301E-05  0.38764682E-06
     atom   69 type  1   force =  -0.22129017E-05  0.13867914E-05  0.13218066E-05
     atom   70 type  1   force =  -0.17450805E-05  0.16122100E-05  0.88560897E-06
     atom   71 type  1   force =  -0.11404141E-05  0.17681058E-05  0.15942431E-05
     atom   72 type  2   force =  -0.75454631E-05  0.98161469E-05 -0.86023694E-06
     atom   73 type  2   force =  -0.27185330E-05  0.56337786E-05 -0.31846076E-05
     atom   74 type  1   force =  -0.15280990E-05  0.12140011E-05 -0.45105420E-06
     atom   75 type  1   force =  -0.29010731E-05  0.16615343E-05  0.78678811E-06
     atom   76 type  1   force =  -0.24831246E-05  0.21576352E-05  0.10511189E-05
     atom   77 type  2   force =  -0.98607959E-05  0.99000624E-05  0.23078967E-05
     atom   78 type  1   force =  -0.20829059E-05  0.23426391E-05  0.11677535E-05
     atom   79 type  2   force =  -0.36352228E-05  0.73365382E-05  0.13662187E-05
     atom   80 type  1   force =  -0.63525413E-06  0.10547279E-05 -0.60029375E-06
     atom   81 type  2   force =  -0.61410487E-05  0.51967505E-05 -0.16277012E-05
     atom   82 type  2   force =  -0.35978619E-05  0.36564231E-05  0.71412191E-05
     atom   83 type  2   force =  -0.65467169E-05  0.92934532E-05  0.71181701E-05
     atom   84 type  1   force =  -0.10218037E-05  0.12412267E-05  0.24950648E-05
     atom   85 type  2   force =  -0.49201277E-05  0.10917528E-04  0.11024897E-04
     atom   86 type  1   force =  -0.50368266E-06  0.17525429E-06  0.18402634E-05
     atom   87 type  2   force =  -0.65195397E-05 -0.18222183E-05  0.18878751E-05
     atom   88 type  2   force =  -0.10404018E-05  0.18776441E-05  0.43647940E-06
     atom   89 type  2   force =   0.35322937E-05  0.31286101E-06  0.73235406E-05
     atom   90 type  1   force =   0.30534779E-06  0.41657218E-06  0.21941926E-05
     atom   91 type  2   force =  -0.22287067E-05  0.10932246E-05  0.95887550E-05
     atom   92 type  2   force =   0.69047337E-06  0.50432044E-05  0.91311851E-05
     atom   93 type  1   force =  -0.10895409E-05  0.60898843E-06  0.23265257E-05
     atom   94 type  2   force =  -0.57056338E-05 -0.64634828E-05  0.85109729E-05
     atom   95 type  2   force =  -0.29241045E-06 -0.87671292E-06  0.63320172E-05
     atom   96 type  1   force =   0.86156494E-06  0.32137931E-06  0.15599646E-05
     atom   97 type  2   force =  -0.34391373E-05  0.30526486E-05 -0.91368356E-05
     atom   98 type  2   force =   0.43140139E-06  0.28806521E-05 -0.58883346E-05
     atom   99 type  1   force =  -0.19601350E-06  0.99035351E-07  0.26000811E-06
     atom  100 type  1   force =  -0.42224176E-06 -0.57459221E-06  0.45754550E-07
     atom  101 type  2   force =   0.12202695E-05 -0.14302101E-05  0.28070770E-05
     atom  102 type  1   force =   0.67935133E-06 -0.59684040E-06 -0.48613114E-06
     atom  103 type  1   force =   0.51610944E-06 -0.27961476E-06 -0.90832488E-07
     atom  104 type  2   force =  -0.33872642E-05  0.23687312E-05 -0.10788146E-04
     atom  105 type  1   force =   0.49060999E-06  0.16243927E-05 -0.17826482E-05
     atom  106 type  1   force =   0.53349716E-06  0.16073447E-05 -0.93186414E-06
     atom  107 type  1   force =  -0.11868342E-05  0.13037457E-05 -0.19738310E-06
     atom  108 type  1   force =  -0.77184793E-06  0.53695111E-06 -0.29528488E-06
     atom  109 type  1   force =  -0.12077155E-05  0.35142626E-06 -0.55589891E-06
     atom  110 type  2   force =  -0.46352870E-05 -0.84971953E-05 -0.12664006E-05
     atom  111 type  2   force =  -0.28792155E-05  0.10777104E-05 -0.64085091E-05
     atom  112 type  1   force =   0.72379938E-06  0.91314668E-07 -0.23032862E-05
     atom  113 type  1   force =   0.80750593E-06  0.18929842E-05 -0.51076276E-06
     atom  114 type  2   force =   0.39233531E-05  0.27647146E-05 -0.81785578E-06
     atom  115 type  1   force =  -0.79851507E-07  0.48821616E-06  0.77313213E-06
     atom  116 type  1   force =   0.40863068E-06 -0.17079947E-05  0.48641020E-06
     atom  117 type  1   force =  -0.65507559E-06 -0.19787150E-05  0.90550333E-07
     atom  118 type  1   force =   0.52673200E-06 -0.32638173E-05 -0.39543118E-06
     atom  119 type  1   force =   0.45020993E-06 -0.91764039E-06 -0.95242237E-06
     atom  120 type  2   force =   0.97466833E-05 -0.72244154E-06 -0.35737029E-05
     atom  121 type  2   force =   0.10145565E-04  0.16721491E-05  0.53560751E-05
     atom  122 type  1   force =   0.14553429E-05 -0.57214643E-06 -0.29666320E-06
     atom  123 type  2   force =  -0.62592294E-05 -0.41159072E-05  0.31497459E-05
     atom  124 type  2   force =   0.24942229E-05 -0.88847378E-05 -0.75582091E-06
     atom  125 type  1   force =   0.51267780E-06 -0.27099877E-05  0.64179826E-06
     atom  126 type  1   force =   0.15242065E-05 -0.24893984E-05  0.73764378E-06
     atom  127 type  1   force =   0.20805839E-05 -0.12354091E-05  0.10671476E-05
     atom  128 type  2   force =   0.11723242E-04 -0.75151404E-05 -0.15663710E-05

     Total force =     0.249573     Total SCF correction =     0.000080


     entering subroutine stress ...

          total   stress  (Ry/bohr**3)                   (kbar)     P=   -0.53
   0.0000001511  -0.0000040223  -0.0000123056          0.02     -0.59     -1.81
  -0.0000040223  -0.0000013996  -0.0000031762         -0.59     -0.21     -0.47
  -0.0000123056  -0.0000031762  -0.0000095243         -1.81     -0.47     -1.40

     kinetic stress (kbar)   6077.51     -0.01      1.56
                               -0.01   6077.26      1.08
                                1.56      1.08   6075.89

     local   stress (kbar)  -6635.56  -1443.34  -1042.64
                            -1443.34  -6900.70   1121.69
                            -1042.64   1121.69  -4290.05

     nonloc. stress (kbar)   2445.61     -0.46     -1.66
                               -0.46   2445.69     -0.04
                               -1.66     -0.04   2446.07

     hartree stress (kbar)  16800.88    706.39    534.18
                              706.39  16926.26   -529.52
                              534.18   -529.52  15633.86

     exc-cor stress (kbar)  10167.61     -0.01     -0.04
                               -0.01  10167.61     -0.02
                               -0.04     -0.02  10167.62

     corecor stress (kbar) -15470.63      0.04      0.17
                                0.04 -15470.64      0.04
                                0.17      0.04 -15470.68

     ewald   stress (kbar) -13385.40    736.80    506.62
                              736.80 -13245.69   -593.71
                              506.62   -593.71 -14564.11

     hubbard stress (kbar)      0.00      0.00      0.00
                                0.00      0.00      0.00
                                0.00      0.00      0.00

     london  stress (kbar)      0.00      0.00      0.00
                                0.00      0.00      0.00
                                0.00      0.00      0.00

     XDM     stress (kbar)      0.00      0.00      0.00
                                0.00      0.00      0.00
                                0.00      0.00      0.00

     dft-nl  stress (kbar)      0.00      0.00      0.00
                                0.00      0.00      0.00
                                0.00      0.00      0.00



     Writing output data file SiGe_zns.scf.in.super.444.b.077.save

     init_run     :   1844.62s CPU   1454.09s WALL (       1 calls)
     electrons    :  81547.28s CPU  66535.65s WALL (       1 calls)
     forces       :   1360.06s CPU   1008.77s WALL (       1 calls)
     stress       :   6187.01s CPU   6202.23s WALL (       1 calls)

     Called by init_run:
     wfcinit      :   1715.22s CPU   1324.52s WALL (       1 calls)
     potinit      :     10.35s CPU     10.40s WALL (       1 calls)

     Called by electrons:
     c_bands      :  70578.58s CPU  56775.15s WALL (      16 calls)
     sum_band     :   9197.29s CPU   7934.38s WALL (      16 calls)
     v_of_rho     :     20.48s CPU     21.77s WALL (      16 calls)
     v_h          :      1.46s CPU      1.56s WALL (      16 calls)
     v_xc         :     21.67s CPU     22.87s WALL (      18 calls)
     newd         :   1806.57s CPU   1856.44s WALL (      16 calls)
     mix_rho      :     37.97s CPU     41.23s WALL (      16 calls)

     Called by c_bands:
     init_us_2    :     95.14s CPU    102.53s WALL (     280 calls)
     cegterg      :  69876.32s CPU  56025.45s WALL (     128 calls)

     Called by sum_band:
     sum_band:bec :     19.05s CPU     20.93s WALL (     128 calls)
     addusdens    :   1300.97s CPU   1339.66s WALL (      16 calls)

     Called by *egterg:
     h_psi        :  33417.45s CPU  27223.55s WALL (     497 calls)
     s_psi        :   9055.73s CPU   5642.18s WALL (     497 calls)
     g_psi        :     14.68s CPU     19.59s WALL (     361 calls)
     cdiaghg      :  12231.12s CPU  12794.69s WALL (     481 calls)
     cegterg:over :   7219.37s CPU   4950.48s WALL (     361 calls)
     cegterg:upda :   3666.03s CPU   2386.61s WALL (     361 calls)
     cegterg:last :   2427.29s CPU   1519.06s WALL (     128 calls)

     Called by h_psi:
     h_psi:vloc   :  14409.30s CPU  15126.73s WALL (     497 calls)
     h_psi:vnl    :  18979.69s CPU  12066.38s WALL (     497 calls)
     add_vuspsi   :   8965.94s CPU   5553.25s WALL (     497 calls)

     General routines
     calbec       :  15716.44s CPU  10580.90s WALL (     641 calls)
     fft          :    327.38s CPU    330.08s WALL (     281 calls)
     ffts         :     21.60s CPU     23.36s WALL (     454 calls)
     fftw         :  16021.11s CPU  16810.21s WALL (  486982 calls)
     interpolate  :      5.10s CPU      5.28s WALL (      32 calls)

     Parallel routines
     fft_scatter  :  10340.93s CPU  10854.08s WALL (  487717 calls)

     PWSCF        :     1d    1h16m CPU        0d   20h54m WALL


   This run was terminated on:   9:16:13   3Nov2017            

=------------------------------------------------------------------------------=
   JOB DONE.
=------------------------------------------------------------------------------=
