
     Program PWSCF v.5.1 starts on  2Nov2017 at 12:21:59 

     This program is part of the open-source Quantum ESPRESSO suite
     for quantum simulation of materials; please cite
         "P. Giannozzi et al., J. Phys.:Condens. Matter 21 395502 (2009);
          URL http://www.quantum-espresso.org", 
     in publications or presentations arising from this work. More details at
     http://www.quantum-espresso.org/quote

     Parallel version (MPI), running on     8 processors
     R & G space division:  proc/nbgrp/npool/nimage =       8
     Reading input from /tmp/SiGe_zns.scf.in.super.444.b.05.1240/SiGe_zns.scf.in.super.444.b.05.t
Warning: card &IONS ignored
Warning: card   ION_DYNAMICS='BFGS', ignored
Warning: card / ignored
Warning: card &CELL ignored
Warning: card  CELL_DYNAMICS = 'BFGS' ignored
Warning: card / ignored
     Message from routine read_cards :
     DEPRECATED: no units specified in CELL_PARAMETERS card

     Current dimensions of program PWSCF are:
     Max number of different atomic species (ntypx) = 10
     Max number of k-points (npk) =  40000
     Max angular momentum in pseudopotentials (lmaxx) =  3
 kfg - two_fermi_energies  F

     Subspace diagonalization in iterative solution of the eigenvalue problem:
     a serial algorithm will be used


     Parallelization info
     --------------------
     sticks:   dense  smooth     PW     G-vecs:    dense   smooth      PW
     Min        1510    1056    277               109438    64093    8641
     Max        1511    1057    278               109439    64116    8645
     Sum       12087    8449   2221               875511   512851   69149



     bravais-lattice index     =            0
     lattice parameter (alat)  =    29.580468197  a.u.
     unit-cell volume          =   18328.0314 (a.u.)^3
     number of atoms/cell      =          128
     number of atomic types    =            2
     number of electrons       =      1172.00
     number of Kohn-Sham states=          703
     kinetic-energy cutoff     =      35.0000  Ry
     charge density cutoff     =     200.0000  Ry
     convergence threshold     =      1.0E-09
     mixing beta               =       0.3000
     number of iterations used =            8  local-TF  mixing
     Exchange-correlation      = SLA  PW   PSX  PSC ( 1  4 10  8 0)
     A smooth kinetic-energy cutoff is imposed at      34.5000 Ry
     height of the smooth step-function =             800.0000 Ry
     width of the smooth step-function  =               1.0000 Ry


     celldm(1)=  29.580468  celldm(2)=   0.000000  celldm(3)=   0.000000
     celldm(4)=   0.000000  celldm(5)=   0.000000  celldm(6)=   0.000000

     crystal axes: (cart. coord. in units of alat)
               a(1) = (  -0.000476980822   0.706554688147   0.707658282751 )  
               a(2) = (   0.708650108699   0.000288554442   0.706352901037 )  
               a(3) = (   0.708218604126   0.707708468340   0.000684266470 )  

     reciprocal axes: (cart. coord. in units 2 pi/alat)
               b(1) = ( -0.705952  0.705777  0.707960 )  
               b(2) = (  0.706574 -0.707767  0.707140 )  
               b(3) = (  0.704513  0.708674 -0.707094 )  


     PseudoPot. # 1 for Si read from file:
     /users/kfg/psuedo/gbrv_1.5/si.pbesol.UPF
     MD5 check sum: ef58ba74faed4df802eb8a9742fc00a8
     Pseudo is Ultrasoft + core correction, Zval =  4.0
     Generated by new atomic code, or converted to UPF format
     Using radial grid of  899 points,  6 beta functions with: 
                l(1) =   0
                l(2) =   0
                l(3) =   1
                l(4) =   1
                l(5) =   2
                l(6) =   2
     Q(r) pseudized with  8 coefficients,  rinner =    0.900   0.900   0.900
                                                       0.900   0.900

     PseudoPot. # 2 for Ge read from file:
     /users/kfg/psuedo/gbrv_1.5/ge.pbesol.UPF
     MD5 check sum: 7bed0412183f5e553a4d27ec7023354d
     Pseudo is Ultrasoft + core correction, Zval = 14.0
     Generated by new atomic code, or converted to UPF format
     Using radial grid of  873 points,  6 beta functions with: 
                l(1) =   0
                l(2) =   0
                l(3) =   1
                l(4) =   1
                l(5) =   2
                l(6) =   2
     Q(r) pseudized with  8 coefficients,  rinner =    1.400   1.400   1.400
                                                       1.400   1.400

     atomic species   valence    mass     pseudopotential
        Si             4.00    28.08550     Si( 1.00)
        Ge            14.00    72.64000     Ge( 1.00)

     No symmetry found


                                    s                        frac. trans.

      isym =  1     identity                                     

 cryst.   s( 1) = (     1          0          0      )
                  (     0          1          0      )
                  (     0          0          1      )

 cart.    s( 1) = (  1.0000000  0.0000000  0.0000000 )
                  (  0.0000000  1.0000000 -0.0000000 )
                  (  0.0000000 -0.0000000  1.0000000 )


     point group C_1 (1)    
     there are  1 classes
     the character table:

       E    
A      1.00

     the symmetry operations in each class:
     E        1

   Cartesian axes

     site n.     atom                  positions (alat units)
         1           Ge  tau(   1) = (   -0.00139736948   -0.00041391173    0.00088512216  )
         2           Ge  tau(   2) = (    0.08821167284    0.08962096982    0.09005278775  )
         3           Si  tau(   3) = (    0.17740971433    0.17545299476    0.00110322692  )
         4           Si  tau(   4) = (    0.26579525215    0.26372478308    0.08704003302  )
         5           Si  tau(   5) = (    0.35478613090    0.35345146460   -0.00048588502  )
         6           Ge  tau(   6) = (    0.44240114601    0.44132120866    0.08813950168  )
         7           Ge  tau(   7) = (    0.53236440874    0.53008046540    0.00020868787  )
         8           Ge  tau(   8) = (    0.61952703167    0.61990927665    0.08747394271  )
         9           Ge  tau(   9) = (    0.17621089569    0.00131090500    0.17716764142  )
        10           Ge  tau(  10) = (    0.26410084397    0.08985306588    0.26503158557  )
        11           Ge  tau(  11) = (    0.35318406014    0.17775749025    0.17555092707  )
        12           Ge  tau(  12) = (    0.44376269047    0.26485348067    0.26627827609  )
        13           Si  tau(  13) = (    0.52960480512    0.35457132676    0.17555638814  )
        14           Ge  tau(  14) = (    0.61945498802    0.44200624530    0.26453749990  )
        15           Si  tau(  15) = (    0.70928863832    0.53173488199    0.17735824448  )
        16           Ge  tau(  16) = (    0.79833659230    0.62011421084    0.26579235369  )
        17           Si  tau(  17) = (    0.35370914226    0.00080999143    0.35314810567  )
        18           Si  tau(  18) = (    0.44372974500    0.09009116664    0.44281062796  )
        19           Ge  tau(  19) = (    0.53111410330    0.17816925669    0.35439018378  )
        20           Si  tau(  20) = (    0.62148983059    0.26483802794    0.44267624775  )
        21           Si  tau(  21) = (    0.70706397735    0.35321886115    0.35296885306  )
        22           Si  tau(  22) = (    0.79691219539    0.44322285059    0.44334418201  )
        23           Ge  tau(  23) = (    0.88712452083    0.53191733299    0.35294965146  )
        24           Ge  tau(  24) = (    0.97327263138    0.61783795027    0.44299280203  )
        25           Si  tau(  25) = (    0.53152856264    0.00080575778    0.52922195530  )
        26           Si  tau(  26) = (    0.62163259664    0.09016158578    0.61751083082  )
        27           Si  tau(  27) = (    0.70769314972    0.17881461326    0.52829467667  )
        28           Si  tau(  28) = (    0.79790676739    0.26711611698    0.61864170145  )
        29           Ge  tau(  29) = (    0.88514426926    0.35376781937    0.52966379230  )
        30           Si  tau(  30) = (    0.97395795792    0.44373184410    0.61916563415  )
        31           Ge  tau(  31) = (    1.06413182545    0.53267323536    0.53059484254  )
        32           Ge  tau(  32) = (    1.15198323106    0.61931438599    0.61865515567  )
        33           Ge  tau(  33) = (    0.00075085672    0.17749243156    0.17763020166  )
        34           Ge  tau(  34) = (    0.08731038205    0.26587647324    0.26591500089  )
        35           Ge  tau(  35) = (    0.17547410658    0.35273969891    0.17734470719  )
        36           Ge  tau(  36) = (    0.26461529444    0.44040344177    0.26386299208  )
        37           Si  tau(  37) = (    0.35434638797    0.53080259756    0.17754747006  )
        38           Ge  tau(  38) = (    0.44202872243    0.61777286973    0.26520141471  )
        39           Si  tau(  39) = (    0.53074510969    0.70824709837    0.17865081567  )
        40           Si  tau(  40) = (    0.61821204211    0.79741055519    0.26730227614  )
        41           Si  tau(  41) = (    0.17684409646    0.17750852375    0.35481468292  )
        42           Ge  tau(  42) = (    0.26524893150    0.26623479771    0.44107911219  )
        43           Ge  tau(  43) = (    0.35448137151    0.35209488038    0.35206156497  )
        44           Si  tau(  44) = (    0.44400408371    0.44255763431    0.44188557531  )
        45           Ge  tau(  45) = (    0.53037652819    0.53172141376    0.35222491731  )
        46           Ge  tau(  46) = (    0.61974132072    0.61993526088    0.44278254003  )
        47           Si  tau(  47) = (    0.70781474420    0.70900579595    0.35305634054  )
        48           Si  tau(  48) = (    0.79688013654    0.79585646076    0.44232242890  )
        49           Si  tau(  49) = (    0.35304188730    0.17582605323    0.53152295109  )
        50           Si  tau(  50) = (    0.44307951446    0.26617192884    0.61848316431  )
        51           Si  tau(  51) = (    0.53004319629    0.35226953908    0.53191430870  )
        52           Ge  tau(  52) = (    0.62037633418    0.44302543410    0.61899237117  )
        53           Si  tau(  53) = (    0.70999641051    0.53048003617    0.53081135857  )
        54           Ge  tau(  54) = (    0.79628934942    0.61916517692    0.61925088486  )
        55           Si  tau(  55) = (    0.88688991659    0.70749935757    0.52930149375  )
        56           Si  tau(  56) = (    0.97308835607    0.79652515310    0.61919401381  )
        57           Ge  tau(  57) = (    0.53257794623    0.17555278788    0.70813233566  )
        58           Ge  tau(  58) = (    0.61875728428    0.26617691817    0.79381813549  )
        59           Si  tau(  59) = (    0.70824003421    0.35368676284    0.70807262312  )
        60           Si  tau(  60) = (    0.79735364269    0.44117180626    0.79558827263  )
        61           Ge  tau(  61) = (    0.88625630929    0.52943313499    0.70805816926  )
        62           Ge  tau(  62) = (    0.97405925644    0.61996360744    0.79397640516  )
        63           Ge  tau(  63) = (    1.06221497555    0.70752415751    0.70686415863  )
        64           Ge  tau(  64) = (    1.14949004300    0.79601323103    0.79452588368  )
        65           Si  tau(  65) = (   -0.00119742304    0.35320394044    0.35280594082  )
        66           Ge  tau(  66) = (    0.08671812430    0.44242621028    0.44287444926  )
        67           Si  tau(  67) = (    0.17529108832    0.53062543505    0.35295440303  )
        68           Ge  tau(  68) = (    0.26565606033    0.61822910260    0.44395435842  )
        69           Ge  tau(  69) = (    0.35460614151    0.70876652537    0.35321619674  )
        70           Si  tau(  70) = (    0.44230180855    0.79516704470    0.44336408828  )
        71           Ge  tau(  71) = (    0.53110682349    0.88335965651    0.35517286849  )
        72           Si  tau(  72) = (    0.62091746808    0.97358744517    0.44310496156  )
        73           Ge  tau(  73) = (    0.17606717785    0.35414865715    0.52990874904  )
        74           Ge  tau(  74) = (    0.26411064205    0.44244687501    0.61803157553  )
        75           Si  tau(  75) = (    0.35562771351    0.53147047658    0.52987921121  )
        76           Ge  tau(  76) = (    0.44403674931    0.61967539104    0.61979307118  )
        77           Si  tau(  77) = (    0.52958653207    0.70698561364    0.53194303101  )
        78           Ge  tau(  78) = (    0.62069286660    0.79433503619    0.61772855110  )
        79           Si  tau(  79) = (    0.70942898183    0.88437467926    0.53238324818  )
        80           Si  tau(  80) = (    0.79575120564    0.97153655126    0.61777116715  )
        81           Ge  tau(  81) = (    0.35574721528    0.35248441501    0.70787129999  )
        82           Si  tau(  82) = (    0.44385854928    0.44323133420    0.79393006353  )
        83           Si  tau(  83) = (    0.53139430420    0.53013504228    0.70605548933  )
        84           Si  tau(  84) = (    0.61828465354    0.61787573371    0.79465199300  )
        85           Ge  tau(  85) = (    0.70838683086    0.70867481498    0.70812249718  )
        86           Ge  tau(  86) = (    0.79575761381    0.79631626090    0.79618570445  )
        87           Ge  tau(  87) = (    0.88489664959    0.88529266563    0.70769580583  )
        88           Ge  tau(  88) = (    0.97500424067    0.97230780731    0.79555188267  )
        89           Ge  tau(  89) = (    0.53200769109    0.35187244989    0.88275668145  )
        90           Ge  tau(  90) = (    0.61933824326    0.44336239204    0.97168827316  )
        91           Ge  tau(  91) = (    0.70986709332    0.53122543711    0.88327446645  )
        92           Ge  tau(  92) = (    0.79763727633    0.61730509433    0.97381181434  )
        93           Si  tau(  93) = (    0.88580114580    0.70750629595    0.88427777148  )
        94           Si  tau(  94) = (    0.97350563915    0.79704139974    0.97349533425  )
        95           Si  tau(  95) = (    1.06284637541    0.88273184464    0.88357839325  )
        96           Ge  tau(  96) = (    1.15155575242    0.97200688683    0.97333132924  )
        97           Si  tau(  97) = (   -0.00164741703    0.52986067810    0.53169361373  )
        98           Si  tau(  98) = (    0.08848557853    0.61781666220    0.61913611959  )
        99           Si  tau(  99) = (    0.17809781671    0.70777272102    0.53078105444  )
       100           Si  tau( 100) = (    0.26381366663    0.79657839850    0.61941740369  )
       101           Si  tau( 101) = (    0.35213184162    0.88267239227    0.53130488638  )
       102           Si  tau( 102) = (    0.44191192190    0.97121289812    0.62110333277  )
       103           Ge  tau( 103) = (    0.53014995689    1.05989978221    0.53247874735  )
       104           Ge  tau( 104) = (    0.61975166086    1.14893168287    0.61922427368  )
       105           Ge  tau( 105) = (    0.17545659489    0.53078832979    0.70858318054  )
       106           Ge  tau( 106) = (    0.26628725126    0.61940727948    0.79559705651  )
       107           Si  tau( 107) = (    0.35488687711    0.70825362821    0.70704409710  )
       108           Ge  tau( 108) = (    0.44120587722    0.79394418447    0.79692843454  )
       109           Si  tau( 109) = (    0.53217183527    0.88548505445    0.70802381378  )
       110           Si  tau( 110) = (    0.61814107645    0.97072619656    0.79475794452  )
       111           Si  tau( 111) = (    0.70773690148    1.05947174258    0.70806860097  )
       112           Ge  tau( 112) = (    0.79684976407    1.14981581902    0.79571485119  )
       113           Ge  tau( 113) = (    0.35240394885    0.52844437035    0.88234623897  )
       114           Ge  tau( 114) = (    0.44363332095    0.61873085440    0.97166774429  )
       115           Ge  tau( 115) = (    0.53178351599    0.70790234492    0.88428183310  )
       116           Ge  tau( 116) = (    0.61926065719    0.79418876617    0.97265947014  )
       117           Si  tau( 117) = (    0.70780501781    0.88254282577    0.88282338135  )
       118           Si  tau( 118) = (    0.79687984143    0.97354068869    0.97211227684  )
       119           Si  tau( 119) = (    0.88672834468    1.06167773830    0.88310082919  )
       120           Ge  tau( 120) = (    0.97401311991    1.14869212102    0.97282728794  )
       121           Si  tau( 121) = (    0.53162586879    0.53121133252    1.06073886217  )
       122           Ge  tau( 122) = (    0.62083889739    0.61892850737    1.14919355139  )
       123           Si  tau( 123) = (    0.70745143806    0.70690632070    1.06084732571  )
       124           Ge  tau( 124) = (    0.79693313190    0.79668001629    1.15042982806  )
       125           Ge  tau( 125) = (    0.88543038283    0.88514200367    1.06081332931  )
       126           Si  tau( 126) = (    0.97490194977    0.97122865217    1.14845724174  )
       127           Si  tau( 127) = (    1.06067295849    1.06227757880    1.06245740341  )
       128           Si  tau( 128) = (    1.15123495928    1.14816995871    1.14987925852  )

   Crystallographic axes

     site n.     atom                  positions (cryst. coord.)
         1           Ge  tau(   1) = (    0.00132097766   -0.00006848704   -0.00190365806  )
         2           Ge  tau(   2) = (    0.06473290312    0.06257721890    0.06198255167  )
         3           Si  tau(   3) = (   -0.00063112665    0.00195338192    0.24854634990  )
         4           Si  tau(   4) = (    0.06011286623    0.06269778138    0.31260564739  )
         5           Si  tau(   5) = (   -0.00134827766    0.00017777234    0.50077688915  )
         6           Ge  tau(   6) = (    0.06155932080    0.06256349647    0.56210734614  )
         7           Ge  tau(   7) = (   -0.00155771524    0.00112894269    0.75056435581  )
         8           Ge  tau(   8) = (    0.06208899546    0.06084665094    0.81392617727  )
         9           Ge  tau(   9) = (    0.00195630183    0.24886057149   -0.00020225708  )
        10           Ge  tau(  10) = (    0.06460531595    0.31042619532    0.06233682954  )
        11           Ge  tau(  11) = (    0.00040900244    0.24787888878    0.25066392313  )
        12           Ge  tau(  12) = (    0.06216643789    0.31439264613    0.31204766230  )
        13           Si  tau(  13) = (    0.00065931694    0.24739405706    0.50025414768  )
        14           Ge  tau(  14) = (    0.06193394327    0.31191839600    0.56259962923  )
        15           Si  tau(  15) = (    0.00012464609    0.25023762280    0.75112087719  )
        16           Ge  tau(  16) = (    0.06224489448    0.31313989733    0.81395723902  )
        17           Si  tau(  17) = (    0.00088458291    0.49907359779    0.00005789859  )
        18           Si  tau(  18) = (    0.06382435678    0.56289348336    0.06335001589  )
        19           Ge  tau(  19) = (    0.00170051384    0.49977261236    0.24985364308  )
        20           Si  tau(  20) = (    0.06157133637    0.56471904551    0.31251789300  )
        21           Si  tau(  21) = (    0.00002797603    0.49919479988    0.49887074336  )
        22           Si  tau(  22) = (    0.06410422898    0.56288535251    0.56204963173  )
        23           Ge  tau(  23) = (   -0.00097856187    0.49993043297    0.75237828448  )
        24           Ge  tau(  24) = (    0.06259267285    0.56366176562    0.81029150048  )
        25           Si  tau(  25) = (    0.00000278875    0.74922805995    0.00083027731  )
        26           Si  tau(  26) = (    0.06196386574    0.81208269876    0.06520537473  )
        27           Si  tau(  27) = (    0.00061701266    0.74705686085    0.25174644854  )
        28           Si  tau(  28) = (    0.06321369831    0.81219054426    0.31399627225  )
        29           Ge  tau(  29) = (   -0.00020784469    0.74958125322    0.49977977349  )
        30           Si  tau(  30) = (    0.06395213666    0.81195144217    0.56281913775  )
        31           Ge  tau(  31) = (    0.00036189147    0.75008423367    0.75200611964  )
        32           Ge  tau(  32) = (    0.06183544782    0.81310695754    0.81303200478  )
        33           Ge  tau(  33) = (    0.25049495101    0.00051657972    0.00071201707  )
        34           Ge  tau(  34) = (    0.31426953171    0.06155167587    0.06190416425  )
        35           Ge  tau(  35) = (    0.25063198333   -0.00026463820    0.24820188017  )
        36           Ge  tau(  36) = (    0.31082504279    0.06185522571    0.31195147701  )
        37           Si  tau(  37) = (    0.25017287089    0.00023819730    0.50026491118  )
        38           Ge  tau(  38) = (    0.31171037710    0.06262115903    0.56169226399  )
        39           Si  tau(  39) = (    0.25166109887    0.00006779880    0.74951024795  )
        40           Si  tau(  40) = (    0.31560476787    0.06145168168    0.81163476260  )
        41           Si  tau(  41) = (    0.25163238576    0.25022235288   -0.00050263758  )
        42           Ge  tau(  42) = (    0.31291546503    0.31089039257    0.06366067684  )
        43           Ge  tau(  43) = (    0.24749882240    0.25022292648    0.25031666582  )
        44           Si  tau(  44) = (    0.31173834073    0.31296892718    0.31398117948  )
        45           Ge  tau(  45) = (    0.25021709315    0.24748764379    0.50141824743  )
        46           Ge  tau(  46) = (    0.31350023764    0.31223253184    0.56285903020  )
        47           Si  tau(  47) = (    0.25066596984    0.24797276484    0.75147472433  )
        48           Si  tau(  48) = (    0.31228402015    0.31255762494    0.81265176005  )
        49           Si  tau(  49) = (    0.25116006710    0.50086743713   -0.00251063432  )
        50           Si  tau(  50) = (    0.31292613707    0.56203488118    0.06345878847  )
        51           Si  tau(  51) = (    0.25101234561    0.50132782195    0.24695328226  )
        52           Ge  tau(  52) = (    0.31294261374    0.56249720383    0.31333813583  )
        53           Si  tau(  53) = (    0.24896992559    0.50156662980    0.50080570547  )
        54           Ge  tau(  54) = (    0.31325475273    0.56230966841    0.56191401351  )
        55           Si  tau(  55) = (    0.24795873008    0.50019885614    0.75194609585  )
        56           Si  tau(  56) = (    0.31357935652    0.56166148932    0.81220183796  )
        57           Ge  tau(  57) = (    0.24925566919    0.75280394193   -0.00109819040  )
        58           Ge  tau(  58) = (    0.31303965891    0.81014708997    0.06325133873  )
        59           Si  tau(  59) = (    0.25092714165    0.75080262493    0.24893918184  )
        60           Si  tau(  60) = (    0.31171964297    0.81373475583    0.31183747861  )
        61           Ge  tau(  61) = (    0.24928359801    0.75218658756    0.49891107588  )
        62           Ge  tau(  62) = (    0.31201985127    0.81090758884    0.56417373198  )
        63           Ge  tau(  63) = (    0.24991234822    0.74962311813    0.74992900737  )
        64           Ge  tau(  64) = (    0.31281480799    0.81064885929    0.81214026864  )
        65           Si  tau(  65) = (    0.49990076919   -0.00134915032   -0.00000410104  )
        66           Ge  tau(  66) = (    0.56457245930    0.06131213744    0.06147616204  )
        67           Si  tau(  67) = (    0.50063335375   -0.00211505882    0.24996338201  )
        68           Ge  tau(  68) = (    0.56309292269    0.06408118658    0.31136361532  )
        69           Ge  tau(  69) = (    0.49995864291   -0.00131297060    0.50235202362  )
        70           Si  tau(  70) = (    0.56285023278    0.06324623321    0.56162154589  )
        71           Ge  tau(  71) = (    0.49996658263    0.00121020064    0.74904511976  )
        72           Si  tau(  72) = (    0.56249760024    0.06298809767    0.81408373493  )
        73           Ge  tau(  73) = (    0.50080885918    0.24846927216    0.00032232611  )
        74           Ge  tau(  74) = (    0.56336060743    0.31049908731    0.06261363656  )
        75           Si  tau(  75) = (    0.49917637631    0.24981865304    0.25250931619  )
        76           Ge  tau(  76) = (    0.56267217674    0.31343931990    0.31372562615  )
        77           Si  tau(  77) = (    0.50170533661    0.24996901186    0.49798927395  )
        78           Ge  tau(  78) = (    0.55977048870    0.31318169638    0.56341872534  )
        79           Si  tau(  79) = (    0.50025386428    0.25180217380    0.75009037097  )
        80           Si  tau(  80) = (    0.56128251526    0.31148611117    0.81229758262  )
        81           Ge  tau(  81) = (    0.49877908791    0.50244887425   -0.00010635983  )
        82           Si  tau(  82) = (    0.56154988574    0.56133395251    0.06542758278  )
        83           Si  tau(  83) = (    0.49887676679    0.49953725008    0.25081963569  )
        84           Si  tau(  84) = (    0.56218441426    0.56148185891    0.31156852290  )
        85           Ge  tau(  85) = (    0.50140104813    0.49969266518    0.50057810679  )
        86           Ge  tau(  86) = (    0.56392193494    0.56166986365    0.56197222370  )
        87           Ge  tau(  87) = (    0.50114421211    0.49910389088    0.75039776722  )
        88           Ge  tau(  88) = (    0.56114437250    0.56331165519    0.81342261660  )
        89           Ge  tau(  89) = (    0.49772752382    0.75109154554   -0.00002260294  )
        90           Ge  tau(  90) = (    0.56360777109    0.81093054725    0.06345647042  )
        91           Ge  tau(  91) = (    0.49911699279    0.75018838877    0.25201834329  )
        92           Ge  tau(  92) = (    0.56200524042    0.81530273948    0.31083759423  )
        93           Si  tau(  93) = (    0.50004115915    0.75044251204    0.50018240985  )
        94           Si  tau(  94) = (    0.56448019884    0.81213152326    0.56233737836  )
        95           Si  tau(  95) = (    0.49823064331    0.75102464342    0.74958540142  )
        96           Ge  tau(  96) = (    0.56215576054    0.81398632646    0.81188546567  )
        97           Si  tau(  97) = (    0.75154388923   -0.00020037601   -0.00161948375  )
        98           Si  tau(  98) = (    0.81189734816    0.06306698838    0.06238244740  )
        99           Si  tau(  99) = (    0.74957244059    0.00023734722    0.25174028360  )
       100           Si  tau( 100) = (    0.81448907967    0.06062649897    0.31238827379  )
       101           Si  tau( 101) = (    0.75052367810   -0.00021253523    0.49792597663  )
       102           Si  tau( 102) = (    0.81320673108    0.06405774227    0.56042763855  )
       103           Ge  tau( 103) = (    0.75076538200    0.00096481635    0.74810847565  )
       104           Ge  tau( 104) = (    0.81175983055    0.06260242318    0.81299140885  )
       105           Ge  tau( 105) = (    0.75240233692    0.24936586500   -0.00126750549  )
       106           Ge  tau( 106) = (    0.81242773354    0.31235385195    0.06399884486  )
       107           Si  tau( 107) = (    0.74989437334    0.24945420257    0.25199678961  )
       108           Ge  tau( 108) = (    0.81307016324    0.31335680798    0.30997965710  )
       109           Si  tau( 109) = (    0.75051905346    0.24997338026    0.50180290846  )
       110           Si  tau( 110) = (    0.81139435098    0.31171929902    0.56144836995  )
       111           Si  tau( 111) = (    0.74940594263    0.25091272027    0.74875896250  )
       112           Ge  tau( 112) = (    0.81230926891    0.31191314690    0.81359050892  )
       113           Ge  tau( 113) = (    0.74884890930    0.49892607644   -0.00113366534  )
       114           Ge  tau( 114) = (    0.81140344694    0.56264737594    0.06396361300  )
       115           Ge  tau( 115) = (    0.75024306397    0.50002531184    0.25105013469  )
       116           Ge  tau( 116) = (    0.81195512598    0.56325904835    0.31133658038  )
       117           Si  tau( 117) = (    0.74820493034    0.49976142427    0.49985401050  )
       118           Si  tau( 118) = (    0.81275946417    0.56143382472    0.56396057498  )
       119           Si  tau( 119) = (    0.74851925840    0.49959440349    0.75265990270  )
       120           Ge  tau( 120) = (    0.81183581115    0.56313079734    0.81237296779  )
       121           Si  tau( 121) = (    0.75057446082    0.74974984400    0.00095107634  )
       122           Ge  tau( 122) = (    0.81212541150    0.81325195994    0.06341993216  )
       123           Si  tau( 123) = (    0.75052820563    0.74970919788    0.24925626074  )
       124           Ge  tau( 124) = (    0.81413938183    0.81274312914    0.31257432758  )
       125           Ge  tau( 125) = (    0.75065407718    0.74929111166    0.50097978313  )
       126           Si  tau( 126) = (    0.81029772764    0.81355660489    0.56304856641  )
       127           Si  tau( 127) = (    0.75312327046    0.74890482823    0.74880932643  )
       128           Si  tau( 128) = (    0.81170280896    0.81392126538    0.81166567698  )

     number of k points=     8  gaussian smearing, width (Ry)=  0.0150
                       cart. coord. in units 2pi/alat
        k(    1) = (   0.0000000   0.0000000   0.0000000), wk =   0.2500000
        k(    2) = (  -0.3522566  -0.3543370   0.3535469), wk =   0.2500000
        k(    3) = (  -0.3532872   0.3538837  -0.3535699), wk =   0.2500000
        k(    4) = (  -0.7055437  -0.0004533  -0.0000230), wk =   0.2500000
        k(    5) = (   0.3529761  -0.3528883  -0.3539799), wk =   0.2500000
        k(    6) = (   0.0007195  -0.7072252  -0.0004329), wk =   0.2500000
        k(    7) = (  -0.0003111   0.0009954  -0.7075498), wk =   0.2500000
        k(    8) = (  -0.3525676  -0.3533415  -0.3540028), wk =   0.2500000

                       cryst. coord.
        k(    1) = (   0.0000000   0.0000000   0.0000000), wk =   0.2500000
        k(    2) = (   0.0000000   0.0000000  -0.5000000), wk =   0.2500000
        k(    3) = (   0.0000000  -0.5000000   0.0000000), wk =   0.2500000
        k(    4) = (   0.0000000  -0.5000000  -0.5000000), wk =   0.2500000
        k(    5) = (  -0.5000000   0.0000000  -0.0000000), wk =   0.2500000
        k(    6) = (  -0.5000000   0.0000000  -0.5000000), wk =   0.2500000
        k(    7) = (  -0.5000000  -0.5000000  -0.0000000), wk =   0.2500000
        k(    8) = (  -0.5000000  -0.5000000  -0.5000000), wk =   0.2500000

     Dense  grid:   875511 G-vectors     FFT dimensions: ( 135, 135, 135)

     Smooth grid:   512851 G-vectors     FFT dimensions: ( 120, 120, 120)

     Largest allocated arrays     est. size (Mb)     dimensions
        Kohn-Sham Wavefunctions        86.09 Mb     (    8026,  703)
        NL pseudopotentials           282.16 Mb     (    8026, 2304)
        Each V/rho on FFT grid          4.73 Mb     (  309825)
        Each G-vector array             0.83 Mb     (  109439)
        G-vector shells                 0.83 Mb     (  108193)
     Largest temporary arrays     est. size (Mb)     dimensions
        Auxiliary wavefunctions       344.38 Mb     (    8026, 2812)
        Each subspace H/S matrix      120.66 Mb     (    2812, 2812)
        Each <psi_i|beta_j> matrix     24.71 Mb     (    2304,  703)
        Arrays for rho mixing          37.82 Mb     (  309825,    8)

     Check: negative/imaginary core charge=   -0.000001    0.000000

     Initial potential from superposition of free atoms

     starting charge 1171.90648, renormalised to 1172.00000
     Starting wfc are  842 randomized atomic wfcs

     total cpu time spent up to now is     1249.4 secs

     per-process dynamical memory:  1200.9 Mb

     Self-consistent Calculation

     iteration #  1     ecut=    35.00 Ry     beta=0.30
     Davidson diagonalization with overlap
     ethr =  1.00E-02,  avg # of iterations =  3.0

     Threshold (ethr) on eigenvalues was too large:
     Diagonalizing with lowered threshold

     Davidson diagonalization with overlap
     ethr =  2.39E-04,  avg # of iterations =  4.6

     total cpu time spent up to now is     8662.2 secs

     total energy              =  -14663.27561624 Ry
     Harris-Foulkes estimate   =  -14663.56838892 Ry
     estimated scf accuracy    <       2.80906699 Ry

     iteration #  2     ecut=    35.00 Ry     beta=0.30
     Davidson diagonalization with overlap
     ethr =  2.40E-04,  avg # of iterations =  1.0

     total cpu time spent up to now is    11519.8 secs

     total energy              =  -14662.71917141 Ry
     Harris-Foulkes estimate   =  -14663.28951249 Ry
     estimated scf accuracy    <       1.73311624 Ry

     iteration #  3     ecut=    35.00 Ry     beta=0.30
     Davidson diagonalization with overlap
     ethr =  1.48E-04,  avg # of iterations =  2.0

     total cpu time spent up to now is    14682.1 secs

     total energy              =  -14662.82662704 Ry
     Harris-Foulkes estimate   =  -14662.82584862 Ry
     estimated scf accuracy    <       0.02469080 Ry

     iteration #  4     ecut=    35.00 Ry     beta=0.30
     Davidson diagonalization with overlap
     ethr =  2.11E-06,  avg # of iterations =  9.8

     total cpu time spent up to now is    22258.7 secs

     total energy              =  -14662.83051365 Ry
     Harris-Foulkes estimate   =  -14662.83112646 Ry
     estimated scf accuracy    <       0.01097550 Ry

     iteration #  5     ecut=    35.00 Ry     beta=0.30
     Davidson diagonalization with overlap
     ethr =  9.36E-07,  avg # of iterations =  2.0

     total cpu time spent up to now is    25609.1 secs

     total energy              =  -14662.83145237 Ry
     Harris-Foulkes estimate   =  -14662.83160161 Ry
     estimated scf accuracy    <       0.00066574 Ry

     iteration #  6     ecut=    35.00 Ry     beta=0.30
     Davidson diagonalization with overlap
     ethr =  5.68E-08,  avg # of iterations =  2.0

     total cpu time spent up to now is    28603.7 secs

     total energy              =  -14662.83143131 Ry
     Harris-Foulkes estimate   =  -14662.83148871 Ry
     estimated scf accuracy    <       0.00015965 Ry

     iteration #  7     ecut=    35.00 Ry     beta=0.30
     Davidson diagonalization with overlap
     ethr =  1.36E-08,  avg # of iterations =  2.3

     total cpu time spent up to now is    32188.0 secs

     total energy              =  -14662.83145507 Ry
     Harris-Foulkes estimate   =  -14662.83145151 Ry
     estimated scf accuracy    <       0.00001887 Ry

     iteration #  8     ecut=    35.00 Ry     beta=0.30
     Davidson diagonalization with overlap
     ethr =  1.61E-09,  avg # of iterations =  2.0

     total cpu time spent up to now is    35361.1 secs

     total energy              =  -14662.83145560 Ry
     Harris-Foulkes estimate   =  -14662.83145720 Ry
     estimated scf accuracy    <       0.00000809 Ry

     iteration #  9     ecut=    35.00 Ry     beta=0.30
     Davidson diagonalization with overlap
     ethr =  6.90E-10,  avg # of iterations =  2.0

     total cpu time spent up to now is    39352.5 secs

     total energy              =  -14662.83145776 Ry
     Harris-Foulkes estimate   =  -14662.83145704 Ry
     estimated scf accuracy    <       0.00000088 Ry

     iteration # 10     ecut=    35.00 Ry     beta=0.30
     Davidson diagonalization with overlap
     ethr =  7.55E-11,  avg # of iterations =  2.4

     total cpu time spent up to now is    42457.6 secs

     total energy              =  -14662.83145781 Ry
     Harris-Foulkes estimate   =  -14662.83145784 Ry
     estimated scf accuracy    <       0.00000074 Ry

     iteration # 11     ecut=    35.00 Ry     beta=0.30
     Davidson diagonalization with overlap
     ethr =  6.33E-11,  avg # of iterations =  2.0

     total cpu time spent up to now is    46428.5 secs

     total energy              =  -14662.83145813 Ry
     Harris-Foulkes estimate   =  -14662.83145796 Ry
     estimated scf accuracy    <       0.00000010 Ry

     iteration # 12     ecut=    35.00 Ry     beta=0.30
     Davidson diagonalization with overlap
     ethr =  8.59E-12,  avg # of iterations =  2.0

     total cpu time spent up to now is    49312.9 secs

     total energy              =  -14662.83145819 Ry
     Harris-Foulkes estimate   =  -14662.83145813 Ry
     estimated scf accuracy    <       0.00000008 Ry

     iteration # 13     ecut=    35.00 Ry     beta=0.30
     Davidson diagonalization with overlap
     ethr =  6.47E-12,  avg # of iterations =  2.0

     total cpu time spent up to now is    53502.4 secs

     total energy              =  -14662.83145824 Ry
     Harris-Foulkes estimate   =  -14662.83145820 Ry
     estimated scf accuracy    <          4.1E-09 Ry

     iteration # 14     ecut=    35.00 Ry     beta=0.30
     Davidson diagonalization with overlap
     ethr =  3.46E-13,  avg # of iterations =  2.0

     total cpu time spent up to now is    56602.7 secs

     total energy              =  -14662.83145826 Ry
     Harris-Foulkes estimate   =  -14662.83145824 Ry
     estimated scf accuracy    <          1.5E-09 Ry

     iteration # 15     ecut=    35.00 Ry     beta=0.30
     Davidson diagonalization with overlap
     ethr =  1.30E-13,  avg # of iterations =  2.4

     total cpu time spent up to now is    60244.9 secs

     End of self-consistent calculation

          k = 0.0000 0.0000 0.0000 ( 64129 PWs)   bands (ev):

   -17.2899 -17.2897 -17.2852 -17.2811 -17.2776 -17.2773 -17.2701 -17.2676
   -17.2659 -17.2652 -17.2626 -17.2610 -17.2554 -17.2538 -17.2508 -17.2483
   -17.2466 -17.2426 -17.2405 -17.2370 -17.2328 -17.2310 -17.2267 -17.2258
   -17.2228 -17.2193 -17.2166 -17.2120 -17.2111 -17.2087 -17.2050 -17.2025
   -17.2005 -17.1976 -17.1974 -17.1959 -17.1913 -17.1907 -17.1900 -17.1878
   -17.1845 -17.1825 -17.1816 -17.1796 -17.1764 -17.1732 -17.1725 -17.1713
   -17.1667 -17.1663 -17.1649 -17.1634 -17.1607 -17.1602 -17.1584 -17.1576
   -17.1543 -17.1537 -17.1500 -17.1492 -17.1468 -17.1451 -17.1430 -17.1400
   -17.1386 -17.1357 -17.1346 -17.1321 -17.1319 -17.1302 -17.1268 -17.1247
   -17.1238 -17.1229 -17.1227 -17.1219 -17.1176 -17.1163 -17.1113 -17.1083
   -17.1081 -17.1068 -17.1054 -17.1045 -17.1033 -17.0999 -17.0973 -17.0963
   -17.0960 -17.0940 -17.0929 -17.0925 -17.0895 -17.0881 -17.0873 -17.0857
   -17.0845 -17.0832 -17.0823 -17.0814 -17.0801 -17.0798 -17.0787 -17.0777
   -17.0768 -17.0765 -17.0753 -17.0733 -17.0718 -17.0716 -17.0702 -17.0700
   -17.0697 -17.0689 -17.0680 -17.0674 -17.0650 -17.0643 -17.0628 -17.0601
   -17.0596 -17.0572 -17.0551 -17.0538 -17.0528 -17.0507 -17.0501 -17.0478
   -17.0476 -17.0461 -17.0441 -17.0424 -17.0415 -17.0392 -17.0378 -17.0366
   -17.0358 -17.0352 -17.0346 -17.0322 -17.0304 -17.0276 -17.0273 -17.0261
   -17.0249 -17.0241 -17.0232 -17.0213 -17.0198 -17.0195 -17.0189 -17.0178
   -17.0167 -17.0153 -17.0136 -17.0132 -17.0124 -17.0111 -17.0103 -17.0091
   -17.0089 -17.0088 -17.0083 -17.0074 -17.0060 -17.0051 -17.0042 -17.0041
   -17.0033 -17.0027 -17.0024 -17.0020 -17.0008 -17.0005 -16.9997 -16.9997
   -16.9987 -16.9982 -16.9971 -16.9968 -16.9967 -16.9957 -16.9944 -16.9942
   -16.9931 -16.9922 -16.9913 -16.9904 -16.9899 -16.9897 -16.9878 -16.9870
   -16.9854 -16.9844 -16.9838 -16.9833 -16.9815 -16.9807 -16.9806 -16.9800
   -16.9794 -16.9788 -16.9782 -16.9781 -16.9777 -16.9766 -16.9761 -16.9755
   -16.9752 -16.9741 -16.9734 -16.9730 -16.9719 -16.9712 -16.9703 -16.9696
   -16.9694 -16.9685 -16.9678 -16.9675 -16.9670 -16.9665 -16.9664 -16.9655
   -16.9650 -16.9648 -16.9644 -16.9636 -16.9633 -16.9629 -16.9628 -16.9626
   -16.9620 -16.9615 -16.9611 -16.9605 -16.9596 -16.9595 -16.9584 -16.9581
   -16.9576 -16.9570 -16.9561 -16.9556 -16.9554 -16.9546 -16.9538 -16.9526
   -16.9520 -16.9513 -16.9508 -16.9506 -16.9493 -16.9490 -16.9486 -16.9484
   -16.9459 -16.9454 -16.9435 -16.9430 -16.9425 -16.9418 -16.9406 -16.9393
   -16.9385 -16.9384 -16.9380 -16.9377 -16.9371 -16.9368 -16.9364 -16.9357
   -16.9347 -16.9343 -16.9333 -16.9328 -16.9315 -16.9312 -16.9295 -16.9286
   -16.9275 -16.9253 -16.9251 -16.9244 -16.9218 -16.9216 -16.9210 -16.9190
   -16.9175 -16.9140 -16.9131 -16.9111 -16.9106 -16.9104 -16.9085 -16.9071
   -16.9069 -16.9035 -16.9017 -16.9005 -16.9001 -16.8985 -16.8979 -16.8934
   -16.8909 -16.8900 -16.8876 -16.8853 -16.8846 -16.8844 -16.8834 -16.8824
   -16.8803 -16.8790 -16.8761 -16.8758 -16.8744 -16.8736 -16.8703 -16.8697
   -16.8669 -16.8658 -16.8654 -16.8625 -16.8611 -16.8527 -16.8517 -16.8490
   -16.8443 -16.8422  -5.1347  -4.5470  -4.5080  -4.4548  -4.4496  -4.3746
    -4.3209  -4.2482  -4.1977  -4.1514  -4.1012  -4.0249  -3.9950  -3.9445
    -3.9177  -3.3688  -3.3186  -3.3003  -3.2662  -3.2307  -3.2259  -3.1829
    -3.1483  -3.1307  -3.0932  -3.0270  -2.9868  -2.9038  -2.8296  -2.8173
    -2.7576  -2.6985  -2.6831  -2.6484  -2.6073  -2.5963  -2.5814  -2.5455
    -2.5168  -2.4995  -2.4877  -2.4401  -2.4124  -2.3593  -2.3085  -2.2767
    -2.2608  -2.2355  -2.2050  -2.1766  -2.1273  -2.1154  -2.0424  -2.0236
    -2.0014  -1.2829  -1.1865  -1.1225  -1.0702  -1.0022  -0.9710  -0.9538
    -0.9204  -0.8915  -0.8742  -0.8226  -0.8162  -0.7778  -0.7455  -0.6894
    -0.6528  -0.6132  -0.5230   0.0019   0.0130   0.0613   0.0896   0.2768
     0.3154   0.3363   0.3631   0.3992   0.4011   0.4102   0.4367   0.4491
     0.4609   0.4673   0.5044   0.5318   0.5457   0.5573   0.5616   0.6123
     0.6547   0.6728   0.7056   0.7320   0.7483   0.7570   0.8347   1.2891
     1.3387   1.3667   1.4159   1.4243   1.4337   1.4721   1.4842   1.4966
     1.5123   1.5402   1.5879   3.0046   3.0191   3.0575   3.0648   3.1013
     3.1307   3.1559   3.1974   3.2651   3.2778   3.3392   3.3656   3.3801
     3.4225   3.4394   3.4456   3.4511   3.4544   3.4563   3.4617   3.4706
     3.4747   3.4747   3.4818   3.4839   3.4890   3.5191   3.5230   3.5282
     3.5356   3.5427   3.5454   3.5518   3.5582   3.5650   3.5666   3.5678
     3.5807   3.6641   3.6743   3.6859   3.6904   3.6950   3.6991   3.7050
     3.7100   3.7226   3.7271   3.7277   3.7315   3.7363   3.7446   3.7461
     3.7486   3.7535   3.7559   3.7572   3.7611   3.7769   3.7893   3.7906
     3.7943   4.3984   4.4010   4.4065   4.4108   4.4238   4.4280   5.0263
     5.0342   5.0357   5.0392   5.0477   5.0496   5.0550   5.0591   5.0605
     5.0677   5.0722   5.0760   5.0825   5.0894   5.0930   5.0945   5.0976
     5.1042   5.1073   5.1122   5.1187   5.1228   5.1301   5.1475   5.3894
     5.3934   5.4047   5.4129   5.4213   5.4253   5.4322   5.4370   5.4404
     5.4451   5.4549   5.4739   5.9336   5.9454   5.9576   5.9607   5.9643
     5.9742   5.9806   5.9890   6.0000   6.0126   6.0140   6.0183   6.0808
     6.0983   6.1041   6.1138   6.1162   6.1222   6.1307   6.1385   6.5072
     6.5284   6.5431   6.5537   6.5584   6.5758   6.5921   6.5974   6.6061
     6.6094   6.6174   6.6288   6.6404   6.6509   6.6588   6.6815   7.4270
     7.4425   7.4465   7.9932   8.0081   8.0176   8.0397   8.0586   8.0976
     8.1097   8.1834   8.2171   8.2467   8.3479   8.3662   8.3850   8.3973
     8.4233   8.4376   8.5847   8.5924   8.6028   8.6406   8.6726   8.7040
     8.7121   8.7252   8.7365   8.7468   8.7552   8.7694   8.7842   8.7892
     8.7951   8.8152   8.8172   8.8296   8.8377   8.8547   8.8568   8.8748
     8.8848   8.8966   8.9047   8.9093   8.9295   8.9400   8.9417   8.9470
     8.9781   8.9919   9.0894   9.5497   9.5606   9.5835   9.5894   9.6034
     9.6295   9.6398   9.6546   9.6714   9.6759   9.6815   9.7200   9.9227
     9.9368   9.9478  10.3230  10.3493  10.3941  10.3962  10.4102  10.4449
    10.8019  10.8057  10.8341  10.8453  10.8552  10.8633  10.8774  10.8952
    10.9008  10.9094  10.9152  10.9237  10.9314  10.9429  10.9494  10.9568
    10.9711  10.9781  11.0014  11.0066  11.0105  11.0494  11.0507  11.0716
    11.6057  11.6216  11.6479  11.6626  11.6668  11.6874  11.7048  11.7100
    11.7253  11.7284  11.7392  11.7516  11.7576  11.7598  11.7698  11.7758
    11.7843  11.7900  11.8001  11.8152  11.8251  11.8270  11.8423

     occupation numbers 
     1.0000   1.0000   1.0000   1.0000   1.0000   1.0000   1.0000   1.0000
     1.0000   1.0000   1.0000   1.0000   1.0000   1.0000   1.0000   1.0000
     1.0000   1.0000   1.0000   1.0000   1.0000   1.0000   1.0000   1.0000
     1.0000   1.0000   1.0000   1.0000   1.0000   1.0000   1.0000   1.0000
     1.0000   1.0000   1.0000   1.0000   1.0000   1.0000   1.0000   1.0000
     1.0000   1.0000   1.0000   1.0000   1.0000   1.0000   1.0000   1.0000
     1.0000   1.0000   1.0000   1.0000   1.0000   1.0000   1.0000   1.0000
     1.0000   1.0000   1.0000   1.0000   1.0000   1.0000   1.0000   1.0000
     1.0000   1.0000   1.0000   1.0000   1.0000   1.0000   1.0000   1.0000
     1.0000   1.0000   1.0000   1.0000   1.0000   1.0000   1.0000   1.0000
     1.0000   1.0000   1.0000   1.0000   1.0000   1.0000   1.0000   1.0000
     1.0000   1.0000   1.0000   1.0000   1.0000   1.0000   1.0000   1.0000
     1.0000   1.0000   1.0000   1.0000   1.0000   1.0000   1.0000   1.0000
     1.0000   1.0000   1.0000   1.0000   1.0000   1.0000   1.0000   1.0000
     1.0000   1.0000   1.0000   1.0000   1.0000   1.0000   1.0000   1.0000
     1.0000   1.0000   1.0000   1.0000   1.0000   1.0000   1.0000   1.0000
     1.0000   1.0000   1.0000   1.0000   1.0000   1.0000   1.0000   1.0000
     1.0000   1.0000   1.0000   1.0000   1.0000   1.0000   1.0000   1.0000
     1.0000   1.0000   1.0000   1.0000   1.0000   1.0000   1.0000   1.0000
     1.0000   1.0000   1.0000   1.0000   1.0000   1.0000   1.0000   1.0000
     1.0000   1.0000   1.0000   1.0000   1.0000   1.0000   1.0000   1.0000
     1.0000   1.0000   1.0000   1.0000   1.0000   1.0000   1.0000   1.0000
     1.0000   1.0000   1.0000   1.0000   1.0000   1.0000   1.0000   1.0000
     1.0000   1.0000   1.0000   1.0000   1.0000   1.0000   1.0000   1.0000
     1.0000   1.0000   1.0000   1.0000   1.0000   1.0000   1.0000   1.0000
     1.0000   1.0000   1.0000   1.0000   1.0000   1.0000   1.0000   1.0000
     1.0000   1.0000   1.0000   1.0000   1.0000   1.0000   1.0000   1.0000
     1.0000   1.0000   1.0000   1.0000   1.0000   1.0000   1.0000   1.0000
     1.0000   1.0000   1.0000   1.0000   1.0000   1.0000   1.0000   1.0000
     1.0000   1.0000   1.0000   1.0000   1.0000   1.0000   1.0000   1.0000
     1.0000   1.0000   1.0000   1.0000   1.0000   1.0000   1.0000   1.0000
     1.0000   1.0000   1.0000   1.0000   1.0000   1.0000   1.0000   1.0000
     1.0000   1.0000   1.0000   1.0000   1.0000   1.0000   1.0000   1.0000
     1.0000   1.0000   1.0000   1.0000   1.0000   1.0000   1.0000   1.0000
     1.0000   1.0000   1.0000   1.0000   1.0000   1.0000   1.0000   1.0000
     1.0000   1.0000   1.0000   1.0000   1.0000   1.0000   1.0000   1.0000
     1.0000   1.0000   1.0000   1.0000   1.0000   1.0000   1.0000   1.0000
     1.0000   1.0000   1.0000   1.0000   1.0000   1.0000   1.0000   1.0000
     1.0000   1.0000   1.0000   1.0000   1.0000   1.0000   1.0000   1.0000
     1.0000   1.0000   1.0000   1.0000   1.0000   1.0000   1.0000   1.0000
     1.0000   1.0000   1.0000   1.0000   1.0000   1.0000   1.0000   1.0000
     1.0000   1.0000   1.0000   1.0000   1.0000   1.0000   1.0000   1.0000
     1.0000   1.0000   1.0000   1.0000   1.0000   1.0000   1.0000   1.0000
     1.0000   1.0000   1.0000   1.0000   1.0000   1.0000   1.0000   1.0000
     1.0000   1.0000   1.0000   1.0000   1.0000   1.0000   1.0000   1.0000
     1.0000   1.0000   1.0000   1.0000   1.0000   1.0000   1.0000   1.0000
     1.0000   1.0000   1.0000   1.0000   1.0000   1.0000   1.0000   1.0000
     1.0000   1.0000   1.0000   1.0000   1.0000   1.0000   1.0000   1.0000
     1.0000   1.0000   1.0000   1.0000   1.0000   1.0000   1.0000   1.0000
     1.0000   1.0000   1.0000   1.0000   1.0000   1.0000   1.0000   1.0000
     1.0000   1.0000   1.0000   1.0000   1.0000   1.0000   1.0000   1.0000
     1.0000   1.0000   1.0000   1.0000   1.0000   1.0000   1.0000   1.0000
     1.0000   1.0000   1.0000   1.0000   1.0000   1.0000   1.0000   1.0000
     1.0000   1.0000   1.0000   1.0000   1.0000   1.0000   1.0000   1.0000
     1.0000   1.0000   1.0000   1.0000   1.0000   1.0000   1.0000   1.0000
     1.0000   1.0000   1.0000   1.0000   1.0000   1.0000   1.0000   1.0000
     1.0000   1.0000   1.0000   1.0000   1.0000   1.0000   1.0000   1.0000
     1.0000   1.0000   1.0000   1.0000   1.0000   1.0000   1.0000   1.0000
     1.0000   1.0000   1.0000   1.0000   1.0000   1.0000   1.0000   1.0000
     1.0000   1.0000   1.0000   1.0000   1.0000   1.0000   1.0000   1.0000
     1.0000   1.0000   1.0000   1.0000   1.0000   1.0000   1.0000   1.0000
     1.0000   1.0000   1.0000   1.0000   1.0000   1.0000   1.0000   1.0000
     1.0000   1.0000   1.0000   1.0000   1.0000   1.0000   1.0000   1.0000
     1.0000   1.0000   1.0000   1.0000   1.0000   1.0000   1.0000   1.0000
     1.0000   1.0000   1.0000   1.0000   1.0000   1.0000   1.0000   1.0000
     1.0000   1.0000   1.0000   1.0000   1.0000   1.0000   1.0000   1.0000
     1.0000   1.0000   1.0000   1.0000   1.0000   1.0000   1.0000   1.0000
     1.0000   1.0000   1.0000   1.0000   1.0000   1.0000   1.0000   1.0000
     1.0000   1.0000   1.0000   1.0000   1.0000   1.0000   1.0000   1.0000
     1.0000   1.0000   1.0000   1.0000   1.0000   1.0000   1.0000   1.0000
     1.0000   1.0000   1.0000   1.0000   1.0000   1.0000   1.0000   1.0000
     1.0000   1.0000   1.0000   1.0000   1.0000   1.0000   1.0000   1.0000
     1.0000   1.0000   1.0000   1.0000   1.0000   1.0000   1.0000   0.9365
     0.9221   0.9180   0.0083   0.0062   0.0051   0.0033   0.0022   0.0009
     0.0007   0.0001   0.0000   0.0000   0.0000   0.0000   0.0000   0.0000
     0.0000   0.0000   0.0000   0.0000   0.0000   0.0000   0.0000   0.0000
     0.0000   0.0000   0.0000   0.0000   0.0000   0.0000   0.0000   0.0000
     0.0000   0.0000   0.0000   0.0000   0.0000   0.0000   0.0000   0.0000
     0.0000   0.0000   0.0000   0.0000   0.0000   0.0000   0.0000   0.0000
     0.0000   0.0000   0.0000   0.0000   0.0000   0.0000   0.0000   0.0000
     0.0000   0.0000   0.0000   0.0000   0.0000   0.0000   0.0000   0.0000
     0.0000   0.0000   0.0000   0.0000   0.0000   0.0000   0.0000   0.0000
     0.0000   0.0000   0.0000   0.0000   0.0000   0.0000   0.0000   0.0000
     0.0000   0.0000   0.0000   0.0000   0.0000   0.0000   0.0000   0.0000
     0.0000   0.0000   0.0000   0.0000   0.0000   0.0000   0.0000   0.0000
     0.0000   0.0000   0.0000   0.0000   0.0000   0.0000   0.0000   0.0000
     0.0000   0.0000   0.0000   0.0000   0.0000   0.0000   0.0000   0.0000
     0.0000   0.0000   0.0000   0.0000   0.0000   0.0000   0.0000

          k =-0.3523-0.3543 0.3535 ( 64100 PWs)   bands (ev):

   -17.2900 -17.2897 -17.2852 -17.2811 -17.2776 -17.2774 -17.2702 -17.2677
   -17.2659 -17.2653 -17.2626 -17.2611 -17.2554 -17.2538 -17.2509 -17.2484
   -17.2466 -17.2427 -17.2406 -17.2369 -17.2329 -17.2308 -17.2268 -17.2259
   -17.2227 -17.2195 -17.2166 -17.2120 -17.2111 -17.2089 -17.2050 -17.2025
   -17.2007 -17.1975 -17.1974 -17.1959 -17.1914 -17.1907 -17.1900 -17.1878
   -17.1844 -17.1824 -17.1816 -17.1798 -17.1764 -17.1733 -17.1725 -17.1713
   -17.1667 -17.1663 -17.1657 -17.1626 -17.1607 -17.1602 -17.1585 -17.1578
   -17.1543 -17.1537 -17.1500 -17.1493 -17.1464 -17.1455 -17.1430 -17.1400
   -17.1385 -17.1357 -17.1346 -17.1322 -17.1318 -17.1303 -17.1269 -17.1248
   -17.1236 -17.1229 -17.1227 -17.1221 -17.1176 -17.1163 -17.1113 -17.1085
   -17.1083 -17.1065 -17.1056 -17.1046 -17.1033 -17.0999 -17.0972 -17.0962
   -17.0961 -17.0942 -17.0929 -17.0924 -17.0896 -17.0881 -17.0872 -17.0858
   -17.0844 -17.0833 -17.0823 -17.0815 -17.0802 -17.0800 -17.0787 -17.0779
   -17.0769 -17.0764 -17.0752 -17.0733 -17.0719 -17.0715 -17.0703 -17.0701
   -17.0698 -17.0689 -17.0679 -17.0675 -17.0651 -17.0644 -17.0632 -17.0600
   -17.0595 -17.0573 -17.0552 -17.0537 -17.0527 -17.0508 -17.0501 -17.0479
   -17.0477 -17.0463 -17.0439 -17.0423 -17.0417 -17.0392 -17.0378 -17.0367
   -17.0358 -17.0353 -17.0346 -17.0322 -17.0304 -17.0277 -17.0273 -17.0261
   -17.0250 -17.0240 -17.0232 -17.0214 -17.0200 -17.0195 -17.0186 -17.0180
   -17.0171 -17.0152 -17.0136 -17.0132 -17.0125 -17.0113 -17.0104 -17.0090
   -17.0089 -17.0087 -17.0083 -17.0075 -17.0062 -17.0053 -17.0044 -17.0039
   -17.0033 -17.0029 -17.0022 -17.0020 -17.0009 -17.0003 -16.9999 -16.9993
   -16.9986 -16.9982 -16.9973 -16.9969 -16.9966 -16.9957 -16.9945 -16.9943
   -16.9932 -16.9922 -16.9918 -16.9904 -16.9900 -16.9897 -16.9877 -16.9869
   -16.9853 -16.9843 -16.9840 -16.9834 -16.9813 -16.9809 -16.9806 -16.9800
   -16.9797 -16.9789 -16.9782 -16.9781 -16.9778 -16.9766 -16.9759 -16.9755
   -16.9751 -16.9742 -16.9734 -16.9731 -16.9718 -16.9713 -16.9702 -16.9695
   -16.9694 -16.9685 -16.9678 -16.9674 -16.9671 -16.9667 -16.9664 -16.9658
   -16.9651 -16.9649 -16.9645 -16.9636 -16.9634 -16.9630 -16.9628 -16.9627
   -16.9619 -16.9616 -16.9611 -16.9602 -16.9596 -16.9595 -16.9588 -16.9585
   -16.9576 -16.9570 -16.9561 -16.9556 -16.9551 -16.9548 -16.9539 -16.9527
   -16.9521 -16.9514 -16.9508 -16.9506 -16.9495 -16.9490 -16.9485 -16.9483
   -16.9460 -16.9454 -16.9437 -16.9428 -16.9426 -16.9419 -16.9406 -16.9393
   -16.9386 -16.9384 -16.9380 -16.9378 -16.9371 -16.9367 -16.9365 -16.9356
   -16.9348 -16.9343 -16.9334 -16.9328 -16.9314 -16.9313 -16.9295 -16.9286
   -16.9276 -16.9253 -16.9252 -16.9245 -16.9219 -16.9216 -16.9210 -16.9191
   -16.9174 -16.9140 -16.9132 -16.9110 -16.9107 -16.9106 -16.9084 -16.9072
   -16.9070 -16.9037 -16.9017 -16.9006 -16.9002 -16.8986 -16.8980 -16.8934
   -16.8911 -16.8901 -16.8876 -16.8854 -16.8847 -16.8845 -16.8833 -16.8825
   -16.8803 -16.8791 -16.8762 -16.8759 -16.8744 -16.8737 -16.8704 -16.8698
   -16.8666 -16.8661 -16.8655 -16.8625 -16.8612 -16.8527 -16.8517 -16.8491
   -16.8443 -16.8422  -4.9953  -4.9031  -4.5017  -4.4846  -4.4539  -4.4024
    -4.3779  -4.3375  -4.0973  -4.0462  -3.9141  -3.8750  -3.7981  -3.7219
    -3.5480  -3.5282  -3.4676  -3.4195  -3.4000  -3.3706  -3.3120  -3.2812
    -3.2405  -3.1957  -3.1109  -3.0629  -3.0247  -2.9902  -2.9709  -2.9108
    -2.8791  -2.8485  -2.7997  -2.7836  -2.7661  -2.7085  -2.6193  -2.6040
    -2.5474  -2.5004  -2.3290  -2.2656  -2.2310  -2.2021  -2.1475  -2.0848
    -1.9847  -1.9246  -1.9165  -1.8868  -1.8733  -1.8328  -1.8081  -1.7380
    -1.6935  -1.6703  -1.6131  -1.5911  -1.5744  -1.5504  -1.5091  -1.4748
    -1.4271  -1.3881  -0.3728  -0.3386  -0.2776  -0.2346  -0.2007  -0.1645
    -0.1318  -0.1087  -0.1035  -0.0891  -0.0480  -0.0259   0.0107   0.0305
     0.0546   0.0746   0.1300   0.1462   0.2064   0.2348   0.2618   0.2678
     0.2833   0.3126   0.3278   0.3441   0.3799   0.3847   0.4226   0.4605
     0.9502   0.9711   1.0030   1.0351   1.0562   1.0702   1.0899   1.1128
     1.1607   1.1785   1.1837   1.1970   1.2166   1.2432   1.8286   1.9108
     1.9389   1.9421   1.9886   2.0364   2.2952   2.3016   2.3615   2.4001
     2.4437   2.4546   3.2113   3.2150   3.2244   3.2306   3.2343   3.2364
     3.2419   3.2481   3.2488   3.2530   3.2566   3.2613   3.2651   3.2736
     3.2863   3.2944   3.2996   3.3016   3.6951   3.7315   3.7403   3.7688
     3.7819   3.7934   3.8413   3.8479   3.8540   3.8615   3.8660   3.8722
     3.8879   3.9080   3.9132   3.9140   3.9207   3.9280   3.9356   3.9409
     3.9485   3.9513   3.9650   3.9672   4.3103   4.3235   4.3316   4.3350
     4.3384   4.3417   4.3445   4.3515   4.3519   4.3605   4.3685   4.3738
     4.5657   4.5731   4.5791   4.5826   4.5875   4.5944   4.5963   4.6022
     4.6066   4.6211   4.6265   4.6354   4.8640   4.8818   4.8974   4.9055
     4.9115   4.9209   4.9254   4.9483   4.9618   4.9660   4.9806   4.9903
     5.0631   5.0796   5.0884   5.0944   5.0964   5.1061   5.3294   5.3346
     5.3498   5.3577   5.3645   5.3664   5.3704   5.3794   5.3835   5.3908
     5.3943   5.4010   5.4037   5.4109   5.4137   5.4211   5.4255   5.4380
     5.5173   5.5383   5.7051   5.7135   5.7303   5.7538   5.7675   5.7805
     5.9778   5.9907   5.9975   6.0029   6.0043   6.0102   6.0313   6.0376
     6.0430   6.0544   6.0601   6.0780   6.1952   6.2288   6.2427   6.2605
     6.5330   6.5499   6.5641   6.5756   6.5947   6.6106   7.0617   7.0926
     7.1541   7.1651   8.1525   8.1923   8.2004   8.2396   8.2614   8.2750
     8.3319   8.3361   8.5843   8.6161   8.6350   8.6568   8.6769   8.6878
     9.0080   9.0177   9.0502   9.0715   9.0835   9.1143   9.1460   9.1491
     9.1712   9.1861   9.2008   9.2313   9.2459   9.2519   9.2715   9.2777
     9.2942   9.3106   9.3137   9.3253   9.3958   9.4183   9.4247   9.4327
     9.4377   9.4633   9.4814   9.5000   9.5670   9.6023   9.6087   9.6439
     9.6604   9.6715   9.6878   9.7111   9.7244   9.7357   9.7541   9.7721
     9.7799   9.7945   9.8157   9.8542  10.0036  10.0448  10.0607  10.0757
    10.0891  10.1068  10.1071  10.1184  10.1357  10.1428  10.1483  10.1629
    10.1893  10.2234  10.2509  10.2620  10.2976  10.3081  10.3439  10.3759
    10.4017  10.4255  10.5383  10.5445  10.5636  10.5839  10.5902  10.6114
    10.7281  10.7445  10.7731  10.7813  10.8007  10.8083  10.8178  10.8360
    10.8428  10.8551  10.8692  10.8774  10.8850  10.8963  10.9093  10.9217
    10.9240  10.9393  10.9581  10.9663  11.0081  11.0493  11.0561  11.0779
    11.1039  11.1284  11.1702  11.2082  11.2213  11.2416  11.2537

     occupation numbers 
     1.0000   1.0000   1.0000   1.0000   1.0000   1.0000   1.0000   1.0000
     1.0000   1.0000   1.0000   1.0000   1.0000   1.0000   1.0000   1.0000
     1.0000   1.0000   1.0000   1.0000   1.0000   1.0000   1.0000   1.0000
     1.0000   1.0000   1.0000   1.0000   1.0000   1.0000   1.0000   1.0000
     1.0000   1.0000   1.0000   1.0000   1.0000   1.0000   1.0000   1.0000
     1.0000   1.0000   1.0000   1.0000   1.0000   1.0000   1.0000   1.0000
     1.0000   1.0000   1.0000   1.0000   1.0000   1.0000   1.0000   1.0000
     1.0000   1.0000   1.0000   1.0000   1.0000   1.0000   1.0000   1.0000
     1.0000   1.0000   1.0000   1.0000   1.0000   1.0000   1.0000   1.0000
     1.0000   1.0000   1.0000   1.0000   1.0000   1.0000   1.0000   1.0000
     1.0000   1.0000   1.0000   1.0000   1.0000   1.0000   1.0000   1.0000
     1.0000   1.0000   1.0000   1.0000   1.0000   1.0000   1.0000   1.0000
     1.0000   1.0000   1.0000   1.0000   1.0000   1.0000   1.0000   1.0000
     1.0000   1.0000   1.0000   1.0000   1.0000   1.0000   1.0000   1.0000
     1.0000   1.0000   1.0000   1.0000   1.0000   1.0000   1.0000   1.0000
     1.0000   1.0000   1.0000   1.0000   1.0000   1.0000   1.0000   1.0000
     1.0000   1.0000   1.0000   1.0000   1.0000   1.0000   1.0000   1.0000
     1.0000   1.0000   1.0000   1.0000   1.0000   1.0000   1.0000   1.0000
     1.0000   1.0000   1.0000   1.0000   1.0000   1.0000   1.0000   1.0000
     1.0000   1.0000   1.0000   1.0000   1.0000   1.0000   1.0000   1.0000
     1.0000   1.0000   1.0000   1.0000   1.0000   1.0000   1.0000   1.0000
     1.0000   1.0000   1.0000   1.0000   1.0000   1.0000   1.0000   1.0000
     1.0000   1.0000   1.0000   1.0000   1.0000   1.0000   1.0000   1.0000
     1.0000   1.0000   1.0000   1.0000   1.0000   1.0000   1.0000   1.0000
     1.0000   1.0000   1.0000   1.0000   1.0000   1.0000   1.0000   1.0000
     1.0000   1.0000   1.0000   1.0000   1.0000   1.0000   1.0000   1.0000
     1.0000   1.0000   1.0000   1.0000   1.0000   1.0000   1.0000   1.0000
     1.0000   1.0000   1.0000   1.0000   1.0000   1.0000   1.0000   1.0000
     1.0000   1.0000   1.0000   1.0000   1.0000   1.0000   1.0000   1.0000
     1.0000   1.0000   1.0000   1.0000   1.0000   1.0000   1.0000   1.0000
     1.0000   1.0000   1.0000   1.0000   1.0000   1.0000   1.0000   1.0000
     1.0000   1.0000   1.0000   1.0000   1.0000   1.0000   1.0000   1.0000
     1.0000   1.0000   1.0000   1.0000   1.0000   1.0000   1.0000   1.0000
     1.0000   1.0000   1.0000   1.0000   1.0000   1.0000   1.0000   1.0000
     1.0000   1.0000   1.0000   1.0000   1.0000   1.0000   1.0000   1.0000
     1.0000   1.0000   1.0000   1.0000   1.0000   1.0000   1.0000   1.0000
     1.0000   1.0000   1.0000   1.0000   1.0000   1.0000   1.0000   1.0000
     1.0000   1.0000   1.0000   1.0000   1.0000   1.0000   1.0000   1.0000
     1.0000   1.0000   1.0000   1.0000   1.0000   1.0000   1.0000   1.0000
     1.0000   1.0000   1.0000   1.0000   1.0000   1.0000   1.0000   1.0000
     1.0000   1.0000   1.0000   1.0000   1.0000   1.0000   1.0000   1.0000
     1.0000   1.0000   1.0000   1.0000   1.0000   1.0000   1.0000   1.0000
     1.0000   1.0000   1.0000   1.0000   1.0000   1.0000   1.0000   1.0000
     1.0000   1.0000   1.0000   1.0000   1.0000   1.0000   1.0000   1.0000
     1.0000   1.0000   1.0000   1.0000   1.0000   1.0000   1.0000   1.0000
     1.0000   1.0000   1.0000   1.0000   1.0000   1.0000   1.0000   1.0000
     1.0000   1.0000   1.0000   1.0000   1.0000   1.0000   1.0000   1.0000
     1.0000   1.0000   1.0000   1.0000   1.0000   1.0000   1.0000   1.0000
     1.0000   1.0000   1.0000   1.0000   1.0000   1.0000   1.0000   1.0000
     1.0000   1.0000   1.0000   1.0000   1.0000   1.0000   1.0000   1.0000
     1.0000   1.0000   1.0000   1.0000   1.0000   1.0000   1.0000   1.0000
     1.0000   1.0000   1.0000   1.0000   1.0000   1.0000   1.0000   1.0000
     1.0000   1.0000   1.0000   1.0000   1.0000   1.0000   1.0000   1.0000
     1.0000   1.0000   1.0000   1.0000   1.0000   1.0000   1.0000   1.0000
     1.0000   1.0000   1.0000   1.0000   1.0000   1.0000   1.0000   1.0000
     1.0000   1.0000   1.0000   1.0000   1.0000   1.0000   1.0000   1.0000
     1.0000   1.0000   1.0000   1.0000   1.0000   1.0000   1.0000   1.0000
     1.0000   1.0000   1.0000   1.0000   1.0000   1.0000   1.0000   1.0000
     1.0000   1.0000   1.0000   1.0000   1.0000   1.0000   1.0000   1.0000
     1.0000   1.0000   1.0000   1.0000   1.0000   1.0000   1.0000   1.0000
     1.0000   1.0000   1.0000   1.0000   1.0000   1.0000   1.0000   1.0000
     1.0000   1.0000   1.0000   1.0000   1.0000   1.0000   1.0000   1.0000
     1.0000   1.0000   1.0000   1.0000   1.0000   1.0000   1.0000   1.0000
     1.0000   1.0000   1.0000   1.0000   1.0000   1.0000   1.0000   1.0000
     1.0000   1.0000   1.0000   1.0000   1.0000   1.0000   1.0000   1.0000
     1.0000   1.0000   1.0000   1.0000   1.0000   1.0000   1.0000   1.0000
     1.0000   1.0000   1.0000   1.0000   1.0000   1.0000   1.0000   1.0000
     1.0000   1.0000   1.0000   1.0000   1.0000   1.0000   1.0000   1.0000
     1.0000   1.0000   1.0000   1.0000   1.0000   1.0000   1.0000   1.0000
     1.0000   1.0000   1.0000   1.0000   1.0000   1.0000   1.0000   1.0000
     1.0000   1.0000   1.0000   1.0000   1.0000   1.0000   1.0000   1.0000
     1.0000   1.0000   1.0000   1.0000   1.0000   1.0000   1.0000   1.0000
     1.0000   1.0000   1.0000   1.0000   1.0000   1.0000   1.0000   0.9999
     0.9997   0.9996   0.0002   0.0001   0.0001   0.0000   0.0000   0.0000
     0.0000   0.0000   0.0000   0.0000   0.0000   0.0000   0.0000   0.0000
     0.0000   0.0000   0.0000   0.0000   0.0000   0.0000   0.0000   0.0000
     0.0000   0.0000   0.0000   0.0000   0.0000   0.0000   0.0000   0.0000
     0.0000   0.0000   0.0000   0.0000   0.0000   0.0000   0.0000   0.0000
     0.0000   0.0000   0.0000   0.0000   0.0000   0.0000   0.0000   0.0000
     0.0000   0.0000   0.0000   0.0000   0.0000   0.0000   0.0000   0.0000
     0.0000   0.0000   0.0000   0.0000   0.0000   0.0000   0.0000   0.0000
     0.0000   0.0000   0.0000   0.0000   0.0000   0.0000   0.0000   0.0000
     0.0000   0.0000   0.0000   0.0000   0.0000   0.0000   0.0000   0.0000
     0.0000   0.0000   0.0000   0.0000   0.0000   0.0000   0.0000   0.0000
     0.0000   0.0000   0.0000   0.0000   0.0000   0.0000   0.0000   0.0000
     0.0000   0.0000   0.0000   0.0000   0.0000   0.0000   0.0000   0.0000
     0.0000   0.0000   0.0000   0.0000   0.0000   0.0000   0.0000   0.0000
     0.0000   0.0000   0.0000   0.0000   0.0000   0.0000   0.0000

          k =-0.3533 0.3539-0.3536 ( 64080 PWs)   bands (ev):

   -17.2901 -17.2897 -17.2852 -17.2810 -17.2777 -17.2774 -17.2703 -17.2676
   -17.2659 -17.2650 -17.2631 -17.2609 -17.2552 -17.2538 -17.2509 -17.2488
   -17.2467 -17.2427 -17.2404 -17.2366 -17.2338 -17.2305 -17.2266 -17.2260
   -17.2227 -17.2194 -17.2167 -17.2120 -17.2102 -17.2074 -17.2071 -17.2026
   -17.2018 -17.1974 -17.1968 -17.1952 -17.1914 -17.1902 -17.1900 -17.1883
   -17.1843 -17.1824 -17.1817 -17.1794 -17.1773 -17.1733 -17.1725 -17.1710
   -17.1667 -17.1664 -17.1651 -17.1633 -17.1606 -17.1601 -17.1585 -17.1572
   -17.1550 -17.1542 -17.1501 -17.1487 -17.1468 -17.1454 -17.1426 -17.1399
   -17.1389 -17.1357 -17.1347 -17.1320 -17.1315 -17.1314 -17.1271 -17.1241
   -17.1235 -17.1230 -17.1227 -17.1210 -17.1182 -17.1163 -17.1112 -17.1084
   -17.1082 -17.1069 -17.1057 -17.1046 -17.1034 -17.0996 -17.0977 -17.0963
   -17.0958 -17.0937 -17.0929 -17.0926 -17.0894 -17.0888 -17.0880 -17.0853
   -17.0841 -17.0833 -17.0824 -17.0806 -17.0800 -17.0799 -17.0787 -17.0781
   -17.0770 -17.0765 -17.0755 -17.0734 -17.0725 -17.0718 -17.0701 -17.0699
   -17.0693 -17.0689 -17.0680 -17.0674 -17.0644 -17.0641 -17.0632 -17.0603
   -17.0594 -17.0570 -17.0554 -17.0539 -17.0529 -17.0511 -17.0502 -17.0479
   -17.0473 -17.0461 -17.0441 -17.0427 -17.0415 -17.0393 -17.0378 -17.0366
   -17.0361 -17.0349 -17.0347 -17.0322 -17.0313 -17.0277 -17.0271 -17.0261
   -17.0242 -17.0239 -17.0232 -17.0212 -17.0202 -17.0192 -17.0184 -17.0183
   -17.0175 -17.0155 -17.0137 -17.0134 -17.0120 -17.0113 -17.0102 -17.0092
   -17.0090 -17.0089 -17.0083 -17.0070 -17.0067 -17.0052 -17.0049 -17.0040
   -17.0034 -17.0028 -17.0022 -17.0013 -17.0008 -17.0004 -16.9996 -16.9992
   -16.9991 -16.9980 -16.9972 -16.9969 -16.9966 -16.9956 -16.9946 -16.9939
   -16.9932 -16.9925 -16.9912 -16.9904 -16.9900 -16.9896 -16.9876 -16.9869
   -16.9855 -16.9845 -16.9843 -16.9832 -16.9817 -16.9809 -16.9805 -16.9805
   -16.9800 -16.9789 -16.9783 -16.9781 -16.9776 -16.9772 -16.9760 -16.9755
   -16.9752 -16.9743 -16.9733 -16.9730 -16.9721 -16.9708 -16.9698 -16.9695
   -16.9691 -16.9687 -16.9677 -16.9674 -16.9670 -16.9666 -16.9664 -16.9658
   -16.9651 -16.9648 -16.9641 -16.9637 -16.9635 -16.9629 -16.9628 -16.9628
   -16.9619 -16.9616 -16.9614 -16.9604 -16.9596 -16.9595 -16.9588 -16.9580
   -16.9578 -16.9571 -16.9568 -16.9556 -16.9551 -16.9547 -16.9533 -16.9528
   -16.9518 -16.9513 -16.9508 -16.9505 -16.9498 -16.9491 -16.9490 -16.9480
   -16.9456 -16.9452 -16.9438 -16.9430 -16.9428 -16.9420 -16.9404 -16.9392
   -16.9385 -16.9384 -16.9381 -16.9376 -16.9372 -16.9369 -16.9362 -16.9356
   -16.9349 -16.9342 -16.9336 -16.9329 -16.9319 -16.9313 -16.9298 -16.9288
   -16.9274 -16.9257 -16.9252 -16.9243 -16.9222 -16.9216 -16.9205 -16.9199
   -16.9152 -16.9139 -16.9136 -16.9116 -16.9107 -16.9104 -16.9080 -16.9072
   -16.9070 -16.9037 -16.9017 -16.9007 -16.9005 -16.8987 -16.8983 -16.8931
   -16.8911 -16.8903 -16.8880 -16.8853 -16.8847 -16.8842 -16.8833 -16.8825
   -16.8803 -16.8792 -16.8765 -16.8755 -16.8746 -16.8736 -16.8704 -16.8696
   -16.8668 -16.8658 -16.8655 -16.8626 -16.8612 -16.8527 -16.8517 -16.8491
   -16.8443 -16.8422  -4.9638  -4.9379  -4.5163  -4.4851  -4.4775  -4.4334
    -4.3624  -4.2889  -4.0087  -3.9580  -3.9230  -3.9077  -3.8800  -3.7875
    -3.6060  -3.5089  -3.4935  -3.4167  -3.4031  -3.3892  -3.3275  -3.2986
    -3.1878  -3.1316  -3.0908  -3.0352  -2.9923  -2.9806  -2.9646  -2.9127
    -2.8913  -2.8400  -2.8010  -2.7826  -2.7473  -2.6864  -2.6565  -2.6307
    -2.5436  -2.5049  -2.3650  -2.2955  -2.2410  -2.1732  -2.1669  -2.1144
    -1.9832  -1.9661  -1.9332  -1.9140  -1.8750  -1.7880  -1.7701  -1.7624
    -1.7008  -1.6592  -1.6385  -1.5423  -1.5280  -1.5204  -1.5136  -1.4580
    -1.4437  -1.3665  -0.3785  -0.3472  -0.3028  -0.2719  -0.2143  -0.1792
    -0.1523  -0.1393  -0.1133  -0.0676  -0.0208  -0.0110   0.0310   0.0475
     0.0862   0.0965   0.0999   0.1520   0.1703   0.2174   0.2655   0.2720
     0.2902   0.3125   0.3314   0.3641   0.3740   0.4018   0.4246   0.4805
     0.9110   0.9487   0.9547   1.0292   1.0436   1.0635   1.0755   1.1103
     1.1761   1.1910   1.2061   1.2173   1.2544   1.2921   1.8513   1.8872
     1.9349   1.9475   1.9861   1.9941   2.3202   2.3422   2.3530   2.3941
     2.4198   2.4262   3.2119   3.2168   3.2218   3.2271   3.2288   3.2355
     3.2390   3.2450   3.2493   3.2525   3.2555   3.2605   3.2661   3.2732
     3.2889   3.2947   3.3046   3.3073   3.7016   3.7137   3.7457   3.7683
     3.7822   3.7963   3.8293   3.8473   3.8610   3.8616   3.8719   3.8747
     3.8866   3.9038   3.9073   3.9148   3.9211   3.9285   3.9349   3.9379
     3.9504   3.9625   3.9683   3.9826   4.3169   4.3257   4.3306   4.3336
     4.3387   4.3440   4.3522   4.3557   4.3595   4.3618   4.3664   4.3771
     4.5635   4.5700   4.5811   4.5829   4.5906   4.5978   4.6016   4.6034
     4.6098   4.6205   4.6243   4.6283   4.8713   4.8824   4.8898   4.9037
     4.9202   4.9296   4.9377   4.9504   4.9616   4.9646   4.9723   4.9940
     5.0537   5.0666   5.0812   5.0899   5.0994   5.1174   5.3195   5.3334
     5.3412   5.3575   5.3599   5.3637   5.3742   5.3747   5.3831   5.3885
     5.3910   5.3961   5.4019   5.4131   5.4136   5.4205   5.4341   5.4442
     5.5240   5.5408   5.7139   5.7305   5.7365   5.7445   5.7499   5.7649
     5.9655   5.9799   5.9868   6.0073   6.0122   6.0205   6.0236   6.0319
     6.0417   6.0648   6.0672   6.0825   6.2108   6.2142   6.2416   6.2455
     6.5334   6.5438   6.5670   6.5691   6.5930   6.6172   7.0925   7.1133
     7.1222   7.1400   8.1625   8.1861   8.2059   8.2302   8.2457   8.2636
     8.3196   8.3352   8.6028   8.6112   8.6189   8.6560   8.6694   8.6832
     8.9919   9.0240   9.0313   9.0707   9.0764   9.0957   9.1117   9.1416
     9.1680   9.1861   9.2077   9.2156   9.2567   9.2708   9.2829   9.2919
     9.3009   9.3242   9.3450   9.3631   9.3773   9.4034   9.4164   9.4229
     9.4468   9.4667   9.5297   9.5620   9.5749   9.6140   9.6232   9.6481
     9.6690   9.6825   9.6913   9.7050   9.7072   9.7276   9.7466   9.7504
     9.7644   9.7827   9.7944   9.8216  10.0405  10.0662  10.0688  10.0966
    10.1012  10.1134  10.1200  10.1227  10.1343  10.1529  10.1731  10.1861
    10.2053  10.2161  10.2339  10.2499  10.2673  10.2896  10.3543  10.3677
    10.3796  10.4078  10.5490  10.5774  10.5793  10.5853  10.6010  10.6198
    10.7112  10.7353  10.7771  10.7839  10.7911  10.8035  10.8192  10.8387
    10.8449  10.8617  10.8670  10.8752  10.8926  10.8994  10.9099  10.9323
    10.9393  10.9579  10.9735  10.9805  10.9853  10.9911  11.0820  11.1102
    11.1329  11.1467  11.1473  11.1690  11.2097  11.2408  11.2688

     occupation numbers 
     1.0000   1.0000   1.0000   1.0000   1.0000   1.0000   1.0000   1.0000
     1.0000   1.0000   1.0000   1.0000   1.0000   1.0000   1.0000   1.0000
     1.0000   1.0000   1.0000   1.0000   1.0000   1.0000   1.0000   1.0000
     1.0000   1.0000   1.0000   1.0000   1.0000   1.0000   1.0000   1.0000
     1.0000   1.0000   1.0000   1.0000   1.0000   1.0000   1.0000   1.0000
     1.0000   1.0000   1.0000   1.0000   1.0000   1.0000   1.0000   1.0000
     1.0000   1.0000   1.0000   1.0000   1.0000   1.0000   1.0000   1.0000
     1.0000   1.0000   1.0000   1.0000   1.0000   1.0000   1.0000   1.0000
     1.0000   1.0000   1.0000   1.0000   1.0000   1.0000   1.0000   1.0000
     1.0000   1.0000   1.0000   1.0000   1.0000   1.0000   1.0000   1.0000
     1.0000   1.0000   1.0000   1.0000   1.0000   1.0000   1.0000   1.0000
     1.0000   1.0000   1.0000   1.0000   1.0000   1.0000   1.0000   1.0000
     1.0000   1.0000   1.0000   1.0000   1.0000   1.0000   1.0000   1.0000
     1.0000   1.0000   1.0000   1.0000   1.0000   1.0000   1.0000   1.0000
     1.0000   1.0000   1.0000   1.0000   1.0000   1.0000   1.0000   1.0000
     1.0000   1.0000   1.0000   1.0000   1.0000   1.0000   1.0000   1.0000
     1.0000   1.0000   1.0000   1.0000   1.0000   1.0000   1.0000   1.0000
     1.0000   1.0000   1.0000   1.0000   1.0000   1.0000   1.0000   1.0000
     1.0000   1.0000   1.0000   1.0000   1.0000   1.0000   1.0000   1.0000
     1.0000   1.0000   1.0000   1.0000   1.0000   1.0000   1.0000   1.0000
     1.0000   1.0000   1.0000   1.0000   1.0000   1.0000   1.0000   1.0000
     1.0000   1.0000   1.0000   1.0000   1.0000   1.0000   1.0000   1.0000
     1.0000   1.0000   1.0000   1.0000   1.0000   1.0000   1.0000   1.0000
     1.0000   1.0000   1.0000   1.0000   1.0000   1.0000   1.0000   1.0000
     1.0000   1.0000   1.0000   1.0000   1.0000   1.0000   1.0000   1.0000
     1.0000   1.0000   1.0000   1.0000   1.0000   1.0000   1.0000   1.0000
     1.0000   1.0000   1.0000   1.0000   1.0000   1.0000   1.0000   1.0000
     1.0000   1.0000   1.0000   1.0000   1.0000   1.0000   1.0000   1.0000
     1.0000   1.0000   1.0000   1.0000   1.0000   1.0000   1.0000   1.0000
     1.0000   1.0000   1.0000   1.0000   1.0000   1.0000   1.0000   1.0000
     1.0000   1.0000   1.0000   1.0000   1.0000   1.0000   1.0000   1.0000
     1.0000   1.0000   1.0000   1.0000   1.0000   1.0000   1.0000   1.0000
     1.0000   1.0000   1.0000   1.0000   1.0000   1.0000   1.0000   1.0000
     1.0000   1.0000   1.0000   1.0000   1.0000   1.0000   1.0000   1.0000
     1.0000   1.0000   1.0000   1.0000   1.0000   1.0000   1.0000   1.0000
     1.0000   1.0000   1.0000   1.0000   1.0000   1.0000   1.0000   1.0000
     1.0000   1.0000   1.0000   1.0000   1.0000   1.0000   1.0000   1.0000
     1.0000   1.0000   1.0000   1.0000   1.0000   1.0000   1.0000   1.0000
     1.0000   1.0000   1.0000   1.0000   1.0000   1.0000   1.0000   1.0000
     1.0000   1.0000   1.0000   1.0000   1.0000   1.0000   1.0000   1.0000
     1.0000   1.0000   1.0000   1.0000   1.0000   1.0000   1.0000   1.0000
     1.0000   1.0000   1.0000   1.0000   1.0000   1.0000   1.0000   1.0000
     1.0000   1.0000   1.0000   1.0000   1.0000   1.0000   1.0000   1.0000
     1.0000   1.0000   1.0000   1.0000   1.0000   1.0000   1.0000   1.0000
     1.0000   1.0000   1.0000   1.0000   1.0000   1.0000   1.0000   1.0000
     1.0000   1.0000   1.0000   1.0000   1.0000   1.0000   1.0000   1.0000
     1.0000   1.0000   1.0000   1.0000   1.0000   1.0000   1.0000   1.0000
     1.0000   1.0000   1.0000   1.0000   1.0000   1.0000   1.0000   1.0000
     1.0000   1.0000   1.0000   1.0000   1.0000   1.0000   1.0000   1.0000
     1.0000   1.0000   1.0000   1.0000   1.0000   1.0000   1.0000   1.0000
     1.0000   1.0000   1.0000   1.0000   1.0000   1.0000   1.0000   1.0000
     1.0000   1.0000   1.0000   1.0000   1.0000   1.0000   1.0000   1.0000
     1.0000   1.0000   1.0000   1.0000   1.0000   1.0000   1.0000   1.0000
     1.0000   1.0000   1.0000   1.0000   1.0000   1.0000   1.0000   1.0000
     1.0000   1.0000   1.0000   1.0000   1.0000   1.0000   1.0000   1.0000
     1.0000   1.0000   1.0000   1.0000   1.0000   1.0000   1.0000   1.0000
     1.0000   1.0000   1.0000   1.0000   1.0000   1.0000   1.0000   1.0000
     1.0000   1.0000   1.0000   1.0000   1.0000   1.0000   1.0000   1.0000
     1.0000   1.0000   1.0000   1.0000   1.0000   1.0000   1.0000   1.0000
     1.0000   1.0000   1.0000   1.0000   1.0000   1.0000   1.0000   1.0000
     1.0000   1.0000   1.0000   1.0000   1.0000   1.0000   1.0000   1.0000
     1.0000   1.0000   1.0000   1.0000   1.0000   1.0000   1.0000   1.0000
     1.0000   1.0000   1.0000   1.0000   1.0000   1.0000   1.0000   1.0000
     1.0000   1.0000   1.0000   1.0000   1.0000   1.0000   1.0000   1.0000
     1.0000   1.0000   1.0000   1.0000   1.0000   1.0000   1.0000   1.0000
     1.0000   1.0000   1.0000   1.0000   1.0000   1.0000   1.0000   1.0000
     1.0000   1.0000   1.0000   1.0000   1.0000   1.0000   1.0000   1.0000
     1.0000   1.0000   1.0000   1.0000   1.0000   1.0000   1.0000   1.0000
     1.0000   1.0000   1.0000   1.0000   1.0000   1.0000   1.0000   1.0000
     1.0000   1.0000   1.0000   1.0000   1.0000   1.0000   1.0000   1.0000
     1.0000   1.0000   1.0000   1.0000   1.0000   1.0000   1.0000   1.0000
     1.0000   1.0000   1.0000   1.0000   1.0000   1.0000   1.0000   1.0000
     1.0000   1.0000   1.0000   1.0000   1.0000   1.0000   0.9999   0.9999
     0.9999   0.9998   0.0002   0.0001   0.0001   0.0000   0.0000   0.0000
     0.0000   0.0000   0.0000   0.0000   0.0000   0.0000   0.0000   0.0000
     0.0000   0.0000   0.0000   0.0000   0.0000   0.0000   0.0000   0.0000
     0.0000   0.0000   0.0000   0.0000   0.0000   0.0000   0.0000   0.0000
     0.0000   0.0000   0.0000   0.0000   0.0000   0.0000   0.0000   0.0000
     0.0000   0.0000   0.0000   0.0000   0.0000   0.0000   0.0000   0.0000
     0.0000   0.0000   0.0000   0.0000   0.0000   0.0000   0.0000   0.0000
     0.0000   0.0000   0.0000   0.0000   0.0000   0.0000   0.0000   0.0000
     0.0000   0.0000   0.0000   0.0000   0.0000   0.0000   0.0000   0.0000
     0.0000   0.0000   0.0000   0.0000   0.0000   0.0000   0.0000   0.0000
     0.0000   0.0000   0.0000   0.0000   0.0000   0.0000   0.0000   0.0000
     0.0000   0.0000   0.0000   0.0000   0.0000   0.0000   0.0000   0.0000
     0.0000   0.0000   0.0000   0.0000   0.0000   0.0000   0.0000   0.0000
     0.0000   0.0000   0.0000   0.0000   0.0000   0.0000   0.0000   0.0000
     0.0000   0.0000   0.0000   0.0000   0.0000   0.0000   0.0000

          k =-0.7055-0.0005-0.0000 ( 64130 PWs)   bands (ev):

   -17.2900 -17.2897 -17.2852 -17.2811 -17.2777 -17.2774 -17.2704 -17.2676
   -17.2659 -17.2650 -17.2631 -17.2609 -17.2552 -17.2538 -17.2509 -17.2489
   -17.2467 -17.2427 -17.2403 -17.2367 -17.2336 -17.2305 -17.2268 -17.2260
   -17.2225 -17.2195 -17.2166 -17.2120 -17.2102 -17.2075 -17.2071 -17.2025
   -17.2019 -17.1974 -17.1967 -17.1951 -17.1916 -17.1902 -17.1899 -17.1885
   -17.1842 -17.1823 -17.1817 -17.1795 -17.1772 -17.1732 -17.1725 -17.1709
   -17.1667 -17.1664 -17.1659 -17.1624 -17.1607 -17.1601 -17.1586 -17.1573
   -17.1549 -17.1541 -17.1501 -17.1488 -17.1466 -17.1455 -17.1425 -17.1399
   -17.1389 -17.1358 -17.1347 -17.1321 -17.1315 -17.1314 -17.1270 -17.1242
   -17.1237 -17.1229 -17.1227 -17.1211 -17.1182 -17.1162 -17.1112 -17.1086
   -17.1083 -17.1066 -17.1058 -17.1045 -17.1034 -17.0996 -17.0977 -17.0962
   -17.0959 -17.0940 -17.0928 -17.0925 -17.0894 -17.0889 -17.0880 -17.0853
   -17.0841 -17.0833 -17.0822 -17.0808 -17.0802 -17.0798 -17.0787 -17.0782
   -17.0770 -17.0764 -17.0755 -17.0733 -17.0725 -17.0719 -17.0701 -17.0700
   -17.0693 -17.0688 -17.0679 -17.0674 -17.0646 -17.0641 -17.0635 -17.0599
   -17.0593 -17.0572 -17.0554 -17.0538 -17.0529 -17.0510 -17.0503 -17.0479
   -17.0475 -17.0462 -17.0438 -17.0427 -17.0416 -17.0392 -17.0377 -17.0368
   -17.0362 -17.0351 -17.0347 -17.0321 -17.0313 -17.0277 -17.0271 -17.0261
   -17.0242 -17.0239 -17.0232 -17.0214 -17.0202 -17.0192 -17.0185 -17.0182
   -17.0176 -17.0155 -17.0138 -17.0133 -17.0121 -17.0114 -17.0102 -17.0092
   -17.0090 -17.0088 -17.0083 -17.0073 -17.0066 -17.0050 -17.0048 -17.0038
   -17.0035 -17.0028 -17.0023 -17.0013 -17.0010 -17.0005 -16.9996 -16.9992
   -16.9986 -16.9981 -16.9973 -16.9969 -16.9965 -16.9957 -16.9945 -16.9937
   -16.9932 -16.9924 -16.9918 -16.9905 -16.9900 -16.9896 -16.9876 -16.9870
   -16.9855 -16.9845 -16.9841 -16.9831 -16.9816 -16.9810 -16.9807 -16.9801
   -16.9798 -16.9789 -16.9785 -16.9782 -16.9778 -16.9770 -16.9759 -16.9754
   -16.9751 -16.9742 -16.9735 -16.9730 -16.9720 -16.9710 -16.9699 -16.9695
   -16.9691 -16.9686 -16.9677 -16.9673 -16.9670 -16.9667 -16.9663 -16.9658
   -16.9652 -16.9648 -16.9641 -16.9638 -16.9636 -16.9630 -16.9628 -16.9627
   -16.9618 -16.9616 -16.9614 -16.9602 -16.9596 -16.9595 -16.9588 -16.9579
   -16.9577 -16.9575 -16.9568 -16.9555 -16.9550 -16.9546 -16.9532 -16.9528
   -16.9520 -16.9514 -16.9509 -16.9505 -16.9497 -16.9491 -16.9488 -16.9479
   -16.9456 -16.9453 -16.9436 -16.9431 -16.9428 -16.9421 -16.9403 -16.9391
   -16.9385 -16.9384 -16.9380 -16.9375 -16.9372 -16.9369 -16.9363 -16.9355
   -16.9348 -16.9342 -16.9337 -16.9328 -16.9318 -16.9313 -16.9298 -16.9289
[...]
     atom   77 type  1   force =   0.00000000E+00  0.00000000E+00  0.00000000E+00
     atom   78 type  2   force =   0.00000000E+00  0.00000000E+00  0.00000000E+00
     atom   79 type  1   force =   0.00000000E+00  0.00000000E+00  0.00000000E+00
     atom   80 type  1   force =   0.00000000E+00  0.00000000E+00  0.00000000E+00
     atom   81 type  2   force =   0.00000000E+00  0.00000000E+00  0.00000000E+00
     atom   82 type  1   force =   0.00000000E+00  0.00000000E+00  0.00000000E+00
     atom   83 type  1   force =   0.00000000E+00  0.00000000E+00  0.00000000E+00
     atom   84 type  1   force =   0.00000000E+00  0.00000000E+00  0.00000000E+00
     atom   85 type  2   force =   0.00000000E+00  0.00000000E+00  0.00000000E+00
     atom   86 type  2   force =   0.00000000E+00  0.00000000E+00  0.00000000E+00
     atom   87 type  2   force =   0.00000000E+00  0.00000000E+00  0.00000000E+00
     atom   88 type  2   force =   0.00000000E+00  0.00000000E+00  0.00000000E+00
     atom   89 type  2   force =   0.00000000E+00  0.00000000E+00  0.00000000E+00
     atom   90 type  2   force =   0.00000000E+00  0.00000000E+00  0.00000000E+00
     atom   91 type  2   force =   0.00000000E+00  0.00000000E+00  0.00000000E+00
     atom   92 type  2   force =   0.00000000E+00  0.00000000E+00  0.00000000E+00
     atom   93 type  1   force =   0.00000000E+00  0.00000000E+00  0.00000000E+00
     atom   94 type  1   force =   0.00000000E+00  0.00000000E+00  0.00000000E+00
     atom   95 type  1   force =   0.00000000E+00  0.00000000E+00  0.00000000E+00
     atom   96 type  2   force =   0.00000000E+00  0.00000000E+00  0.00000000E+00
     atom   97 type  1   force =   0.00000000E+00  0.00000000E+00  0.00000000E+00
     atom   98 type  1   force =   0.00000000E+00  0.00000000E+00  0.00000000E+00
     atom   99 type  1   force =   0.00000000E+00  0.00000000E+00  0.00000000E+00
     atom  100 type  1   force =   0.00000000E+00  0.00000000E+00  0.00000000E+00
     atom  101 type  1   force =   0.00000000E+00  0.00000000E+00  0.00000000E+00
     atom  102 type  1   force =   0.00000000E+00  0.00000000E+00  0.00000000E+00
     atom  103 type  2   force =   0.00000000E+00  0.00000000E+00  0.00000000E+00
     atom  104 type  2   force =   0.00000000E+00  0.00000000E+00  0.00000000E+00
     atom  105 type  2   force =   0.00000000E+00  0.00000000E+00  0.00000000E+00
     atom  106 type  2   force =   0.00000000E+00  0.00000000E+00  0.00000000E+00
     atom  107 type  1   force =   0.00000000E+00  0.00000000E+00  0.00000000E+00
     atom  108 type  2   force =   0.00000000E+00  0.00000000E+00  0.00000000E+00
     atom  109 type  1   force =   0.00000000E+00  0.00000000E+00  0.00000000E+00
     atom  110 type  1   force =   0.00000000E+00  0.00000000E+00  0.00000000E+00
     atom  111 type  1   force =   0.00000000E+00  0.00000000E+00  0.00000000E+00
     atom  112 type  2   force =   0.00000000E+00  0.00000000E+00  0.00000000E+00
     atom  113 type  2   force =   0.00000000E+00  0.00000000E+00  0.00000000E+00
     atom  114 type  2   force =   0.00000000E+00  0.00000000E+00  0.00000000E+00
     atom  115 type  2   force =   0.00000000E+00  0.00000000E+00  0.00000000E+00
     atom  116 type  2   force =   0.00000000E+00  0.00000000E+00  0.00000000E+00
     atom  117 type  1   force =   0.00000000E+00  0.00000000E+00  0.00000000E+00
     atom  118 type  1   force =   0.00000000E+00  0.00000000E+00  0.00000000E+00
     atom  119 type  1   force =   0.00000000E+00  0.00000000E+00  0.00000000E+00
     atom  120 type  2   force =   0.00000000E+00  0.00000000E+00  0.00000000E+00
     atom  121 type  1   force =   0.00000000E+00  0.00000000E+00  0.00000000E+00
     atom  122 type  2   force =   0.00000000E+00  0.00000000E+00  0.00000000E+00
     atom  123 type  1   force =   0.00000000E+00  0.00000000E+00  0.00000000E+00
     atom  124 type  2   force =   0.00000000E+00  0.00000000E+00  0.00000000E+00
     atom  125 type  2   force =   0.00000000E+00  0.00000000E+00  0.00000000E+00
     atom  126 type  1   force =   0.00000000E+00  0.00000000E+00  0.00000000E+00
     atom  127 type  1   force =   0.00000000E+00  0.00000000E+00  0.00000000E+00
     atom  128 type  1   force =   0.00000000E+00  0.00000000E+00  0.00000000E+00
     The SCF correction term to forces
     atom    1 type  2   force =  -0.37571010E-05 -0.92061081E-06 -0.55251921E-05
     atom    2 type  2   force =  -0.34886911E-05 -0.45454998E-05 -0.37328709E-05
     atom    3 type  1   force =  -0.81681790E-06 -0.28066505E-06 -0.54799178E-06
     atom    4 type  1   force =   0.23170838E-06 -0.24218933E-06 -0.16606396E-05
     atom    5 type  1   force =   0.20372050E-06  0.49574174E-06 -0.18907153E-05
     atom    6 type  2   force =   0.29241340E-05 -0.27254744E-05 -0.36134428E-05
     atom    7 type  2   force =   0.31669166E-05  0.31713762E-05 -0.10906884E-05
     atom    8 type  2   force =   0.51548323E-05  0.26014640E-05  0.14530302E-05
     atom    9 type  2   force =  -0.33058297E-05  0.11789486E-05  0.21095045E-05
     atom   10 type  2   force =  -0.30369683E-05 -0.30590539E-05  0.58807669E-05
     atom   11 type  2   force =  -0.59717737E-05 -0.19258334E-05 -0.57311104E-06
     atom   12 type  2   force =   0.40774692E-05  0.12196878E-05 -0.44140718E-05
     atom   13 type  1   force =   0.18392851E-05  0.12998081E-05 -0.67213224E-06
     atom   14 type  2   force =   0.69194567E-05  0.17466597E-05  0.36916134E-06
     atom   15 type  1   force =  -0.46064862E-06 -0.65609836E-08 -0.88970464E-07
     atom   16 type  2   force =  -0.69145607E-05 -0.90102566E-07 -0.20031884E-05
     atom   17 type  1   force =  -0.86882929E-06 -0.54598837E-06  0.10149651E-05
     atom   18 type  1   force =  -0.14043490E-06 -0.12969260E-05  0.12051156E-05
     atom   19 type  2   force =   0.11489459E-05  0.20846993E-05  0.12288751E-04
     atom   20 type  1   force =   0.12876229E-05  0.15818428E-06  0.69154647E-06
     atom   21 type  1   force =   0.79678415E-06  0.84421525E-06 -0.29323732E-06
     atom   22 type  1   force =   0.67958635E-07 -0.35479806E-06  0.22780259E-07
     atom   23 type  2   force =  -0.33760778E-05 -0.16461759E-06  0.57339362E-05
     atom   24 type  2   force =   0.26790607E-05  0.12074128E-05  0.33006810E-05
     atom   25 type  1   force =   0.89521706E-06 -0.10687079E-08  0.10662623E-05
     atom   26 type  1   force =   0.29647048E-06 -0.68242222E-06  0.39489032E-06
     atom   27 type  1   force =  -0.61487167E-06 -0.71334660E-06  0.73425154E-06
     atom   28 type  1   force =  -0.57639323E-07 -0.66274042E-07 -0.99733546E-06
     atom   29 type  2   force =   0.19509497E-05  0.23741145E-05 -0.10227956E-05
     atom   30 type  1   force =   0.39848430E-06 -0.33863719E-06 -0.15838865E-05
     atom   31 type  2   force =  -0.25371640E-06 -0.47871423E-05 -0.11201865E-05
     atom   32 type  2   force =   0.46519694E-05 -0.17567587E-05 -0.82016793E-05
     atom   33 type  2   force =  -0.34142455E-05 -0.42084670E-05 -0.94608642E-06
     atom   34 type  2   force =  -0.44557583E-05 -0.57815353E-05  0.79236600E-05
     atom   35 type  2   force =  -0.43867803E-05 -0.66515606E-05 -0.60384863E-05
     atom   36 type  2   force =   0.20873756E-05  0.26390767E-05  0.38332970E-06
     atom   37 type  1   force =   0.22978095E-05  0.10157461E-05 -0.73366941E-06
     atom   38 type  2   force =   0.73767744E-05  0.33839383E-05 -0.23663744E-06
     atom   39 type  1   force =   0.97769942E-06 -0.25765664E-06 -0.22939332E-06
     atom   40 type  1   force =   0.47705125E-08 -0.10404359E-05 -0.39345854E-06
     atom   41 type  1   force =  -0.71116738E-06 -0.13684733E-05  0.63520101E-06
     atom   42 type  2   force =  -0.51968535E-05 -0.59352296E-05  0.40120975E-05
     atom   43 type  2   force =   0.45539455E-05 -0.10270643E-05  0.96328519E-05
     atom   44 type  1   force =   0.75046688E-06  0.84717887E-06  0.84516902E-06
     atom   45 type  2   force =   0.26567502E-05 -0.34867468E-06 -0.12656573E-05
     atom   46 type  2   force =   0.24882679E-05  0.11244296E-05 -0.32995608E-05
     atom   47 type  1   force =  -0.74778708E-07 -0.23695378E-06 -0.19833624E-06
     atom   48 type  1   force =   0.36257036E-07  0.15393097E-06 -0.35758493E-06
     atom   49 type  1   force =   0.40592144E-06 -0.13282681E-06  0.32580225E-06
     atom   50 type  1   force =   0.29840155E-06 -0.30387345E-06  0.61474119E-06
     atom   51 type  1   force =  -0.10358887E-06 -0.77796136E-06 -0.14691538E-07
     atom   52 type  2   force =   0.22739959E-05 -0.30444666E-05 -0.49364963E-05
     atom   53 type  1   force =   0.12141969E-05  0.26807310E-06 -0.11793092E-05
     atom   54 type  2   force =   0.74627993E-06 -0.27366285E-06 -0.65813888E-05
     atom   55 type  1   force =  -0.24581680E-06 -0.69080459E-06 -0.11005516E-05
     atom   56 type  1   force =   0.33635889E-06 -0.12433569E-06 -0.13197702E-05
     atom   57 type  2   force =   0.30429822E-05 -0.30799899E-05 -0.62330145E-05
     atom   58 type  2   force =  -0.19746457E-05 -0.41199430E-05 -0.18059388E-05
     atom   59 type  1   force =   0.46170730E-06 -0.86613908E-06 -0.56292656E-06
     atom   60 type  1   force =  -0.26240695E-06 -0.65212871E-06 -0.19466754E-05
     atom   61 type  2   force =   0.97784495E-06 -0.53209315E-05 -0.11568015E-04
     atom   62 type  2   force =   0.68362915E-06 -0.63745498E-06 -0.10229665E-05
     atom   63 type  2   force =   0.58724648E-05  0.19643634E-05 -0.41858822E-05
     atom   64 type  2   force =   0.62098948E-05  0.17314133E-05  0.42123469E-05
     atom   65 type  1   force =  -0.11974977E-05 -0.68657350E-06  0.13502724E-05
     atom   66 type  2   force =  -0.69060451E-05 -0.24623465E-05  0.66589763E-05
     atom   67 type  1   force =  -0.40578853E-06  0.32666723E-06  0.24219337E-05
     atom   68 type  2   force =   0.12293620E-05  0.30074422E-05  0.64238511E-05
     atom   69 type  2   force =   0.26885142E-05  0.58190932E-05 -0.28236439E-05
     atom   70 type  1   force =   0.43706607E-06  0.16092026E-06 -0.72755447E-07
     atom   71 type  2   force =   0.29306459E-05 -0.12963913E-05  0.23034734E-05
     atom   72 type  1   force =   0.29019702E-06  0.64231205E-06  0.34157200E-06
     atom   73 type  2   force =  -0.18393812E-05  0.12721542E-05  0.55419155E-05
     atom   74 type  2   force =  -0.16543807E-05  0.78240116E-06  0.22413460E-05
     atom   75 type  1   force =  -0.41525569E-06 -0.87319523E-06  0.21599516E-06
     atom   76 type  2   force =  -0.13257733E-05  0.63737568E-06 -0.50157397E-05
     atom   77 type  1   force =   0.10017053E-05  0.88962505E-06 -0.82982179E-06
     atom   78 type  2   force =   0.63272503E-06  0.50963426E-05 -0.40116155E-05
     atom   79 type  1   force =  -0.37306061E-06  0.79598913E-07 -0.43396322E-06
     atom   80 type  1   force =  -0.77756494E-06  0.83178115E-06 -0.81419538E-06
     atom   81 type  2   force =   0.15603750E-05 -0.45192494E-06 -0.50736788E-05
     atom   82 type  1   force =  -0.57817015E-06 -0.12168756E-05 -0.36723154E-06
     atom   83 type  1   force =  -0.19431290E-06 -0.49232692E-06  0.43992506E-07
     atom   84 type  1   force =  -0.79860029E-07 -0.12987478E-06 -0.11361452E-05
     atom   85 type  2   force =  -0.13277833E-05 -0.53774742E-06 -0.80089485E-05
     atom   86 type  2   force =  -0.30727940E-05  0.17575337E-05  0.26123722E-05
     atom   87 type  2   force =  -0.47526614E-06  0.45686475E-05 -0.51088198E-05
     atom   88 type  2   force =   0.39139708E-05  0.41312676E-05  0.45688717E-05
     atom   89 type  2   force =   0.43255285E-06 -0.15833127E-05 -0.85455013E-06
     atom   90 type  2   force =  -0.38356972E-05 -0.43596537E-05  0.86955098E-05
     atom   91 type  2   force =  -0.52675109E-05 -0.59710514E-05 -0.25455735E-05
     atom   92 type  2   force =   0.12189608E-05  0.32634631E-05  0.34161012E-05
     atom   93 type  1   force =   0.13094441E-05  0.18872864E-05  0.49367723E-06
     atom   94 type  1   force =   0.60092473E-06  0.15054978E-05  0.34580989E-06
     atom   95 type  1   force =  -0.12129947E-06 -0.28775131E-06  0.66878725E-06
     atom   96 type  2   force =  -0.44659499E-05  0.20270134E-06 -0.36331662E-07
     atom   97 type  1   force =  -0.55488375E-07  0.66066258E-06  0.12204179E-05
     atom   98 type  1   force =  -0.12487654E-05 -0.43689375E-07  0.60034153E-06
     atom   99 type  1   force =  -0.15196444E-05 -0.38938997E-06  0.92290833E-06
     atom  100 type  1   force =  -0.73710483E-06  0.84581669E-07 -0.35765655E-06
     atom  101 type  1   force =   0.27229377E-06  0.10783877E-05 -0.61454541E-06
     atom  102 type  1   force =   0.26137985E-06  0.80245366E-06 -0.51057686E-06
     atom  103 type  2   force =  -0.34381319E-05 -0.70484068E-06 -0.24212047E-05
     atom  104 type  2   force =   0.40241541E-05  0.17200605E-05 -0.12520216E-05
     atom  105 type  2   force =  -0.57390806E-05 -0.30166265E-06 -0.54665603E-05
     atom  106 type  2   force =  -0.70449734E-05 -0.12733289E-05 -0.23659317E-05
     atom  107 type  1   force =  -0.89691966E-06  0.18290328E-06 -0.40084774E-06
     atom  108 type  2   force =   0.10164222E-05  0.40805769E-05 -0.51385504E-05
     atom  109 type  1   force =   0.50914748E-06  0.88637731E-06 -0.13667183E-05
     atom  110 type  1   force =   0.36816439E-07  0.11419993E-05 -0.71481935E-06
     atom  111 type  1   force =  -0.10847849E-07  0.83261850E-06  0.47565199E-08
     atom  112 type  2   force =  -0.34804683E-05  0.33384084E-05 -0.10222901E-06
     atom  113 type  2   force =  -0.27203415E-06 -0.15082043E-05 -0.31943749E-06
     atom  114 type  2   force =  -0.24710523E-05 -0.74710661E-06  0.95539067E-05
     atom  115 type  2   force =  -0.33610498E-05 -0.32438903E-05 -0.91881637E-06
     atom  116 type  2   force =   0.42018219E-05  0.27521021E-05  0.35650080E-06
     atom  117 type  1   force =   0.86776173E-06  0.21526323E-05  0.84752645E-08
     atom  118 type  1   force =   0.70294363E-06  0.11404704E-05  0.78583582E-06
     atom  119 type  1   force =  -0.10835005E-05 -0.11795061E-06  0.50432066E-06
     atom  120 type  2   force =  -0.18144337E-05 -0.54657901E-05  0.31437011E-05
     atom  121 type  1   force =  -0.70416028E-06 -0.91639724E-06  0.17110017E-05
     atom  122 type  2   force =  -0.37399420E-05 -0.21970610E-05  0.86739515E-05
     atom  123 type  1   force =  -0.87598768E-07  0.32923697E-06  0.26736517E-05
     atom  124 type  2   force =  -0.11151308E-05  0.41407689E-05  0.70218376E-05
     atom  125 type  2   force =   0.30604771E-05  0.66915917E-05 -0.25526024E-05
     atom  126 type  1   force =  -0.33728734E-06  0.77842274E-06 -0.24615028E-06
     atom  127 type  1   force =  -0.12374302E-06 -0.68055973E-07  0.14292547E-05
     atom  128 type  1   force =  -0.14903588E-06  0.30799010E-06  0.71894138E-06

     Total force =     0.264075     Total SCF correction =     0.000057


     entering subroutine stress ...

          total   stress  (Ry/bohr**3)                   (kbar)     P=    4.67
   0.0000219956  -0.0000008522   0.0000046667          3.24     -0.13      0.69
  -0.0000008522   0.0000353422  -0.0000058370         -0.13      5.20     -0.86
   0.0000046667  -0.0000058370   0.0000379873          0.69     -0.86      5.59

     kinetic stress (kbar)   6551.39     -0.15      0.18
                               -0.15   6554.01     -0.14
                                0.18     -0.14   6554.47

     local   stress (kbar)  -9158.68    333.91  -2423.29
                              333.91  -5013.66  -2849.11
                            -2423.29  -2849.11  -1212.24

     nonloc. stress (kbar)   2520.30     -0.71     -0.09
                               -0.71   2519.57     -0.69
                               -0.09     -0.69   2519.44

     hartree stress (kbar)  19626.03   -189.36   1177.05
                             -189.36  17586.67   1395.69
                             1177.05   1395.69  15716.90

     exc-cor stress (kbar)  11254.49     -0.01      0.01
                               -0.01  11254.45     -0.01
                                0.01     -0.01  11254.44

     corecor stress (kbar) -17072.92     -0.01     -0.02
                               -0.01 -17072.86      0.05
                               -0.02      0.05 -17072.86

     ewald   stress (kbar) -13717.37   -143.79   1246.84
                             -143.79 -15822.97   1453.35
                             1246.84   1453.35 -17754.57

     hubbard stress (kbar)      0.00      0.00      0.00
                                0.00      0.00      0.00
                                0.00      0.00      0.00

     london  stress (kbar)      0.00      0.00      0.00
                                0.00      0.00      0.00
                                0.00      0.00      0.00

     XDM     stress (kbar)      0.00      0.00      0.00
                                0.00      0.00      0.00
                                0.00      0.00      0.00

     dft-nl  stress (kbar)      0.00      0.00      0.00
                                0.00      0.00      0.00
                                0.00      0.00      0.00



     Writing output data file SiGe_zns.scf.in.super.444.b.055.save

     init_run     :   1702.89s CPU   1246.78s WALL (       1 calls)
     electrons    :  77676.90s CPU  58995.79s WALL (       1 calls)
     forces       :   1504.08s CPU   1054.69s WALL (       1 calls)
     stress       :   5109.68s CPU   4997.26s WALL (       1 calls)

     Called by init_run:
     wfcinit      :   1549.89s CPU   1093.57s WALL (       1 calls)
     potinit      :      8.76s CPU      8.80s WALL (       1 calls)

     Called by electrons:
     c_bands      :  68222.62s CPU  51019.26s WALL (      16 calls)
     sum_band     :   8016.55s CPU   6516.98s WALL (      16 calls)
     v_of_rho     :     15.61s CPU     15.80s WALL (      16 calls)
     v_h          :      1.04s CPU      1.11s WALL (      16 calls)
     v_xc         :     16.13s CPU     16.26s WALL (      18 calls)
     newd         :   1520.02s CPU   1540.92s WALL (      16 calls)
     mix_rho      :     25.99s CPU     26.68s WALL (      16 calls)

     Called by c_bands:
     init_us_2    :     82.47s CPU     85.29s WALL (     280 calls)
     cegterg      :  67598.04s CPU  50371.33s WALL (     128 calls)

     Called by sum_band:
     sum_band:bec :     19.26s CPU     19.79s WALL (     128 calls)
     addusdens    :    979.36s CPU    999.37s WALL (      16 calls)

     Called by *egterg:
     h_psi        :  30418.33s CPU  23252.43s WALL (     483 calls)
     s_psi        :   8839.95s CPU   5171.20s WALL (     483 calls)
     g_psi        :     14.34s CPU     17.46s WALL (     347 calls)
     cdiaghg      :  12194.12s CPU  11541.71s WALL (     467 calls)
     cegterg:over :   7683.56s CPU   4957.09s WALL (     347 calls)
     cegterg:upda :   3813.49s CPU   2303.04s WALL (     347 calls)
     cegterg:last :   2551.89s CPU   1491.59s WALL (     128 calls)

     Called by h_psi:
     h_psi:vloc   :  11627.94s CPU  11888.21s WALL (     483 calls)
     h_psi:vnl    :  18763.28s CPU  11335.81s WALL (     483 calls)
     add_vuspsi   :   8794.31s CPU   5202.52s WALL (     483 calls)

     General routines
     calbec       :  15453.65s CPU   9810.10s WALL (     627 calls)
     fft          :    225.48s CPU    228.80s WALL (     281 calls)
     ffts         :     15.48s CPU     15.87s WALL (     458 calls)
     fftw         :  12583.68s CPU  12872.17s WALL (  524006 calls)
     interpolate  :      3.56s CPU      3.61s WALL (      32 calls)

     Parallel routines
     fft_scatter  :   6925.38s CPU   7095.24s WALL (  524745 calls)

     PWSCF        :    23h53m CPU       18h25m WALL


   This run was terminated on:   6:47:37   3Nov2017            

=------------------------------------------------------------------------------=
   JOB DONE.
=------------------------------------------------------------------------------=
