
     Program PWSCF v.5.1 starts on 13Feb2017 at 13:18:30 

     This program is part of the open-source Quantum ESPRESSO suite
     for quantum simulation of materials; please cite
         "P. Giannozzi et al., J. Phys.:Condens. Matter 21 395502 (2009);
          URL http://www.quantum-espresso.org", 
     in publications or presentations arising from this work. More details at
     http://www.quantum-espresso.org/quote

     Parallel version (MPI), running on    16 processors
     R & G space division:  proc/nbgrp/npool/nimage =      16
     Reading input from /tmp/SiGe_zns.scf.in.super.228.c.01.257/SiGe_zns.scf.in.super.228.c.01.t
Warning: card &IONS ignored
Warning: card   ION_DYNAMICS='BFGS', ignored
Warning: card / ignored
Warning: card &CELL ignored
Warning: card  CELL_DYNAMICS = 'BFGS' ignored
Warning: card / ignored
     Message from routine read_cards :
     DEPRECATED: no units specified in CELL_PARAMETERS card

     Current dimensions of program PWSCF are:
     Max number of different atomic species (ntypx) = 10
     Max number of k-points (npk) =  40000
     Max angular momentum in pseudopotentials (lmaxx) =  3

     Subspace diagonalization in iterative solution of the eigenvalue problem:
     a serial algorithm will be used

     warning: symmetry operation #  3 not compatible with FFT grid. 
  -1   1   0
   0   1   0
   0   4  -1
     warning: symmetry operation #  4 not compatible with FFT grid. 
   1   0   0
   1  -1   0
   4   0  -1
     warning: symmetry operation #  5 not compatible with FFT grid. 
  -1   1   0
  -1   0   0
  -4   0   1
     warning: symmetry operation #  6 not compatible with FFT grid. 
   0  -1   0
   1  -1   0
   0  -4   1
     warning: symmetry operation #  9 not compatible with FFT grid. 
   1  -1   0
   0  -1   0
   0  -4   1
     warning: symmetry operation # 10 not compatible with FFT grid. 
  -1   0   0
  -1   1   0
  -4   0   1
     warning: symmetry operation # 11 not compatible with FFT grid. 
   1  -1   0
   1   0   0
   4   0  -1
     warning: symmetry operation # 12 not compatible with FFT grid. 
   0   1   0
  -1   1   0
   0   4  -1

     Parallelization info
     --------------------
     sticks:   dense  smooth     PW     G-vecs:    dense   smooth      PW
     Min         189     131     36                27389    16001    2346
     Max         192     132     37                27391    16042    2363
     Sum        3037    2107    583               438235   256383   37657



     bravais-lattice index     =            0
     lattice parameter (alat)  =    14.799446477  a.u.
     unit-cell volume          =    9168.1437 (a.u.)^3
     number of atoms/cell      =           64
     number of atomic types    =            2
     number of electrons       =       486.00
     number of Kohn-Sham states=          292
     kinetic-energy cutoff     =      35.0000  Ry
     charge density cutoff     =     200.0000  Ry
     convergence threshold     =      1.0E-09
     mixing beta               =       0.3000
     number of iterations used =            8  local-TF  mixing
     Exchange-correlation      = SLA  PW   PSX  PSC ( 1  4 10  8 0)
     A smooth kinetic-energy cutoff is imposed at      34.5000 Ry
     height of the smooth step-function =             800.0000 Ry
     width of the smooth step-function  =               1.0000 Ry


     celldm(1)=  14.799446  celldm(2)=   0.000000  celldm(3)=   0.000000
     celldm(4)=   0.000000  celldm(5)=   0.000000  celldm(6)=   0.000000

     crystal axes: (cart. coord. in units of alat)
               a(1) = (   0.000000000000   0.707106781187   0.707106781187 )  
               a(2) = (   0.707106781187   0.000000000000   0.707106781187 )  
               a(3) = (   2.828427124746   2.828427124746   0.000000000000 )  

     reciprocal axes: (cart. coord. in units 2 pi/alat)
               b(1) = ( -0.707107  0.707107  0.707107 )  
               b(2) = (  0.707107 -0.707107  0.707107 )  
               b(3) = (  0.176777  0.176777 -0.176777 )  


     PseudoPot. # 1 for Si read from file:
     /users/kfg/psuedo/gbrv_1.5/si.pbesol.UPF
     MD5 check sum: ef58ba74faed4df802eb8a9742fc00a8
     Pseudo is Ultrasoft + core correction, Zval =  4.0
     Generated by new atomic code, or converted to UPF format
     Using radial grid of  899 points,  6 beta functions with: 
                l(1) =   0
                l(2) =   0
                l(3) =   1
                l(4) =   1
                l(5) =   2
                l(6) =   2
     Q(r) pseudized with  8 coefficients,  rinner =    0.900   0.900   0.900
                                                       0.900   0.900

     PseudoPot. # 2 for Ge read from file:
     /users/kfg/psuedo/gbrv_1.5/ge.pbesol.UPF
     MD5 check sum: 7bed0412183f5e553a4d27ec7023354d
     Pseudo is Ultrasoft + core correction, Zval = 14.0
     Generated by new atomic code, or converted to UPF format
     Using radial grid of  873 points,  6 beta functions with: 
                l(1) =   0
                l(2) =   0
                l(3) =   1
                l(4) =   1
                l(5) =   2
                l(6) =   2
     Q(r) pseudized with  8 coefficients,  rinner =    1.400   1.400   1.400
                                                       1.400   1.400

     atomic species   valence    mass     pseudopotential
        Si             4.00    28.08550     Si( 1.00)
        Ge            14.00    72.64000     Ge( 1.00)

     No symmetry found


                                    s                        frac. trans.

      isym =  1     identity                                     

 cryst.   s( 1) = (     1          0          0      )
                  (     0          1          0      )
                  (     0          0          1      )

 cart.    s( 1) = (  1.0000000  0.0000000  0.0000000 )
                  (  0.0000000  1.0000000  0.0000000 )
                  (  0.0000000  0.0000000  1.0000000 )


     point group C_1 (1)    
     there are  1 classes
     the character table:

       E    
A      1.00

     the symmetry operations in each class:
     E        1

   Cartesian axes

     site n.     atom                  positions (alat units)
         1           Si  tau(   1) = (   -0.00007253067   -0.00022666445   -0.00030359047  )
         2           Ge  tau(   2) = (    0.17705268432    0.17700850564    0.17644858084  )
         3           Si  tau(   3) = (    0.35357576594    0.35372216418    0.00002667966  )
         4           Si  tau(   4) = (    0.53043116685    0.53061649535    0.17692831394  )
         5           Si  tau(   5) = (    0.70726243696    0.70713405027   -0.00030491658  )
         6           Si  tau(   6) = (    0.88379185489    0.88374011197    0.17706755720  )
         7           Si  tau(   7) = (    1.06080998108    1.06080562425    0.00011115429  )
         8           Si  tau(   8) = (    1.23719643524    1.23759166160    0.17709005951  )
         9           Si  tau(   9) = (    1.41405254494    1.41410354525   -0.00008101750  )
        10           Si  tau(  10) = (    1.59097193037    1.59104958306    0.17651182887  )
        11           Si  tau(  11) = (    1.76769005903    1.76785900220    0.00033455679  )
        12           Si  tau(  12) = (    1.94478013595    1.94474732122    0.17684425015  )
        13           Si  tau(  13) = (    2.12114653932    2.12123005212    0.00007299635  )
        14           Si  tau(  14) = (    2.29842299029    2.29836647144    0.17660731658  )
        15           Si  tau(  15) = (    2.47491065128    2.47463531381    0.00007335548  )
        16           Si  tau(  16) = (    2.65174807462    2.65180148812    0.17656003985  )
        17           Ge  tau(  17) = (    0.35386738518   -0.00014566958    0.35352316888  )
        18           Si  tau(  18) = (    0.53023373942    0.17670101084    0.53041207548  )
        19           Ge  tau(  19) = (    0.70724717587    0.35379514585    0.35336152143  )
        20           Ge  tau(  20) = (    0.88377339949    0.53056517370    0.53025102387  )
        21           Ge  tau(  21) = (    1.06062232155    0.70709097590    0.35344274519  )
        22           Si  tau(  22) = (    1.23733875248    0.88408441004    0.53038344675  )
        23           Ge  tau(  23) = (    1.41448966680    1.06067336019    0.35347635552  )
        24           Ge  tau(  24) = (    1.59093079160    1.23776752273    0.53004694131  )
        25           Si  tau(  25) = (    1.76775703997    1.41438190785    0.35322217820  )
        26           Si  tau(  26) = (    1.94477770000    1.59093981533    0.53053193089  )
        27           Si  tau(  27) = (    2.12143629960    1.76763964301    0.35357584992  )
        28           Ge  tau(  28) = (    2.29791796613    1.94430843055    0.53043421685  )
        29           Si  tau(  29) = (    2.47503535576    2.12110465546    0.35383201945  )
        30           Ge  tau(  30) = (    2.65190102463    2.29798270765    0.53033164808  )
        31           Ge  tau(  31) = (    2.82863409421    2.47490842715    0.35386825044  )
        32           Si  tau(  32) = (    3.00538544619    2.65151169217    0.53031598519  )
        33           Ge  tau(  33) = (   -0.00019146205    0.35337849735    0.35366315077  )
        34           Si  tau(  34) = (    0.17683432473    0.53063414234    0.53024569482  )
        35           Si  tau(  35) = (    0.35338047915    0.70706837788    0.35343629773  )
        36           Ge  tau(  36) = (    0.53007095196    0.88405430919    0.53061703655  )
        37           Si  tau(  37) = (    0.70717413286    1.06065900294    0.35330540975  )
        38           Ge  tau(  38) = (    0.88375135054    1.23728696265    0.53003964448  )
        39           Ge  tau(  39) = (    1.06088889557    1.41422315182    0.35333697880  )
        40           Si  tau(  40) = (    1.23741651784    1.59068177714    0.53024234046  )
        41           Ge  tau(  41) = (    1.41412269586    1.76745027465    0.35353877365  )
        42           Si  tau(  42) = (    1.59130568949    1.94423833125    0.53036416315  )
        43           Si  tau(  43) = (    1.76785204279    2.12163870768    0.35334254777  )
        44           Ge  tau(  44) = (    1.94428692385    2.29802910468    0.53056588464  )
        45           Ge  tau(  45) = (    2.12155217973    2.47461864277    0.35377802372  )
        46           Si  tau(  46) = (    2.29791763340    2.65145079826    0.53028263488  )
        47           Ge  tau(  47) = (    2.47516012897    2.82836651148    0.35345664361  )
        48           Si  tau(  48) = (    2.65152059902    3.00487920663    0.53066596159  )
        49           Si  tau(  49) = (    0.35325003742    0.35355995058    0.70698826126  )
        50           Si  tau(  50) = (    0.53050949441    0.53027164196    0.88397351825  )
        51           Si  tau(  51) = (    0.70723670425    0.70743974352    0.70726400663  )
        52           Ge  tau(  52) = (    0.88354819934    0.88388840764    0.88399902972  )
        53           Si  tau(  53) = (    1.06073337066    1.06070785021    0.70731606995  )
        54           Si  tau(  54) = (    1.23761910377    1.23715195217    0.88386791916  )
        55           Ge  tau(  55) = (    1.41446121339    1.41396951556    0.70741227094  )
        56           Si  tau(  56) = (    1.59075402350    1.59080120023    0.88403376969  )
        57           Si  tau(  57) = (    1.76762914955    1.76768943574    0.70739797541  )
        58           Si  tau(  58) = (    1.94425193643    1.94428687805    0.88373759511  )
        59           Si  tau(  59) = (    2.12101617140    2.12138411668    0.70721354163  )
        60           Ge  tau(  60) = (    2.29791366300    2.29813315665    0.88355640375  )
        61           Si  tau(  61) = (    2.47507956553    2.47474773249    0.70706900126  )
        62           Si  tau(  62) = (    2.65158084105    2.65151911462    0.88369016455  )
        63           Ge  tau(  63) = (    2.82810178802    2.82858765725    0.70701400015  )
        64           Ge  tau(  64) = (    3.00551046947    3.00550645466    0.88421946453  )

   Crystallographic axes

     site n.     atom                  positions (cryst. coord.)
         1           Si  tau(   1) = (   -0.00032365992   -0.00010568184    0.00000077699  )
         2           Ge  tau(   2) = (    0.12473674900    0.12479922709    0.03139777008  )
         3           Si  tau(   3) = (    0.00012238456   -0.00008465382    0.12502907433  )
         4           Si  tau(   4) = (    0.12523825761    0.12497616353    0.15629169663  )
         5           Si  tau(   5) = (   -0.00030639168   -0.00012482548    0.25008623900  )
         6           Si  tau(   6) = (    0.12516908266    0.12524225819    0.28115704233  )
         7           Si  tau(   7) = (    0.00007551721    0.00008167870    0.37503254591  )
         8           Si  tau(   8) = (    0.12550104920    0.12494211472    0.40617946583  )
         9           Si  tau(   9) = (   -0.00002122536   -0.00009335069    0.49996640941  )
        10           Si  tau(  10) = (    0.12486761989    0.12475780242    0.53130406972  )
        11           Si  tau(  11) = (    0.00035602824    0.00011710651    0.62494353726  )
        12           Si  tau(  12) = (    0.12502456498    0.12507097202    0.65631586802  )
        13           Si  tau(  13) = (    0.00011066868   -0.00000743626    0.74994040999  )
        14           Si  tau(  14) = (    0.12484026630    0.12492019602    0.78138519223  )
        15           Si  tau(  15) = (   -0.00014282284    0.00024656315    0.87495141139  )
        16           Si  tau(  16) = (    0.12488457051    0.12480903242    0.90633226468  )
        17           Ge  tau(  17) = (   -0.00034640163    0.50030366167    0.00003509843  )
        18           Si  tau(  18) = (    0.12507258565    0.62504336514    0.03120509509  )
        19           Ge  tau(  19) = (   -0.00006399924    0.49979265527    0.12510147320  )
        20           Ge  tau(  20) = (    0.12518816308    0.62470002633    0.15628607532  )
        21           Ge  tau(  21) = (   -0.00006264999    0.49990617376    0.25001007448  )
        22           Si  tau(  22) = (    0.12524919080    0.62482627285    0.28125874304  )
        23           Ge  tau(  23) = (   -0.00024038172    0.50013143767    0.37506475824  )
        24           Ge  tau(  24) = (    0.12507564427    0.62452392883    0.40634799336  )
        25           Si  tau(  25) = (   -0.00010815475    0.49963974969    0.50008655780  )
        26           Si  tau(  26) = (    0.12494155828    0.62534389366    0.53124677637  )
        27           Si  tau(  27) = (   -0.00015613390    0.50018789618    0.62499402261  )
        28           Ge  tau(  28) = (    0.12503393120    0.62511333222    0.65615835518  )
        29           Si  tau(  29) = (   -0.00006977789    0.50046381861    0.74994118722  )
        30           Ge  tau(  30) = (    0.12474306271    0.62525914656    0.78127381214  )
        31           Ge  tau(  31) = (    0.00010082167    0.50034445740    0.87498706041  )
        32           Si  tau(  32) = (    0.12476349814    0.62521656045    0.90626007443  )
        33           Ge  tau(  33) = (    0.50008932808    0.00006589625   -0.00008416612  )
        34           Si  tau(  34) = (    0.62511457672    0.12476607629    0.03132885601  )
        35           Si  tau(  35) = (    0.50001231446   -0.00017790877    0.12498334377  )
        36           Ge  tau(  36) = (    0.62550693708    0.12489887243    0.15618366421  )
        37           Si  tau(  37) = (    0.49977619974   -0.00012689762    0.25005553682  )
        38           Ge  tau(  38) = (    0.62478205562    0.12480719820    0.28125148688  )
        39           Ge  tau(  39) = (    0.49969202237    0.00000192514    0.37508038479  )
        40           Si  tau(  40) = (    0.62473421502    0.12514169421    0.40620738191  )
        41           Ge  tau(  41) = (    0.49982999120    0.00014933731    0.49993053951  )
        42           Si  tau(  42) = (    0.62458516056    0.12546303197    0.53124576400  )
        43           Si  tau(  43) = (    0.50001586145   -0.00031403823    0.62510859335  )
        44           Ge  tau(  44) = (    0.62530022975    0.12503324005    0.65615092420  )
        45           Ge  tau(  45) = (    0.49981452983    0.00050314938    0.74995617912  )
        46           Si  tau(  46) = (    0.62495214532    0.12498074882    0.78119138339  )
        47           Ge  tau(  47) = (    0.49968621778    0.00017696132    0.87505701553  )
        48           Si  tau(  48) = (    0.62509976762    0.12537523236    0.90611028992  )
        49           Si  tau(  49) = (    0.50013533545    0.49969705206   -0.00003151456  )
        50           Si  tau(  50) = (    0.62489548206    0.62523185623    0.03125546643  )
        51           Si  tau(  51) = (    0.50025474562    0.49996760473    0.12505403356  )
        52           Ge  tau(  52) = (    0.62532227207    0.62484114489    0.15617117541  )
        53           Si  tau(  53) = (    0.50012994382    0.50016603519    0.24998437092  )
        54           Si  tau(  54) = (    0.62465867325    0.62531932538    0.28123459906  )
        55           Ge  tau(  55) = (    0.49986833101    0.50056369675    0.37494663367  )
        56           Si  tau(  56) = (    0.62513963233    0.62507291436    0.40614825002  )
        57           Si  tau(  57) = (    0.50024853418    0.50016327664    0.49991045998  )
        58           Si  tau(  58) = (    0.62492155375    0.62487213883    0.53117882958  )
        59           Si  tau(  59) = (    0.50033566764    0.49981531443    0.62493863029  )
        60           Ge  tau(  60) = (    0.62492393010    0.62461351921    0.65628178704  )
        61           Si  tau(  61) = (    0.49973864416    0.50020792695    0.75002079065  )
        62           Si  tau(  62) = (    0.62481966064    0.62490695501    0.78124865804  )
        63           Ge  tau(  63) = (    0.50027795533    0.49959083246    0.87498726798  )
        64           Ge  tau(  64) = (    0.62523474053    0.62524041833    0.90629831236  )

     number of k points=    10  gaussian smearing, width (Ry)=  0.0150
                       cart. coord. in units 2pi/alat
        k(    1) = (   0.0000000   0.0000000   0.0000000), wk =   0.1250000
        k(    2) = (   0.1767767  -0.1767767   0.1767767), wk =   0.2500000
        k(    3) = (  -0.3535534   0.3535534  -0.3535534), wk =   0.1250000
        k(    4) = (  -0.5303301   0.5303301  -0.1767767), wk =   0.2500000
        k(    5) = (   0.1767767  -0.1767767  -0.1767767), wk =   0.2500000
        k(    6) = (   0.1767767   0.1767767   0.1767767), wk =   0.2500000
        k(    7) = (  -0.3535534   0.3535534   0.3535534), wk =   0.1250000
        k(    8) = (  -0.3535534  -0.3535534  -0.3535534), wk =   0.1250000
        k(    9) = (  -0.5303301   0.5303301   0.1767767), wk =   0.2500000
        k(   10) = (   0.5303301  -0.1767767   0.5303301), wk =   0.2500000

                       cryst. coord.
        k(    1) = (   0.0000000   0.0000000   0.0000000), wk =   0.1250000
        k(    2) = (   0.0000000   0.2500000   0.0000000), wk =   0.2500000
        k(    3) = (   0.0000000  -0.5000000   0.0000000), wk =   0.1250000
        k(    4) = (   0.2500000  -0.5000000   0.0000000), wk =   0.2500000
        k(    5) = (  -0.2500000   0.0000000   0.0000000), wk =   0.2500000
        k(    6) = (   0.2500000   0.2500000   1.0000000), wk =   0.2500000
        k(    7) = (   0.5000000   0.0000000   0.0000000), wk =   0.1250000
        k(    8) = (  -0.5000000  -0.5000000  -2.0000000), wk =   0.1250000
        k(    9) = (   0.5000000  -0.2500000   0.0000000), wk =   0.2500000
        k(   10) = (   0.2500000   0.7500000   1.0000000), wk =   0.2500000

     Dense  grid:   438235 G-vectors     FFT dimensions: (  72,  72, 270)

     Smooth grid:   256383 G-vectors     FFT dimensions: (  60,  60, 225)

     Largest allocated arrays     est. size (Mb)     dimensions
        Kohn-Sham Wavefunctions         8.98 Mb     (    2015,  292)
        NL pseudopotentials            35.42 Mb     (    2015, 1152)
        Each V/rho on FFT grid          1.34 Mb     (   88128)
        Each G-vector array             0.21 Mb     (   27391)
        G-vector shells                 0.04 Mb     (    5735)
     Largest temporary arrays     est. size (Mb)     dimensions
        Auxiliary wavefunctions        35.91 Mb     (    2015, 1168)
        Each subspace H/S matrix       20.82 Mb     (    1168, 1168)
        Each <psi_i|beta_j> matrix      5.13 Mb     (    1152,  292)
        Arrays for rho mixing          10.76 Mb     (   88128,    8)

     Initial potential from superposition of free atoms

     starting charge  485.95484, renormalised to  486.00000
     Starting wfc are  371 randomized atomic wfcs

     total cpu time spent up to now is      106.4 secs

     Self-consistent Calculation

     iteration #  1     ecut=    35.00 Ry     beta=0.30
     Davidson diagonalization with overlap
     ethr =  1.00E-02,  avg # of iterations =  3.0

     Threshold (ethr) on eigenvalues was too large:
     Diagonalizing with lowered threshold

     Davidson diagonalization with overlap
     ethr =  3.00E-04,  avg # of iterations =  6.1

     total cpu time spent up to now is      910.1 secs

     total energy              =   -5295.39829581 Ry
     Harris-Foulkes estimate   =   -5295.54833418 Ry
     estimated scf accuracy    <       1.45701869 Ry

     iteration #  2     ecut=    35.00 Ry     beta=0.30
     Davidson diagonalization with overlap
     ethr =  3.00E-04,  avg # of iterations =  1.0

     total cpu time spent up to now is     1218.5 secs

     total energy              =   -5295.11164165 Ry
     Harris-Foulkes estimate   =   -5295.40642457 Ry
     estimated scf accuracy    <       0.89992201 Ry

     iteration #  3     ecut=    35.00 Ry     beta=0.30
     Davidson diagonalization with overlap
     ethr =  1.85E-04,  avg # of iterations =  2.0

     total cpu time spent up to now is     1552.3 secs

     total energy              =   -5295.16649583 Ry
     Harris-Foulkes estimate   =   -5295.16518196 Ry
     estimated scf accuracy    <       0.01178683 Ry

     iteration #  4     ecut=    35.00 Ry     beta=0.30
     Davidson diagonalization with overlap
     ethr =  2.43E-06,  avg # of iterations = 12.1

     total cpu time spent up to now is     2636.3 secs

     total energy              =   -5295.17005619 Ry
     Harris-Foulkes estimate   =   -5295.17038309 Ry
     estimated scf accuracy    <       0.00550666 Ry

     iteration #  5     ecut=    35.00 Ry     beta=0.30
     Davidson diagonalization with overlap
     ethr =  1.13E-06,  avg # of iterations =  2.0

     total cpu time spent up to now is     2979.3 secs

     total energy              =   -5295.17036777 Ry
     Harris-Foulkes estimate   =   -5295.17042829 Ry
     estimated scf accuracy    <       0.00057448 Ry

     iteration #  6     ecut=    35.00 Ry     beta=0.30
     Davidson diagonalization with overlap
     ethr =  1.18E-07,  avg # of iterations =  2.0

     total cpu time spent up to now is     3318.4 secs

     total energy              =   -5295.17033059 Ry
     Harris-Foulkes estimate   =   -5295.17039682 Ry
     estimated scf accuracy    <       0.00027818 Ry

     iteration #  7     ecut=    35.00 Ry     beta=0.30
     Davidson diagonalization with overlap
     ethr =  5.72E-08,  avg # of iterations =  2.0

     total cpu time spent up to now is     3832.9 secs

     total energy              =   -5295.17036559 Ry
     Harris-Foulkes estimate   =   -5295.17036177 Ry
     estimated scf accuracy    <       0.00010682 Ry

     iteration #  8     ecut=    35.00 Ry     beta=0.30
     Davidson diagonalization with overlap
     ethr =  2.20E-08,  avg # of iterations =  1.0

     total cpu time spent up to now is     4235.2 secs

     total energy              =   -5295.17035564 Ry
     Harris-Foulkes estimate   =   -5295.17036882 Ry
     estimated scf accuracy    <       0.00008973 Ry

     iteration #  9     ecut=    35.00 Ry     beta=0.30
     Davidson diagonalization with overlap
     ethr =  1.85E-08,  avg # of iterations =  2.1

     total cpu time spent up to now is     4700.5 secs

     total energy              =   -5295.17035706 Ry
     Harris-Foulkes estimate   =   -5295.17036480 Ry
     estimated scf accuracy    <       0.00003416 Ry

     iteration # 10     ecut=    35.00 Ry     beta=0.30
     Davidson diagonalization with overlap
     ethr =  7.03E-09,  avg # of iterations =  2.0

     total cpu time spent up to now is     5003.3 secs

     total energy              =   -5295.17035470 Ry
     Harris-Foulkes estimate   =   -5295.17035894 Ry
     estimated scf accuracy    <       0.00001431 Ry

     iteration # 11     ecut=    35.00 Ry     beta=0.30
     Davidson diagonalization with overlap
     ethr =  2.94E-09,  avg # of iterations =  2.4

     total cpu time spent up to now is     5392.6 secs

     total energy              =   -5295.17035658 Ry
     Harris-Foulkes estimate   =   -5295.17035683 Ry
     estimated scf accuracy    <       0.00000183 Ry

     iteration # 12     ecut=    35.00 Ry     beta=0.30
     Davidson diagonalization with overlap
     ethr =  3.76E-10,  avg # of iterations =  2.0

     total cpu time spent up to now is     5717.7 secs

     total energy              =   -5295.17035639 Ry
     Harris-Foulkes estimate   =   -5295.17035669 Ry
     estimated scf accuracy    <       0.00000087 Ry

     iteration # 13     ecut=    35.00 Ry     beta=0.30
     Davidson diagonalization with overlap
     ethr =  1.79E-10,  avg # of iterations =  2.1

     total cpu time spent up to now is     6099.1 secs

     total energy              =   -5295.17035653 Ry
     Harris-Foulkes estimate   =   -5295.17035652 Ry
     estimated scf accuracy    <       0.00000012 Ry

     iteration # 14     ecut=    35.00 Ry     beta=0.30
     Davidson diagonalization with overlap
     ethr =  2.46E-11,  avg # of iterations =  2.1

     total cpu time spent up to now is     6429.7 secs

     total energy              =   -5295.17035653 Ry
     Harris-Foulkes estimate   =   -5295.17035654 Ry
     estimated scf accuracy    <       0.00000007 Ry

     iteration # 15     ecut=    35.00 Ry     beta=0.30
     Davidson diagonalization with overlap
     ethr =  1.50E-11,  avg # of iterations =  2.4

     total cpu time spent up to now is     6697.4 secs

     total energy              =   -5295.17035654 Ry
     Harris-Foulkes estimate   =   -5295.17035653 Ry
     estimated scf accuracy    <       0.00000001 Ry

     iteration # 16     ecut=    35.00 Ry     beta=0.30
     Davidson diagonalization with overlap
     ethr =  2.11E-12,  avg # of iterations =  2.8

     total cpu time spent up to now is     7000.8 secs

     total energy              =   -5295.17035654 Ry
     Harris-Foulkes estimate   =   -5295.17035654 Ry
     estimated scf accuracy    <          5.0E-09 Ry

     iteration # 17     ecut=    35.00 Ry     beta=0.30
     Davidson diagonalization with overlap
     ethr =  1.03E-12,  avg # of iterations =  2.2

     total cpu time spent up to now is     7492.0 secs

     End of self-consistent calculation

          k = 0.0000 0.0000 0.0000 ( 32017 PWs)   bands (ev):

   -17.7282 -17.7105 -17.7093 -17.6879 -17.6824 -17.6677 -17.6658 -17.6563
   -17.6558 -17.6488 -17.6475 -17.6459 -17.6421 -17.6135 -17.6021 -17.5845
   -17.5745 -17.5709 -17.5700 -17.5690 -17.5686 -17.5662 -17.5654 -17.5650
   -17.5644 -17.5610 -17.5580 -17.5573 -17.5475 -17.5470 -17.5458 -17.5296
   -17.5188 -17.5128 -17.5125 -17.5096 -17.5076 -17.5025 -17.5023 -17.5007
   -17.5001 -17.4994 -17.4975 -17.4954 -17.4942 -17.4941 -17.4929 -17.4922
   -17.4914 -17.4911 -17.4903 -17.4893 -17.4874 -17.4870 -17.4862 -17.4842
   -17.4834 -17.4817 -17.4807 -17.4803 -17.4800 -17.4753 -17.4732 -17.4705
   -17.4676 -17.4668 -17.4644 -17.4634 -17.4632 -17.4630 -17.4627 -17.4626
   -17.4619 -17.4617 -17.4612 -17.4600 -17.4584 -17.4571 -17.4570 -17.4558
   -17.4553 -17.4536 -17.4529 -17.4499 -17.4481 -17.4460 -17.4457 -17.4454
   -17.4448 -17.4419 -17.4381 -17.4381 -17.4379 -17.4378 -17.4376 -17.4375
   -17.4369 -17.4365 -17.4349 -17.4347 -17.4344 -17.4325 -17.4321 -17.4166
   -17.4090 -17.4060 -17.4035 -17.3997 -17.3885 -17.3792 -17.3776 -17.3739
   -17.3683 -17.3681 -17.3658  -5.4313  -5.2610  -5.1597  -4.7570  -4.5255
    -3.9116  -3.7602  -3.5212  -3.4670  -3.3831  -3.2595  -3.1198  -3.0842
    -3.0504  -3.0341  -2.9980  -2.8858  -2.8127  -2.7478  -2.6888  -2.6125
    -2.5786  -2.4871  -2.4482  -2.2154  -2.1200  -2.0710  -2.0398  -1.8820
    -1.5726  -1.4066  -1.3375  -1.3124  -1.0904  -1.0707  -0.6594  -0.4923
    -0.4602  -0.4246  -0.3539  -0.3020  -0.2699  -0.2483  -0.1965  -0.1838
    -0.1379  -0.1013  -0.0834  -0.0194   0.0020   0.0435   0.0445   0.1358
     0.1896   0.2418   0.2955   0.3594   0.6855   0.7526   2.6286   2.7413
     3.2170   3.2330   3.2449   3.2537   3.2652   3.2858   3.3673   3.3757
     3.3804   3.3814   3.3842   3.3862   3.9221   3.9250   3.9285   3.9297
     3.9323   3.9362   4.0845   4.0894   4.0939   4.1056   4.1118   4.1204
     4.4002   4.4133   4.4295   4.4373   4.4502   4.4744   4.5686   4.5730
     4.5791   4.5840   4.5885   4.6054   5.0228   5.0674   5.1976   5.2064
     5.2103   5.2276   5.2401   5.2568   5.5375   5.5504   5.5676   5.5780
     5.5831   5.5932   5.6141   5.6187   5.6850   5.6886   5.7196   5.7204
     6.0242   6.0247   6.0750   6.0798   6.5294   6.5308   6.5639   6.5692
     6.8507   6.8557   6.8569   7.3933   7.4345   7.4584   7.4871   7.5171
     7.5707   7.5843   7.5957   7.6292   7.6647   7.6929   7.7203   7.7525
     7.7780   7.8260   7.9206   7.9587   8.0105   8.1633   8.1973   8.2457
     8.2841   8.3127   8.3147   8.3548   8.4168   8.5497   8.6074   8.6139
     8.6693   8.6857   8.7296   8.7550   8.7663   8.8160   8.8266   8.8585
     8.8631   8.9159   8.9350   8.9539   9.3534   9.3556   9.3635   9.7584
     9.7651   9.8043   9.8121  10.1422

     occupation numbers 
     1.0000   1.0000   1.0000   1.0000   1.0000   1.0000   1.0000   1.0000
     1.0000   1.0000   1.0000   1.0000   1.0000   1.0000   1.0000   1.0000
     1.0000   1.0000   1.0000   1.0000   1.0000   1.0000   1.0000   1.0000
     1.0000   1.0000   1.0000   1.0000   1.0000   1.0000   1.0000   1.0000
     1.0000   1.0000   1.0000   1.0000   1.0000   1.0000   1.0000   1.0000
     1.0000   1.0000   1.0000   1.0000   1.0000   1.0000   1.0000   1.0000
     1.0000   1.0000   1.0000   1.0000   1.0000   1.0000   1.0000   1.0000
     1.0000   1.0000   1.0000   1.0000   1.0000   1.0000   1.0000   1.0000
     1.0000   1.0000   1.0000   1.0000   1.0000   1.0000   1.0000   1.0000
     1.0000   1.0000   1.0000   1.0000   1.0000   1.0000   1.0000   1.0000
     1.0000   1.0000   1.0000   1.0000   1.0000   1.0000   1.0000   1.0000
     1.0000   1.0000   1.0000   1.0000   1.0000   1.0000   1.0000   1.0000
     1.0000   1.0000   1.0000   1.0000   1.0000   1.0000   1.0000   1.0000
     1.0000   1.0000   1.0000   1.0000   1.0000   1.0000   1.0000   1.0000
     1.0000   1.0000   1.0000   1.0000   1.0000   1.0000   1.0000   1.0000
     1.0000   1.0000   1.0000   1.0000   1.0000   1.0000   1.0000   1.0000
     1.0000   1.0000   1.0000   1.0000   1.0000   1.0000   1.0000   1.0000
     1.0000   1.0000   1.0000   1.0000   1.0000   1.0000   1.0000   1.0000
     1.0000   1.0000   1.0000   1.0000   1.0000   1.0000   1.0000   1.0000
     1.0000   1.0000   1.0000   1.0000   1.0000   1.0000   1.0000   1.0000
     1.0000   1.0000   1.0000   1.0000   1.0000   1.0000   1.0000   1.0000
     1.0000   1.0000   1.0000   1.0000   1.0000   1.0000   1.0000   1.0000
     1.0000   1.0000   1.0000   1.0000   1.0000   1.0000   1.0000   1.0000
     1.0000   1.0000   1.0000   1.0000   1.0000   1.0000   1.0000   1.0000
     1.0000   1.0000   1.0000   1.0000   1.0000   1.0000   1.0000   1.0000
     1.0000   1.0000   1.0000   1.0000   1.0000   1.0000   1.0000   1.0000
     1.0000   1.0000   1.0000   1.0000   1.0000   1.0000   1.0000   1.0000
     1.0000   1.0000   1.0000   1.0000   1.0000   1.0000   1.0000   1.0000
     1.0000   1.0000   1.0000   1.0000   1.0000   1.0000   1.0000   1.0000
     1.0000   1.0000   1.0000   1.0000   0.9999   0.9999   0.9998   0.9998
     0.9469   0.9430   0.9420   0.0160   0.0075   0.0047   0.0026   0.0013
     0.0004   0.0003   0.0002   0.0001   0.0000   0.0000   0.0000   0.0000
     0.0000   0.0000   0.0000   0.0000   0.0000   0.0000   0.0000   0.0000
     0.0000   0.0000   0.0000   0.0000   0.0000   0.0000   0.0000   0.0000
     0.0000   0.0000   0.0000   0.0000   0.0000   0.0000   0.0000   0.0000
     0.0000   0.0000   0.0000   0.0000   0.0000   0.0000   0.0000   0.0000
     0.0000   0.0000   0.0000   0.0000

          k = 0.1768-0.1768 0.1768 ( 32087 PWs)   bands (ev):

   -17.7284 -17.7108 -17.7093 -17.6879 -17.6828 -17.6676 -17.6658 -17.6562
   -17.6558 -17.6485 -17.6474 -17.6459 -17.6418 -17.6131 -17.6017 -17.5845
   -17.5744 -17.5708 -17.5700 -17.5690 -17.5685 -17.5662 -17.5654 -17.5644
   -17.5639 -17.5609 -17.5579 -17.5573 -17.5475 -17.5469 -17.5456 -17.5296
   -17.5197 -17.5127 -17.5125 -17.5095 -17.5068 -17.5024 -17.5022 -17.5003
   -17.4999 -17.4994 -17.4973 -17.4966 -17.4952 -17.4937 -17.4932 -17.4922
   -17.4918 -17.4911 -17.4901 -17.4889 -17.4870 -17.4864 -17.4861 -17.4841
   -17.4834 -17.4813 -17.4802 -17.4800 -17.4799 -17.4753 -17.4733 -17.4709
   -17.4671 -17.4662 -17.4644 -17.4632 -17.4631 -17.4629 -17.4628 -17.4626
   -17.4621 -17.4617 -17.4611 -17.4601 -17.4585 -17.4571 -17.4568 -17.4560
   -17.4553 -17.4535 -17.4525 -17.4492 -17.4480 -17.4460 -17.4457 -17.4454
   -17.4433 -17.4418 -17.4381 -17.4380 -17.4379 -17.4378 -17.4376 -17.4372
   -17.4367 -17.4363 -17.4350 -17.4349 -17.4345 -17.4326 -17.4323 -17.4166
   -17.4085 -17.4059 -17.4030 -17.3996 -17.3884 -17.3798 -17.3775 -17.3740
   -17.3682 -17.3680 -17.3663  -5.2513  -5.1449  -4.8986  -4.7195  -4.2363
    -4.0381  -3.8913  -3.8425  -3.7069  -3.5329  -3.4947  -3.3903  -3.2570
    -3.2231  -3.1485  -3.1095  -3.0482  -3.0079  -2.9203  -2.8296  -2.7797
    -2.5550  -2.5259  -2.4785  -2.2185  -2.1928  -2.0956  -1.9518  -1.8949
    -1.7230  -1.3767  -1.3539  -1.1456  -1.0821  -0.7253  -0.5723  -0.5050
    -0.3669  -0.3014  -0.2686  -0.2373  -0.1898  -0.1360  -0.0701  -0.0370
    -0.0068   0.1556   0.2436   0.2962   0.3686   0.5170   0.5507   0.7006
     0.7310   0.7704   0.8019   1.2881   1.3581   1.5621   1.9720   2.5492
     2.7686   2.7724   2.8055   3.2835   3.2994   3.3456   3.3745   3.3777
     3.3804   3.3947   3.3954   3.4044   3.4051   3.4417   3.4440   3.4531
     3.4560   3.8539   3.8544   3.8794   4.0529   4.0546   4.0978   4.1007
     4.1031   4.1188   4.1800   4.1804   4.2461   4.2568   4.2745   4.2943
     4.3604   4.4166   4.4352   4.4419   4.4672   4.5857   4.6420   4.6435
     4.8561   4.8663   4.8739   4.9007   4.9051   5.0470   5.1700   5.1917
     5.2071   5.2135   5.2251   5.2297   5.2372   5.4883   5.5025   5.5055
     5.5181   5.5284   5.5435   5.7017   5.7049   6.0194   6.0255   6.0310
     6.5208   6.5494   6.5581   7.3719   7.6429   7.6764   7.6964   7.8911
     7.9680   8.0914   8.3226   8.5104   8.5776   8.6056   8.6350   8.6399
     8.6634   8.7075   8.7127   8.7295   8.7415   8.7555   8.7610   8.7744
     8.7900   8.8095   8.8241   8.8566   8.8721   8.9058   8.9214   8.9389
     8.9568   9.1263   9.1496   9.1681   9.3483   9.4232   9.4530   9.5631
     9.5709   9.6181   9.6533   9.6928   9.7845   9.7933   9.9247   9.9892
    10.0023  10.0771  10.0904  10.2095

     occupation numbers 
     1.0000   1.0000   1.0000   1.0000   1.0000   1.0000   1.0000   1.0000
     1.0000   1.0000   1.0000   1.0000   1.0000   1.0000   1.0000   1.0000
     1.0000   1.0000   1.0000   1.0000   1.0000   1.0000   1.0000   1.0000
     1.0000   1.0000   1.0000   1.0000   1.0000   1.0000   1.0000   1.0000
     1.0000   1.0000   1.0000   1.0000   1.0000   1.0000   1.0000   1.0000
     1.0000   1.0000   1.0000   1.0000   1.0000   1.0000   1.0000   1.0000
     1.0000   1.0000   1.0000   1.0000   1.0000   1.0000   1.0000   1.0000
     1.0000   1.0000   1.0000   1.0000   1.0000   1.0000   1.0000   1.0000
     1.0000   1.0000   1.0000   1.0000   1.0000   1.0000   1.0000   1.0000
     1.0000   1.0000   1.0000   1.0000   1.0000   1.0000   1.0000   1.0000
     1.0000   1.0000   1.0000   1.0000   1.0000   1.0000   1.0000   1.0000
     1.0000   1.0000   1.0000   1.0000   1.0000   1.0000   1.0000   1.0000
     1.0000   1.0000   1.0000   1.0000   1.0000   1.0000   1.0000   1.0000
     1.0000   1.0000   1.0000   1.0000   1.0000   1.0000   1.0000   1.0000
     1.0000   1.0000   1.0000   1.0000   1.0000   1.0000   1.0000   1.0000
     1.0000   1.0000   1.0000   1.0000   1.0000   1.0000   1.0000   1.0000
     1.0000   1.0000   1.0000   1.0000   1.0000   1.0000   1.0000   1.0000
     1.0000   1.0000   1.0000   1.0000   1.0000   1.0000   1.0000   1.0000
     1.0000   1.0000   1.0000   1.0000   1.0000   1.0000   1.0000   1.0000
     1.0000   1.0000   1.0000   1.0000   1.0000   1.0000   1.0000   1.0000
     1.0000   1.0000   1.0000   1.0000   1.0000   1.0000   1.0000   1.0000
     1.0000   1.0000   1.0000   1.0000   1.0000   1.0000   1.0000   1.0000
     1.0000   1.0000   1.0000   1.0000   1.0000   1.0000   1.0000   1.0000
     1.0000   1.0000   1.0000   1.0000   1.0000   1.0000   1.0000   1.0000
     1.0000   1.0000   1.0000   1.0000   1.0000   1.0000   1.0000   1.0000
     1.0000   1.0000   1.0000   1.0000   1.0000   1.0000   1.0000   1.0000
     1.0000   1.0000   1.0000   1.0000   1.0000   1.0000   1.0000   1.0000
     1.0000   1.0000   1.0000   1.0000   1.0000   1.0000   1.0000   1.0000
     1.0000   1.0000   1.0000   1.0000   1.0000   1.0000   1.0000   1.0000
     1.0000   1.0000   1.0000   1.0000   1.0000   1.0000   1.0000   1.0000
     1.0000   0.9999   0.9999   0.0229   0.0001   0.0000   0.0000   0.0000
     0.0000   0.0000   0.0000   0.0000   0.0000   0.0000   0.0000   0.0000
     0.0000   0.0000   0.0000   0.0000   0.0000   0.0000   0.0000   0.0000
     0.0000   0.0000   0.0000   0.0000   0.0000   0.0000   0.0000   0.0000
     0.0000   0.0000   0.0000   0.0000   0.0000   0.0000   0.0000   0.0000
     0.0000   0.0000   0.0000   0.0000   0.0000   0.0000   0.0000   0.0000
     0.0000   0.0000   0.0000   0.0000

          k =-0.3536 0.3536-0.3536 ( 32056 PWs)   bands (ev):

   -17.7285 -17.7111 -17.7092 -17.6877 -17.6831 -17.6674 -17.6658 -17.6561
   -17.6557 -17.6482 -17.6474 -17.6458 -17.6415 -17.6126 -17.6011 -17.5844
   -17.5743 -17.5706 -17.5699 -17.5689 -17.5685 -17.5662 -17.5654 -17.5643
   -17.5627 -17.5608 -17.5579 -17.5572 -17.5475 -17.5468 -17.5453 -17.5296
   -17.5206 -17.5125 -17.5124 -17.5093 -17.5061 -17.5023 -17.5020 -17.5001
   -17.4998 -17.4991 -17.4985 -17.4970 -17.4953 -17.4951 -17.4932 -17.4920
   -17.4910 -17.4906 -17.4897 -17.4886 -17.4867 -17.4866 -17.4855 -17.4850
   -17.4830 -17.4809 -17.4804 -17.4796 -17.4791 -17.4754 -17.4733 -17.4711
   -17.4667 -17.4653 -17.4644 -17.4631 -17.4630 -17.4628 -17.4628 -17.4626
   -17.4624 -17.4617 -17.4611 -17.4602 -17.4585 -17.4570 -17.4566 -17.4561
   -17.4552 -17.4534 -17.4520 -17.4483 -17.4480 -17.4460 -17.4457 -17.4455
   -17.4420 -17.4417 -17.4380 -17.4380 -17.4379 -17.4377 -17.4375 -17.4369
   -17.4365 -17.4362 -17.4352 -17.4349 -17.4347 -17.4325 -17.4324 -17.4166
   -17.4080 -17.4058 -17.4025 -17.3994 -17.3883 -17.3803 -17.3773 -17.3741
   -17.3679 -17.3678 -17.3667  -4.8209  -4.7891  -4.6343  -4.5872  -4.4557
    -4.3160  -4.2549  -4.1732  -3.7253  -3.6980  -3.6095  -3.5531  -3.4276
    -3.3155  -3.2570  -3.2001  -3.1676  -3.1249  -2.9249  -2.8134  -2.7347
    -2.6923  -2.5871  -2.5731  -2.4981  -2.4249  -2.1175  -2.0527  -1.8975
    -1.8322  -1.3160  -1.2928  -1.0684  -1.0122  -0.5650  -0.5138  -0.3849
    -0.3160  -0.1421  -0.1009   0.0779   0.1110   0.1557   0.1586   0.2580
     0.2725   0.6741   0.6887   0.7215   0.7691   0.9402   1.0299   1.0960
     1.2118   1.5366   1.5689   1.9485   1.9984   2.6345   2.7174   2.7631
     2.7657   2.7734   2.7757   2.7994   2.8065   2.8698   2.9789   2.9822
     2.9981   2.9988   3.0258   3.0544   3.0603   3.0681   3.0701   3.2269
     3.2427   3.2509   3.2572   3.2647   3.2752   3.3222   3.3661   3.4326
     3.4470   3.4695   3.4750   3.8412   3.8437   3.8658   3.8668   4.1167
     4.1224   4.4487   4.4557   4.5691   4.5697   4.5760   4.5795   4.5864
     4.5902   4.5949   4.6003   4.8599   4.8621   4.8695   4.8728   4.8937
     4.8968   4.9019   4.9108   4.9276   4.9421   5.4450   5.4579   5.4675
     5.4790   5.4876   5.4980   5.5068   5.5150   6.0084   6.0263   6.0307
     6.0460   6.0715   6.0736   7.8042   7.9023   8.0733   8.1043   8.1969
     8.2176   8.2439   8.2652   8.2810   8.3252   8.3352   8.3511   8.5529
     8.5663   8.8585   8.8740   8.9782   9.0450   9.0549   9.0940   9.1008
     9.1314   9.1570   9.1823   9.1854   9.1947   9.5027   9.5258   9.6127
     9.6223   9.6620   9.6655   9.8295   9.8386  10.0656  10.0715  10.2280
    10.2563  10.2834  10.3064  10.3093  10.3175  10.3757  10.4107  10.5015
    10.5181  10.6766  10.7073  11.0311

     occupation numbers 
     1.0000   1.0000   1.0000   1.0000   1.0000   1.0000   1.0000   1.0000
     1.0000   1.0000   1.0000   1.0000   1.0000   1.0000   1.0000   1.0000
     1.0000   1.0000   1.0000   1.0000   1.0000   1.0000   1.0000   1.0000
     1.0000   1.0000   1.0000   1.0000   1.0000   1.0000   1.0000   1.0000
     1.0000   1.0000   1.0000   1.0000   1.0000   1.0000   1.0000   1.0000
     1.0000   1.0000   1.0000   1.0000   1.0000   1.0000   1.0000   1.0000
     1.0000   1.0000   1.0000   1.0000   1.0000   1.0000   1.0000   1.0000
     1.0000   1.0000   1.0000   1.0000   1.0000   1.0000   1.0000   1.0000
     1.0000   1.0000   1.0000   1.0000   1.0000   1.0000   1.0000   1.0000
     1.0000   1.0000   1.0000   1.0000   1.0000   1.0000   1.0000   1.0000
     1.0000   1.0000   1.0000   1.0000   1.0000   1.0000   1.0000   1.0000
     1.0000   1.0000   1.0000   1.0000   1.0000   1.0000   1.0000   1.0000
     1.0000   1.0000   1.0000   1.0000   1.0000   1.0000   1.0000   1.0000
     1.0000   1.0000   1.0000   1.0000   1.0000   1.0000   1.0000   1.0000
     1.0000   1.0000   1.0000   1.0000   1.0000   1.0000   1.0000   1.0000
     1.0000   1.0000   1.0000   1.0000   1.0000   1.0000   1.0000   1.0000
     1.0000   1.0000   1.0000   1.0000   1.0000   1.0000   1.0000   1.0000
     1.0000   1.0000   1.0000   1.0000   1.0000   1.0000   1.0000   1.0000
     1.0000   1.0000   1.0000   1.0000   1.0000   1.0000   1.0000   1.0000
     1.0000   1.0000   1.0000   1.0000   1.0000   1.0000   1.0000   1.0000
     1.0000   1.0000   1.0000   1.0000   1.0000   1.0000   1.0000   1.0000
     1.0000   1.0000   1.0000   1.0000   1.0000   1.0000   1.0000   1.0000
     1.0000   1.0000   1.0000   1.0000   1.0000   1.0000   1.0000   1.0000
     1.0000   1.0000   1.0000   1.0000   1.0000   1.0000   1.0000   1.0000
     1.0000   1.0000   1.0000   1.0000   1.0000   1.0000   1.0000   1.0000
     1.0000   1.0000   1.0000   1.0000   1.0000   1.0000   1.0000   1.0000
     1.0000   1.0000   1.0000   1.0000   1.0000   1.0000   1.0000   1.0000
     1.0000   1.0000   1.0000   1.0000   1.0000   1.0000   1.0000   1.0000
     1.0000   1.0000   1.0000   1.0000   1.0000   1.0000   1.0000   1.0000
     1.0000   1.0000   1.0000   1.0000   1.0000   1.0000   1.0000   1.0000
     1.0000   1.0000   1.0000   0.0000   0.0000   0.0000   0.0000   0.0000
     0.0000   0.0000   0.0000   0.0000   0.0000   0.0000   0.0000   0.0000
     0.0000   0.0000   0.0000   0.0000   0.0000   0.0000   0.0000   0.0000
     0.0000   0.0000   0.0000   0.0000   0.0000   0.0000   0.0000   0.0000
     0.0000   0.0000   0.0000   0.0000   0.0000   0.0000   0.0000   0.0000
     0.0000   0.0000   0.0000   0.0000   0.0000   0.0000   0.0000   0.0000
     0.0000   0.0000   0.0000   0.0000

          k =-0.5303 0.5303-0.1768 ( 32066 PWs)   bands (ev):

   -17.7285 -17.7112 -17.7096 -17.6883 -17.6828 -17.6674 -17.6657 -17.6561
   -17.6556 -17.6482 -17.6472 -17.6458 -17.6418 -17.6127 -17.6011 -17.5840
   -17.5739 -17.5707 -17.5700 -17.5685 -17.5678 -17.5661 -17.5653 -17.5643
   -17.5638 -17.5609 -17.5579 -17.5572 -17.5474 -17.5469 -17.5453 -17.5302
   -17.5204 -17.5126 -17.5125 -17.5102 -17.5063 -17.5024 -17.5020 -17.5000
   -17.5000 -17.4994 -17.4984 -17.4980 -17.4971 -17.4937 -17.4933 -17.4920
   -17.4909 -17.4905 -17.4900 -17.4886 -17.4863 -17.4859 -17.4854 -17.4847
   -17.4829 -17.4816 -17.4802 -17.4798 -17.4793 -17.4756 -17.4734 -17.4710
   -17.4667 -17.4658 -17.4633 -17.4632 -17.4630 -17.4628 -17.4627 -17.4625
   -17.4619 -17.4616 -17.4611 -17.4600 -17.4585 -17.4573 -17.4563 -17.4563
   -17.4557 -17.4534 -17.4523 -17.4483 -17.4467 -17.4461 -17.4457 -17.4454
   -17.4434 -17.4418 -17.4382 -17.4380 -17.4378 -17.4378 -17.4376 -17.4369
   -17.4364 -17.4361 -17.4350 -17.4349 -17.4347 -17.4327 -17.4326 -17.4162
   -17.4080 -17.4054 -17.4030 -17.3994 -17.3883 -17.3803 -17.3774 -17.3742
   -17.3686 -17.3682 -17.3662  -4.9357  -4.7827  -4.6703  -4.3910  -4.3176
    -4.2464  -4.1845  -4.0340  -3.9790  -3.8963  -3.7908  -3.7024  -3.6104
    -3.4288  -3.2527  -3.1940  -3.0961  -2.8829  -2.8440  -2.7058  -2.6248
    -2.5340  -2.5160  -2.4461  -2.3745  -2.2761  -2.1699  -2.1163  -2.0105
    -1.8940  -1.7934  -1.6341  -0.7812  -0.6129  -0.5259  -0.4010  -0.3203
    -0.2617  -0.2289  -0.1640  -0.1358  -0.0989   0.0274   0.0475   0.1128
     0.4896   0.5584   0.5790   0.6949   0.7647   0.8447   1.3005   1.3497
     1.5449   1.5688   1.9349   1.9804   2.1028   2.1582   2.3000   2.3555
     2.5478   2.5957   2.6055   2.6163   2.6239   2.7517   2.7659   2.7736
     2.7884   2.8030   2.8142   3.2853   3.3027   3.3353   3.3423   3.4335
     3.4424   3.4467   3.4503   3.4592   3.4779   3.8494   3.8507   3.8559
     3.8594   3.8784   4.0498   4.0536   4.0699   4.0775   4.1013   4.1068
     4.1167   4.1301   4.2204   4.2216   4.2271   4.2289   4.3600   4.4448
     4.4597   4.5850   4.5873   4.6400   4.6451   4.8467   4.8605   4.8653
     4.8784   4.8840   4.8944   4.9032   4.9072   5.1811   5.2026   5.2184
     5.3356   5.3479   5.3708   5.3831   5.4835   5.4962   5.5003   5.5267
     6.0183   6.0360   6.5291   7.9626   8.0820   8.1051   8.5195   8.5764
     8.6725   8.6971   8.7992   8.8262   8.8393   8.9022   9.0079   9.0688
     9.0888   9.1261   9.1388   9.1535   9.1816   9.2084   9.2288   9.2692
     9.3239   9.4126   9.4634   9.4936   9.5091   9.5518   9.5677   9.5877
     9.6056   9.6089   9.6427   9.6574   9.6807   9.6937   9.7229   9.9374
     9.9831   9.9918  10.0540  10.0848  10.1050  10.1641  10.2068  10.2283
    10.2524  10.2767  10.3022  10.3237

     occupation numbers 
     1.0000   1.0000   1.0000   1.0000   1.0000   1.0000   1.0000   1.0000
     1.0000   1.0000   1.0000   1.0000   1.0000   1.0000   1.0000   1.0000
     1.0000   1.0000   1.0000   1.0000   1.0000   1.0000   1.0000   1.0000
     1.0000   1.0000   1.0000   1.0000   1.0000   1.0000   1.0000   1.0000
     1.0000   1.0000   1.0000   1.0000   1.0000   1.0000   1.0000   1.0000
     1.0000   1.0000   1.0000   1.0000   1.0000   1.0000   1.0000   1.0000
     1.0000   1.0000   1.0000   1.0000   1.0000   1.0000   1.0000   1.0000
     1.0000   1.0000   1.0000   1.0000   1.0000   1.0000   1.0000   1.0000
     1.0000   1.0000   1.0000   1.0000   1.0000   1.0000   1.0000   1.0000
     1.0000   1.0000   1.0000   1.0000   1.0000   1.0000   1.0000   1.0000
     1.0000   1.0000   1.0000   1.0000   1.0000   1.0000   1.0000   1.0000
     1.0000   1.0000   1.0000   1.0000   1.0000   1.0000   1.0000   1.0000
     1.0000   1.0000   1.0000   1.0000   1.0000   1.0000   1.0000   1.0000
     1.0000   1.0000   1.0000   1.0000   1.0000   1.0000   1.0000   1.0000
     1.0000   1.0000   1.0000   1.0000   1.0000   1.0000   1.0000   1.0000
     1.0000   1.0000   1.0000   1.0000   1.0000   1.0000   1.0000   1.0000
     1.0000   1.0000   1.0000   1.0000   1.0000   1.0000   1.0000   1.0000
     1.0000   1.0000   1.0000   1.0000   1.0000   1.0000   1.0000   1.0000
     1.0000   1.0000   1.0000   1.0000   1.0000   1.0000   1.0000   1.0000
     1.0000   1.0000   1.0000   1.0000   1.0000   1.0000   1.0000   1.0000
     1.0000   1.0000   1.0000   1.0000   1.0000   1.0000   1.0000   1.0000
     1.0000   1.0000   1.0000   1.0000   1.0000   1.0000   1.0000   1.0000
     1.0000   1.0000   1.0000   1.0000   1.0000   1.0000   1.0000   1.0000
     1.0000   1.0000   1.0000   1.0000   1.0000   1.0000   1.0000   1.0000
     1.0000   1.0000   1.0000   1.0000   1.0000   1.0000   1.0000   1.0000
     1.0000   1.0000   1.0000   1.0000   1.0000   1.0000   1.0000   1.0000
     1.0000   1.0000   1.0000   1.0000   1.0000   1.0000   1.0000   1.0000
     1.0000   1.0000   1.0000   1.0000   1.0000   1.0000   1.0000   1.0000
     1.0000   1.0000   1.0000   1.0000   1.0000   1.0000   1.0000   1.0000
     1.0000   1.0000   1.0000   1.0000   1.0000   1.0000   1.0000   1.0000
     1.0000   1.0000   0.9999   0.0000   0.0000   0.0000   0.0000   0.0000
     0.0000   0.0000   0.0000   0.0000   0.0000   0.0000   0.0000   0.0000
     0.0000   0.0000   0.0000   0.0000   0.0000   0.0000   0.0000   0.0000
     0.0000   0.0000   0.0000   0.0000   0.0000   0.0000   0.0000   0.0000
     0.0000   0.0000   0.0000   0.0000   0.0000   0.0000   0.0000   0.0000
     0.0000   0.0000   0.0000   0.0000   0.0000   0.0000   0.0000   0.0000
     0.0000   0.0000   0.0000   0.0000

          k = 0.1768-0.1768-0.1768 ( 32087 PWs)   bands (ev):

   -17.7286 -17.7106 -17.7097 -17.6883 -17.6827 -17.6674 -17.6656 -17.6562
   -17.6556 -17.6485 -17.6472 -17.6459 -17.6418 -17.6126 -17.6022 -17.5841
   -17.5740 -17.5708 -17.5700 -17.5685 -17.5679 -17.5662 -17.5653 -17.5644
   -17.5639 -17.5609 -17.5579 -17.5573 -17.5475 -17.5469 -17.5459 -17.5302
   -17.5202 -17.5128 -17.5125 -17.5104 -17.5069 -17.5024 -17.5022 -17.5004
   -17.5001 -17.4995 -17.4981 -17.4974 -17.4945 -17.4939 -17.4930 -17.4924
   -17.4920 -17.4907 -17.4903 -17.4891 -17.4870 -17.4868 -17.4856 -17.4838
   -17.4832 -17.4811 -17.4804 -17.4802 -17.4798 -17.4755 -17.4733 -17.4708
   -17.4677 -17.4658 -17.4633 -17.4632 -17.4631 -17.4628 -17.4627 -17.4625
   -17.4619 -17.4614 -17.4610 -17.4600 -17.4585 -17.4574 -17.4564 -17.4562
   -17.4556 -17.4534 -17.4525 -17.4502 -17.4467 -17.4460 -17.4456 -17.4454
   -17.4433 -17.4412 -17.4382 -17.4381 -17.4378 -17.4378 -17.4377 -17.4371
   -17.4366 -17.4362 -17.4350 -17.4349 -17.4344 -17.4328 -17.4325 -17.4161
   -17.4086 -17.4055 -17.4030 -17.3996 -17.3884 -17.3792 -17.3774 -17.3745
   -17.3689 -17.3684 -17.3662  -5.2499  -5.1436  -4.8963  -4.7189  -4.2250
    -4.0212  -3.9341  -3.8311  -3.7091  -3.5676  -3.4607  -3.4129  -3.3123
    -3.2256  -3.1675  -3.1163  -3.0655  -2.9283  -2.8667  -2.8093  -2.7480
    -2.6140  -2.5153  -2.4844  -2.2786  -2.1477  -2.0861  -1.9821  -1.8754
    -1.7053  -1.2965  -1.2538  -1.2439  -1.1325  -0.7417  -0.6011  -0.5140
    -0.4489  -0.2939  -0.2549  -0.2096  -0.1656  -0.1338  -0.0599  -0.0289
    -0.0029   0.1747   0.2361   0.2783   0.3741   0.4885   0.5720   0.6832
     0.7448   0.7727   0.8058   1.2933   1.3518   1.5743   1.9668   2.5487
     2.7645   2.7745   2.8053   3.2831   3.3018   3.3441   3.3719   3.3768
     3.3808   3.3954   3.3999   3.4002   3.4037   3.4407   3.4460   3.4523
     3.4589   3.8528   3.8554   3.8774   4.0516   4.0559   4.0947   4.1026
     4.1064   4.1174   4.1798   4.1804   4.2454   4.2572   4.2746   4.2936
     4.3611   4.4088   4.4347   4.4438   4.4685   4.5863   4.6417   4.6439
     4.8580   4.8636   4.8810   4.8952   4.9023   5.0451   5.1705   5.1956
     5.2067   5.2122   5.2169   5.2323   5.2463   5.4928   5.5022   5.5114
     5.5153   5.5252   5.5372   5.7036   5.7041   6.0182   6.0244   6.0350
     6.5225   6.5494   6.5596   7.3730   7.6160   7.6859   7.7240   7.9002
     7.9688   8.0940   8.3203   8.5321   8.5533   8.5842   8.6321   8.6474
     8.6702   8.6889   8.7165   8.7316   8.7428   8.7538   8.7677   8.7824
     8.8014   8.8163   8.8362   8.8434   8.8645   8.8854   8.9178   8.9358
     8.9839   9.1180   9.1504   9.1715   9.3347   9.4235   9.4657   9.5636
     9.5854   9.6143   9.6582   9.6868   9.7874   9.7960   9.9293   9.9830
    10.0001  10.0691  10.0939  10.2013

     occupation numbers 
     1.0000   1.0000   1.0000   1.0000   1.0000   1.0000   1.0000   1.0000
     1.0000   1.0000   1.0000   1.0000   1.0000   1.0000   1.0000   1.0000
     1.0000   1.0000   1.0000   1.0000   1.0000   1.0000   1.0000   1.0000
     1.0000   1.0000   1.0000   1.0000   1.0000   1.0000   1.0000   1.0000
     1.0000   1.0000   1.0000   1.0000   1.0000   1.0000   1.0000   1.0000
     1.0000   1.0000   1.0000   1.0000   1.0000   1.0000   1.0000   1.0000
     1.0000   1.0000   1.0000   1.0000   1.0000   1.0000   1.0000   1.0000
     1.0000   1.0000   1.0000   1.0000   1.0000   1.0000   1.0000   1.0000
     1.0000   1.0000   1.0000   1.0000   1.0000   1.0000   1.0000   1.0000
     1.0000   1.0000   1.0000   1.0000   1.0000   1.0000   1.0000   1.0000
     1.0000   1.0000   1.0000   1.0000   1.0000   1.0000   1.0000   1.0000
     1.0000   1.0000   1.0000   1.0000   1.0000   1.0000   1.0000   1.0000
     1.0000   1.0000   1.0000   1.0000   1.0000   1.0000   1.0000   1.0000
     1.0000   1.0000   1.0000   1.0000   1.0000   1.0000   1.0000   1.0000
     1.0000   1.0000   1.0000   1.0000   1.0000   1.0000   1.0000   1.0000
     1.0000   1.0000   1.0000   1.0000   1.0000   1.0000   1.0000   1.0000
     1.0000   1.0000   1.0000   1.0000   1.0000   1.0000   1.0000   1.0000
     1.0000   1.0000   1.0000   1.0000   1.0000   1.0000   1.0000   1.0000
     1.0000   1.0000   1.0000   1.0000   1.0000   1.0000   1.0000   1.0000
     1.0000   1.0000   1.0000   1.0000   1.0000   1.0000   1.0000   1.0000
     1.0000   1.0000   1.0000   1.0000   1.0000   1.0000   1.0000   1.0000
     1.0000   1.0000   1.0000   1.0000   1.0000   1.0000   1.0000   1.0000
     1.0000   1.0000   1.0000   1.0000   1.0000   1.0000   1.0000   1.0000
     1.0000   1.0000   1.0000   1.0000   1.0000   1.0000   1.0000   1.0000
     1.0000   1.0000   1.0000   1.0000   1.0000   1.0000   1.0000   1.0000
     1.0000   1.0000   1.0000   1.0000   1.0000   1.0000   1.0000   1.0000
     1.0000   1.0000   1.0000   1.0000   1.0000   1.0000   1.0000   1.0000
     1.0000   1.0000   1.0000   1.0000   1.0000   1.0000   1.0000   1.0000
     1.0000   1.0000   1.0000   1.0000   1.0000   1.0000   1.0000   1.0000
     1.0000   1.0000   1.0000   1.0000   1.0000   1.0000   1.0000   1.0000
     0.9999   0.9999   0.9999   0.0225   0.0001   0.0000   0.0000   0.0000
     0.0000   0.0000   0.0000   0.0000   0.0000   0.0000   0.0000   0.0000
     0.0000   0.0000   0.0000   0.0000   0.0000   0.0000   0.0000   0.0000
     0.0000   0.0000   0.0000   0.0000   0.0000   0.0000   0.0000   0.0000
     0.0000   0.0000   0.0000   0.0000   0.0000   0.0000   0.0000   0.0000
     0.0000   0.0000   0.0000   0.0000   0.0000   0.0000   0.0000   0.0000
     0.0000   0.0000   0.0000   0.0000

          k = 0.1768 0.1768 0.1768 ( 32087 PWs)   bands (ev):

   -17.7283 -17.7109 -17.7096 -17.6883 -17.6824 -17.6676 -17.6657 -17.6562
   -17.6556 -17.6485 -17.6472 -17.6459 -17.6420 -17.6131 -17.6017 -17.5841
   -17.5739 -17.5708 -17.5700 -17.5685 -17.5679 -17.5661 -17.5654 -17.5649
   -17.5644 -17.5610 -17.5579 -17.5573 -17.5475 -17.5469 -17.5456 -17.5302
   -17.5194 -17.5128 -17.5126 -17.5103 -17.5070 -17.5025 -17.5022 -17.5003
   -17.5001 -17.4995 -17.4981 -17.4973 -17.4965 -17.4942 -17.4922 -17.4920
   -17.4911 -17.4907 -17.4901 -17.4888 -17.4867 -17.4860 -17.4856 -17.4839
   -17.4836 -17.4820 -17.4804 -17.4801 -17.4798 -17.4755 -17.4733 -17.4707
   -17.4671 -17.4665 -17.4633 -17.4632 -17.4631 -17.4628 -17.4627 -17.4625
   -17.4615 -17.4615 -17.4612 -17.4599 -17.4584 -17.4573 -17.4564 -17.4563
   -17.4557 -17.4535 -17.4528 -17.4491 -17.4467 -17.4460 -17.4456 -17.4454
   -17.4447 -17.4419 -17.4383 -17.4380 -17.4379 -17.4378 -17.4377 -17.4372
   -17.4366 -17.4362 -17.4350 -17.4347 -17.4345 -17.4327 -17.4325 -17.4162
   -17.4085 -17.4055 -17.4034 -17.3995 -17.3884 -17.3797 -17.3774 -17.3741
   -17.3688 -17.3684 -17.3657  -5.2504  -5.1450  -4.8960  -4.7228  -4.2492
    -4.0593  -3.8738  -3.8092  -3.6405  -3.5777  -3.5020  -3.4173  -3.3248
    -3.2482  -3.1218  -3.0574  -3.0384  -2.9967  -2.8994  -2.8011  -2.7582
    -2.6745  -2.5097  -2.4162  -2.3579  -2.1888  -2.0921  -1.9159  -1.7879
    -1.6953  -1.4848  -1.3202  -1.1548  -1.0274  -0.7536  -0.6772  -0.4969
    -0.3805  -0.3216  -0.2605  -0.2145  -0.1420  -0.0942  -0.0711  -0.0218
     0.0267   0.1573   0.2258   0.2929   0.3759   0.4170   0.6275   0.6562
     0.7144   0.7754   0.8460   1.2372   1.4041   1.5600   1.9657   2.5488
     2.7545   2.7850   2.8061   3.2671   3.3187   3.3442   3.3706   3.3766
     3.3840   3.3903   3.3949   3.4043   3.4088   3.4390   3.4404   3.4562
     3.4624   3.8503   3.8581   3.8786   4.0515   4.0541   4.0929   4.0999
     4.1103   4.1182   4.1795   4.1801   4.2464   4.2594   4.2731   4.2934
     4.3602   4.4121   4.4189   4.4572   4.4693   4.5851   4.6386   4.6489
     4.8505   4.8617   4.8808   4.9007   4.9056   5.0446   5.1708   5.1837
     5.2007   5.2125   5.2216   5.2335   5.2576   5.4914   5.4945   5.5052
     5.5111   5.5310   5.5503   5.7022   5.7048   6.0179   6.0253   6.0351
     6.5235   6.5479   6.5578   7.3720   7.6078   7.6621   7.7611   7.8983
     7.9653   8.0867   8.3235   8.5095   8.5618   8.5964   8.6191   8.6327
     8.6612   8.6866   8.7019   8.7319   8.7490   8.7596   8.7797   8.7910
     8.8067   8.8252   8.8412   8.8567   8.8796   8.8967   8.9155   8.9498
     8.9747   9.1151   9.1270   9.1904   9.3506   9.3912   9.4776   9.5225
     9.5506   9.6245   9.6701   9.7268   9.7881   9.7986   9.9217   9.9853
    10.0159  10.0790  10.0876  10.1788

     occupation numbers 
     1.0000   1.0000   1.0000   1.0000   1.0000   1.0000   1.0000   1.0000
     1.0000   1.0000   1.0000   1.0000   1.0000   1.0000   1.0000   1.0000
     1.0000   1.0000   1.0000   1.0000   1.0000   1.0000   1.0000   1.0000
     1.0000   1.0000   1.0000   1.0000   1.0000   1.0000   1.0000   1.0000
     1.0000   1.0000   1.0000   1.0000   1.0000   1.0000   1.0000   1.0000
     1.0000   1.0000   1.0000   1.0000   1.0000   1.0000   1.0000   1.0000
     1.0000   1.0000   1.0000   1.0000   1.0000   1.0000   1.0000   1.0000
     1.0000   1.0000   1.0000   1.0000   1.0000   1.0000   1.0000   1.0000
     1.0000   1.0000   1.0000   1.0000   1.0000   1.0000   1.0000   1.0000
     1.0000   1.0000   1.0000   1.0000   1.0000   1.0000   1.0000   1.0000
     1.0000   1.0000   1.0000   1.0000   1.0000   1.0000   1.0000   1.0000
     1.0000   1.0000   1.0000   1.0000   1.0000   1.0000   1.0000   1.0000
     1.0000   1.0000   1.0000   1.0000   1.0000   1.0000   1.0000   1.0000
     1.0000   1.0000   1.0000   1.0000   1.0000   1.0000   1.0000   1.0000
     1.0000   1.0000   1.0000   1.0000   1.0000   1.0000   1.0000   1.0000
     1.0000   1.0000   1.0000   1.0000   1.0000   1.0000   1.0000   1.0000
     1.0000   1.0000   1.0000   1.0000   1.0000   1.0000   1.0000   1.0000
     1.0000   1.0000   1.0000   1.0000   1.0000   1.0000   1.0000   1.0000
     1.0000   1.0000   1.0000   1.0000   1.0000   1.0000   1.0000   1.0000
     1.0000   1.0000   1.0000   1.0000   1.0000   1.0000   1.0000   1.0000
     1.0000   1.0000   1.0000   1.0000   1.0000   1.0000   1.0000   1.0000
     1.0000   1.0000   1.0000   1.0000   1.0000   1.0000   1.0000   1.0000
     1.0000   1.0000   1.0000   1.0000   1.0000   1.0000   1.0000   1.0000
     1.0000   1.0000   1.0000   1.0000   1.0000   1.0000   1.0000   1.0000
     1.0000   1.0000   1.0000   1.0000   1.0000   1.0000   1.0000   1.0000
     1.0000   1.0000   1.0000   1.0000   1.0000   1.0000   1.0000   1.0000
     1.0000   1.0000   1.0000   1.0000   1.0000   1.0000   1.0000   1.0000
     1.0000   1.0000   1.0000   1.0000   1.0000   1.0000   1.0000   1.0000
     1.0000   1.0000   1.0000   1.0000   1.0000   1.0000   1.0000   1.0000
     1.0000   1.0000   1.0000   1.0000   1.0000   1.0000   1.0000   1.0000
     0.9999   0.9999   0.9999   0.0229   0.0001   0.0000   0.0000   0.0000
     0.0000   0.0000   0.0000   0.0000   0.0000   0.0000   0.0000   0.0000
     0.0000   0.0000   0.0000   0.0000   0.0000   0.0000   0.0000   0.0000
     0.0000   0.0000   0.0000   0.0000   0.0000   0.0000   0.0000   0.0000
     0.0000   0.0000   0.0000   0.0000   0.0000   0.0000   0.0000   0.0000
     0.0000   0.0000   0.0000   0.0000   0.0000   0.0000   0.0000   0.0000
     0.0000   0.0000   0.0000   0.0000

          k =-0.3536 0.3536 0.3536 ( 32056 PWs)   bands (ev):

   -17.7291 -17.7105 -17.7100 -17.6886 -17.6831 -17.6672 -17.6656 -17.6561
   -17.6553 -17.6482 -17.6469 -17.6458 -17.6415 -17.6117 -17.6022 -17.5836
   -17.5734 -17.5706 -17.5700 -17.5685 -17.5667 -17.5661 -17.5652 -17.5643
   -17.5627 -17.5608 -17.5579 -17.5573 -17.5474 -17.5469 -17.5460 -17.5308
   -17.5215 -17.5128 -17.5124 -17.5112 -17.5062 -17.5022 -17.5021 -17.5005
   -17.5002 -17.4995 -17.4995 -17.4977 -17.4957 -17.4938 -17.4937 -17.4921
   -17.4915 -17.4902 -17.4901 -17.4888 -17.4867 -17.4866 -17.4854 -17.4842
   -17.4826 -17.4807 -17.4802 -17.4801 -17.4792 -17.4758 -17.4733 -17.4710
   -17.4678 -17.4643 -17.4632 -17.4629 -17.4628 -17.4625 -17.4624 -17.4622
   -17.4616 -17.4610 -17.4608 -17.4598 -17.4586 -17.4578 -17.4572 -17.4559
   -17.4557 -17.4532 -17.4520 -17.4505 -17.4461 -17.4458 -17.4455 -17.4450
   -17.4420 -17.4405 -17.4385 -17.4380 -17.4378 -17.4377 -17.4376 -17.4367
   -17.4364 -17.4361 -17.4353 -17.4348 -17.4344 -17.4330 -17.4329 -17.4156
   -17.4082 -17.4049 -17.4025 -17.3994 -17.3883 -17.3790 -17.3773 -17.3750
   -17.3693 -17.3687 -17.3666  -4.8206  -4.7258  -4.6646  -4.6167  -4.4322
    -4.3063  -4.2643  -4.1883  -3.7816  -3.7011  -3.6468  -3.5254  -3.4574
    -3.3077  -3.2708  -3.1979  -3.1411  -3.0229  -2.9767  -2.8562  -2.7629
    -2.6286  -2.5799  -2.5620  -2.4737  -2.4477  -2.1069  -2.0315  -1.9031
    -1.8401  -1.2256  -1.1924  -1.1786  -1.0611  -0.5932  -0.5106  -0.4367
    -0.2942  -0.1798  -0.0594   0.0089   0.0585   0.1812   0.2275   0.2657
     0.2878   0.6554   0.6923   0.7001   0.8099   0.9559   1.0195   1.0924
     1.2129   1.4887   1.6112   1.9711   1.9810   2.6537   2.6952   2.7613
     2.7661   2.7717   2.7769   2.7973   2.8074   2.9157   2.9829   2.9859
     2.9900   2.9917   2.9947   3.0523   3.0612   3.0641   3.0735   3.2159
     3.2387   3.2523   3.2577   3.2654   3.2703   3.3206   3.3776   3.4328
     3.4409   3.4666   3.4796   3.8396   3.8452   3.8665   3.8684   4.1146
     4.1192   4.4491   4.4557   4.5612   4.5645   4.5774   4.5830   4.5882
     4.5929   4.5990   4.6050   4.8538   4.8661   4.8697   4.8723   4.8952
     4.9033   4.9087   4.9137   4.9260   4.9278   5.4480   5.4559   5.4650
     5.4743   5.4873   5.5003   5.5140   5.5166   6.0132   6.0240   6.0397
     6.0515   6.0639   6.0680   7.8188   7.8759   8.0767   8.1094   8.1797
     8.2090   8.2472   8.2898   8.3053   8.3196   8.3373   8.3665   8.5511
     8.5713   8.8412   8.8808   8.9686   9.0486   9.0667   9.0743   9.1125
     9.1319   9.1427   9.1845   9.2017   9.2082   9.4942   9.5431   9.6095
     9.6212   9.6602   9.6769   9.8222   9.8359  10.0574  10.0724  10.1961
    10.2771  10.2965  10.3056  10.3125  10.3311  10.3672  10.3793  10.4813
    10.5349  10.6837  10.7046  11.0315

     occupation numbers 
     1.0000   1.0000   1.0000   1.0000   1.0000   1.0000   1.0000   1.0000
     1.0000   1.0000   1.0000   1.0000   1.0000   1.0000   1.0000   1.0000
     1.0000   1.0000   1.0000   1.0000   1.0000   1.0000   1.0000   1.0000
     1.0000   1.0000   1.0000   1.0000   1.0000   1.0000   1.0000   1.0000
     1.0000   1.0000   1.0000   1.0000   1.0000   1.0000   1.0000   1.0000
     1.0000   1.0000   1.0000   1.0000   1.0000   1.0000   1.0000   1.0000
     1.0000   1.0000   1.0000   1.0000   1.0000   1.0000   1.0000   1.0000
     1.0000   1.0000   1.0000   1.0000   1.0000   1.0000   1.0000   1.0000
     1.0000   1.0000   1.0000   1.0000   1.0000   1.0000   1.0000   1.0000
     1.0000   1.0000   1.0000   1.0000   1.0000   1.0000   1.0000   1.0000
     1.0000   1.0000   1.0000   1.0000   1.0000   1.0000   1.0000   1.0000
     1.0000   1.0000   1.0000   1.0000   1.0000   1.0000   1.0000   1.0000
     1.0000   1.0000   1.0000   1.0000   1.0000   1.0000   1.0000   1.0000
     1.0000   1.0000   1.0000   1.0000   1.0000   1.0000   1.0000   1.0000
     1.0000   1.0000   1.0000   1.0000   1.0000   1.0000   1.0000   1.0000
     1.0000   1.0000   1.0000   1.0000   1.0000   1.0000   1.0000   1.0000
     1.0000   1.0000   1.0000   1.0000   1.0000   1.0000   1.0000   1.0000
     1.0000   1.0000   1.0000   1.0000   1.0000   1.0000   1.0000   1.0000
     1.0000   1.0000   1.0000   1.0000   1.0000   1.0000   1.0000   1.0000
     1.0000   1.0000   1.0000   1.0000   1.0000   1.0000   1.0000   1.0000
     1.0000   1.0000   1.0000   1.0000   1.0000   1.0000   1.0000   1.0000
     1.0000   1.0000   1.0000   1.0000   1.0000   1.0000   1.0000   1.0000
     1.0000   1.0000   1.0000   1.0000   1.0000   1.0000   1.0000   1.0000
     1.0000   1.0000   1.0000   1.0000   1.0000   1.0000   1.0000   1.0000
     1.0000   1.0000   1.0000   1.0000   1.0000   1.0000   1.0000   1.0000
     1.0000   1.0000   1.0000   1.0000   1.0000   1.0000   1.0000   1.0000
     1.0000   1.0000   1.0000   1.0000   1.0000   1.0000   1.0000   1.0000
     1.0000   1.0000   1.0000   1.0000   1.0000   1.0000   1.0000   1.0000
     1.0000   1.0000   1.0000   1.0000   1.0000   1.0000   1.0000   1.0000
     1.0000   1.0000   1.0000   1.0000   1.0000   1.0000   1.0000   1.0000
     1.0000   1.0000   1.0000   0.0000   0.0000   0.0000   0.0000   0.0000
     0.0000   0.0000   0.0000   0.0000   0.0000   0.0000   0.0000   0.0000
     0.0000   0.0000   0.0000   0.0000   0.0000   0.0000   0.0000   0.0000
     0.0000   0.0000   0.0000   0.0000   0.0000   0.0000   0.0000   0.0000
     0.0000   0.0000   0.0000   0.0000   0.0000   0.0000   0.0000   0.0000
     0.0000   0.0000   0.0000   0.0000   0.0000   0.0000   0.0000   0.0000
     0.0000   0.0000   0.0000   0.0000

          k =-0.3536-0.3536-0.3536 ( 32056 PWs)   bands (ev):

   -17.7284 -17.7113 -17.7100 -17.6886 -17.6823 -17.6674 -17.6655 -17.6561
   -17.6553 -17.6482 -17.6469 -17.6458 -17.6420 -17.6127 -17.6011 -17.5836
   -17.5734 -17.5707 -17.5700 -17.5685 -17.5666 -17.5660 -17.5653 -17.5648
   -17.5643 -17.5610 -17.5579 -17.5572 -17.5474 -17.5469 -17.5453 -17.5309
   -17.5201 -17.5127 -17.5125 -17.5110 -17.5064 -17.5025 -17.5019 -17.5006
   -17.4998 -17.4995 -17.4995 -17.4984 -17.4974 -17.4941 -17.4921 -17.4911
   -17.4910 -17.4902 -17.4898 -17.4886 -17.4860 -17.4853 -17.4852 -17.4844
   -17.4827 -17.4825 -17.4802 -17.4799 -17.4792 -17.4758 -17.4734 -17.4708
   -17.4667 -17.4662 -17.4632 -17.4629 -17.4628 -17.4625 -17.4624 -17.4617
   -17.4613 -17.4611 -17.4610 -17.4598 -17.4584 -17.4577 -17.4571 -17.4559
   -17.4558 -17.4534 -17.4526 -17.4483 -17.4462 -17.4456 -17.4455 -17.4450
   -17.4447 -17.4419 -17.4385 -17.4380 -17.4378 -17.4377 -17.4377 -17.4368
   -17.4362 -17.4359 -17.4350 -17.4348 -17.4345 -17.4329 -17.4327 -17.4157
   -17.4079 -17.4049 -17.4033 -17.3993 -17.3883 -17.3801 -17.3773 -17.3743
   -17.3692 -17.3686 -17.3656  -4.8183  -4.7218  -4.6957  -4.6278  -4.4466
    -4.3305  -4.2555  -4.1235  -3.7371  -3.6577  -3.6103  -3.5259  -3.5019
    -3.3676  -3.2687  -3.1673  -3.0698  -3.0460  -3.0085  -2.9130  -2.7906
    -2.6830  -2.5831  -2.5009  -2.4369  -2.3992  -2.2742  -2.0137  -1.8947
    -1.7299  -1.4231  -1.2441  -1.0757  -0.9600  -0.7203  -0.4289  -0.3900
    -0.2440  -0.1746  -0.0734  -0.0141   0.0746   0.1529   0.1803   0.3223
     0.3581   0.5242   0.6656   0.7746   0.8537   0.9177   1.0152   1.1055
     1.2184   1.5114   1.5686   1.9332   2.0250   2.6569   2.6813   2.7526
     2.7628   2.7781   2.7901   2.7993   2.8142   2.8460   2.9753   2.9822
     2.9949   3.0055   3.0463   3.0545   3.0618   3.0659   3.0713   3.2156
     3.2285   3.2412   3.2537   3.2767   3.2804   3.3229   3.3736   3.4174
     3.4622   3.4716   3.4757   3.8418   3.8431   3.8610   3.8737   4.1060
     4.1293   4.4414   4.4640   4.5608   4.5683   4.5728   4.5824   4.5851
     4.5923   4.5997   4.6081   4.8493   4.8544   4.8706   4.8839   4.8865
     4.8990   4.9012   4.9054   4.9386   4.9454   5.4420   5.4542   5.4695
     5.4737   5.4827   5.4982   5.5121   5.5291   6.0082   6.0316   6.0395
     6.0440   6.0626   6.0718   7.7909   7.9074   8.0686   8.1002   8.1883
     8.2133   8.2153   8.2610   8.2934   8.3326   8.3443   8.4092   8.5187
     8.6006   8.8430   8.8892   8.9787   9.0387   9.0690   9.0745   9.1106
     9.1220   9.1500   9.1679   9.2128   9.2523   9.4729   9.5397   9.5530
     9.6354   9.6907   9.7021   9.8272   9.8461  10.0590  10.0726  10.1716
    10.1895  10.2997  10.3075  10.3434  10.3672  10.3807  10.4321  10.4556
    10.5483  10.6339  10.7241  11.0160

     occupation numbers 
     1.0000   1.0000   1.0000   1.0000   1.0000   1.0000   1.0000   1.0000
     1.0000   1.0000   1.0000   1.0000   1.0000   1.0000   1.0000   1.0000
     1.0000   1.0000   1.0000   1.0000   1.0000   1.0000   1.0000   1.0000
     1.0000   1.0000   1.0000   1.0000   1.0000   1.0000   1.0000   1.0000
     1.0000   1.0000   1.0000   1.0000   1.0000   1.0000   1.0000   1.0000
     1.0000   1.0000   1.0000   1.0000   1.0000   1.0000   1.0000   1.0000
     1.0000   1.0000   1.0000   1.0000   1.0000   1.0000   1.0000   1.0000
     1.0000   1.0000   1.0000   1.0000   1.0000   1.0000   1.0000   1.0000
     1.0000   1.0000   1.0000   1.0000   1.0000   1.0000   1.0000   1.0000
     1.0000   1.0000   1.0000   1.0000   1.0000   1.0000   1.0000   1.0000
     1.0000   1.0000   1.0000   1.0000   1.0000   1.0000   1.0000   1.0000
     1.0000   1.0000   1.0000   1.0000   1.0000   1.0000   1.0000   1.0000
     1.0000   1.0000   1.0000   1.0000   1.0000   1.0000   1.0000   1.0000
     1.0000   1.0000   1.0000   1.0000   1.0000   1.0000   1.0000   1.0000
     1.0000   1.0000   1.0000   1.0000   1.0000   1.0000   1.0000   1.0000
     1.0000   1.0000   1.0000   1.0000   1.0000   1.0000   1.0000   1.0000
     1.0000   1.0000   1.0000   1.0000   1.0000   1.0000   1.0000   1.0000
     1.0000   1.0000   1.0000   1.0000   1.0000   1.0000   1.0000   1.0000
     1.0000   1.0000   1.0000   1.0000   1.0000   1.0000   1.0000   1.0000
     1.0000   1.0000   1.0000   1.0000   1.0000   1.0000   1.0000   1.0000
     1.0000   1.0000   1.0000   1.0000   1.0000   1.0000   1.0000   1.0000
     1.0000   1.0000   1.0000   1.0000   1.0000   1.0000   1.0000   1.0000
     1.0000   1.0000   1.0000   1.0000   1.0000   1.0000   1.0000   1.0000
     1.0000   1.0000   1.0000   1.0000   1.0000   1.0000   1.0000   1.0000
     1.0000   1.0000   1.0000   1.0000   1.0000   1.0000   1.0000   1.0000
     1.0000   1.0000   1.0000   1.0000   1.0000   1.0000   1.0000   1.0000
     1.0000   1.0000   1.0000   1.0000   1.0000   1.0000   1.0000   1.0000
     1.0000   1.0000   1.0000   1.0000   1.0000   1.0000   1.0000   1.0000
     1.0000   1.0000   1.0000   1.0000   1.0000   1.0000   1.0000   1.0000
     1.0000   1.0000   1.0000   1.0000   1.0000   1.0000   1.0000   1.0000
     1.0000   1.0000   1.0000   0.0000   0.0000   0.0000   0.0000   0.0000
     0.0000   0.0000   0.0000   0.0000   0.0000   0.0000   0.0000   0.0000
     0.0000   0.0000   0.0000   0.0000   0.0000   0.0000   0.0000   0.0000
     0.0000   0.0000   0.0000   0.0000   0.0000   0.0000   0.0000   0.0000
     0.0000   0.0000   0.0000   0.0000   0.0000   0.0000   0.0000   0.0000
     0.0000   0.0000   0.0000   0.0000   0.0000   0.0000   0.0000   0.0000
     0.0000   0.0000   0.0000   0.0000

          k =-0.5303 0.5303 0.1768 ( 32066 PWs)   bands (ev):

   -17.7288 -17.7110 -17.7100 -17.6887 -17.6828 -17.6673 -17.6655 -17.6562
   -17.6554 -17.6482 -17.6470 -17.6458 -17.6418 -17.6122 -17.6017 -17.5836
   -17.5734 -17.5707 -17.5700 -17.5685 -17.5667 -17.5661 -17.5653 -17.5644
   -17.5638 -17.5609 -17.5579 -17.5573 -17.5474 -17.5469 -17.5457 -17.5309
   -17.5209 -17.5128 -17.5126 -17.5111 -17.5064 -17.5024 -17.5020 -17.5006
   -17.5001 -17.4996 -17.4995 -17.4976 -17.4966 -17.4939 -17.4932 -17.4921
   -17.4915 -17.4903 -17.4901 -17.4887 -17.4864 -17.4859 -17.4853 -17.4844
   -17.4828 -17.4813 -17.4801 -17.4800 -17.4795 -17.4758 -17.4734 -17.4709
   -17.4673 -17.4655 -17.4632 -17.4630 -17.4628 -17.4625 -17.4624 -17.4617
   -17.4616 -17.4612 -17.4610 -17.4599 -17.4585 -17.4577 -17.4572 -17.4559
   -17.4558 -17.4533 -17.4523 -17.4494 -17.4462 -17.4457 -17.4455 -17.4450
   -17.4434 -17.4412 -17.4385 -17.4380 -17.4378 -17.4378 -17.4377 -17.4367
   -17.4363 -17.4360 -17.4350 -17.4349 -17.4346 -17.4329 -17.4328 -17.4157
   -17.4082 -17.4049 -17.4030 -17.3994 -17.3883 -17.3796 -17.3773 -17.3747
   -17.3693 -17.3687 -17.3661  -4.9315  -4.7718  -4.6724  -4.3855  -4.3398
    -4.2324  -4.1518  -4.0967  -3.9577  -3.9140  -3.8069  -3.6901  -3.6227
    -3.3898  -3.2396  -3.2028  -3.1054  -3.0014  -2.7682  -2.7001  -2.6212
    -2.5400  -2.5002  -2.4401  -2.3072  -2.2997  -2.1847  -2.0917  -2.0065
    -1.8915  -1.8167  -1.6406  -0.7832  -0.5854  -0.5077  -0.4419  -0.3244
    -0.2977  -0.2248  -0.1710  -0.1231  -0.0617   0.0121   0.0334   0.1105
     0.4118   0.6046   0.6414   0.7104   0.7559   0.8101   1.2716   1.3764
     1.5253   1.5855   1.9486   1.9743   2.1165   2.1806   2.2617   2.3649
     2.5473   2.5985   2.6046   2.6143   2.6244   2.7560   2.7679   2.7730
     2.7826   2.8031   2.8128   3.2706   3.3207   3.3285   3.3398   3.4309
     3.4404   3.4476   3.4528   3.4558   3.4783   3.8490   3.8520   3.8555
     3.8592   3.8776   4.0506   4.0519   4.0700   4.0844   4.0923   4.1065
     4.1212   4.1256   4.2191   4.2232   4.2266   4.2287   4.3612   4.4483
     4.4562   4.5864   4.5869   4.6392   4.6478   4.8490   4.8623   4.8678
     4.8759   4.8825   4.8898   4.9045   4.9095   5.1812   5.1940   5.2287
     5.3329   5.3525   5.3709   5.3808   5.4845   5.4963   5.4994   5.5303
     6.0241   6.0282   6.5310   7.9643   8.0932   8.0966   8.5142   8.5690
     8.6558   8.7135   8.7944   8.8328   8.8491   8.9110   9.0595   9.0809
     9.0940   9.1175   9.1276   9.1552   9.1745   9.1987   9.2128   9.2643
     9.3311   9.4019   9.4536   9.5058   9.5436   9.5492   9.5636   9.5771
     9.5977   9.6205   9.6410   9.6530   9.6710   9.6900   9.7152   9.9364
     9.9778   9.9936  10.0513  10.0720  10.1167  10.1934  10.2044  10.2354
    10.2627  10.2843  10.3050  10.3257

     occupation numbers 
     1.0000   1.0000   1.0000   1.0000   1.0000   1.0000   1.0000   1.0000
     1.0000   1.0000   1.0000   1.0000   1.0000   1.0000   1.0000   1.0000
     1.0000   1.0000   1.0000   1.0000   1.0000   1.0000   1.0000   1.0000
     1.0000   1.0000   1.0000   1.0000   1.0000   1.0000   1.0000   1.0000
     1.0000   1.0000   1.0000   1.0000   1.0000   1.0000   1.0000   1.0000
     1.0000   1.0000   1.0000   1.0000   1.0000   1.0000   1.0000   1.0000
     1.0000   1.0000   1.0000   1.0000   1.0000   1.0000   1.0000   1.0000
     1.0000   1.0000   1.0000   1.0000   1.0000   1.0000   1.0000   1.0000
     1.0000   1.0000   1.0000   1.0000   1.0000   1.0000   1.0000   1.0000
     1.0000   1.0000   1.0000   1.0000   1.0000   1.0000   1.0000   1.0000
     1.0000   1.0000   1.0000   1.0000   1.0000   1.0000   1.0000   1.0000
     1.0000   1.0000   1.0000   1.0000   1.0000   1.0000   1.0000   1.0000
     1.0000   1.0000   1.0000   1.0000   1.0000   1.0000   1.0000   1.0000
     1.0000   1.0000   1.0000   1.0000   1.0000   1.0000   1.0000   1.0000
     1.0000   1.0000   1.0000   1.0000   1.0000   1.0000   1.0000   1.0000
     1.0000   1.0000   1.0000   1.0000   1.0000   1.0000   1.0000   1.0000
     1.0000   1.0000   1.0000   1.0000   1.0000   1.0000   1.0000   1.0000
     1.0000   1.0000   1.0000   1.0000   1.0000   1.0000   1.0000   1.0000
     1.0000   1.0000   1.0000   1.0000   1.0000   1.0000   1.0000   1.0000
     1.0000   1.0000   1.0000   1.0000   1.0000   1.0000   1.0000   1.0000
     1.0000   1.0000   1.0000   1.0000   1.0000   1.0000   1.0000   1.0000
     1.0000   1.0000   1.0000   1.0000   1.0000   1.0000   1.0000   1.0000
     1.0000   1.0000   1.0000   1.0000   1.0000   1.0000   1.0000   1.0000
     1.0000   1.0000   1.0000   1.0000   1.0000   1.0000   1.0000   1.0000
     1.0000   1.0000   1.0000   1.0000   1.0000   1.0000   1.0000   1.0000
     1.0000   1.0000   1.0000   1.0000   1.0000   1.0000   1.0000   1.0000
     1.0000   1.0000   1.0000   1.0000   1.0000   1.0000   1.0000   1.0000
     1.0000   1.0000   1.0000   1.0000   1.0000   1.0000   1.0000   1.0000
     1.0000   1.0000   1.0000   1.0000   1.0000   1.0000   1.0000   1.0000
     1.0000   1.0000   1.0000   1.0000   1.0000   1.0000   1.0000   1.0000
     1.0000   1.0000   0.9999   0.0000   0.0000   0.0000   0.0000   0.0000
     0.0000   0.0000   0.0000   0.0000   0.0000   0.0000   0.0000   0.0000
     0.0000   0.0000   0.0000   0.0000   0.0000   0.0000   0.0000   0.0000
     0.0000   0.0000   0.0000   0.0000   0.0000   0.0000   0.0000   0.0000
     0.0000   0.0000   0.0000   0.0000   0.0000   0.0000   0.0000   0.0000
     0.0000   0.0000   0.0000   0.0000   0.0000   0.0000   0.0000   0.0000
     0.0000   0.0000   0.0000   0.0000

          k = 0.5303-0.1768 0.5303 ( 32066 PWs)   bands (ev):

   -17.7289 -17.7109 -17.7096 -17.6883 -17.6832 -17.6673 -17.6657 -17.6561
   -17.6555 -17.6483 -17.6472 -17.6458 -17.6416 -17.6122 -17.6017 -17.5840
   -17.5739 -17.5706 -17.5700 -17.5685 -17.5678 -17.5662 -17.5653 -17.5643
   -17.5627 -17.5608 -17.5579 -17.5573 -17.5474 -17.5469 -17.5457 -17.5302
   -17.5211 -17.5127 -17.5124 -17.5103 -17.5062 -17.5023 -17.5021 -17.5002
   -17.5000 -17.4994 -17.4979 -17.4973 -17.4968 -17.4951 -17.4934 -17.4920
   -17.4913 -17.4905 -17.4899 -17.4887 -17.4867 -17.4860 -17.4859 -17.4846
   -17.4828 -17.4808 -17.4803 -17.4798 -17.4794 -17.4756 -17.4733 -17.4711
   -17.4673 -17.4648 -17.4633 -17.4632 -17.4630 -17.4628 -17.4627 -17.4625
   -17.4624 -17.4614 -17.4610 -17.4601 -17.4586 -17.4574 -17.4563 -17.4563
   -17.4557 -17.4533 -17.4520 -17.4495 -17.4467 -17.4461 -17.4457 -17.4454
   -17.4420 -17.4411 -17.4382 -17.4381 -17.4378 -17.4378 -17.4376 -17.4368
   -17.4365 -17.4361 -17.4353 -17.4349 -17.4346 -17.4328 -17.4327 -17.4161
   -17.4082 -17.4054 -17.4026 -17.3994 -17.3883 -17.3797 -17.3774 -17.3745
   -17.3687 -17.3683 -17.3667  -4.9345  -4.7794  -4.6646  -4.3839  -4.3267
    -4.1945  -4.1591  -4.0967  -4.0226  -3.9194  -3.7760  -3.7168  -3.6180
    -3.4148  -3.2421  -3.1596  -3.0889  -2.9503  -2.7823  -2.7425  -2.6546
    -2.5401  -2.4697  -2.4291  -2.3271  -2.2785  -2.2116  -2.1026  -2.0092
    -1.8709  -1.8174  -1.6377  -0.7618  -0.6310  -0.5117  -0.4106  -0.3309
    -0.2741  -0.2274  -0.1848  -0.1178  -0.0528  -0.0199   0.0374   0.1144
     0.4736   0.5571   0.6106   0.6981   0.7707   0.8281   1.2650   1.3815
     1.5004   1.6222   1.9247   1.9836   2.1016   2.2160   2.2994   2.3086
     2.5480   2.5951   2.6100   2.6165   2.6221   2.7519   2.7676   2.7711
     2.7865   2.8015   2.8153   3.2838   3.3086   3.3316   3.3428   3.4317
     3.4428   3.4487   3.4529   3.4557   3.4775   3.8476   3.8528   3.8543
     3.8592   3.8772   4.0501   4.0528   4.0753   4.0858   4.0934   4.1043
     4.1167   4.1260   4.2194   4.2237   4.2252   4.2289   4.3603   4.4452
     4.4604   4.5821   4.5905   4.6417   4.6468   4.8420   4.8587   4.8651
     4.8710   4.8862   4.8985   4.9052   4.9128   5.1804   5.1882   5.2341
     5.3419   5.3468   5.3625   5.3843   5.4846   5.4970   5.4995   5.5268
     6.0185   6.0343   6.5306   7.9645   8.0886   8.1067   8.5172   8.5715
     8.6712   8.6973   8.7957   8.8296   8.8573   8.9035   9.0436   9.0679
     9.0989   9.1143   9.1372   9.1549   9.1702   9.1803   9.2142   9.2508
[...]
     atom   13 type  1   force =   0.11276300E-03 -0.18520535E-03  0.25133866E-04
     atom   14 type  1   force =   0.22539297E-03 -0.65271201E-04 -0.10556378E-03
     atom   15 type  1   force =  -0.43987043E-04 -0.89525805E-04 -0.10304100E-03
     atom   16 type  1   force =   0.93078669E-04  0.10481204E-03 -0.24382035E-03
     atom   17 type  2   force =   0.39084652E-03 -0.37873948E-03  0.38004365E-03
     atom   18 type  1   force =   0.28868994E-04 -0.38201175E-04  0.28791347E-03
     atom   19 type  2   force =  -0.50291248E-03  0.80433750E-04  0.31326610E-05
     atom   20 type  2   force =  -0.43775885E-04 -0.54658183E-04  0.68604580E-03
     atom   21 type  2   force =   0.20477607E-03  0.27730650E-03 -0.24802197E-03
     atom   22 type  1   force =  -0.80580271E-04  0.53551419E-04  0.44294750E-03
     atom   23 type  2   force =  -0.18787819E-03 -0.36645174E-03 -0.34960740E-03
     atom   24 type  2   force =   0.50579857E-03  0.48332173E-04 -0.29068540E-04
     atom   25 type  1   force =  -0.47930930E-04 -0.92119622E-05 -0.19926989E-03
     atom   26 type  1   force =   0.21073324E-03 -0.16290581E-05 -0.96972718E-04
     atom   27 type  1   force =  -0.29222158E-03 -0.36379404E-05  0.24904429E-04
     atom   28 type  2   force =  -0.23475691E-04 -0.12545925E-04  0.15753296E-04
     atom   29 type  1   force =   0.19481748E-03 -0.16199402E-04 -0.39217864E-03
     atom   30 type  2   force =  -0.33147503E-03 -0.29800660E-03  0.27469571E-03
     atom   31 type  2   force =   0.36065467E-03  0.58774959E-03  0.48056741E-04
     atom   32 type  1   force =   0.32312923E-04 -0.27536706E-03 -0.98951696E-04
     atom   33 type  2   force =  -0.45497706E-03  0.26299227E-03  0.21883297E-03
     atom   34 type  1   force =   0.23980565E-03  0.34322754E-03  0.15311042E-03
     atom   35 type  1   force =  -0.14324828E-03 -0.49065919E-03 -0.87939093E-04
     atom   36 type  2   force =  -0.48431517E-04  0.82630761E-04  0.26457471E-03
     atom   37 type  1   force =   0.80939064E-04  0.21148517E-03 -0.54893111E-03
     atom   38 type  2   force =  -0.41712153E-03 -0.43424577E-03  0.26984100E-03
     atom   39 type  2   force =   0.51303675E-03  0.42680955E-03 -0.44114721E-03
     atom   40 type  1   force =  -0.21711226E-03  0.95592659E-04  0.58801201E-04
     atom   41 type  2   force =  -0.10854336E-03 -0.24903243E-03  0.88668193E-04
     atom   42 type  1   force =   0.34678040E-03  0.20980813E-03  0.15706378E-03
     atom   43 type  1   force =   0.10972867E-03 -0.26319059E-03  0.77986539E-04
     atom   44 type  2   force =  -0.30295989E-03 -0.50345743E-03  0.43808313E-03
     atom   45 type  2   force =   0.46156750E-03  0.46912556E-03 -0.22374467E-03
     atom   46 type  1   force =  -0.10463192E-03 -0.20055694E-03  0.33695297E-03
     atom   47 type  2   force =   0.35938050E-03 -0.96800551E-04  0.24342421E-03
     atom   48 type  1   force =  -0.94663665E-04 -0.27410048E-04  0.23739238E-03
     atom   49 type  1   force =  -0.15290543E-04 -0.85492650E-04  0.75262990E-05
     atom   50 type  1   force =   0.10996445E-03  0.12353860E-03 -0.28922763E-03
     atom   51 type  1   force =  -0.15819586E-05 -0.26125813E-03  0.28941188E-03
     atom   52 type  2   force =   0.10912392E-03 -0.36550093E-03 -0.39430662E-03
     atom   53 type  1   force =   0.54154970E-03  0.28190050E-04  0.16317373E-04
     atom   54 type  1   force =   0.87971685E-04 -0.54296360E-03 -0.27796812E-04
     atom   55 type  2   force =  -0.23187017E-03  0.36114523E-03  0.34982998E-03
     atom   56 type  1   force =   0.43154675E-04  0.60977627E-04 -0.73958352E-04
     atom   57 type  1   force =  -0.16142346E-03  0.69237615E-04  0.22662049E-03
     atom   58 type  1   force =  -0.18790902E-03  0.37771996E-03 -0.37491697E-03
     atom   59 type  1   force =  -0.32620513E-03 -0.61220158E-04  0.16429554E-03
     atom   60 type  2   force =  -0.35075950E-04 -0.29782042E-04 -0.10295558E-03
     atom   61 type  1   force =   0.16502097E-03  0.54585637E-03 -0.51924597E-04
     atom   62 type  1   force =  -0.50046647E-03  0.19437523E-04 -0.64974950E-04
     atom   63 type  2   force =  -0.49685934E-03 -0.20428348E-03 -0.46274477E-03
     atom   64 type  2   force =   0.30494567E-03  0.51109601E-03 -0.11783025E-03
     The Hubbard contrib.    to forces
     atom    1 type  1   force =   0.00000000E+00  0.00000000E+00  0.00000000E+00
     atom    2 type  2   force =   0.00000000E+00  0.00000000E+00  0.00000000E+00
     atom    3 type  1   force =   0.00000000E+00  0.00000000E+00  0.00000000E+00
     atom    4 type  1   force =   0.00000000E+00  0.00000000E+00  0.00000000E+00
     atom    5 type  1   force =   0.00000000E+00  0.00000000E+00  0.00000000E+00
     atom    6 type  1   force =   0.00000000E+00  0.00000000E+00  0.00000000E+00
     atom    7 type  1   force =   0.00000000E+00  0.00000000E+00  0.00000000E+00
     atom    8 type  1   force =   0.00000000E+00  0.00000000E+00  0.00000000E+00
     atom    9 type  1   force =   0.00000000E+00  0.00000000E+00  0.00000000E+00
     atom   10 type  1   force =   0.00000000E+00  0.00000000E+00  0.00000000E+00
     atom   11 type  1   force =   0.00000000E+00  0.00000000E+00  0.00000000E+00
     atom   12 type  1   force =   0.00000000E+00  0.00000000E+00  0.00000000E+00
     atom   13 type  1   force =   0.00000000E+00  0.00000000E+00  0.00000000E+00
     atom   14 type  1   force =   0.00000000E+00  0.00000000E+00  0.00000000E+00
     atom   15 type  1   force =   0.00000000E+00  0.00000000E+00  0.00000000E+00
     atom   16 type  1   force =   0.00000000E+00  0.00000000E+00  0.00000000E+00
     atom   17 type  2   force =   0.00000000E+00  0.00000000E+00  0.00000000E+00
     atom   18 type  1   force =   0.00000000E+00  0.00000000E+00  0.00000000E+00
     atom   19 type  2   force =   0.00000000E+00  0.00000000E+00  0.00000000E+00
     atom   20 type  2   force =   0.00000000E+00  0.00000000E+00  0.00000000E+00
     atom   21 type  2   force =   0.00000000E+00  0.00000000E+00  0.00000000E+00
     atom   22 type  1   force =   0.00000000E+00  0.00000000E+00  0.00000000E+00
     atom   23 type  2   force =   0.00000000E+00  0.00000000E+00  0.00000000E+00
     atom   24 type  2   force =   0.00000000E+00  0.00000000E+00  0.00000000E+00
     atom   25 type  1   force =   0.00000000E+00  0.00000000E+00  0.00000000E+00
     atom   26 type  1   force =   0.00000000E+00  0.00000000E+00  0.00000000E+00
     atom   27 type  1   force =   0.00000000E+00  0.00000000E+00  0.00000000E+00
     atom   28 type  2   force =   0.00000000E+00  0.00000000E+00  0.00000000E+00
     atom   29 type  1   force =   0.00000000E+00  0.00000000E+00  0.00000000E+00
     atom   30 type  2   force =   0.00000000E+00  0.00000000E+00  0.00000000E+00
     atom   31 type  2   force =   0.00000000E+00  0.00000000E+00  0.00000000E+00
     atom   32 type  1   force =   0.00000000E+00  0.00000000E+00  0.00000000E+00
     atom   33 type  2   force =   0.00000000E+00  0.00000000E+00  0.00000000E+00
     atom   34 type  1   force =   0.00000000E+00  0.00000000E+00  0.00000000E+00
     atom   35 type  1   force =   0.00000000E+00  0.00000000E+00  0.00000000E+00
     atom   36 type  2   force =   0.00000000E+00  0.00000000E+00  0.00000000E+00
     atom   37 type  1   force =   0.00000000E+00  0.00000000E+00  0.00000000E+00
     atom   38 type  2   force =   0.00000000E+00  0.00000000E+00  0.00000000E+00
     atom   39 type  2   force =   0.00000000E+00  0.00000000E+00  0.00000000E+00
     atom   40 type  1   force =   0.00000000E+00  0.00000000E+00  0.00000000E+00
     atom   41 type  2   force =   0.00000000E+00  0.00000000E+00  0.00000000E+00
     atom   42 type  1   force =   0.00000000E+00  0.00000000E+00  0.00000000E+00
     atom   43 type  1   force =   0.00000000E+00  0.00000000E+00  0.00000000E+00
     atom   44 type  2   force =   0.00000000E+00  0.00000000E+00  0.00000000E+00
     atom   45 type  2   force =   0.00000000E+00  0.00000000E+00  0.00000000E+00
     atom   46 type  1   force =   0.00000000E+00  0.00000000E+00  0.00000000E+00
     atom   47 type  2   force =   0.00000000E+00  0.00000000E+00  0.00000000E+00
     atom   48 type  1   force =   0.00000000E+00  0.00000000E+00  0.00000000E+00
     atom   49 type  1   force =   0.00000000E+00  0.00000000E+00  0.00000000E+00
     atom   50 type  1   force =   0.00000000E+00  0.00000000E+00  0.00000000E+00
     atom   51 type  1   force =   0.00000000E+00  0.00000000E+00  0.00000000E+00
     atom   52 type  2   force =   0.00000000E+00  0.00000000E+00  0.00000000E+00
     atom   53 type  1   force =   0.00000000E+00  0.00000000E+00  0.00000000E+00
     atom   54 type  1   force =   0.00000000E+00  0.00000000E+00  0.00000000E+00
     atom   55 type  2   force =   0.00000000E+00  0.00000000E+00  0.00000000E+00
     atom   56 type  1   force =   0.00000000E+00  0.00000000E+00  0.00000000E+00
     atom   57 type  1   force =   0.00000000E+00  0.00000000E+00  0.00000000E+00
     atom   58 type  1   force =   0.00000000E+00  0.00000000E+00  0.00000000E+00
     atom   59 type  1   force =   0.00000000E+00  0.00000000E+00  0.00000000E+00
     atom   60 type  2   force =   0.00000000E+00  0.00000000E+00  0.00000000E+00
     atom   61 type  1   force =   0.00000000E+00  0.00000000E+00  0.00000000E+00
     atom   62 type  1   force =   0.00000000E+00  0.00000000E+00  0.00000000E+00
     atom   63 type  2   force =   0.00000000E+00  0.00000000E+00  0.00000000E+00
     atom   64 type  2   force =   0.00000000E+00  0.00000000E+00  0.00000000E+00
     The SCF correction term to forces
     atom    1 type  1   force =   0.10054719E-05  0.10438181E-05 -0.52424046E-05
     atom    2 type  2   force =  -0.53373756E-05 -0.72763986E-05 -0.17935723E-04
     atom    3 type  1   force =   0.13877599E-05 -0.15574185E-05  0.22061572E-05
     atom    4 type  1   force =  -0.28055890E-05  0.96889657E-07  0.40196329E-05
     atom    5 type  1   force =  -0.52441840E-05 -0.29948414E-05  0.52390804E-05
     atom    6 type  1   force =  -0.54359625E-05 -0.47538480E-05  0.51219140E-05
     atom    7 type  1   force =  -0.43032674E-05 -0.30199485E-05  0.46448385E-05
     atom    8 type  1   force =  -0.13912027E-06 -0.23805164E-05 -0.45075515E-06
     atom    9 type  1   force =  -0.71102159E-06  0.41133289E-06 -0.14263279E-05
     atom   10 type  1   force =   0.48889757E-06 -0.26531367E-05 -0.64421940E-06
     atom   11 type  1   force =  -0.79962728E-06  0.17026080E-05  0.29683230E-05
     atom   12 type  1   force =   0.36166909E-05  0.33500149E-06  0.36480804E-06
     atom   13 type  1   force =   0.42388689E-05  0.25401586E-05 -0.82604316E-06
     atom   14 type  1   force =   0.38503834E-05  0.23644772E-05 -0.51024466E-05
     atom   15 type  1   force =   0.35902597E-05  0.24052972E-05 -0.32549825E-05
     atom   16 type  1   force =   0.24045364E-05  0.40780350E-05 -0.66708348E-05
     atom   17 type  2   force =   0.26055887E-04  0.61151769E-05  0.10794572E-04
     atom   18 type  1   force =   0.27374527E-05  0.10680174E-05 -0.64730390E-06
     atom   19 type  2   force =  -0.27859554E-04 -0.17900285E-04 -0.35460354E-05
     atom   20 type  2   force =  -0.35472676E-05 -0.10952246E-06 -0.25282103E-05
     atom   21 type  2   force =  -0.83359481E-05  0.10641343E-04 -0.17317655E-05
     atom   22 type  1   force =  -0.46469044E-05 -0.56939048E-05  0.50671202E-05
     atom   23 type  2   force =  -0.21456019E-04 -0.10660771E-04  0.12061481E-04
     atom   24 type  2   force =   0.48125453E-05 -0.50494113E-05  0.44993239E-05
     atom   25 type  1   force =   0.20342790E-06  0.24324436E-05  0.19520834E-05
     atom   26 type  1   force =   0.89516311E-06 -0.39702534E-06 -0.75687019E-06
     atom   27 type  1   force =  -0.25807938E-05  0.20977426E-06  0.25655559E-06
     atom   28 type  2   force =   0.39046778E-05 -0.10767790E-04 -0.23167533E-04
     atom   29 type  1   force =   0.13134651E-05  0.41990873E-05 -0.47955151E-05
     atom   30 type  2   force =   0.17025052E-04 -0.12829765E-04  0.47889700E-06
     atom   31 type  2   force =  -0.15801944E-05  0.29349217E-04 -0.70662955E-05
     atom   32 type  1   force =   0.59212634E-05  0.20342468E-05 -0.15206117E-05
     atom   33 type  2   force =   0.80576218E-05  0.28142594E-04  0.13058786E-04
     atom   34 type  1   force =   0.21038143E-05  0.36925920E-05 -0.20452773E-05
     atom   35 type  1   force =  -0.13539582E-05 -0.23681052E-05  0.16943448E-05
     atom   36 type  2   force =  -0.13150568E-04 -0.17103730E-04 -0.11891498E-04
     atom   37 type  1   force =  -0.41077540E-05 -0.57341676E-05  0.33443662E-05
     atom   38 type  2   force =  -0.37220481E-04 -0.17360436E-04  0.25819810E-04
     atom   39 type  2   force =  -0.12746129E-04 -0.20873775E-04  0.49014915E-05
     atom   40 type  1   force =  -0.29787441E-05 -0.93671895E-06  0.38014047E-05
     atom   41 type  2   force =   0.16909028E-04  0.27674952E-05  0.96441148E-06
     atom   42 type  1   force =  -0.25678988E-06  0.10799060E-05  0.22781504E-05
     atom   43 type  1   force =  -0.48926631E-06 -0.31669968E-05 -0.15239593E-05
     atom   44 type  2   force =  -0.23550449E-05  0.11834640E-04 -0.13306676E-04
     atom   45 type  2   force =   0.39707517E-04  0.11230594E-04 -0.31225546E-04
     atom   46 type  1   force =   0.24090268E-05  0.46435617E-05 -0.18227368E-05
     atom   47 type  2   force =   0.30285912E-04 -0.18317854E-05 -0.53633623E-05
     atom   48 type  1   force =   0.11719056E-05  0.51477587E-05 -0.22478503E-05
     atom   49 type  1   force =   0.38765726E-05  0.38642013E-05 -0.56641509E-05
     atom   50 type  1   force =   0.17406544E-05  0.14337621E-05 -0.18502921E-05
     atom   51 type  1   force =  -0.27547607E-05  0.24834805E-06  0.23864775E-05
     atom   52 type  2   force =   0.37394942E-05 -0.18785263E-04  0.22614118E-04
     atom   53 type  1   force =  -0.36022824E-05 -0.59447885E-05  0.42767902E-05
     atom   54 type  1   force =  -0.49867195E-05 -0.57695965E-05  0.64563740E-05
     atom   55 type  2   force =  -0.10335185E-04 -0.17660319E-04  0.17355310E-04
     atom   56 type  1   force =  -0.21930222E-05 -0.11462427E-06  0.13722426E-05
     atom   57 type  1   force =  -0.33501632E-06 -0.15194766E-05 -0.27498571E-05
     atom   58 type  1   force =  -0.25353654E-05  0.43921609E-06  0.59623114E-06
     atom   59 type  1   force =   0.15962946E-05 -0.95113675E-06  0.48708238E-06
     atom   60 type  2   force =  -0.17837997E-05  0.16711000E-04  0.17782637E-04
     atom   61 type  1   force =   0.20675902E-05  0.39130400E-05 -0.32727037E-05
     atom   62 type  1   force =   0.23002232E-05  0.38670589E-05 -0.27973574E-05
     atom   63 type  2   force =   0.24823676E-05  0.59619764E-05 -0.28215904E-04
     atom   64 type  2   force =   0.27800781E-04  0.12664313E-04 -0.28796846E-04

     Total force =     0.126199     Total SCF correction =     0.000142


     entering subroutine stress ...

          total   stress  (Ry/bohr**3)                   (kbar)     P=  -12.75
  -0.0000865791   0.0000001094  -0.0000011207        -12.74      0.02     -0.16
   0.0000001094  -0.0000866923   0.0000011877          0.02    -12.75      0.17
  -0.0000011207   0.0000011877  -0.0000867404         -0.16      0.17    -12.76

     kinetic stress (kbar)   5176.64      0.01      0.02
                                0.01   5176.64     -0.11
                                0.02     -0.11   5176.62

     local   stress (kbar)  -5327.17   3065.21  -2573.86
                             3065.21  -5491.74  -3912.40
                            -2573.86  -3912.40  -4101.29

     nonloc. stress (kbar)   2301.69     -0.13      0.33
                               -0.13   2301.69      0.02
                                0.33      0.02   2301.68

     hartree stress (kbar)  13153.46  -1533.51   1302.59
                            -1533.51  13234.55   1937.33
                             1302.59   1937.33  12553.99

     exc-cor stress (kbar)   8127.41     -0.00      0.01
                               -0.00   8127.41      0.00
                                0.01      0.00   8127.41

     corecor stress (kbar) -12461.13     -0.00      0.02
                               -0.00 -12461.13     -0.01
                                0.02     -0.01 -12461.13

     ewald   stress (kbar) -10983.64  -1531.56   1270.72
                            -1531.56 -10900.18   1975.34
                             1270.72   1975.34 -11610.03

     hubbard stress (kbar)      0.00      0.00      0.00
                                0.00      0.00      0.00
                                0.00      0.00      0.00

     london  stress (kbar)      0.00      0.00      0.00
                                0.00      0.00      0.00
                                0.00      0.00      0.00

     XDM     stress (kbar)      0.00      0.00      0.00
                                0.00      0.00      0.00
                                0.00      0.00      0.00

     dft-nl  stress (kbar)      0.00      0.00      0.00
                                0.00      0.00      0.00
                                0.00      0.00      0.00



     Writing output data file SiGe_zns.scf.in.super.228.c.011.save

     init_run     :    119.20s CPU    106.06s WALL (       1 calls)
     electrons    :   7859.92s CPU   7385.84s WALL (       1 calls)
     forces       :    113.12s CPU     92.16s WALL (       1 calls)
     stress       :    556.27s CPU    554.20s WALL (       1 calls)

     Called by init_run:
     wfcinit      :    111.73s CPU     98.32s WALL (       1 calls)
     potinit      :      0.69s CPU      0.73s WALL (       1 calls)

     Called by electrons:
     c_bands      :   6762.92s CPU   6307.94s WALL (      18 calls)
     sum_band     :    957.65s CPU    933.34s WALL (      18 calls)
     v_of_rho     :      5.05s CPU      5.52s WALL (      18 calls)
     v_h          :      0.32s CPU      0.37s WALL (      18 calls)
     v_xc         :      5.48s CPU      5.95s WALL (      20 calls)
     newd         :    130.19s CPU    134.10s WALL (      18 calls)
     mix_rho      :      8.53s CPU      9.41s WALL (      18 calls)

     Called by c_bands:
     init_us_2    :     16.38s CPU     16.95s WALL (     390 calls)
     cegterg      :   6658.59s CPU   6199.74s WALL (     180 calls)

     Called by sum_band:
     sum_band:bec :      4.96s CPU      4.99s WALL (     180 calls)
     addusdens    :    114.76s CPU    115.80s WALL (      18 calls)

     Called by *egterg:
     h_psi        :   3331.45s CPU   3197.11s WALL (     703 calls)
     s_psi        :    658.63s CPU    471.11s WALL (     703 calls)
     g_psi        :      2.15s CPU      2.14s WALL (     513 calls)
     cdiaghg      :   1497.63s CPU   1540.71s WALL (     683 calls)
     cegterg:over :    556.72s CPU    468.11s WALL (     513 calls)
     cegterg:upda :    227.27s CPU    172.63s WALL (     513 calls)
     cegterg:last :    153.38s CPU    108.70s WALL (     180 calls)

     Called by h_psi:
     h_psi:vloc   :   1893.08s CPU   2122.82s WALL (     703 calls)
     h_psi:vnl    :   1433.16s CPU   1068.93s WALL (     703 calls)
     add_vuspsi   :    659.68s CPU    475.89s WALL (     703 calls)

     General routines
     calbec       :   1321.52s CPU   1052.74s WALL (     903 calls)
     fft          :     59.64s CPU     60.36s WALL (     313 calls)
     ffts         :      5.14s CPU      5.76s WALL (     512 calls)
     fftw         :   2175.53s CPU   2443.27s WALL (  296470 calls)
     interpolate  :      1.22s CPU      1.43s WALL (      36 calls)

     Parallel routines
     fft_scatter  :   1528.57s CPU   1740.70s WALL (  297295 calls)

     PWSCF        :     2h24m CPU        2h15m WALL


   This run was terminated on:  15:34:25  13Feb2017            

=------------------------------------------------------------------------------=
   JOB DONE.
=------------------------------------------------------------------------------=
