
     Program PWSCF v.5.1 starts on 18Jan2017 at 21:39:23 

     This program is part of the open-source Quantum ESPRESSO suite
     for quantum simulation of materials; please cite
         "P. Giannozzi et al., J. Phys.:Condens. Matter 21 395502 (2009);
          URL http://www.quantum-espresso.org", 
     in publications or presentations arising from this work. More details at
     http://www.quantum-espresso.org/quote

     Parallel version (MPI), running on    16 processors
     R & G space division:  proc/nbgrp/npool/nimage =      16
     Reading input from /tmp/SiGe_zns.scf.in.super.444.02.30379/SiGe_zns.scf.in.super.444.02.t
Warning: card &IONS ignored
Warning: card   ION_DYNAMICS='BFGS', ignored
Warning: card / ignored
Warning: card &CELL ignored
Warning: card  CELL_DYNAMICS = 'BFGS' ignored
Warning: card / ignored
     Message from routine read_cards :
     DEPRECATED: no units specified in CELL_PARAMETERS card

     Current dimensions of program PWSCF are:
     Max number of different atomic species (ntypx) = 10
     Max number of k-points (npk) =  40000
     Max angular momentum in pseudopotentials (lmaxx) =  3

     Subspace diagonalization in iterative solution of the eigenvalue problem:
     a serial algorithm will be used


     Parallelization info
     --------------------
     sticks:   dense  smooth     PW     G-vecs:    dense   smooth      PW
     Min         756     527    138                54768    32060    4315
     Max         757     528    139                54770    32083    4319
     Sum       12097    8443   2221               876295   513103   69089



     bravais-lattice index     =            0
     lattice parameter (alat)  =    29.598892955  a.u.
     unit-cell volume          =   18336.2874 (a.u.)^3
     number of atoms/cell      =          128
     number of atomic types    =            2
     number of electrons       =      1152.00
     number of Kohn-Sham states=          691
     kinetic-energy cutoff     =      35.0000  Ry
     charge density cutoff     =     200.0000  Ry
     convergence threshold     =      1.0E-09
     mixing beta               =       0.3000
     number of iterations used =            8  local-TF  mixing
     Exchange-correlation      = SLA  PW   PSX  PSC ( 1  4 10  8 0)
     A smooth kinetic-energy cutoff is imposed at      34.5000 Ry
     height of the smooth step-function =             800.0000 Ry
     width of the smooth step-function  =               1.0000 Ry


     celldm(1)=  29.598893  celldm(2)=   0.000000  celldm(3)=   0.000000
     celldm(4)=   0.000000  celldm(5)=   0.000000  celldm(6)=   0.000000

     crystal axes: (cart. coord. in units of alat)
               a(1) = (  -0.000000000000   0.707106781187   0.707106781187 )  
               a(2) = (   0.707106781187  -0.000000000000   0.707106781187 )  
               a(3) = (   0.707106781187   0.707106781187   0.000000000000 )  

     reciprocal axes: (cart. coord. in units 2 pi/alat)
               b(1) = ( -0.707107  0.707107  0.707107 )  
               b(2) = (  0.707107 -0.707107  0.707107 )  
               b(3) = (  0.707107  0.707107 -0.707107 )  


     PseudoPot. # 1 for Si read from file:
     /users/kfg/psuedo/gbrv_1.5/si.pbesol.UPF
     MD5 check sum: ef58ba74faed4df802eb8a9742fc00a8
     Pseudo is Ultrasoft + core correction, Zval =  4.0
     Generated by new atomic code, or converted to UPF format
     Using radial grid of  899 points,  6 beta functions with: 
                l(1) =   0
                l(2) =   0
                l(3) =   1
                l(4) =   1
                l(5) =   2
                l(6) =   2
     Q(r) pseudized with  8 coefficients,  rinner =    0.900   0.900   0.900
                                                       0.900   0.900

     PseudoPot. # 2 for Ge read from file:
     /users/kfg/psuedo/gbrv_1.5/ge.pbesol.UPF
     MD5 check sum: 7bed0412183f5e553a4d27ec7023354d
     Pseudo is Ultrasoft + core correction, Zval = 14.0
     Generated by new atomic code, or converted to UPF format
     Using radial grid of  873 points,  6 beta functions with: 
                l(1) =   0
                l(2) =   0
                l(3) =   1
                l(4) =   1
                l(5) =   2
                l(6) =   2
     Q(r) pseudized with  8 coefficients,  rinner =    1.400   1.400   1.400
                                                       1.400   1.400

     atomic species   valence    mass     pseudopotential
        Si             4.00    28.08550     Si( 1.00)
        Ge            14.00    72.64000     Ge( 1.00)

     No symmetry found


                                    s                        frac. trans.

      isym =  1     identity                                     

 cryst.   s( 1) = (     1          0          0      )
                  (     0          1          0      )
                  (     0          0          1      )

 cart.    s( 1) = (  1.0000000  0.0000000  0.0000000 )
                  (  0.0000000  1.0000000  0.0000000 )
                  (  0.0000000  0.0000000  1.0000000 )


     point group C_1 (1)    
     there are  1 classes
     the character table:

       E    
A      1.00

     the symmetry operations in each class:
     E        1

   Cartesian axes

     site n.     atom                  positions (alat units)
         1           Si  tau(   1) = (   -0.00014489142   -0.00005104632    0.00003813387  )
         2           Ge  tau(   2) = (    0.08841443926    0.08840860145    0.08849702298  )
         3           Si  tau(   3) = (    0.17666252504    0.17685438633   -0.00005371968  )
         4           Ge  tau(   4) = (    0.26499912833    0.26506487883    0.08840792643  )
         5           Si  tau(   5) = (    0.35365166045    0.35371268362    0.00007245690  )
         6           Ge  tau(   6) = (    0.44209497436    0.44179250944    0.08835734923  )
         7           Si  tau(   7) = (    0.53036183526    0.53018043177    0.00009201621  )
         8           Ge  tau(   8) = (    0.61881315546    0.61887648257    0.08831929923  )
         9           Si  tau(   9) = (    0.17686200108   -0.00001306296    0.17678652852  )
        10           Ge  tau(  10) = (    0.26502981561    0.08840354786    0.26518306928  )
        11           Si  tau(  11) = (    0.35367422372    0.17692591945    0.17683878220  )
        12           Ge  tau(  12) = (    0.44203733231    0.26522816512    0.26510273547  )
        13           Si  tau(  13) = (    0.53030239986    0.35368978956    0.17679553573  )
        14           Ge  tau(  14) = (    0.61874225779    0.44209764155    0.26507588224  )
        15           Si  tau(  15) = (    0.70724574742    0.53038983006    0.17660980371  )
        16           Ge  tau(  16) = (    0.79535708331    0.61865218717    0.26504863211  )
        17           Si  tau(  17) = (    0.35362110061   -0.00008758656    0.35346319930  )
        18           Ge  tau(  18) = (    0.44204794555    0.08851089122    0.44195942395  )
        19           Si  tau(  19) = (    0.53016506247    0.17678949482    0.35347891057  )
        20           Ge  tau(  20) = (    0.61860420333    0.26525852711    0.44196156536  )
        21           Si  tau(  21) = (    0.70702043915    0.35365743411    0.35357460369  )
        22           Ge  tau(  22) = (    0.79550467657    0.44207295704    0.44210244506  )
        23           Si  tau(  23) = (    0.88402587468    0.53036806242    0.35372186416  )
        24           Ge  tau(  24) = (    0.97241318186    0.61880537620    0.44186936719  )
        25           Si  tau(  25) = (    0.53049523031    0.00007244907    0.53016974736  )
        26           Ge  tau(  26) = (    0.61872210177    0.08851001913    0.61873114304  )
        27           Si  tau(  27) = (    0.70705127772    0.17672508990    0.53042091396  )
        28           Ge  tau(  28) = (    0.79559955965    0.26526704034    0.61872860234  )
        29           Si  tau(  29) = (    0.88372741730    0.35363743024    0.53026631370  )
        30           Ge  tau(  30) = (    0.97222616508    0.44184567415    0.61856349876  )
        31           Si  tau(  31) = (    1.06052241735    0.53047050289    0.53024615162  )
        32           Ge  tau(  32) = (    1.14917327920    0.61881931937    0.61867198647  )
        33           Si  tau(  33) = (    0.00005050301    0.17684973980    0.17677273927  )
        34           Ge  tau(  34) = (    0.08837718624    0.26501429641    0.26504585096  )
        35           Si  tau(  35) = (    0.17675311216    0.35345062126    0.17668721819  )
        36           Ge  tau(  36) = (    0.26509882056    0.44206759087    0.26520955678  )
        37           Si  tau(  37) = (    0.35355775581    0.53021171711    0.17684313915  )
        38           Ge  tau(  38) = (    0.44201128559    0.61887662481    0.26527017508  )
        39           Si  tau(  39) = (    0.53029778041    0.70713687994    0.17665756146  )
        40           Ge  tau(  40) = (    0.61883001219    0.79545770590    0.26527977529  )
        41           Si  tau(  41) = (    0.17687484126    0.17690519316    0.35341655116  )
        42           Ge  tau(  42) = (    0.26502749958    0.26523774497    0.44209356355  )
        43           Si  tau(  43) = (    0.35358325256    0.35363244307    0.35341835920  )
        44           Ge  tau(  44) = (    0.44190511815    0.44180236737    0.44188948478  )
        45           Si  tau(  45) = (    0.53029340797    0.53026633844    0.35362915769  )
        46           Ge  tau(  46) = (    0.61874608605    0.61857985879    0.44195123466  )
        47           Si  tau(  47) = (    0.70712514315    0.70726331147    0.35368613003  )
        48           Ge  tau(  48) = (    0.79560167517    0.79558427978    0.44188807220  )
        49           Si  tau(  49) = (    0.35352917757    0.17687680231    0.53018692125  )
        50           Ge  tau(  50) = (    0.44183706038    0.26514701267    0.61875763342  )
        51           Si  tau(  51) = (    0.53026633145    0.35343787409    0.53033831783  )
        52           Ge  tau(  52) = (    0.61878630569    0.44208665466    0.61873795715  )
        53           Si  tau(  53) = (    0.70712667910    0.53039152107    0.53025750770  )
        54           Ge  tau(  54) = (    0.79563953204    0.61868793273    0.61879493999  )
        55           Si  tau(  55) = (    0.88397555500    0.70693957066    0.53025559371  )
        56           Ge  tau(  56) = (    0.97210789195    0.79538184563    0.61855593373  )
        57           Si  tau(  57) = (    0.53045896487    0.17691723033    0.70713437685  )
        58           Ge  tau(  58) = (    0.61855577099    0.26511557900    0.79534507685  )
        59           Si  tau(  59) = (    0.70714776072    0.35340586568    0.70723363413  )
        60           Ge  tau(  60) = (    0.79554614074    0.44181472566    0.79533033734  )
        61           Si  tau(  61) = (    0.88395359760    0.53019695987    0.70708904246  )
        62           Ge  tau(  62) = (    0.97220962599    0.61867039282    0.79549232049  )
        63           Si  tau(  63) = (    1.06073588928    0.70708672836    0.70705558975  )
        64           Ge  tau(  64) = (    1.14911508008    0.79535963340    0.79564144175  )
        65           Si  tau(  65) = (    0.00007405508    0.35370541875    0.35339001521  )
        66           Ge  tau(  66) = (    0.08825428609    0.44189346309    0.44194684163  )
        67           Si  tau(  67) = (    0.17694521632    0.53036339830    0.35356102904  )
        68           Ge  tau(  68) = (    0.26526271661    0.61876254175    0.44183599714  )
        69           Si  tau(  69) = (    0.35364249654    0.70723660754    0.35354978741  )
        70           Ge  tau(  70) = (    0.44195328848    0.79544708554    0.44187966057  )
        71           Si  tau(  71) = (    0.53028292287    0.88402162131    0.35359228519  )
        72           Ge  tau(  72) = (    0.61859232883    0.97211181098    0.44198871395  )
        73           Si  tau(  73) = (    0.17680052216    0.35347496564    0.53049452605  )
        74           Ge  tau(  74) = (    0.26525259409    0.44183740449    0.61885714304  )
        75           Si  tau(  75) = (    0.35358445807    0.53039998354    0.53040141286  )
        76           Ge  tau(  76) = (    0.44189038145    0.61871855852    0.61887624129  )
        77           Si  tau(  77) = (    0.53027282528    0.70720812611    0.53017227103  )
        78           Ge  tau(  78) = (    0.61871653127    0.79555298390    0.61880576975  )
        79           Si  tau(  79) = (    0.70697693092    0.88388902123    0.53034156094  )
        80           Ge  tau(  80) = (    0.79560809454    0.97229502917    0.61878300144  )
        81           Si  tau(  81) = (    0.35350974364    0.35342357972    0.70706612879  )
        82           Ge  tau(  82) = (    0.44194019328    0.44180432942    0.79540015609  )
        83           Si  tau(  83) = (    0.53019435455    0.53044824107    0.70725962287  )
        84           Ge  tau(  84) = (    0.61878600759    0.61877962222    0.79556204473  )
        85           Si  tau(  85) = (    0.70717112611    0.70701158607    0.70725893382  )
        86           Ge  tau(  86) = (    0.79539067558    0.79534260957    0.79565820334  )
        87           Si  tau(  87) = (    0.88396069156    0.88389316585    0.70706946455  )
        88           Ge  tau(  88) = (    0.97234854285    0.97223006813    0.79544043932  )
        89           Si  tau(  89) = (    0.53036037117    0.35342724159    0.88383965633  )
        90           Ge  tau(  90) = (    0.61859634553    0.44190792468    0.97239442525  )
        91           Si  tau(  91) = (    0.70717419475    0.53020409680    0.88384767241  )
        92           Ge  tau(  92) = (    0.79533832567    0.61867637700    0.97219639366  )
        93           Si  tau(  93) = (    0.88379525107    0.70724523803    0.88377399194  )
        94           Ge  tau(  94) = (    0.97238279794    0.79553584098    0.97220073200  )
        95           Si  tau(  95) = (    1.06063355247    0.88383523645    0.88399459611  )
        96           Ge  tau(  96) = (    1.14904003192    0.97242858715    0.97219758579  )
        97           Si  tau(  97) = (    0.00012604625    0.53037319422    0.53029543524  )
        98           Ge  tau(  98) = (    0.08842914662    0.61863351845    0.61874330098  )
        99           Si  tau(  99) = (    0.17675624860    0.70716387603    0.53047841232  )
       100           Ge  tau( 100) = (    0.26506691497    0.79558525767    0.61860301949  )
       101           Si  tau( 101) = (    0.35358367802    0.88372991235    0.53037577723  )
       102           Ge  tau( 102) = (    0.44189201875    0.97233764866    0.61859642831  )
       103           Si  tau( 103) = (    0.53030460648    1.06064474053    0.53039581430  )
       104           Ge  tau( 104) = (    0.61878092110    1.14918362901    0.61876471603  )
       105           Si  tau( 105) = (    0.17668873975    0.53034949249    0.70713099663  )
       106           Ge  tau( 106) = (    0.26515209564    0.61855237466    0.79551466685  )
       107           Si  tau( 107) = (    0.35355197211    0.70701391917    0.70694903745  )
       108           Ge  tau( 108) = (    0.44200438432    0.79553629302    0.79559129024  )
       109           Si  tau( 109) = (    0.53032016652    0.88399993391    0.70711718622  )
       110           Ge  tau( 110) = (    0.61856639374    0.97239448359    0.79554747918  )
       111           Si  tau( 111) = (    0.70712221897    1.06055814776    0.70712702963  )
       112           Ge  tau( 112) = (    0.79560141793    1.14888849586    0.79541423115  )
       113           Si  tau( 113) = (    0.35366738084    0.53039790584    0.88396328485  )
       114           Ge  tau( 114) = (    0.44189706077    0.61855177931    0.97239722473  )
       115           Si  tau( 115) = (    0.53019609967    0.70711482221    0.88372255735  )
       116           Ge  tau( 116) = (    0.61880549799    0.79546188491    0.97232774975  )
       117           Si  tau( 117) = (    0.70708332265    0.88401782385    0.88390721375  )
       118           Ge  tau( 118) = (    0.79559252337    0.97214683091    0.97224134174  )
       119           Si  tau( 119) = (    0.88375208598    1.06050181786    0.88394723245  )
       120           Ge  tau( 120) = (    0.97219937327    1.14913575743    0.97213497298  )
       121           Si  tau( 121) = (    0.53020758478    0.53037603342    1.06070813919  )
       122           Ge  tau( 122) = (    0.61883612322    0.61860142313    1.14894575349  )
       123           Si  tau( 123) = (    0.70722409123    0.70708972067    1.06061317261  )
       124           Ge  tau( 124) = (    0.79536959332    0.79564287109    1.14906533768  )
       125           Si  tau( 125) = (    0.88384080675    0.88402325248    1.06060955747  )
       126           Ge  tau( 126) = (    0.97210805579    0.97217674142    1.14889233629  )
       127           Si  tau( 127) = (    1.06056527919    1.06070887549    1.06069437038  )
       128           Ge  tau( 128) = (    1.14909868872    1.14888779067    1.14915177491  )

   Crystallographic axes

     site n.     atom                  positions (cryst. coord.)
         1           Si  tau(   1) = (    0.00009332322   -0.00003939378   -0.00016551363  )
         2           Ge  tau(   2) = (    0.06257271710    0.06258097302    0.06245592609  )
         3           Si  tau(   3) = (    0.00009768087   -0.00017365197    0.25001219085  )
         4           Ge  tau(   4) = (    0.06256033691    0.06246735167    0.31229800963  )
         5           Si  tau(   5) = (    0.00009438466    0.00000808487    0.50013088970  )
         6           Ge  tau(   6) = (    0.06226420581    0.06269195580    0.56252475280  )
         7           Si  tau(   7) = (   -0.00006320635    0.00019333693    0.74985156346  )
         8           Ge  tau(   8) = (    0.06249595443    0.06240639637    0.81272756065  )
         9           Si  tau(   9) = (   -0.00006260406    0.25007651034    0.00004413025  )
        10           Ge  tau(  10) = (    0.06261911488    0.31240637820    0.06240238146  )
        11           Si  tau(  11) = (    0.00006397756    0.25002382658    0.25014705726  )
        12           Ge  tau(  12) = (    0.06243298087    0.31247890305    0.31265628737  )
        13           Si  tau(  13) = (    0.00012934782    0.24989729658    0.50006354946  )
        14           Ge  tau(  14) = (    0.06253034785    0.31234355987    0.56269013272  )
        15           Si  tau(  15) = (   -0.00017402863    0.24993800829    0.75025851965  )
        16           Ge  tau(  16) = (    0.06246845478    0.31236691544    0.81243785870  )
        17           Si  tau(  17) = (   -0.00017358614    0.50004603639    0.00004972004  )
        18           Ge  tau(  18) = (    0.06252405717    0.56250095420    0.06264924561  )
        19           Si  tau(  19) = (    0.00007307447    0.49982159487    0.24994502678  )
        20           Ge  tau(  20) = (    0.06266089614    0.56236714365    0.31247131044  )
        21           Si  tau(  21) = (    0.00014962284    0.49988037701    0.49999751691  )
        22           Ge  tau(  22) = (    0.06269967132    0.56252760245    0.56248590008  )
        23           Si  tau(  23) = (    0.00004529154    0.50019296607    0.75000841539  )
        24           Ge  tau(  24) = (    0.06241034867    0.56248730320    0.81271260682  )
        25           Si  tau(  25) = (   -0.00017892198    0.74995216905    0.00028138043  )
        26           Ge  tau(  26) = (    0.06259242787    0.81242554607    0.06257964159  )
        27           Si  tau(  27) = (    0.00006698150    0.75006146879    0.24986003746  )
        28           Ge  tau(  28) = (    0.06250546975    0.81250891112    0.31263877636  )
        29           Si  tau(  29) = (    0.00012468177    0.74978513074    0.49999416824  )
        30           Ge  tau(  30) = (    0.06235480282    0.81242608631    0.56250934204  )
        31           Si  tau(  31) = (    0.00013734641    0.74974395261    0.75006123321  )
        32           Ge  tau(  32) = (    0.06245027554    0.81248403838    0.81269239858  )
        33           Si  tau(  33) = (    0.25001314191   -0.00001873658    0.00009015862  )
        34           Ge  tau(  34) = (    0.31231701694    0.06251442013    0.06246979526  )
        35           Si  tau(  35) = (    0.24988073703   -0.00000727677    0.24997392518  )
        36           Ge  tau(  36) = (    0.31266729358    0.06239565849    0.31251068891  )
        37           Si  tau(  37) = (    0.24996019686    0.00013376894    0.49987240441  )
        38           Ge  tau(  38) = (    0.31263702037    0.06251165892    0.56258669588  )
        39           Si  tau(  39) = (    0.24995988612   -0.00012836680    0.75008267995  )
        40           Ge  tau(  40) = (    0.31247576799    0.06268648806    0.81247130799  )
        41           Si  tau(  41) = (    0.24992470194    0.24988177788    0.00025702148  )
        42           Ge  tau(  42) = (    0.31275602264    0.31245869076    0.06234679354  )
        43           Si  tau(  43) = (    0.24993930133    0.24986973544    0.25017249576  )
        44           Ge  tau(  44) = (    0.31239039545    0.31253570700    0.31241250437  )
        45           Si  tau(  45) = (    0.25003443438    0.25007271648    0.49987541311  )
        46           Ge  tau(  46) = (    0.31238917456    0.31262425540    0.56241485115  )
        47           Si  tau(  47) = (    0.25019156071    0.24999616120    0.75002980654  )
        48           Ge  tau(  48) = (    0.31244975198    0.31247435278    0.81267632649  )
        49           Si  tau(  49) = (    0.24998667486    0.49981085977    0.00015489784  )
        50           Ge  tau(  50) = (    0.31258898760    0.56246644941    0.06238551375  )
        51           Si  tau(  51) = (    0.24996921956    0.50004242216    0.24986741544  )
        52           Ge  tau(  52) = (    0.31256828380    0.56245932676    0.31263665896  )
        53           Si  tau(  53) = (    0.24997805075    0.49991930818    0.50010883171  )
        54           Ge  tau(  54) = (    0.31243042241    0.56267777405    0.56252644293  )
        55           Si  tau(  55) = (    0.24976398103    0.50013067111    0.74999954758  )
        56           Ge  tau(  56) = (    0.31242090952    0.56234928105    0.81241888384  )
        57           Si  tau(  57) = (    0.25002775516    0.75001127100    0.00017099140  )
        58           Ge  tau(  58) = (    0.31247394072    0.81231385373    0.06245610669  )
        59           Si  tau(  59) = (    0.24995640581    0.75022299135    0.24983496246  )
        60           Ge  tau(  60) = (    0.31225759250    0.81250935714    0.31256278459  )
        61           Si  tau(  61) = (    0.24984373940    0.75013117426    0.49996799198  )
        62           Ge  tau(  62) = (    0.31250802501    0.81248800339    0.56242403515  )
        63           Si  tau(  63) = (    0.24989608234    0.75003152204    0.75007555868  )
        64           Ge  tau(  64) = (    0.31246058362    0.81274633409    0.81234779689  )
        65           Si  tau(  65) = (    0.49993961145   -0.00017065913    0.00027538883  )
        66           Ge  tau(  66) = (    0.56256426880    0.06244294849    0.06236745983  )
        67           Si  tau(  67) = (    0.49990979427    0.00010100812    0.25013731660  )
        68           Ge  tau(  68) = (    0.56238735325    0.06246310624    0.31267502518  )
        69           Si  tau(  69) = (    0.50002624584   -0.00003134151    0.50015735634  )
        70           Ge  tau(  70) = (    0.56241396546    0.06249824345    0.56251809106  )
        71           Si  tau(  71) = (    0.50015853507   -0.00010352980    0.75003683122  )
        72           Ge  tau(  72) = (    0.56250923995    0.06255719373    0.81226446728  )
        73           Si  tau(  73) = (    0.50004397380    0.25018857971   -0.00015488343  )
        74           Ge  tau(  74) = (    0.56246239931    0.31273376555    0.06239005047  )
        75           Si  tau(  75) = (    0.50007789287    0.25002297870    0.25002095734  )
        76           Ge  tau(  76) = (    0.56264799005    0.31257518382    0.31235218671  )
        77           Si  tau(  77) = (    0.50000055909    0.24977625699    0.50014276428  )
        78           Ge  tau(  78) = (    0.56260401084    0.31251950121    0.56247780857  )
        79           Si  tau(  79) = (    0.50010385282    0.24991237535    0.74990398864  )
        80           Ge  tau(  80) = (    0.56248218603    0.31260912678    0.81255063085  )
        81           Si  tau(  81) = (    0.49991032733    0.50003218151   -0.00009390762  )
        82           Ge  tau(  82) = (    0.56233677387    0.56252891439    0.06246890071  )
        83           Si  tau(  83) = (    0.50028760027    0.49992855052    0.24987949639  )
        84           Ge  tau(  84) = (    0.56254280154    0.56255183183    0.31254373231  )
        85           Si  tau(  85) = (    0.49999477631    0.50022040000    0.49987059746  )
        86           Ge  tau(  86) = (    0.56258132329    0.56264929889    0.56220298190  )
        87           Si  tau(  87) = (    0.49992586527    0.50002136104    0.75008783757  )
        88           Ge  tau(  88) = (    0.56237755439    0.56254510295    0.81256339371  )
        89           Si  tau(  89) = (    0.49985839873    0.75007963021   -0.00003680036  )
        90           Ge  tau(  90) = (    0.56264911155    0.81252427262    0.06230306886  )
        91           Si  tau(  91) = (    0.49983792637    0.75011143902    0.24998389815  )
        92           Ge  tau(  92) = (    0.56252780072    0.81236552449    0.31241272235  )
        93           Si  tau(  93) = (    0.50008287130    0.74976229418    0.50011293624  )
        94           Ge  tau(  94) = (    0.56240004778    0.81249941277    0.56265752789  )
        95           Si  tau(  95) = (    0.50006328528    0.75009386161    0.74986849301  )
        96           Ge  tau(  96) = (    0.56256435533    0.81233065580    0.81265734106  )
        97           Si  tau(  97) = (    0.74991685232    0.00003414426    0.00014411207  )
        98           Ge  tau(  98) = (    0.81242869067    0.06260647720    0.06245122126  )
        99           Si  tau(  99) = (    0.75015971278    0.00005005247    0.24992103153  )
       100           Ge  tau( 100) = (    0.81255150761    0.06228527227    0.31257595381  )
       101           Si  tau( 101) = (    0.74990230597    0.00016231135    0.49988052154  )
       102           Ge  tau( 102) = (    0.81249543124    0.06233202732    0.56259765871  )
       103           Si  tau( 103) = (    0.75005358213    0.00003937188    0.74992459479  )
       104           Ge  tau( 104) = (    0.81258407819    0.06248137514    0.81260699561  )
       105           Si  tau( 105) = (    0.75009303941    0.24994120640   -0.00006559433  )
       106           Ge  tau( 106) = (    0.81240554923    0.31262208169    0.06235960806  )
       107           Si  tau( 107) = (    0.74982379799    0.24995311868    0.25004487529  )
       108           Ge  tau( 108) = (    0.81255280639    0.31258318637    0.31250540856  )
       109           Si  tau( 109) = (    0.75009671936    0.24991799558    0.50006797631  )
       110           Ge  tau( 110) = (    0.81273125899    0.31234277558    0.56244220768  )
       111           Si  tau( 111) = (    0.74993125977    0.25009737585    0.74992445648  )
       112           Ge  tau( 112) = (    0.81225448521    0.31263110818    0.81251920730  )
       113           Si  tau( 113) = (    0.75002378571    0.50008908037    0.00007212618  )
       114           Ge  tau( 114) = (    0.81250242102    0.56267492220    0.06226189431  )
       115           Si  tau( 115) = (    0.74998664142    0.49978578457    0.25002473031  )
       116           Ge  tau( 116) = (    0.81245447451    0.56262461626    0.31249851147  )
       117           Si  tau( 117) = (    0.75012837041    0.49990519915    0.50006162546  )
       118           Ge  tau( 118) = (    0.81232119381    0.56263569759    0.56250203908  )
       119           Si  tau( 119) = (    0.75002601626    0.50006414830    0.74975003748  )
       120           Ge  tau( 120) = (    0.81251614870    0.56229031454    0.81260722446  )
       121           Si  tau( 121) = (    0.75015302926    0.74991480691   -0.00008804964  )
       122           Ge  tau( 122) = (    0.81226137549    0.81259329153    0.06257314681  )
       123           Si  tau( 123) = (    0.74987175224    0.75006178090    0.25010412055  )
       124           Ge  tau( 124) = (    0.81270512887    0.81231865573    0.31250381023  )
       125           Si  tau( 125) = (    0.75009321889    0.74983520166    0.50010445422  )
       126           Ge  tau( 126) = (    0.81243812991    0.81234099377    0.56242740282  )
       127           Si  tau( 127) = (    0.75012571999    0.74992264414    0.74994315747  )
       128           Ge  tau( 128) = (    0.81242388521    0.81272214010    0.81234881000  )

     number of k points=     8  gaussian smearing, width (Ry)=  0.0150
                       cart. coord. in units 2pi/alat
        k(    1) = (   0.0000000   0.0000000   0.0000000), wk =   0.2500000
        k(    2) = (  -0.3535534  -0.3535534   0.3535534), wk =   0.2500000
        k(    3) = (  -0.7071068   0.0000000   0.0000000), wk =   0.2500000
        k(    4) = (   0.3535534   0.3535534   0.3535534), wk =   0.2500000
        k(    5) = (   0.3535534  -0.3535534  -0.3535534), wk =   0.2500000
        k(    6) = (  -0.3535534   0.3535534  -0.3535534), wk =   0.2500000
        k(    7) = (   0.0000000  -0.7071068   0.0000000), wk =   0.2500000
        k(    8) = (   0.0000000   0.0000000  -0.7071068), wk =   0.2500000

                       cryst. coord.
        k(    1) = (   0.0000000   0.0000000   0.0000000), wk =   0.2500000
        k(    2) = (   0.0000000   0.0000000  -0.5000000), wk =   0.2500000
        k(    3) = (   0.0000000  -0.5000000  -0.5000000), wk =   0.2500000
        k(    4) = (   0.5000000   0.5000000   0.5000000), wk =   0.2500000
        k(    5) = (  -0.5000000   0.0000000   0.0000000), wk =   0.2500000
        k(    6) = (   0.0000000  -0.5000000   0.0000000), wk =   0.2500000
        k(    7) = (  -0.5000000   0.0000000  -0.5000000), wk =   0.2500000
        k(    8) = (  -0.5000000  -0.5000000   0.0000000), wk =   0.2500000

     Dense  grid:   876295 G-vectors     FFT dimensions: ( 135, 135, 135)

     Smooth grid:   513103 G-vectors     FFT dimensions: ( 120, 120, 120)

     Largest allocated arrays     est. size (Mb)     dimensions
        Kohn-Sham Wavefunctions        42.47 Mb     (    4028,  691)
        NL pseudopotentials           141.61 Mb     (    4028, 2304)
        Each V/rho on FFT grid          2.50 Mb     (  164025)
        Each G-vector array             0.42 Mb     (   54770)
        G-vector shells                 0.02 Mb     (    2932)
     Largest temporary arrays     est. size (Mb)     dimensions
        Auxiliary wavefunctions       169.88 Mb     (    4028, 2764)
        Each subspace H/S matrix      116.57 Mb     (    2764, 2764)
        Each <psi_i|beta_j> matrix     24.29 Mb     (    2304,  691)
        Arrays for rho mixing          20.02 Mb     (  164025,    8)

     Initial potential from superposition of free atoms

     starting charge 1151.90680, renormalised to 1152.00000
     Starting wfc are  832 randomized atomic wfcs

     total cpu time spent up to now is      718.5 secs

     per-process dynamical memory:   585.5 Mb

     Self-consistent Calculation

     iteration #  1     ecut=    35.00 Ry     beta=0.30
     Davidson diagonalization with overlap
     ethr =  1.00E-02,  avg # of iterations =  3.0

     Threshold (ethr) on eigenvalues was too large:
     Diagonalizing with lowered threshold

     Davidson diagonalization with overlap
     ethr =  2.37E-04,  avg # of iterations =  4.1

     total cpu time spent up to now is     5563.1 secs

     total energy              =  -14256.07753318 Ry
     Harris-Foulkes estimate   =  -14256.36447506 Ry
     estimated scf accuracy    <       2.75968418 Ry

     iteration #  2     ecut=    35.00 Ry     beta=0.30
     Davidson diagonalization with overlap
     ethr =  2.40E-04,  avg # of iterations =  1.0

     total cpu time spent up to now is     7237.4 secs

     total energy              =  -14255.54001602 Ry
     Harris-Foulkes estimate   =  -14256.09305092 Ry
     estimated scf accuracy    <       1.70096252 Ry

     iteration #  3     ecut=    35.00 Ry     beta=0.30
     Davidson diagonalization with overlap
     ethr =  1.48E-04,  avg # of iterations =  2.0

     total cpu time spent up to now is     9183.8 secs

     total energy              =  -14255.64033870 Ry
     Harris-Foulkes estimate   =  -14255.63954182 Ry
     estimated scf accuracy    <       0.02575129 Ry

     iteration #  4     ecut=    35.00 Ry     beta=0.30
     Davidson diagonalization with overlap
     ethr =  2.24E-06,  avg # of iterations =  8.1

     total cpu time spent up to now is    15955.1 secs

     total energy              =  -14255.64507953 Ry
     Harris-Foulkes estimate   =  -14255.64730690 Ry
     estimated scf accuracy    <       0.01242432 Ry

     iteration #  5     ecut=    35.00 Ry     beta=0.30
     Davidson diagonalization with overlap
     ethr =  1.08E-06,  avg # of iterations =  2.0

     total cpu time spent up to now is    17823.6 secs

     total energy              =  -14255.64497155 Ry
     Harris-Foulkes estimate   =  -14255.64555398 Ry
     estimated scf accuracy    <       0.00157472 Ry

     iteration #  6     ecut=    35.00 Ry     beta=0.30
     Davidson diagonalization with overlap
     ethr =  1.37E-07,  avg # of iterations =  2.9

     total cpu time spent up to now is    20239.5 secs

     total energy              =  -14255.64513309 Ry
     Harris-Foulkes estimate   =  -14255.64529994 Ry
     estimated scf accuracy    <       0.00068078 Ry

     iteration #  7     ecut=    35.00 Ry     beta=0.30
     Davidson diagonalization with overlap
     ethr =  5.91E-08,  avg # of iterations =  2.0

     total cpu time spent up to now is    22383.9 secs

     total energy              =  -14255.64517584 Ry
     Harris-Foulkes estimate   =  -14255.64518210 Ry
     estimated scf accuracy    <       0.00003683 Ry

     iteration #  8     ecut=    35.00 Ry     beta=0.30
     Davidson diagonalization with overlap
     ethr =  3.20E-09,  avg # of iterations =  2.0

     total cpu time spent up to now is    24235.5 secs

     total energy              =  -14255.64517540 Ry
     Harris-Foulkes estimate   =  -14255.64517734 Ry
     estimated scf accuracy    <       0.00000962 Ry

     iteration #  9     ecut=    35.00 Ry     beta=0.30
     Davidson diagonalization with overlap
     ethr =  8.35E-10,  avg # of iterations =  2.0

     total cpu time spent up to now is    26434.3 secs

     total energy              =  -14255.64517717 Ry
     Harris-Foulkes estimate   =  -14255.64517666 Ry
     estimated scf accuracy    <       0.00000042 Ry

     iteration # 10     ecut=    35.00 Ry     beta=0.30
     Davidson diagonalization with overlap
     ethr =  3.68E-11,  avg # of iterations =  2.1

     total cpu time spent up to now is    28806.3 secs

     total energy              =  -14255.64517748 Ry
     Harris-Foulkes estimate   =  -14255.64517724 Ry
     estimated scf accuracy    <       0.00000016 Ry

     iteration # 11     ecut=    35.00 Ry     beta=0.30
     Davidson diagonalization with overlap
     ethr =  1.37E-11,  avg # of iterations =  2.4

     total cpu time spent up to now is    31096.3 secs

     total energy              =  -14255.64517768 Ry
     Harris-Foulkes estimate   =  -14255.64517752 Ry
     estimated scf accuracy    <       0.00000002 Ry

     iteration # 12     ecut=    35.00 Ry     beta=0.30
     Davidson diagonalization with overlap
     ethr =  1.79E-12,  avg # of iterations =  2.0

     total cpu time spent up to now is    33308.8 secs

     total energy              =  -14255.64517777 Ry
     Harris-Foulkes estimate   =  -14255.64517769 Ry
     estimated scf accuracy    <          4.7E-09 Ry

     iteration # 13     ecut=    35.00 Ry     beta=0.30
     Davidson diagonalization with overlap
     ethr =  4.12E-13,  avg # of iterations =  2.5

     total cpu time spent up to now is    35555.6 secs

     End of self-consistent calculation

          k = 0.0000 0.0000 0.0000 ( 64071 PWs)   bands (ev):

   -17.0169 -17.0168 -17.0168 -17.0142 -17.0138 -17.0137 -17.0134 -17.0133
   -17.0132 -17.0130 -17.0128 -17.0127 -17.0123 -17.0123 -17.0122 -17.0121
   -17.0118 -17.0117 -17.0116 -17.0115 -17.0114 -17.0114 -17.0112 -17.0111
   -17.0110 -17.0109 -17.0107 -17.0106 -17.0105 -17.0104 -17.0103 -17.0102
   -17.0101 -17.0101 -17.0099 -17.0098 -17.0097 -17.0096 -17.0095 -17.0094
   -17.0093 -17.0092 -17.0090 -17.0090 -17.0088 -17.0088 -17.0088 -17.0085
   -17.0085 -17.0084 -17.0083 -17.0083 -17.0080 -17.0079 -17.0079 -17.0078
   -17.0077 -17.0075 -17.0075 -17.0073 -17.0072 -17.0072 -17.0070 -17.0070
   -17.0069 -17.0068 -17.0065 -17.0065 -17.0063 -17.0063 -17.0062 -17.0061
   -17.0060 -17.0058 -17.0057 -17.0056 -17.0056 -17.0054 -17.0054 -17.0049
   -17.0047 -17.0047 -17.0042 -17.0041 -17.0040 -17.0040 -17.0037 -17.0037
   -17.0037 -17.0035 -17.0035 -17.0034 -17.0033 -17.0033 -17.0032 -17.0032
   -17.0031 -17.0030 -17.0030 -17.0028 -17.0028 -17.0027 -17.0026 -17.0025
   -17.0025 -17.0024 -17.0024 -17.0023 -17.0022 -17.0022 -17.0020 -17.0019
   -17.0019 -17.0018 -17.0018 -17.0017 -17.0015 -17.0014 -17.0013 -17.0012
   -17.0011 -17.0011 -17.0011 -17.0010 -17.0010 -17.0009 -17.0008 -17.0008
   -17.0006 -17.0006 -17.0005 -17.0004 -17.0004 -17.0004 -17.0003 -17.0002
   -17.0002 -17.0000 -16.9999 -16.9999 -16.9998 -16.9997 -16.9996 -16.9996
   -16.9995 -16.9995 -16.9994 -16.9993 -16.9993 -16.9993 -16.9992 -16.9991
   -16.9990 -16.9990 -16.9989 -16.9988 -16.9986 -16.9986 -16.9985 -16.9984
   -16.9983 -16.9983 -16.9982 -16.9982 -16.9981 -16.9979 -16.9978 -16.9977
   -16.9976 -16.9975 -16.9973 -16.9972 -16.9972 -16.9970 -16.9968 -16.9966
   -16.9965 -16.9965 -16.9962 -16.9960 -16.9960 -16.9959 -16.9957 -16.9953
   -16.9952 -16.9949 -16.9947 -16.9946 -16.9945 -16.9944 -16.9942 -16.9941
   -16.9866 -16.9864 -16.9859 -16.9851 -16.9850 -16.9847 -16.9846 -16.9843
   -16.9838 -16.9837 -16.9833 -16.9827 -16.9826 -16.9826 -16.9825 -16.9824
   -16.9823 -16.9821 -16.9821 -16.9819 -16.9819 -16.9818 -16.9816 -16.9816
   -16.9815 -16.9813 -16.9813 -16.9812 -16.9811 -16.9810 -16.9809 -16.9809
   -16.9806 -16.9806 -16.9806 -16.9805 -16.9804 -16.9804 -16.9803 -16.9801
   -16.9800 -16.9800 -16.9799 -16.9799 -16.9798 -16.9797 -16.9796 -16.9795
   -16.9794 -16.9794 -16.9793 -16.9792 -16.9791 -16.9791 -16.9790 -16.9789
   -16.9788 -16.9787 -16.9786 -16.9786 -16.9786 -16.9785 -16.9784 -16.9783
   -16.9783 -16.9781 -16.9780 -16.9780 -16.9779 -16.9779 -16.9778 -16.9778
   -16.9778 -16.9777 -16.9775 -16.9775 -16.9774 -16.9773 -16.9773 -16.9771
   -16.9771 -16.9770 -16.9770 -16.9769 -16.9768 -16.9767 -16.9767 -16.9767
   -16.9766 -16.9765 -16.9765 -16.9765 -16.9763 -16.9762 -16.9761 -16.9760
   -16.9760 -16.9759 -16.9758 -16.9758 -16.9757 -16.9756 -16.9756 -16.9755
   -16.9755 -16.9752 -16.9751 -16.9751 -16.9750 -16.9749 -16.9748 -16.9746
   -16.9746 -16.9745 -16.9745 -16.9744 -16.9743 -16.9740 -16.9739 -16.9738
   -16.9737 -16.9736 -16.9734 -16.9732 -16.9725 -16.9725 -16.9721 -16.9720
    -5.0839  -4.3167  -4.3160  -4.3155  -4.3146  -4.3130  -4.3128  -4.3119
    -4.3106  -4.0423  -4.0418  -4.0405  -4.0390  -4.0386  -4.0370  -3.1343
    -3.1333  -3.1325  -3.1321  -3.1306  -3.1303  -3.1289  -3.1283  -3.1272
    -3.1260  -3.1255  -3.1240  -2.8923  -2.8914  -2.8906  -2.8881  -2.5084
    -2.5070  -2.5067  -2.5060  -2.5054  -2.5050  -2.5040  -2.5038  -2.5036
    -2.5030  -2.5025  -2.5023  -2.5018  -2.5015  -2.5010  -2.5000  -2.4992
    -2.4987  -2.4979  -2.4971  -2.4962  -2.4952  -2.4939  -2.4921  -1.4548
    -1.4543  -1.4520  -1.3569  -1.3560  -1.3547  -1.3535  -1.3528  -1.3518
    -0.5964  -0.5954  -0.5945  -0.4248  -0.4242  -0.4230  -0.4220  -0.4217
    -0.4199   0.0787   0.0803   0.0815   0.0824   0.5107   0.5126   0.5133
     0.5136   0.5145   0.5149   0.5158   0.5165   0.5170   0.5172   0.5178
     0.5185   0.5189   0.5192   0.5200   0.5202   0.5210   0.5217   0.5223
     0.5229   0.5241   0.5244   0.5250   0.5256   1.3804   1.3808   1.3821
     1.3829   1.3831   1.3838   1.3843   1.3860   1.3867   1.3868   1.3877
     1.3896   3.0542   3.0544   3.0557   3.0560   3.0568   3.0573   3.0579
     3.0583   3.2783   3.2789   3.2802   3.2814   3.2830   3.2845   3.3804
     3.3809   3.3821   3.3823   3.3832   3.3834   3.4555   3.4566   3.4568
     3.4577   3.4583   3.4593   3.4873   3.4880   3.4889   3.4899   3.4903
     3.4905   3.4916   3.4923   3.4926   3.4929   3.4933   3.4941   3.6681
     3.6694   3.6698   3.6700   3.6704   3.6706   3.6710   3.6714   3.6717
     3.6721   3.6721   3.6727   3.6733   3.6735   3.6744   3.6747   3.6750
     3.6753   3.6756   3.6757   3.6770   3.6773   3.6781   3.6784   4.3564
     4.3573   4.3579   4.3583   4.3584   4.3587   5.0206   5.0218   5.0221
     5.0227   5.0234   5.0236   5.0237   5.0242   5.0243   5.0248   5.0253
     5.0255   5.0257   5.0262   5.0266   5.0271   5.0274   5.0279   5.0283
     5.0289   5.0296   5.0304   5.0307   5.0317   5.3652   5.3661   5.3666
     5.3673   5.3685   5.3690   5.3696   5.3704   5.3712   5.3712   5.3725
     5.3732   5.9214   5.9226   5.9237   5.9246   5.9249   5.9261   5.9265
     5.9272   5.9282   5.9285   5.9291   5.9303   6.0384   6.0392   6.0406
     6.0416   6.0424   6.0431   6.0438   6.0442   6.5239   6.5247   6.5254
     6.5259   6.5274   6.5279   6.5283   6.5287   6.5289   6.5298   6.5302
     6.5313   6.5320   6.5325   6.5337   6.5351   7.3625   7.3641   7.3659
     7.8693   7.8724   7.8731   8.1785   8.1800   8.1815   8.1910   8.1913
     8.1919   8.1922   8.3572   8.3580   8.3594   8.3604   8.3612   8.3624
     8.6978   8.7001   8.7007   8.7009   8.7010   8.7018   8.7025   8.7032
     8.7702   8.7708   8.7722   8.7726   8.7731   8.7733   8.7743   8.7747
     8.7756   8.7758   8.7760   8.7763   8.7774   8.7775   8.7777   8.7785
     8.7789   8.7793   8.7796   8.7801   8.7819   8.7822   8.7828   8.7830
     9.0004   9.5673   9.5687   9.5687   9.5695   9.5698   9.5702   9.5707
     9.5715   9.5722   9.5736   9.5743   9.5755   9.8724   9.8736   9.8747
    10.3422  10.3435  10.3441  10.3445  10.3461  10.3465  10.8576  10.8590
    10.8595  10.8600  10.8609  10.8621  10.8632  10.8636  10.8879  10.8884
    10.8893  10.8896  10.8903  10.8907  10.8911  10.8919  10.8923  10.8926
    10.8928  10.8934  10.8940  10.8948  10.8953  10.8959  11.7423  11.7430
    11.7434  11.7438  11.7441  11.7445  11.7447  11.7453  11.7459  11.7462
    11.7467  11.7474  11.7475  11.7482  11.7487  11.7490  11.7498  11.7503
    11.7513  11.7525  11.7535

     occupation numbers 
     1.0000   1.0000   1.0000   1.0000   1.0000   1.0000   1.0000   1.0000
     1.0000   1.0000   1.0000   1.0000   1.0000   1.0000   1.0000   1.0000
     1.0000   1.0000   1.0000   1.0000   1.0000   1.0000   1.0000   1.0000
     1.0000   1.0000   1.0000   1.0000   1.0000   1.0000   1.0000   1.0000
     1.0000   1.0000   1.0000   1.0000   1.0000   1.0000   1.0000   1.0000
     1.0000   1.0000   1.0000   1.0000   1.0000   1.0000   1.0000   1.0000
     1.0000   1.0000   1.0000   1.0000   1.0000   1.0000   1.0000   1.0000
     1.0000   1.0000   1.0000   1.0000   1.0000   1.0000   1.0000   1.0000
     1.0000   1.0000   1.0000   1.0000   1.0000   1.0000   1.0000   1.0000
     1.0000   1.0000   1.0000   1.0000   1.0000   1.0000   1.0000   1.0000
     1.0000   1.0000   1.0000   1.0000   1.0000   1.0000   1.0000   1.0000
     1.0000   1.0000   1.0000   1.0000   1.0000   1.0000   1.0000   1.0000
     1.0000   1.0000   1.0000   1.0000   1.0000   1.0000   1.0000   1.0000
     1.0000   1.0000   1.0000   1.0000   1.0000   1.0000   1.0000   1.0000
     1.0000   1.0000   1.0000   1.0000   1.0000   1.0000   1.0000   1.0000
     1.0000   1.0000   1.0000   1.0000   1.0000   1.0000   1.0000   1.0000
     1.0000   1.0000   1.0000   1.0000   1.0000   1.0000   1.0000   1.0000
     1.0000   1.0000   1.0000   1.0000   1.0000   1.0000   1.0000   1.0000
     1.0000   1.0000   1.0000   1.0000   1.0000   1.0000   1.0000   1.0000
     1.0000   1.0000   1.0000   1.0000   1.0000   1.0000   1.0000   1.0000
     1.0000   1.0000   1.0000   1.0000   1.0000   1.0000   1.0000   1.0000
     1.0000   1.0000   1.0000   1.0000   1.0000   1.0000   1.0000   1.0000
     1.0000   1.0000   1.0000   1.0000   1.0000   1.0000   1.0000   1.0000
     1.0000   1.0000   1.0000   1.0000   1.0000   1.0000   1.0000   1.0000
     1.0000   1.0000   1.0000   1.0000   1.0000   1.0000   1.0000   1.0000
     1.0000   1.0000   1.0000   1.0000   1.0000   1.0000   1.0000   1.0000
     1.0000   1.0000   1.0000   1.0000   1.0000   1.0000   1.0000   1.0000
     1.0000   1.0000   1.0000   1.0000   1.0000   1.0000   1.0000   1.0000
     1.0000   1.0000   1.0000   1.0000   1.0000   1.0000   1.0000   1.0000
     1.0000   1.0000   1.0000   1.0000   1.0000   1.0000   1.0000   1.0000
     1.0000   1.0000   1.0000   1.0000   1.0000   1.0000   1.0000   1.0000
     1.0000   1.0000   1.0000   1.0000   1.0000   1.0000   1.0000   1.0000
     1.0000   1.0000   1.0000   1.0000   1.0000   1.0000   1.0000   1.0000
     1.0000   1.0000   1.0000   1.0000   1.0000   1.0000   1.0000   1.0000
     1.0000   1.0000   1.0000   1.0000   1.0000   1.0000   1.0000   1.0000
     1.0000   1.0000   1.0000   1.0000   1.0000   1.0000   1.0000   1.0000
     1.0000   1.0000   1.0000   1.0000   1.0000   1.0000   1.0000   1.0000
     1.0000   1.0000   1.0000   1.0000   1.0000   1.0000   1.0000   1.0000
     1.0000   1.0000   1.0000   1.0000   1.0000   1.0000   1.0000   1.0000
     1.0000   1.0000   1.0000   1.0000   1.0000   1.0000   1.0000   1.0000
     1.0000   1.0000   1.0000   1.0000   1.0000   1.0000   1.0000   1.0000
     1.0000   1.0000   1.0000   1.0000   1.0000   1.0000   1.0000   1.0000
     1.0000   1.0000   1.0000   1.0000   1.0000   1.0000   1.0000   1.0000
     1.0000   1.0000   1.0000   1.0000   1.0000   1.0000   1.0000   1.0000
     1.0000   1.0000   1.0000   1.0000   1.0000   1.0000   1.0000   1.0000
     1.0000   1.0000   1.0000   1.0000   1.0000   1.0000   1.0000   1.0000
     1.0000   1.0000   1.0000   1.0000   1.0000   1.0000   1.0000   1.0000
     1.0000   1.0000   1.0000   1.0000   1.0000   1.0000   1.0000   1.0000
     1.0000   1.0000   1.0000   1.0000   1.0000   1.0000   1.0000   1.0000
     1.0000   1.0000   1.0000   1.0000   1.0000   1.0000   1.0000   1.0000
     1.0000   1.0000   1.0000   1.0000   1.0000   1.0000   1.0000   1.0000
     1.0000   1.0000   1.0000   1.0000   1.0000   1.0000   1.0000   1.0000
     1.0000   1.0000   1.0000   1.0000   1.0000   1.0000   1.0000   1.0000
     1.0000   1.0000   1.0000   1.0000   1.0000   1.0000   1.0000   1.0000
     1.0000   1.0000   1.0000   1.0000   1.0000   1.0000   1.0000   1.0000
     1.0000   1.0000   1.0000   1.0000   1.0000   1.0000   1.0000   1.0000
     1.0000   1.0000   1.0000   1.0000   1.0000   1.0000   1.0000   1.0000
     1.0000   1.0000   1.0000   1.0000   1.0000   1.0000   1.0000   1.0000
     1.0000   1.0000   1.0000   1.0000   1.0000   1.0000   1.0000   1.0000
     1.0000   1.0000   1.0000   1.0000   1.0000   1.0000   1.0000   1.0000
     1.0000   1.0000   1.0000   1.0000   1.0000   1.0000   1.0000   1.0000
     1.0000   1.0000   1.0000   1.0000   1.0000   1.0000   1.0000   1.0000
     1.0000   1.0000   1.0000   1.0000   1.0000   1.0000   1.0000   1.0000
     1.0000   1.0000   1.0000   1.0000   1.0000   1.0000   1.0000   1.0000
     1.0000   1.0000   1.0000   1.0000   1.0000   1.0000   1.0000   1.0000
     1.0000   1.0000   1.0000   1.0000   1.0000   1.0000   1.0000   1.0000
     1.0000   1.0000   1.0000   1.0000   1.0000   1.0000   1.0000   1.0000
     1.0000   1.0000   1.0000   1.0000   1.0000   1.0000   1.0000   1.0000
     1.0000   1.0000   1.0000   1.0000   1.0000   1.0000   1.0000   1.0000
     1.0000   1.0000   1.0000   1.0000   1.0000   1.0000   1.0000   1.0000
     1.0000   1.0000   1.0000   1.0000   1.0000   1.0000   1.0000   1.0000
     1.0000   1.0000   1.0000   1.0000   1.0000   0.9337   0.9322   0.9306
     0.0223   0.0212   0.0209   0.0000   0.0000   0.0000   0.0000   0.0000
     0.0000   0.0000   0.0000   0.0000   0.0000   0.0000   0.0000   0.0000
     0.0000   0.0000   0.0000   0.0000   0.0000   0.0000   0.0000   0.0000
     0.0000   0.0000   0.0000   0.0000   0.0000   0.0000   0.0000   0.0000
     0.0000   0.0000   0.0000   0.0000   0.0000   0.0000   0.0000   0.0000
     0.0000   0.0000   0.0000   0.0000   0.0000   0.0000   0.0000   0.0000
     0.0000   0.0000   0.0000   0.0000   0.0000   0.0000   0.0000   0.0000
     0.0000   0.0000   0.0000   0.0000   0.0000   0.0000   0.0000   0.0000
     0.0000   0.0000   0.0000   0.0000   0.0000   0.0000   0.0000   0.0000
     0.0000   0.0000   0.0000   0.0000   0.0000   0.0000   0.0000   0.0000
     0.0000   0.0000   0.0000   0.0000   0.0000   0.0000   0.0000   0.0000
     0.0000   0.0000   0.0000   0.0000   0.0000   0.0000   0.0000   0.0000
     0.0000   0.0000   0.0000   0.0000   0.0000   0.0000   0.0000   0.0000
     0.0000   0.0000   0.0000   0.0000   0.0000   0.0000   0.0000   0.0000
     0.0000   0.0000   0.0000

          k =-0.3536-0.3536 0.3536 ( 64114 PWs)   bands (ev):

   -17.0157 -17.0156 -17.0153 -17.0147 -17.0144 -17.0143 -17.0141 -17.0139
   -17.0138 -17.0132 -17.0131 -17.0128 -17.0125 -17.0124 -17.0121 -17.0120
   -17.0119 -17.0116 -17.0114 -17.0113 -17.0112 -17.0110 -17.0110 -17.0108
   -17.0107 -17.0106 -17.0105 -17.0104 -17.0103 -17.0102 -17.0101 -17.0100
   -17.0100 -17.0099 -17.0098 -17.0096 -17.0096 -17.0095 -17.0094 -17.0094
   -17.0092 -17.0091 -17.0091 -17.0090 -17.0088 -17.0088 -17.0088 -17.0087
   -17.0086 -17.0086 -17.0085 -17.0085 -17.0084 -17.0083 -17.0082 -17.0082
   -17.0081 -17.0080 -17.0078 -17.0078 -17.0077 -17.0075 -17.0073 -17.0073
   -17.0072 -17.0071 -17.0069 -17.0065 -17.0064 -17.0061 -17.0060 -17.0058
   -17.0056 -17.0054 -17.0053 -17.0053 -17.0051 -17.0051 -17.0050 -17.0047
   -17.0046 -17.0046 -17.0045 -17.0044 -17.0044 -17.0043 -17.0041 -17.0041
   -17.0040 -17.0040 -17.0038 -17.0038 -17.0037 -17.0036 -17.0035 -17.0034
   -17.0034 -17.0033 -17.0032 -17.0032 -17.0031 -17.0031 -17.0029 -17.0028
   -17.0028 -17.0026 -17.0026 -17.0025 -17.0024 -17.0024 -17.0023 -17.0022
   -17.0021 -17.0021 -17.0021 -17.0020 -17.0019 -17.0017 -17.0016 -17.0015
   -17.0014 -17.0014 -17.0012 -17.0011 -17.0010 -17.0010 -17.0009 -17.0008
   -17.0008 -17.0007 -17.0006 -17.0006 -17.0005 -17.0004 -17.0003 -17.0003
   -17.0002 -17.0000 -17.0000 -16.9999 -16.9999 -16.9998 -16.9997 -16.9996
   -16.9996 -16.9995 -16.9994 -16.9994 -16.9993 -16.9992 -16.9992 -16.9991
   -16.9990 -16.9989 -16.9989 -16.9987 -16.9987 -16.9986 -16.9985 -16.9984
   -16.9984 -16.9982 -16.9981 -16.9979 -16.9977 -16.9975 -16.9974 -16.9973
   -16.9971 -16.9969 -16.9968 -16.9966 -16.9966 -16.9964 -16.9964 -16.9963
   -16.9963 -16.9962 -16.9961 -16.9960 -16.9958 -16.9958 -16.9956 -16.9955
   -16.9955 -16.9951 -16.9949 -16.9948 -16.9947 -16.9946 -16.9944 -16.9943
   -16.9859 -16.9858 -16.9852 -16.9850 -16.9849 -16.9849 -16.9848 -16.9846
   -16.9839 -16.9837 -16.9833 -16.9832 -16.9831 -16.9830 -16.9825 -16.9824
   -16.9823 -16.9823 -16.9822 -16.9820 -16.9820 -16.9819 -16.9819 -16.9816
   -16.9816 -16.9814 -16.9813 -16.9812 -16.9811 -16.9811 -16.9809 -16.9808
   -16.9807 -16.9806 -16.9805 -16.9804 -16.9803 -16.9802 -16.9802 -16.9801
   -16.9800 -16.9799 -16.9799 -16.9798 -16.9797 -16.9796 -16.9796 -16.9795
   -16.9794 -16.9794 -16.9793 -16.9793 -16.9792 -16.9791 -16.9790 -16.9789
   -16.9789 -16.9788 -16.9787 -16.9787 -16.9786 -16.9785 -16.9784 -16.9783
   -16.9783 -16.9782 -16.9781 -16.9781 -16.9780 -16.9780 -16.9779 -16.9778
   -16.9777 -16.9777 -16.9776 -16.9775 -16.9775 -16.9774 -16.9773 -16.9772
   -16.9772 -16.9772 -16.9771 -16.9770 -16.9769 -16.9768 -16.9768 -16.9767
   -16.9766 -16.9765 -16.9765 -16.9764 -16.9764 -16.9763 -16.9762 -16.9762
   -16.9760 -16.9760 -16.9759 -16.9758 -16.9757 -16.9757 -16.9757 -16.9756
   -16.9755 -16.9753 -16.9752 -16.9752 -16.9751 -16.9749 -16.9748 -16.9747
   -16.9747 -16.9746 -16.9745 -16.9744 -16.9742 -16.9740 -16.9738 -16.9738
   -16.9737 -16.9736 -16.9734 -16.9732 -16.9725 -16.9724 -16.9723 -16.9722
    -4.8875  -4.8862  -4.3715  -4.3705  -4.3693  -4.3679  -4.3665  -4.3661
    -3.8855  -3.8830  -3.8829  -3.8820  -3.8812  -3.8794  -3.4687  -3.4665
    -3.3630  -3.3627  -3.3604  -3.3596  -3.3594  -3.3566  -2.9703  -2.9697
    -2.9688  -2.9678  -2.9667  -2.9667  -2.9657  -2.9650  -2.9647  -2.9624
    -2.9623  -2.9608  -2.8034  -2.8014  -2.8010  -2.7997  -2.7986  -2.7973
    -2.3305  -2.3301  -2.3292  -2.3265  -2.3256  -2.3255  -1.9675  -1.9664
    -1.9650  -1.9642  -1.9627  -1.9608  -1.8397  -1.8390  -1.8374  -1.8361
    -1.8357  -1.8354  -1.8346  -1.8338  -1.8331  -1.8326  -1.8315  -1.8293
    -0.0271  -0.0268  -0.0259  -0.0253  -0.0240  -0.0237  -0.0235  -0.0221
    -0.0215  -0.0206  -0.0198  -0.0181   0.0367   0.0404   0.0409   0.0424
     0.0430   0.0441   0.2638   0.2651   0.2665   0.2671   0.2683   0.2702
     0.2902   0.2921   0.2942   0.2977   0.2979   0.3001   1.0497   1.0521
     1.0532   1.0535   1.0545   1.0554   1.0556   1.0572   1.0578   1.0588
     1.0594   1.0603   1.0606   1.0617   1.8784   1.8795   1.8805   1.8831
     1.8837   1.8854   2.3097   2.3100   2.3117   2.3125   2.3128   2.3139
     3.1920   3.1921   3.1925   3.1934   3.1939   3.1943   3.1947   3.1951
     3.1952   3.1956   3.1957   3.1970   3.2209   3.2226   3.2236   3.2238
     3.2243   3.2253   3.6977   3.6991   3.7000   3.7008   3.7021   3.7033
     3.8073   3.8080   3.8088   3.8092   3.8098   3.8102   3.8699   3.8711
     3.8722   3.8724   3.8730   3.8733   3.8737   3.8742   3.8747   3.8758
     3.8765   3.8769   4.2895   4.2900   4.2911   4.2913   4.2916   4.2916
     4.2923   4.2930   4.2935   4.2947   4.2954   4.2955   4.5317   4.5323
     4.5325   4.5329   4.5347   4.5356   4.5528   4.5539   4.5547   4.5554
     4.5558   4.5564   4.8633   4.8645   4.8652   4.8657   4.8665   4.8676
     4.8909   4.8910   4.8923   4.8938   4.8948   4.8955   5.0286   5.0293
     5.0296   5.0317   5.0322   5.0345   5.3147   5.3157   5.3164   5.3169
     5.3175   5.3180   5.3192   5.3198   5.3202   5.3218   5.3223   5.3227
     5.3476   5.3479   5.3493   5.3507   5.3521   5.3526   5.4567   5.4584
     5.6763   5.6772   5.6775   5.6781   5.6805   5.6816   5.9572   5.9582
     5.9589   5.9596   5.9612   5.9626   5.9630   5.9635   5.9643   5.9651
     5.9656   5.9667   6.1650   6.1658   6.1665   6.1691   6.4967   6.4983
     6.4993   6.5015   6.5022   6.5045   7.0435   7.0442   7.0451   7.0483
     8.1706   8.1716   8.1720   8.1740   8.1749   8.1765   8.3214   8.3237
     8.5990   8.5995   8.6013   8.6023   8.6030   8.6046   9.0575   9.0583
     9.0600   9.0609   9.0625   9.0631   9.1655   9.1665   9.1671   9.1685
     9.1692   9.1707   9.2040   9.2063   9.2933   9.2940   9.2944   9.2954
     9.2964   9.2976   9.3684   9.3687   9.3696   9.3704   9.3721   9.3727
     9.5417   9.5418   9.5430   9.5438   9.5446   9.5453   9.6551   9.6562
     9.6570   9.6578   9.6586   9.6589   9.6596   9.6602   9.6610   9.6624
     9.6626   9.6635  10.0513  10.0517  10.0526  10.0534  10.0534  10.0542
    10.0553  10.0560  10.0568  10.0571  10.0580  10.0586  10.1752  10.1763
    10.1771  10.1777  10.1793  10.1797  10.3120  10.3133  10.3142  10.3155
    10.5143  10.5149  10.5164  10.5175  10.5185  10.5194  10.7916  10.7919
    10.7926  10.7934  10.7938  10.7947  10.7948  10.7958  10.7962  10.7968
    10.7978  10.7979  10.7984  10.7990  10.7994  10.8001  10.8022  10.8039
    10.9348  10.9356  10.9361  10.9392  11.0406  11.0408  11.0420  11.0429
    11.0438  11.0455  11.2032

     occupation numbers 
     1.0000   1.0000   1.0000   1.0000   1.0000   1.0000   1.0000   1.0000
     1.0000   1.0000   1.0000   1.0000   1.0000   1.0000   1.0000   1.0000
     1.0000   1.0000   1.0000   1.0000   1.0000   1.0000   1.0000   1.0000
     1.0000   1.0000   1.0000   1.0000   1.0000   1.0000   1.0000   1.0000
     1.0000   1.0000   1.0000   1.0000   1.0000   1.0000   1.0000   1.0000
     1.0000   1.0000   1.0000   1.0000   1.0000   1.0000   1.0000   1.0000
     1.0000   1.0000   1.0000   1.0000   1.0000   1.0000   1.0000   1.0000
     1.0000   1.0000   1.0000   1.0000   1.0000   1.0000   1.0000   1.0000
     1.0000   1.0000   1.0000   1.0000   1.0000   1.0000   1.0000   1.0000
     1.0000   1.0000   1.0000   1.0000   1.0000   1.0000   1.0000   1.0000
     1.0000   1.0000   1.0000   1.0000   1.0000   1.0000   1.0000   1.0000
     1.0000   1.0000   1.0000   1.0000   1.0000   1.0000   1.0000   1.0000
     1.0000   1.0000   1.0000   1.0000   1.0000   1.0000   1.0000   1.0000
     1.0000   1.0000   1.0000   1.0000   1.0000   1.0000   1.0000   1.0000
     1.0000   1.0000   1.0000   1.0000   1.0000   1.0000   1.0000   1.0000
     1.0000   1.0000   1.0000   1.0000   1.0000   1.0000   1.0000   1.0000
     1.0000   1.0000   1.0000   1.0000   1.0000   1.0000   1.0000   1.0000
     1.0000   1.0000   1.0000   1.0000   1.0000   1.0000   1.0000   1.0000
     1.0000   1.0000   1.0000   1.0000   1.0000   1.0000   1.0000   1.0000
     1.0000   1.0000   1.0000   1.0000   1.0000   1.0000   1.0000   1.0000
     1.0000   1.0000   1.0000   1.0000   1.0000   1.0000   1.0000   1.0000
     1.0000   1.0000   1.0000   1.0000   1.0000   1.0000   1.0000   1.0000
     1.0000   1.0000   1.0000   1.0000   1.0000   1.0000   1.0000   1.0000
     1.0000   1.0000   1.0000   1.0000   1.0000   1.0000   1.0000   1.0000
     1.0000   1.0000   1.0000   1.0000   1.0000   1.0000   1.0000   1.0000
     1.0000   1.0000   1.0000   1.0000   1.0000   1.0000   1.0000   1.0000
     1.0000   1.0000   1.0000   1.0000   1.0000   1.0000   1.0000   1.0000
     1.0000   1.0000   1.0000   1.0000   1.0000   1.0000   1.0000   1.0000
     1.0000   1.0000   1.0000   1.0000   1.0000   1.0000   1.0000   1.0000
     1.0000   1.0000   1.0000   1.0000   1.0000   1.0000   1.0000   1.0000
     1.0000   1.0000   1.0000   1.0000   1.0000   1.0000   1.0000   1.0000
     1.0000   1.0000   1.0000   1.0000   1.0000   1.0000   1.0000   1.0000
     1.0000   1.0000   1.0000   1.0000   1.0000   1.0000   1.0000   1.0000
     1.0000   1.0000   1.0000   1.0000   1.0000   1.0000   1.0000   1.0000
     1.0000   1.0000   1.0000   1.0000   1.0000   1.0000   1.0000   1.0000
     1.0000   1.0000   1.0000   1.0000   1.0000   1.0000   1.0000   1.0000
     1.0000   1.0000   1.0000   1.0000   1.0000   1.0000   1.0000   1.0000
     1.0000   1.0000   1.0000   1.0000   1.0000   1.0000   1.0000   1.0000
     1.0000   1.0000   1.0000   1.0000   1.0000   1.0000   1.0000   1.0000
     1.0000   1.0000   1.0000   1.0000   1.0000   1.0000   1.0000   1.0000
     1.0000   1.0000   1.0000   1.0000   1.0000   1.0000   1.0000   1.0000
     1.0000   1.0000   1.0000   1.0000   1.0000   1.0000   1.0000   1.0000
     1.0000   1.0000   1.0000   1.0000   1.0000   1.0000   1.0000   1.0000
     1.0000   1.0000   1.0000   1.0000   1.0000   1.0000   1.0000   1.0000
     1.0000   1.0000   1.0000   1.0000   1.0000   1.0000   1.0000   1.0000
     1.0000   1.0000   1.0000   1.0000   1.0000   1.0000   1.0000   1.0000
     1.0000   1.0000   1.0000   1.0000   1.0000   1.0000   1.0000   1.0000
     1.0000   1.0000   1.0000   1.0000   1.0000   1.0000   1.0000   1.0000
     1.0000   1.0000   1.0000   1.0000   1.0000   1.0000   1.0000   1.0000
     1.0000   1.0000   1.0000   1.0000   1.0000   1.0000   1.0000   1.0000
     1.0000   1.0000   1.0000   1.0000   1.0000   1.0000   1.0000   1.0000
     1.0000   1.0000   1.0000   1.0000   1.0000   1.0000   1.0000   1.0000
     1.0000   1.0000   1.0000   1.0000   1.0000   1.0000   1.0000   1.0000
     1.0000   1.0000   1.0000   1.0000   1.0000   1.0000   1.0000   1.0000
     1.0000   1.0000   1.0000   1.0000   1.0000   1.0000   1.0000   1.0000
     1.0000   1.0000   1.0000   1.0000   1.0000   1.0000   1.0000   1.0000
     1.0000   1.0000   1.0000   1.0000   1.0000   1.0000   1.0000   1.0000
     1.0000   1.0000   1.0000   1.0000   1.0000   1.0000   1.0000   1.0000
     1.0000   1.0000   1.0000   1.0000   1.0000   1.0000   1.0000   1.0000
     1.0000   1.0000   1.0000   1.0000   1.0000   1.0000   1.0000   1.0000
     1.0000   1.0000   1.0000   1.0000   1.0000   1.0000   1.0000   1.0000
     1.0000   1.0000   1.0000   1.0000   1.0000   1.0000   1.0000   1.0000
     1.0000   1.0000   1.0000   1.0000   1.0000   1.0000   1.0000   1.0000
     1.0000   1.0000   1.0000   1.0000   1.0000   1.0000   1.0000   1.0000
     1.0000   1.0000   1.0000   1.0000   1.0000   1.0000   1.0000   1.0000
     1.0000   1.0000   1.0000   1.0000   1.0000   1.0000   1.0000   1.0000
     1.0000   1.0000   1.0000   1.0000   1.0000   1.0000   1.0000   1.0000
     1.0000   1.0000   1.0000   1.0000   1.0000   1.0000   1.0000   1.0000
     1.0000   1.0000   1.0000   1.0000   1.0000   1.0000   1.0000   1.0000
     1.0000   1.0000   1.0000   1.0000   1.0000   1.0000   1.0000   1.0000
     1.0000   1.0000   1.0000   1.0000   1.0000   1.0000   1.0000   1.0000
     1.0000   1.0000   1.0000   1.0000   0.9999   0.9999   0.9999   0.9999
     0.0000   0.0000   0.0000   0.0000   0.0000   0.0000   0.0000   0.0000
     0.0000   0.0000   0.0000   0.0000   0.0000   0.0000   0.0000   0.0000
     0.0000   0.0000   0.0000   0.0000   0.0000   0.0000   0.0000   0.0000
     0.0000   0.0000   0.0000   0.0000   0.0000   0.0000   0.0000   0.0000
     0.0000   0.0000   0.0000   0.0000   0.0000   0.0000   0.0000   0.0000
     0.0000   0.0000   0.0000   0.0000   0.0000   0.0000   0.0000   0.0000
     0.0000   0.0000   0.0000   0.0000   0.0000   0.0000   0.0000   0.0000
     0.0000   0.0000   0.0000   0.0000   0.0000   0.0000   0.0000   0.0000
     0.0000   0.0000   0.0000   0.0000   0.0000   0.0000   0.0000   0.0000
     0.0000   0.0000   0.0000   0.0000   0.0000   0.0000   0.0000   0.0000
     0.0000   0.0000   0.0000   0.0000   0.0000   0.0000   0.0000   0.0000
     0.0000   0.0000   0.0000   0.0000   0.0000   0.0000   0.0000   0.0000
     0.0000   0.0000   0.0000   0.0000   0.0000   0.0000   0.0000   0.0000
     0.0000   0.0000   0.0000   0.0000   0.0000   0.0000   0.0000   0.0000
     0.0000   0.0000   0.0000

          k =-0.7071 0.0000 0.0000 ( 64192 PWs)   bands (ev):

   -17.0157 -17.0154 -17.0146 -17.0145 -17.0141 -17.0140 -17.0140 -17.0137
   -17.0135 -17.0133 -17.0132 -17.0128 -17.0127 -17.0126 -17.0126 -17.0124
   -17.0122 -17.0119 -17.0117 -17.0116 -17.0114 -17.0113 -17.0111 -17.0111
   -17.0109 -17.0107 -17.0105 -17.0105 -17.0104 -17.0103 -17.0101 -17.0101
   -17.0101 -17.0098 -17.0096 -17.0096 -17.0095 -17.0094 -17.0094 -17.0092
   -17.0092 -17.0091 -17.0090 -17.0089 -17.0088 -17.0088 -17.0087 -17.0086
   -17.0085 -17.0084 -17.0084 -17.0082 -17.0082 -17.0081 -17.0080 -17.0080
   -17.0079 -17.0079 -17.0077 -17.0077 -17.0076 -17.0075 -17.0074 -17.0074
   -17.0072 -17.0070 -17.0068 -17.0068 -17.0066 -17.0065 -17.0064 -17.0061
   -17.0060 -17.0059 -17.0059 -17.0056 -17.0050 -17.0049 -17.0047 -17.0045
   -17.0045 -17.0043 -17.0043 -17.0042 -17.0041 -17.0040 -17.0038 -17.0038
   -17.0038 -17.0037 -17.0037 -17.0036 -17.0035 -17.0034 -17.0034 -17.0033
   -17.0032 -17.0032 -17.0031 -17.0031 -17.0030 -17.0029 -17.0029 -17.0028
   -17.0028 -17.0027 -17.0027 -17.0026 -17.0026 -17.0025 -17.0025 -17.0024
   -17.0024 -17.0023 -17.0023 -17.0022 -17.0021 -17.0021 -17.0020 -17.0020
   -17.0019 -17.0019 -17.0018 -17.0017 -17.0017 -17.0017 -17.0015 -17.0015
   -17.0014 -17.0012 -17.0011 -17.0011 -17.0010 -17.0009 -17.0008 -17.0008
   -17.0007 -17.0006 -17.0004 -17.0001 -16.9999 -16.9998 -16.9997 -16.9995
   -16.9994 -16.9992 -16.9992 -16.9989 -16.9988 -16.9987 -16.9986 -16.9986
   -16.9984 -16.9983 -16.9982 -16.9981 -16.9981 -16.9981 -16.9980 -16.9979
   -16.9978 -16.9977 -16.9976 -16.9976 -16.9975 -16.9974 -16.9973 -16.9972
   -16.9972 -16.9970 -16.9969 -16.9968 -16.9967 -16.9966 -16.9965 -16.9964
   -16.9963 -16.9962 -16.9961 -16.9960 -16.9959 -16.9958 -16.9957 -16.9956
   -16.9953 -16.9952 -16.9952 -16.9950 -16.9948 -16.9947 -16.9946 -16.9941
   -16.9858 -16.9856 -16.9854 -16.9853 -16.9849 -16.9847 -16.9847 -16.9846
   -16.9838 -16.9836 -16.9834 -16.9834 -16.9832 -16.9831 -16.9827 -16.9825
   -16.9825 -16.9823 -16.9822 -16.9820 -16.9819 -16.9818 -16.9818 -16.9816
   -16.9815 -16.9814 -16.9814 -16.9811 -16.9810 -16.9809 -16.9808 -16.9807
   -16.9807 -16.9806 -16.9806 -16.9805 -16.9805 -16.9803 -16.9802 -16.9801
   -16.9801 -16.9800 -16.9799 -16.9798 -16.9798 -16.9796 -16.9795 -16.9795
   -16.9795 -16.9794 -16.9793 -16.9792 -16.9791 -16.9790 -16.9790 -16.9789
   -16.9788 -16.9788 -16.9787 -16.9786 -16.9786 -16.9785 -16.9784 -16.9783
   -16.9783 -16.9782 -16.9781 -16.9781 -16.9780 -16.9779 -16.9779 -16.9778
   -16.9777 -16.9777 -16.9776 -16.9775 -16.9775 -16.9775 -16.9773 -16.9773
   -16.9772 -16.9771 -16.9771 -16.9770 -16.9769 -16.9768 -16.9767 -16.9767
   -16.9766 -16.9766 -16.9765 -16.9765 -16.9764 -16.9763 -16.9762 -16.9761
   -16.9760 -16.9760 -16.9759 -16.9759 -16.9758 -16.9757 -16.9756 -16.9755
   -16.9754 -16.9753 -16.9753 -16.9752 -16.9751 -16.9750 -16.9749 -16.9747
   -16.9747 -16.9745 -16.9745 -16.9743 -16.9742 -16.9741 -16.9738 -16.9737
   -16.9736 -16.9735 -16.9734 -16.9733 -16.9726 -16.9725 -16.9723 -16.9722
    -4.8204  -4.8202  -4.5648  -4.5627  -4.5620  -4.5612  -3.8087  -3.8067
    -3.8053  -3.8049  -3.8041  -3.8029  -3.8018  -3.8009  -3.5962  -3.5939
    -3.5923  -3.5913  -3.5903  -3.5893  -3.5882  -3.5877  -3.0219  -3.0214
    -3.0207  -3.0201  -3.0198  -3.0188  -3.0175  -3.0151  -2.7849  -2.7825
    -2.6075  -2.6062  -2.6057  -2.6045  -2.6040  -2.6031  -2.6010  -2.6006
    -2.3853  -2.3841  -2.3829  -2.3828  -2.3817  -2.3809  -2.3797  -2.3782
    -2.1439  -2.1436  -2.1424  -2.1417  -2.1408  -2.1389  -2.1385  -2.1365
    -1.6379  -1.6361  -1.6345  -1.6341  -1.4068  -1.4057  -1.4049  -1.4039
    -0.5145  -0.5140  -0.5129  -0.5117  -0.2591  -0.2586  -0.2571  -0.2565
     0.1849   0.1870   0.1873   0.1888   0.1898   0.1906   0.1913   0.1928
     0.3037   0.3047   0.3053   0.3067   0.3083   0.3086   0.3098   0.3115
     0.6108   0.6116   0.6131   0.6141   0.6142   0.6151   0.6160   0.6165
     0.8528   0.8536   0.8549   0.8564   0.8567   0.8586   0.8587   0.8605
     1.0642   1.0658   1.6619   1.6635   1.6639   1.6655   1.6660   1.6673
     1.6678   1.6687   2.5572   2.5586   2.5589   2.5598   2.5610   2.5613
     2.5617   2.5641   2.9722   2.9722   2.9729   2.9732   3.0299   3.0316
     3.0317   3.0322   3.0327   3.0333   3.0339   3.0362   3.7145   3.7153
     3.7158   3.7166   3.7175   3.7184   3.7188   3.7200   3.8126   3.8132
     3.8133   3.8134   3.8451   3.8452   3.8454   3.8456   3.8730   3.8732
     3.8734   3.8747   3.8748   3.8757   3.8758   3.8765   4.2498   4.2502
     4.2507   4.2512   4.4911   4.4915   4.4922   4.4928   4.4931   4.4939
     4.4947   4.4955   4.5298   4.5305   4.5315   4.5321   4.5331   4.5336
     4.5337   4.5341   4.6157   4.6161   4.6168   4.6169   4.6632   4.6647
     4.6652   4.6657   4.6659   4.6663   4.6676   4.6686   4.6963   4.6970
     4.6973   4.6983   4.6996   4.6999   4.7004   4.7007   4.7961   4.7962
     4.7983   4.7990   5.0902   5.0904   5.0916   5.0918   5.0923   5.0932
     5.0936   5.0945   5.3195   5.3203   5.3206   5.3217   5.3219   5.3224
     5.3241   5.3246   5.5890   5.5892   5.6455   5.6459   5.6460   5.6467
     5.6633   5.6649   5.6660   5.6676   5.6680   5.6685   5.6705   5.6717
     5.8142   5.8154   5.8162   5.8179   5.8187   5.8192   5.8194   5.8202
     5.9786   5.9795   5.9809   5.9821   5.9823   5.9833   5.9847   5.9857
     6.5048   6.5053   6.5077   6.5081   7.0206   7.0215   7.0239   7.0252
     7.8655   7.8669   8.4768   8.4770   8.4793   8.4799   8.8927   8.8941
     9.1135   9.1153   9.1155   9.1171   9.1912   9.1918   9.1932   9.1935
     9.1941   9.1948   9.1963   9.1967   9.2470   9.2474   9.2477   9.2485
     9.2487   9.2494   9.2504   9.2505   9.2601   9.2605   9.3133   9.3144
     9.3153   9.3164   9.3173   9.3179   9.3186   9.3194   9.4231   9.4249
     9.4252   9.4271   9.6996   9.7009   9.7013   9.7015   9.7021   9.7027
     9.7031   9.7039   9.7762   9.7774   9.7780   9.7784   9.9728   9.9735
     9.9739   9.9746   9.9765   9.9767   9.9770   9.9784  10.0868  10.0877
    10.0884  10.0891  10.0901  10.0904  10.0912  10.0918  10.1180  10.1192
    10.1197  10.1203  10.1205  10.1208  10.1221  10.1225  10.4341  10.4346
    10.4354  10.4360  10.5629  10.5636  10.5652  10.5659  10.5667  10.5669
    10.5681  10.5688  10.5843  10.5846  10.6465  10.6468  10.6480  10.6486
    10.7399  10.7408  10.7419  10.7425  10.7428  10.7433  10.7440  10.7452
    10.7605  10.7611  10.7623  10.7638  10.7643  10.7647  10.7658  10.7671
    10.9783  10.9800  10.9801

     occupation numbers 
     1.0000   1.0000   1.0000   1.0000   1.0000   1.0000   1.0000   1.0000
     1.0000   1.0000   1.0000   1.0000   1.0000   1.0000   1.0000   1.0000
     1.0000   1.0000   1.0000   1.0000   1.0000   1.0000   1.0000   1.0000
     1.0000   1.0000   1.0000   1.0000   1.0000   1.0000   1.0000   1.0000
     1.0000   1.0000   1.0000   1.0000   1.0000   1.0000   1.0000   1.0000
     1.0000   1.0000   1.0000   1.0000   1.0000   1.0000   1.0000   1.0000
     1.0000   1.0000   1.0000   1.0000   1.0000   1.0000   1.0000   1.0000
     1.0000   1.0000   1.0000   1.0000   1.0000   1.0000   1.0000   1.0000
     1.0000   1.0000   1.0000   1.0000   1.0000   1.0000   1.0000   1.0000
     1.0000   1.0000   1.0000   1.0000   1.0000   1.0000   1.0000   1.0000
     1.0000   1.0000   1.0000   1.0000   1.0000   1.0000   1.0000   1.0000
     1.0000   1.0000   1.0000   1.0000   1.0000   1.0000   1.0000   1.0000
     1.0000   1.0000   1.0000   1.0000   1.0000   1.0000   1.0000   1.0000
     1.0000   1.0000   1.0000   1.0000   1.0000   1.0000   1.0000   1.0000
     1.0000   1.0000   1.0000   1.0000   1.0000   1.0000   1.0000   1.0000
     1.0000   1.0000   1.0000   1.0000   1.0000   1.0000   1.0000   1.0000
     1.0000   1.0000   1.0000   1.0000   1.0000   1.0000   1.0000   1.0000
     1.0000   1.0000   1.0000   1.0000   1.0000   1.0000   1.0000   1.0000
     1.0000   1.0000   1.0000   1.0000   1.0000   1.0000   1.0000   1.0000
     1.0000   1.0000   1.0000   1.0000   1.0000   1.0000   1.0000   1.0000
     1.0000   1.0000   1.0000   1.0000   1.0000   1.0000   1.0000   1.0000
     1.0000   1.0000   1.0000   1.0000   1.0000   1.0000   1.0000   1.0000
     1.0000   1.0000   1.0000   1.0000   1.0000   1.0000   1.0000   1.0000
     1.0000   1.0000   1.0000   1.0000   1.0000   1.0000   1.0000   1.0000
     1.0000   1.0000   1.0000   1.0000   1.0000   1.0000   1.0000   1.0000
     1.0000   1.0000   1.0000   1.0000   1.0000   1.0000   1.0000   1.0000
     1.0000   1.0000   1.0000   1.0000   1.0000   1.0000   1.0000   1.0000
     1.0000   1.0000   1.0000   1.0000   1.0000   1.0000   1.0000   1.0000
     1.0000   1.0000   1.0000   1.0000   1.0000   1.0000   1.0000   1.0000
     1.0000   1.0000   1.0000   1.0000   1.0000   1.0000   1.0000   1.0000
     1.0000   1.0000   1.0000   1.0000   1.0000   1.0000   1.0000   1.0000
     1.0000   1.0000   1.0000   1.0000   1.0000   1.0000   1.0000   1.0000
     1.0000   1.0000   1.0000   1.0000   1.0000   1.0000   1.0000   1.0000
     1.0000   1.0000   1.0000   1.0000   1.0000   1.0000   1.0000   1.0000
     1.0000   1.0000   1.0000   1.0000   1.0000   1.0000   1.0000   1.0000
     1.0000   1.0000   1.0000   1.0000   1.0000   1.0000   1.0000   1.0000
     1.0000   1.0000   1.0000   1.0000   1.0000   1.0000   1.0000   1.0000
     1.0000   1.0000   1.0000   1.0000   1.0000   1.0000   1.0000   1.0000
     1.0000   1.0000   1.0000   1.0000   1.0000   1.0000   1.0000   1.0000
     1.0000   1.0000   1.0000   1.0000   1.0000   1.0000   1.0000   1.0000
     1.0000   1.0000   1.0000   1.0000   1.0000   1.0000   1.0000   1.0000
     1.0000   1.0000   1.0000   1.0000   1.0000   1.0000   1.0000   1.0000
     1.0000   1.0000   1.0000   1.0000   1.0000   1.0000   1.0000   1.0000
     1.0000   1.0000   1.0000   1.0000   1.0000   1.0000   1.0000   1.0000
     1.0000   1.0000   1.0000   1.0000   1.0000   1.0000   1.0000   1.0000
     1.0000   1.0000   1.0000   1.0000   1.0000   1.0000   1.0000   1.0000
     1.0000   1.0000   1.0000   1.0000   1.0000   1.0000   1.0000   1.0000
     1.0000   1.0000   1.0000   1.0000   1.0000   1.0000   1.0000   1.0000
     1.0000   1.0000   1.0000   1.0000   1.0000   1.0000   1.0000   1.0000
     1.0000   1.0000   1.0000   1.0000   1.0000   1.0000   1.0000   1.0000
     1.0000   1.0000   1.0000   1.0000   1.0000   1.0000   1.0000   1.0000
     1.0000   1.0000   1.0000   1.0000   1.0000   1.0000   1.0000   1.0000
     1.0000   1.0000   1.0000   1.0000   1.0000   1.0000   1.0000   1.0000
     1.0000   1.0000   1.0000   1.0000   1.0000   1.0000   1.0000   1.0000
     1.0000   1.0000   1.0000   1.0000   1.0000   1.0000   1.0000   1.0000
     1.0000   1.0000   1.0000   1.0000   1.0000   1.0000   1.0000   1.0000
     1.0000   1.0000   1.0000   1.0000   1.0000   1.0000   1.0000   1.0000
     1.0000   1.0000   1.0000   1.0000   1.0000   1.0000   1.0000   1.0000
     1.0000   1.0000   1.0000   1.0000   1.0000   1.0000   1.0000   1.0000
     1.0000   1.0000   1.0000   1.0000   1.0000   1.0000   1.0000   1.0000
     1.0000   1.0000   1.0000   1.0000   1.0000   1.0000   1.0000   1.0000
     1.0000   1.0000   1.0000   1.0000   1.0000   1.0000   1.0000   1.0000
     1.0000   1.0000   1.0000   1.0000   1.0000   1.0000   1.0000   1.0000
     1.0000   1.0000   1.0000   1.0000   1.0000   1.0000   1.0000   1.0000
     1.0000   1.0000   1.0000   1.0000   1.0000   1.0000   1.0000   1.0000
     1.0000   1.0000   1.0000   1.0000   1.0000   1.0000   1.0000   1.0000
     1.0000   1.0000   1.0000   1.0000   1.0000   1.0000   1.0000   1.0000
     1.0000   1.0000   1.0000   1.0000   1.0000   1.0000   1.0000   1.0000
     1.0000   1.0000   1.0000   1.0000   1.0000   1.0000   1.0000   1.0000
     1.0000   1.0000   1.0000   1.0000   1.0000   1.0000   1.0000   1.0000
     1.0000   1.0000   1.0000   1.0000   1.0000   1.0000   1.0000   1.0000
     1.0000   1.0000   1.0000   1.0000   0.9999   0.9999   0.9999   0.9999
     0.0238   0.0232   0.0000   0.0000   0.0000   0.0000   0.0000   0.0000
     0.0000   0.0000   0.0000   0.0000   0.0000   0.0000   0.0000   0.0000
     0.0000   0.0000   0.0000   0.0000   0.0000   0.0000   0.0000   0.0000
     0.0000   0.0000   0.0000   0.0000   0.0000   0.0000   0.0000   0.0000
     0.0000   0.0000   0.0000   0.0000   0.0000   0.0000   0.0000   0.0000
     0.0000   0.0000   0.0000   0.0000   0.0000   0.0000   0.0000   0.0000
     0.0000   0.0000   0.0000   0.0000   0.0000   0.0000   0.0000   0.0000
     0.0000   0.0000   0.0000   0.0000   0.0000   0.0000   0.0000   0.0000
     0.0000   0.0000   0.0000   0.0000   0.0000   0.0000   0.0000   0.0000
     0.0000   0.0000   0.0000   0.0000   0.0000   0.0000   0.0000   0.0000
     0.0000   0.0000   0.0000   0.0000   0.0000   0.0000   0.0000   0.0000
     0.0000   0.0000   0.0000   0.0000   0.0000   0.0000   0.0000   0.0000
     0.0000   0.0000   0.0000   0.0000   0.0000   0.0000   0.0000   0.0000
     0.0000   0.0000   0.0000   0.0000   0.0000   0.0000   0.0000   0.0000
     0.0000   0.0000   0.0000

          k = 0.3536 0.3536 0.3536 ( 64114 PWs)   bands (ev):

   -17.0153 -17.0152 -17.0152 -17.0150 -17.0149 -17.0147 -17.0138 -17.0137
   -17.0135 -17.0134 -17.0131 -17.0129 -17.0126 -17.0123 -17.0122 -17.0119
   -17.0119 -17.0117 -17.0114 -17.0112 -17.0112 -17.0110 -17.0110 -17.0109
   -17.0107 -17.0106 -17.0106 -17.0104 -17.0103 -17.0102 -17.0101 -17.0099
   -17.0098 -17.0098 -17.0097 -17.0096 -17.0096 -17.0095 -17.0094 -17.0094
   -17.0092 -17.0092 -17.0092 -17.0091 -17.0090 -17.0089 -17.0089 -17.0088
   -17.0087 -17.0086 -17.0085 -17.0083 -17.0083 -17.0083 -17.0083 -17.0081
   -17.0081 -17.0080 -17.0079 -17.0078 -17.0076 -17.0075 -17.0075 -17.0073
   -17.0072 -17.0071 -17.0070 -17.0066 -17.0061 -17.0061 -17.0059 -17.0058
   -17.0056 -17.0054 -17.0053 -17.0052 -17.0051 -17.0049 -17.0048 -17.0047
   -17.0047 -17.0046 -17.0045 -17.0044 -17.0044 -17.0043 -17.0042 -17.0040
   -17.0039 -17.0039 -17.0039 -17.0038 -17.0036 -17.0036 -17.0035 -17.0034
   -17.0034 -17.0032 -17.0032 -17.0031 -17.0031 -17.0030 -17.0029 -17.0029
   -17.0027 -17.0026 -17.0026 -17.0026 -17.0024 -17.0023 -17.0022 -17.0021
   -17.0021 -17.0021 -17.0020 -17.0019 -17.0018 -17.0017 -17.0016 -17.0015
   -17.0015 -17.0014 -17.0013 -17.0013 -17.0012 -17.0011 -17.0010 -17.0009
   -17.0009 -17.0008 -17.0007 -17.0006 -17.0005 -17.0004 -17.0003 -17.0003
   -17.0002 -17.0001 -17.0000 -17.0000 -16.9999 -16.9998 -16.9997 -16.9997
   -16.9996 -16.9995 -16.9994 -16.9994 -16.9993 -16.9993 -16.9992 -16.9991
   -16.9990 -16.9990 -16.9989 -16.9987 -16.9987 -16.9986 -16.9985 -16.9984
   -16.9983 -16.9982 -16.9981 -16.9981 -16.9976 -16.9974 -16.9973 -16.9972
   -16.9969 -16.9968 -16.9967 -16.9966 -16.9965 -16.9964 -16.9964 -16.9963
   -16.9962 -16.9962 -16.9961 -16.9958 -16.9958 -16.9957 -16.9956 -16.9956
   -16.9955 -16.9952 -16.9949 -16.9949 -16.9947 -16.9946 -16.9945 -16.9944
   -16.9857 -16.9856 -16.9855 -16.9854 -16.9849 -16.9848 -16.9847 -16.9846
   -16.9839 -16.9836 -16.9834 -16.9833 -16.9829 -16.9828 -16.9827 -16.9825
   -16.9824 -16.9823 -16.9822 -16.9821 -16.9820 -16.9818 -16.9816 -16.9816
   -16.9815 -16.9815 -16.9814 -16.9813 -16.9811 -16.9811 -16.9808 -16.9807
   -16.9806 -16.9805 -16.9805 -16.9804 -16.9803 -16.9803 -16.9802 -16.9801
   -16.9801 -16.9800 -16.9799 -16.9798 -16.9798 -16.9797 -16.9796 -16.9795
   -16.9794 -16.9794 -16.9794 -16.9793 -16.9791 -16.9790 -16.9789 -16.9788
   -16.9788 -16.9788 -16.9787 -16.9787 -16.9786 -16.9785 -16.9785 -16.9784
   -16.9783 -16.9782 -16.9781 -16.9780 -16.9780 -16.9779 -16.9779 -16.9778
   -16.9777 -16.9777 -16.9777 -16.9775 -16.9775 -16.9774 -16.9773 -16.9773
   -16.9773 -16.9772 -16.9771 -16.9770 -16.9769 -16.9768 -16.9768 -16.9767
   -16.9766 -16.9765 -16.9765 -16.9764 -16.9763 -16.9763 -16.9762 -16.9761
   -16.9760 -16.9760 -16.9758 -16.9758 -16.9757 -16.9757 -16.9756 -16.9756
   -16.9754 -16.9753 -16.9752 -16.9752 -16.9750 -16.9750 -16.9748 -16.9747
   -16.9747 -16.9745 -16.9745 -16.9744 -16.9742 -16.9740 -16.9739 -16.9738
   -16.9738 -16.9734 -16.9733 -16.9732 -16.9725 -16.9725 -16.9723 -16.9721
    -4.8872  -4.8865  -4.3706  -4.3695  -4.3692  -4.3681  -4.3675  -4.3674
    -3.8845  -3.8836  -3.8826  -3.8817  -3.8812  -3.8801  -3.4679  -3.4663
    -3.3627  -3.3617  -3.3604  -3.3599  -3.3583  -3.3578  -2.9711  -2.9700
    -2.9694  -2.9684  -2.9677  -2.9671  -2.9643  -2.9640  -2.9636  -2.9633
    -2.9627  -2.9621  -2.8028  -2.8014  -2.8008  -2.8004  -2.7993  -2.7984
    -2.3294  -2.3279  -2.3272  -2.3270  -2.3260  -2.3253  -1.9670  -1.9657
    -1.9656  -1.9643  -1.9627  -1.9622  -1.8395  -1.8385  -1.8380  -1.8369
    -1.8364  -1.8358  -1.8342  -1.8334  -1.8330  -1.8322  -1.8313  -1.8306
    -0.0264  -0.0262  -0.0257  -0.0245  -0.0241  -0.0238  -0.0228  -0.0217
    -0.0213  -0.0205  -0.0200  -0.0193   0.0385   0.0406   0.0411   0.0421
     0.0433   0.0441   0.2654   0.2661   0.2670   0.2673   0.2690   0.2709
     0.2894   0.2911   0.2938   0.2945   0.2950   0.2974   1.0483   1.0502
     1.0539   1.0542   1.0558   1.0568   1.0574   1.0579   1.0580   1.0591
     1.0596   1.0598   1.0610   1.0625   1.8774   1.8792   1.8801   1.8814
     1.8826   1.8839   2.3093   2.3103   2.3108   2.3121   2.3132   2.3147
[...]
     atom   77 type  1   force =   0.00000000E+00  0.00000000E+00  0.00000000E+00
     atom   78 type  2   force =   0.00000000E+00  0.00000000E+00  0.00000000E+00
     atom   79 type  1   force =   0.00000000E+00  0.00000000E+00  0.00000000E+00
     atom   80 type  2   force =   0.00000000E+00  0.00000000E+00  0.00000000E+00
     atom   81 type  1   force =   0.00000000E+00  0.00000000E+00  0.00000000E+00
     atom   82 type  2   force =   0.00000000E+00  0.00000000E+00  0.00000000E+00
     atom   83 type  1   force =   0.00000000E+00  0.00000000E+00  0.00000000E+00
     atom   84 type  2   force =   0.00000000E+00  0.00000000E+00  0.00000000E+00
     atom   85 type  1   force =   0.00000000E+00  0.00000000E+00  0.00000000E+00
     atom   86 type  2   force =   0.00000000E+00  0.00000000E+00  0.00000000E+00
     atom   87 type  1   force =   0.00000000E+00  0.00000000E+00  0.00000000E+00
     atom   88 type  2   force =   0.00000000E+00  0.00000000E+00  0.00000000E+00
     atom   89 type  1   force =   0.00000000E+00  0.00000000E+00  0.00000000E+00
     atom   90 type  2   force =   0.00000000E+00  0.00000000E+00  0.00000000E+00
     atom   91 type  1   force =   0.00000000E+00  0.00000000E+00  0.00000000E+00
     atom   92 type  2   force =   0.00000000E+00  0.00000000E+00  0.00000000E+00
     atom   93 type  1   force =   0.00000000E+00  0.00000000E+00  0.00000000E+00
     atom   94 type  2   force =   0.00000000E+00  0.00000000E+00  0.00000000E+00
     atom   95 type  1   force =   0.00000000E+00  0.00000000E+00  0.00000000E+00
     atom   96 type  2   force =   0.00000000E+00  0.00000000E+00  0.00000000E+00
     atom   97 type  1   force =   0.00000000E+00  0.00000000E+00  0.00000000E+00
     atom   98 type  2   force =   0.00000000E+00  0.00000000E+00  0.00000000E+00
     atom   99 type  1   force =   0.00000000E+00  0.00000000E+00  0.00000000E+00
     atom  100 type  2   force =   0.00000000E+00  0.00000000E+00  0.00000000E+00
     atom  101 type  1   force =   0.00000000E+00  0.00000000E+00  0.00000000E+00
     atom  102 type  2   force =   0.00000000E+00  0.00000000E+00  0.00000000E+00
     atom  103 type  1   force =   0.00000000E+00  0.00000000E+00  0.00000000E+00
     atom  104 type  2   force =   0.00000000E+00  0.00000000E+00  0.00000000E+00
     atom  105 type  1   force =   0.00000000E+00  0.00000000E+00  0.00000000E+00
     atom  106 type  2   force =   0.00000000E+00  0.00000000E+00  0.00000000E+00
     atom  107 type  1   force =   0.00000000E+00  0.00000000E+00  0.00000000E+00
     atom  108 type  2   force =   0.00000000E+00  0.00000000E+00  0.00000000E+00
     atom  109 type  1   force =   0.00000000E+00  0.00000000E+00  0.00000000E+00
     atom  110 type  2   force =   0.00000000E+00  0.00000000E+00  0.00000000E+00
     atom  111 type  1   force =   0.00000000E+00  0.00000000E+00  0.00000000E+00
     atom  112 type  2   force =   0.00000000E+00  0.00000000E+00  0.00000000E+00
     atom  113 type  1   force =   0.00000000E+00  0.00000000E+00  0.00000000E+00
     atom  114 type  2   force =   0.00000000E+00  0.00000000E+00  0.00000000E+00
     atom  115 type  1   force =   0.00000000E+00  0.00000000E+00  0.00000000E+00
     atom  116 type  2   force =   0.00000000E+00  0.00000000E+00  0.00000000E+00
     atom  117 type  1   force =   0.00000000E+00  0.00000000E+00  0.00000000E+00
     atom  118 type  2   force =   0.00000000E+00  0.00000000E+00  0.00000000E+00
     atom  119 type  1   force =   0.00000000E+00  0.00000000E+00  0.00000000E+00
     atom  120 type  2   force =   0.00000000E+00  0.00000000E+00  0.00000000E+00
     atom  121 type  1   force =   0.00000000E+00  0.00000000E+00  0.00000000E+00
     atom  122 type  2   force =   0.00000000E+00  0.00000000E+00  0.00000000E+00
     atom  123 type  1   force =   0.00000000E+00  0.00000000E+00  0.00000000E+00
     atom  124 type  2   force =   0.00000000E+00  0.00000000E+00  0.00000000E+00
     atom  125 type  1   force =   0.00000000E+00  0.00000000E+00  0.00000000E+00
     atom  126 type  2   force =   0.00000000E+00  0.00000000E+00  0.00000000E+00
     atom  127 type  1   force =   0.00000000E+00  0.00000000E+00  0.00000000E+00
     atom  128 type  2   force =   0.00000000E+00  0.00000000E+00  0.00000000E+00
     The SCF correction term to forces
     atom    1 type  1   force =   0.89115002E-07 -0.22137697E-06 -0.15328782E-05
     atom    2 type  2   force =  -0.11354647E-05 -0.81174144E-08 -0.49151084E-05
     atom    3 type  1   force =  -0.51357875E-06 -0.76981974E-06 -0.44756850E-06
     atom    4 type  2   force =  -0.19095033E-05 -0.16913412E-05  0.10248995E-05
     atom    5 type  1   force =   0.91392754E-07 -0.19839655E-06  0.27310020E-06
     atom    6 type  2   force =   0.16596504E-05  0.81407103E-06 -0.13198822E-05
     atom    7 type  1   force =   0.99521554E-06  0.55377816E-06 -0.11829400E-05
     atom    8 type  2   force =   0.14084397E-05  0.56377935E-06 -0.60630357E-05
     atom    9 type  1   force =   0.17712554E-06 -0.16870583E-07 -0.13147025E-05
     atom   10 type  2   force =   0.31855924E-05  0.83356770E-06 -0.16617318E-05
     atom   11 type  1   force =   0.32603492E-07 -0.56847757E-07  0.58833675E-07
     atom   12 type  2   force =  -0.26735194E-07 -0.21011332E-05  0.15099784E-05
     atom   13 type  1   force =  -0.58083804E-07 -0.37223393E-06 -0.19374253E-06
     atom   14 type  2   force =   0.20017536E-06 -0.24597693E-05 -0.33784568E-05
     atom   15 type  1   force =   0.37800585E-06 -0.82041862E-07 -0.18269181E-05
     atom   16 type  2   force =   0.10929799E-05 -0.48741970E-06 -0.47024142E-05
     atom   17 type  1   force =   0.15631131E-05  0.78102354E-08  0.11485907E-06
     atom   18 type  2   force =   0.47668890E-05 -0.11419007E-05  0.10223728E-05
     atom   19 type  1   force =   0.33990293E-06 -0.10167240E-05  0.65778692E-06
     atom   20 type  2   force =  -0.34914667E-06 -0.66773361E-05  0.10886645E-05
     atom   21 type  1   force =  -0.14094644E-06 -0.15655455E-05 -0.19136728E-06
     atom   22 type  2   force =   0.16451015E-05 -0.40917123E-05 -0.18809447E-05
     atom   23 type  1   force =   0.12052048E-05 -0.40340392E-06 -0.95624905E-06
     atom   24 type  2   force =   0.57322469E-05  0.11596522E-06 -0.14676211E-05
     atom   25 type  1   force =   0.12367696E-05 -0.19355805E-06 -0.33259463E-06
     atom   26 type  2   force =   0.12105282E-05 -0.25176957E-05 -0.25420482E-05
     atom   27 type  1   force =  -0.13300002E-06 -0.16559556E-05 -0.86274376E-08
     atom   28 type  2   force =  -0.20582185E-05 -0.59045478E-05  0.87516294E-06
     atom   29 type  1   force =   0.13109274E-06 -0.14447065E-05  0.79033607E-07
     atom   30 type  2   force =   0.31877889E-05 -0.12578196E-05 -0.22992800E-06
     atom   31 type  1   force =   0.17918592E-05  0.26711803E-06 -0.41734882E-06
     atom   32 type  2   force =   0.59709151E-05  0.13529950E-05 -0.19062186E-05
     atom   33 type  1   force =  -0.17709233E-06  0.45387790E-06 -0.92817296E-06
     atom   34 type  2   force =  -0.34625346E-06  0.34468115E-05 -0.15061975E-05
     atom   35 type  1   force =  -0.27719203E-06  0.12463393E-06  0.48812465E-06
     atom   36 type  2   force =  -0.40141742E-05  0.59866548E-06  0.25638944E-05
     atom   37 type  1   force =  -0.49625341E-06 -0.18856481E-06  0.31511052E-06
     atom   38 type  2   force =  -0.31535190E-05  0.91216172E-06 -0.17762963E-05
     atom   39 type  1   force =   0.50820923E-07  0.52148784E-06 -0.13226877E-05
     atom   40 type  2   force =  -0.62834165E-06  0.29515414E-05 -0.37572757E-05
     atom   41 type  1   force =   0.44684528E-06  0.10536603E-05 -0.29503531E-06
     atom   42 type  2   force =   0.10570290E-05  0.28050763E-05  0.14362897E-05
     atom   43 type  1   force =  -0.62337474E-06 -0.64738085E-07  0.15516499E-06
     atom   44 type  2   force =  -0.49882840E-05 -0.23781554E-05  0.15671834E-05
     atom   45 type  1   force =  -0.98113636E-06 -0.57173685E-06 -0.38879870E-06
     atom   46 type  2   force =  -0.23862577E-05  0.47725051E-06 -0.14175204E-05
     atom   47 type  1   force =   0.62654414E-07  0.68183856E-06 -0.11912454E-05
     atom   48 type  2   force =   0.17172839E-05  0.38889764E-05 -0.10597008E-05
     atom   49 type  1   force =   0.88364917E-06  0.61849442E-07  0.53285773E-07
     atom   50 type  2   force =   0.22014754E-06 -0.20733362E-05  0.10894311E-06
     atom   51 type  1   force =  -0.44780711E-06 -0.13763429E-05  0.32198400E-06
     atom   52 type  2   force =  -0.24574184E-05 -0.48976823E-05  0.36012512E-05
     atom   53 type  1   force =  -0.30678591E-06 -0.10251668E-05  0.35555240E-06
     atom   54 type  2   force =   0.23066647E-05 -0.32798932E-07  0.22765555E-05
     atom   55 type  1   force =   0.14951285E-05  0.71400830E-06 -0.20219861E-07
     atom   56 type  2   force =   0.39786813E-05  0.31463381E-05  0.92167251E-06
     atom   57 type  1   force =   0.46039331E-06 -0.40955719E-06 -0.45042890E-06
     atom   58 type  2   force =  -0.41241842E-06 -0.37659081E-06 -0.42875115E-06
     atom   59 type  1   force =  -0.29866077E-06 -0.11881127E-05  0.69060444E-06
     atom   60 type  2   force =  -0.19013787E-05 -0.21638964E-05  0.51035521E-05
     atom   61 type  1   force =   0.33992212E-06 -0.55684355E-06  0.11584022E-05
     atom   62 type  2   force =   0.14058323E-05  0.13744785E-05  0.26633259E-05
     atom   63 type  1   force =   0.11797141E-05  0.46811188E-06 -0.26027983E-06
     atom   64 type  2   force =   0.67184586E-06  0.16609018E-05 -0.18714862E-05
     atom   65 type  1   force =   0.40356879E-07  0.15460589E-05  0.12396927E-06
     atom   66 type  2   force =  -0.70195975E-06  0.53784860E-05  0.92220143E-06
     atom   67 type  1   force =  -0.10172423E-05  0.43127363E-06  0.81931799E-06
     atom   68 type  2   force =  -0.69973627E-05 -0.44101488E-06  0.18852997E-05
     atom   69 type  1   force =  -0.16391831E-05 -0.76035754E-07  0.28364305E-06
     atom   70 type  2   force =  -0.35704485E-05  0.15243985E-05 -0.11161780E-05
     atom   71 type  1   force =  -0.42932739E-06  0.11492654E-05 -0.79589479E-06
     atom   72 type  2   force =  -0.13703765E-06  0.51389606E-05 -0.11720817E-05
     atom   73 type  1   force =  -0.36776137E-06  0.11854007E-05  0.64493656E-07
     atom   74 type  2   force =  -0.26036312E-05  0.17676677E-05 -0.68330284E-06
     atom   75 type  1   force =  -0.17416837E-05  0.77165987E-07  0.18968521E-06
     atom   76 type  2   force =  -0.58043113E-05 -0.12865416E-05  0.21061086E-05
     atom   77 type  1   force =  -0.14707560E-05  0.14441202E-06  0.29089877E-06
     atom   78 type  2   force =  -0.17816913E-05  0.32570876E-05  0.11468379E-05
     atom   79 type  1   force =   0.34009095E-06  0.18362908E-05  0.29970304E-07
     atom   80 type  2   force =   0.11428521E-05  0.54504342E-05  0.83447236E-06
     atom   81 type  1   force =  -0.29277691E-06 -0.20055084E-07  0.62009380E-07
     atom   82 type  2   force =  -0.40588575E-06 -0.86257847E-06  0.15866178E-05
     atom   83 type  1   force =  -0.89465261E-06 -0.55384109E-06  0.97424218E-06
     atom   84 type  2   force =  -0.17554532E-05 -0.23423605E-05  0.69738066E-05
     atom   85 type  1   force =  -0.19183088E-06  0.19528158E-06  0.15689678E-05
     atom   86 type  2   force =   0.19949526E-05  0.21809377E-05  0.39534199E-05
     atom   87 type  1   force =   0.65259137E-06  0.11189322E-05  0.21646811E-06
     atom   88 type  2   force =   0.29998961E-06  0.76747478E-06  0.39098691E-06
     atom   89 type  1   force =   0.34266396E-07  0.87594287E-07  0.32227172E-06
     atom   90 type  2   force =  -0.92752914E-07  0.23864676E-05  0.17037285E-05
     atom   91 type  1   force =  -0.85958354E-07 -0.10113953E-06  0.17328860E-05
     atom   92 type  2   force =  -0.19097859E-05 -0.11604059E-05  0.59233815E-05
     atom   93 type  1   force =  -0.34234514E-06 -0.13615438E-06  0.15008831E-05
     atom   94 type  2   force =  -0.15435704E-05  0.24779932E-06  0.80930730E-06
     atom   95 type  1   force =   0.86065581E-07  0.46651041E-06 -0.11477257E-06
     atom   96 type  2   force =  -0.26120208E-06  0.20523826E-05 -0.11088375E-05
     atom   97 type  1   force =   0.14907073E-06  0.88173290E-06 -0.31483238E-06
     atom   98 type  2   force =  -0.10145080E-05  0.50522959E-06 -0.38074514E-05
     atom   99 type  1   force =  -0.11784296E-05 -0.54236945E-06 -0.10805464E-06
     atom  100 type  2   force =  -0.50606912E-05 -0.33849920E-05 -0.77520861E-06
     atom  101 type  1   force =  -0.10660512E-05 -0.37199234E-06 -0.10804255E-07
     atom  102 type  2   force =  -0.28073182E-07  0.15300029E-05 -0.86995649E-06
     atom  103 type  1   force =   0.64904955E-06  0.14665871E-05 -0.38592067E-06
     atom  104 type  2   force =   0.32799348E-05  0.40891465E-05 -0.20662755E-05
     atom  105 type  1   force =  -0.62352697E-06  0.28943835E-06 -0.96127383E-06
     atom  106 type  2   force =  -0.25903177E-06 -0.84102960E-06 -0.35622284E-05
     atom  107 type  1   force =  -0.10790623E-05 -0.26322105E-06 -0.11021761E-06
     atom  108 type  2   force =  -0.20228736E-05 -0.14785079E-05  0.21820465E-05
     atom  109 type  1   force =  -0.38380706E-06  0.42493039E-06  0.66966107E-06
     atom  110 type  2   force =   0.12869335E-05  0.23685247E-05 -0.26164592E-06
     atom  111 type  1   force =   0.47357758E-06  0.11966964E-05 -0.60234342E-06
     atom  112 type  2   force =   0.59424085E-06  0.75653717E-07 -0.42972468E-05
     atom  113 type  1   force =   0.30989350E-06 -0.18673024E-06 -0.79587533E-07
     atom  114 type  2   force =   0.34000147E-05 -0.76601887E-06  0.17126947E-05
     atom  115 type  1   force =   0.38141291E-07 -0.24786550E-06  0.12491983E-05
     atom  116 type  2   force =   0.37926435E-06 -0.31339604E-05  0.51303066E-05
     atom  117 type  1   force =  -0.47562285E-07 -0.25464964E-06  0.90282881E-06
     atom  118 type  2   force =   0.14144556E-05 -0.21266367E-05  0.97951123E-07
     atom  119 type  1   force =   0.38798454E-06  0.15860142E-07 -0.70215245E-06
     atom  120 type  2   force =   0.26018292E-05 -0.17254009E-05 -0.20905456E-05
     atom  121 type  1   force =   0.97672792E-06  0.44688929E-06  0.53696835E-06
     atom  122 type  2   force =   0.25806952E-05  0.46846416E-06  0.11928622E-05
     atom  123 type  1   force =   0.41654207E-08 -0.63369474E-06  0.11734176E-05
     atom  124 type  2   force =  -0.19627079E-05 -0.48572201E-05  0.20543137E-05
     atom  125 type  1   force =  -0.53297001E-06 -0.10485419E-05  0.44494780E-06
     atom  126 type  2   force =   0.48430601E-06 -0.19973884E-05 -0.16560306E-05
     atom  127 type  1   force =   0.69877742E-06  0.11278134E-06 -0.52338705E-06
     atom  128 type  2   force =   0.34333085E-05  0.17026539E-05 -0.17734210E-05

     Total force =     0.017493     Total SCF correction =     0.000037


     entering subroutine stress ...

          total   stress  (Ry/bohr**3)                   (kbar)     P=   -0.09
  -0.0000005855  -0.0000000717   0.0000008287         -0.09     -0.01      0.12
  -0.0000000717  -0.0000005883   0.0000001484         -0.01     -0.09      0.02
   0.0000008287   0.0000001484  -0.0000005839          0.12      0.02     -0.09

     kinetic stress (kbar)   6412.00      0.01     -0.11
                                0.01   6412.00     -0.02
                               -0.11     -0.02   6412.00

     local   stress (kbar)   -987.55      0.42     -4.62
                                0.42   -987.54     -0.86
                               -4.62     -0.86   -987.59

     nonloc. stress (kbar)   2496.70     -0.01      0.10
                               -0.01   2496.70      0.02
                                0.10      0.02   2496.70

     hartree stress (kbar)  15111.47     -0.11      1.20
                               -0.11  15111.47      0.22
                                1.20      0.22  15111.49

     exc-cor stress (kbar)  10937.41     -0.00      0.00
                               -0.00  10937.41      0.00
                                0.00      0.00  10937.41

     corecor stress (kbar) -16604.51      0.00     -0.01
                                0.00 -16604.51     -0.00
                               -0.01     -0.00 -16604.51

     ewald   stress (kbar) -17365.60     -0.32      3.56
                               -0.32 -17365.61      0.66
                                3.56      0.66 -17365.58

     hubbard stress (kbar)      0.00      0.00      0.00
                                0.00      0.00      0.00
                                0.00      0.00      0.00

     london  stress (kbar)      0.00      0.00      0.00
                                0.00      0.00      0.00
                                0.00      0.00      0.00

     XDM     stress (kbar)      0.00      0.00      0.00
                                0.00      0.00      0.00
                                0.00      0.00      0.00

     dft-nl  stress (kbar)      0.00      0.00      0.00
                                0.00      0.00      0.00
                                0.00      0.00      0.00



     Writing output data file SiGe_zns.scf.in.super.444.022.save

     init_run     :    955.40s CPU    717.04s WALL (       1 calls)
     electrons    :  44891.45s CPU  34837.35s WALL (       1 calls)
     forces       :    715.73s CPU    514.18s WALL (       1 calls)
     stress       :   3342.78s CPU   3289.45s WALL (       1 calls)

     Called by init_run:
     wfcinit      :    927.61s CPU    689.16s WALL (       1 calls)
     potinit      :      0.70s CPU      0.70s WALL (       1 calls)

     Called by electrons:
     c_bands      :  40339.98s CPU  30965.38s WALL (      14 calls)
     sum_band     :   3968.44s CPU   3288.56s WALL (      14 calls)
     v_of_rho     :      8.03s CPU      8.07s WALL (      14 calls)
     v_h          :      0.54s CPU      0.55s WALL (      14 calls)
     v_xc         :      8.41s CPU      8.45s WALL (      16 calls)
     newd         :    586.28s CPU    586.46s WALL (      14 calls)
     mix_rho      :     12.14s CPU     12.19s WALL (      14 calls)

     Called by c_bands:
     init_us_2    :     47.16s CPU     47.37s WALL (     248 calls)
     cegterg      :  40042.43s CPU  30661.23s WALL (     112 calls)

     Called by sum_band:
     sum_band:bec :     16.49s CPU     16.53s WALL (     112 calls)
     addusdens    :    410.69s CPU    411.02s WALL (      14 calls)

     Called by *egterg:
     h_psi        :  15440.48s CPU  12143.50s WALL (     425 calls)
     s_psi        :   4400.31s CPU   2710.95s WALL (     425 calls)
     g_psi        :      7.32s CPU      8.81s WALL (     305 calls)
     cdiaghg      :  12112.34s CPU  10321.95s WALL (     409 calls)
     cegterg:over :   3937.96s CPU   2693.16s WALL (     305 calls)
     cegterg:upda :   1878.72s CPU   1164.68s WALL (     305 calls)
     cegterg:last :   1235.01s CPU    753.07s WALL (     112 calls)

     Called by h_psi:
     h_psi:vloc   :   6449.56s CPU   6490.46s WALL (     425 calls)
     h_psi:vnl    :   8975.65s CPU   5637.40s WALL (     425 calls)
     add_vuspsi   :   4347.57s CPU   2662.91s WALL (     425 calls)

     General routines
     calbec       :   7169.74s CPU   4722.51s WALL (     553 calls)
     fft          :    119.53s CPU    119.58s WALL (     249 calls)
     ffts         :      7.13s CPU      7.21s WALL (     366 calls)
     fftw         :   7106.51s CPU   7152.98s WALL (  453684 calls)
     interpolate  :      1.96s CPU      1.98s WALL (      28 calls)

     Parallel routines
     fft_scatter  :   4426.16s CPU   4469.53s WALL (  454299 calls)

     PWSCF        :    13h52m CPU       10h56m WALL


   This run was terminated on:   8:36: 4  19Jan2017            

=------------------------------------------------------------------------------=
   JOB DONE.
=------------------------------------------------------------------------------=
