
     Program PWSCF v.5.1 starts on 18Jan2017 at 20:38:55 

     This program is part of the open-source Quantum ESPRESSO suite
     for quantum simulation of materials; please cite
         "P. Giannozzi et al., J. Phys.:Condens. Matter 21 395502 (2009);
          URL http://www.quantum-espresso.org", 
     in publications or presentations arising from this work. More details at
     http://www.quantum-espresso.org/quote

     Parallel version (MPI), running on    16 processors
     R & G space division:  proc/nbgrp/npool/nimage =      16
     Reading input from /tmp/SiGe_zns.scf.in.super.444.01.12490/SiGe_zns.scf.in.super.444.01.t
Warning: card &IONS ignored
Warning: card   ION_DYNAMICS='BFGS', ignored
Warning: card / ignored
Warning: card &CELL ignored
Warning: card  CELL_DYNAMICS = 'BFGS' ignored
Warning: card / ignored
     Message from routine read_cards :
     DEPRECATED: no units specified in CELL_PARAMETERS card

     Current dimensions of program PWSCF are:
     Max number of different atomic species (ntypx) = 10
     Max number of k-points (npk) =  40000
     Max angular momentum in pseudopotentials (lmaxx) =  3

     Subspace diagonalization in iterative solution of the eigenvalue problem:
     a serial algorithm will be used


     Parallelization info
     --------------------
     sticks:   dense  smooth     PW     G-vecs:    dense   smooth      PW
     Min         756     527    138                54768    32060    4315
     Max         757     528    139                54770    32083    4319
     Sum       12097    8443   2221               876295   513103   69089



     bravais-lattice index     =            0
     lattice parameter (alat)  =    29.598892955  a.u.
     unit-cell volume          =   18336.2874 (a.u.)^3
     number of atoms/cell      =          128
     number of atomic types    =            2
     number of electrons       =      1152.00
     number of Kohn-Sham states=          691
     kinetic-energy cutoff     =      35.0000  Ry
     charge density cutoff     =     200.0000  Ry
     convergence threshold     =      1.0E-09
     mixing beta               =       0.3000
     number of iterations used =            8  local-TF  mixing
     Exchange-correlation      = SLA  PW   PSX  PSC ( 1  4 10  8 0)
     A smooth kinetic-energy cutoff is imposed at      34.5000 Ry
     height of the smooth step-function =             800.0000 Ry
     width of the smooth step-function  =               1.0000 Ry


     celldm(1)=  29.598893  celldm(2)=   0.000000  celldm(3)=   0.000000
     celldm(4)=   0.000000  celldm(5)=   0.000000  celldm(6)=   0.000000

     crystal axes: (cart. coord. in units of alat)
               a(1) = (  -0.000000000000   0.707106781187   0.707106781187 )  
               a(2) = (   0.707106781187   0.000000000000   0.707106781187 )  
               a(3) = (   0.707106781187   0.707106781187  -0.000000000000 )  

     reciprocal axes: (cart. coord. in units 2 pi/alat)
               b(1) = ( -0.707107  0.707107  0.707107 )  
               b(2) = (  0.707107 -0.707107  0.707107 )  
               b(3) = (  0.707107  0.707107 -0.707107 )  


     PseudoPot. # 1 for Si read from file:
     /users/kfg/psuedo/gbrv_1.5/si.pbesol.UPF
     MD5 check sum: ef58ba74faed4df802eb8a9742fc00a8
     Pseudo is Ultrasoft + core correction, Zval =  4.0
     Generated by new atomic code, or converted to UPF format
     Using radial grid of  899 points,  6 beta functions with: 
                l(1) =   0
                l(2) =   0
                l(3) =   1
                l(4) =   1
                l(5) =   2
                l(6) =   2
     Q(r) pseudized with  8 coefficients,  rinner =    0.900   0.900   0.900
                                                       0.900   0.900

     PseudoPot. # 2 for Ge read from file:
     /users/kfg/psuedo/gbrv_1.5/ge.pbesol.UPF
     MD5 check sum: 7bed0412183f5e553a4d27ec7023354d
     Pseudo is Ultrasoft + core correction, Zval = 14.0
     Generated by new atomic code, or converted to UPF format
     Using radial grid of  873 points,  6 beta functions with: 
                l(1) =   0
                l(2) =   0
                l(3) =   1
                l(4) =   1
                l(5) =   2
                l(6) =   2
     Q(r) pseudized with  8 coefficients,  rinner =    1.400   1.400   1.400
                                                       1.400   1.400

     atomic species   valence    mass     pseudopotential
        Si             4.00    28.08550     Si( 1.00)
        Ge            14.00    72.64000     Ge( 1.00)

     No symmetry found


                                    s                        frac. trans.

      isym =  1     identity                                     

 cryst.   s( 1) = (     1          0          0      )
                  (     0          1          0      )
                  (     0          0          1      )

 cart.    s( 1) = (  1.0000000  0.0000000  0.0000000 )
                  (  0.0000000  1.0000000  0.0000000 )
                  (  0.0000000  0.0000000  1.0000000 )


     point group C_1 (1)    
     there are  1 classes
     the character table:

       E    
A      1.00

     the symmetry operations in each class:
     E        1

   Cartesian axes

     site n.     atom                  positions (alat units)
         1           Si  tau(   1) = (   -0.00012152857    0.00005331619   -0.00010881787  )
         2           Ge  tau(   2) = (    0.08832219822    0.08832460195    0.08834973587  )
         3           Si  tau(   3) = (    0.17686791073    0.17686607821   -0.00012419894  )
         4           Ge  tau(   4) = (    0.26510488332    0.26513673629    0.08855667803  )
         5           Si  tau(   5) = (    0.35355510304    0.35352981405   -0.00000541359  )
         6           Ge  tau(   6) = (    0.44187166907    0.44182362897    0.08839335037  )
         7           Si  tau(   7) = (    0.53021896215    0.53041124982    0.00015698045  )
         8           Ge  tau(   8) = (    0.61860537070    0.61884905865    0.08840075160  )
         9           Si  tau(   9) = (    0.17693611855   -0.00014577100    0.17690106382  )
        10           Ge  tau(  10) = (    0.26505404495    0.08839420973    0.26516718956  )
        11           Si  tau(  11) = (    0.35355707014    0.17676108008    0.17668217057  )
        12           Ge  tau(  12) = (    0.44183181242    0.26502088604    0.26520912489  )
        13           Si  tau(  13) = (    0.53022420394    0.35359608077    0.17664140630  )
        14           Ge  tau(  14) = (    0.61881782796    0.44195280603    0.26518613834  )
        15           Si  tau(  15) = (    0.70726247471    0.53026255127    0.17681177347  )
        16           Ge  tau(  16) = (    0.79537302656    0.61864136473    0.26528018886  )
        17           Si  tau(  17) = (    0.35347934959    0.00005002587    0.35360033292  )
        18           Ge  tau(  18) = (    0.44187803133    0.08824753419    0.44209822432  )
        19           Si  tau(  19) = (    0.53024293211    0.17668144958    0.35372185386  )
        20           Ge  tau(  20) = (    0.61863071638    0.26516047056    0.44199857212  )
        21           Si  tau(  21) = (    0.70702746888    0.35346278474    0.35356254795  )
        22           Ge  tau(  22) = (    0.79542266373    0.44200437579    0.44195830752  )
        23           Si  tau(  23) = (    0.88396882356    0.53026731807    0.35351134526  )
        24           Ge  tau(  24) = (    0.97236047687    0.61868964498    0.44190622032  )
        25           Si  tau(  25) = (    0.53038525515    0.00008509616    0.53046792799  )
        26           Ge  tau(  26) = (    0.61884609557    0.08847263236    0.61877638360  )
        27           Si  tau(  27) = (    0.70709387802    0.17667170365    0.53032091926  )
        28           Ge  tau(  28) = (    0.79562275807    0.26504783383    0.61860581031  )
        29           Si  tau(  29) = (    0.88374434166    0.35356499809    0.53034224856  )
        30           Ge  tau(  30) = (    0.97222913744    0.44177365008    0.61859415992  )
        31           Si  tau(  31) = (    1.06073855296    0.53018315843    0.53030993236  )
        32           Ge  tau(  32) = (    1.14917215753    0.61886030696    0.61886433344  )
        33           Si  tau(  33) = (    0.00001153425    0.17663844760    0.17670982723  )
        34           Ge  tau(  34) = (    0.08836456309    0.26527499872    0.26507971803  )
        35           Si  tau(  35) = (    0.17681268916    0.35364677542    0.17680159722  )
        36           Ge  tau(  36) = (    0.26506937716    0.44198678353    0.26533315977  )
        37           Si  tau(  37) = (    0.35351682062    0.53020155156    0.17681672068  )
        38           Ge  tau(  38) = (    0.44200476190    0.61875000030    0.26500063729  )
        39           Si  tau(  39) = (    0.53039464150    0.70724882065    0.17662449000  )
        40           Ge  tau(  40) = (    0.61876634978    0.79546322972    0.26532757775  )
        41           Si  tau(  41) = (    0.17692200002    0.17661286777    0.35348626444  )
        42           Ge  tau(  42) = (    0.26520961846    0.26530999782    0.44196638833  )
        43           Si  tau(  43) = (    0.35358223976    0.35341115779    0.35363800833  )
        44           Ge  tau(  44) = (    0.44189578215    0.44180325115    0.44187355494  )
        45           Si  tau(  45) = (    0.53043733806    0.53018181124    0.35364158722  )
        46           Ge  tau(  46) = (    0.61871112285    0.61881905863    0.44181047841  )
        47           Si  tau(  47) = (    0.70694417260    0.70698001900    0.35345578175  )
        48           Ge  tau(  48) = (    0.79540707812    0.79537867776    0.44182755684  )
        49           Si  tau(  49) = (    0.35363496015    0.17685171359    0.53020972218  )
        50           Ge  tau(  50) = (    0.44208884292    0.26526785252    0.61886385115  )
        51           Si  tau(  51) = (    0.53024337128    0.35359597832    0.53026611953  )
        52           Ge  tau(  52) = (    0.61855344138    0.44210323392    0.61871892822  )
        53           Si  tau(  53) = (    0.70718832533    0.53047381657    0.53049094558  )
        54           Ge  tau(  54) = (    0.79557180644    0.61875795736    0.61860424038  )
        55           Si  tau(  55) = (    0.88380954195    0.70696347642    0.53042713178  )
        56           Ge  tau(  56) = (    0.97231872549    0.79561061153    0.61886790611  )
        57           Si  tau(  57) = (    0.53026446147    0.17678639524    0.70694732135  )
        58           Ge  tau(  58) = (    0.61866635718    0.26512404674    0.79535744917  )
        59           Si  tau(  59) = (    0.70705543653    0.35358569250    0.70725589361  )
        60           Ge  tau(  60) = (    0.79536940939    0.44179660117    0.79560273880  )
        61           Si  tau(  61) = (    0.88398219348    0.53044797133    0.70710001414  )
        62           Ge  tau(  62) = (    0.97220004565    0.61886910932    0.79556202935  )
        63           Si  tau(  63) = (    1.06070353753    0.70726212750    0.70694668752  )
        64           Ge  tau(  64) = (    1.14908206587    0.79548048466    0.79536784529  )
        65           Si  tau(  65) = (   -0.00011160486    0.35345793517    0.35368941269  )
        66           Ge  tau(  66) = (    0.08847147630    0.44192543361    0.44182439261  )
        67           Si  tau(  67) = (    0.17667302609    0.53038346867    0.35352341813  )
        68           Ge  tau(  68) = (    0.26503610266    0.61864701054    0.44203637278  )
        69           Si  tau(  69) = (    0.35367041544    0.70711500273    0.35341442459  )
        70           Ge  tau(  70) = (    0.44194976098    0.79547642021    0.44187880917  )
        71           Si  tau(  71) = (    0.53033768193    0.88378175216    0.35371336306  )
        72           Ge  tau(  72) = (    0.61879001310    0.97218292221    0.44187929141  )
        73           Si  tau(  73) = (    0.17674122566    0.35372085601    0.53020465245  )
        74           Ge  tau(  74) = (    0.26502614364    0.44189109556    0.61856543435  )
        75           Si  tau(  75) = (    0.35355539766    0.53022211416    0.53024826350  )
        76           Ge  tau(  76) = (    0.44195342960    0.61866760032    0.61864763852  )
        77           Si  tau(  77) = (    0.53041646114    0.70709539457    0.53025393560  )
        78           Ge  tau(  78) = (    0.61864921035    0.79541078518    0.61863367148  )
        79           Si  tau(  79) = (    0.70697914083    0.88399311855    0.53029084926  )
        80           Ge  tau(  80) = (    0.79544010456    0.97240106589    0.61876721163  )
        81           Si  tau(  81) = (    0.35348205928    0.35363063774    0.70714201681  )
        82           Ge  tau(  82) = (    0.44182849507    0.44197937098    0.79552946333  )
        83           Si  tau(  83) = (    0.53026510228    0.53019828695    0.70714185354  )
        84           Ge  tau(  84) = (    0.61873160051    0.61886573006    0.79560067269  )
        85           Si  tau(  85) = (    0.70695897869    0.70695818723    0.70693932731  )
        86           Ge  tau(  86) = (    0.79537972235    0.79551352190    0.79556906331  )
        87           Si  tau(  87) = (    0.88389525156    0.88376440520    0.70710035516  )
        88           Ge  tau(  88) = (    0.97224039929    0.97239441375    0.79553773583  )
        89           Si  tau(  89) = (    0.53046368946    0.35361811401    0.88403550368  )
        90           Ge  tau(  90) = (    0.61874903414    0.44186936809    0.97229937606  )
        91           Si  tau(  91) = (    0.70701014705    0.53042638111    0.88400453119  )
        92           Ge  tau(  92) = (    0.79566372100    0.61886397354    0.97239293612  )
        93           Si  tau(  93) = (    0.88399380096    0.70713529762    0.88395369839  )
        94           Ge  tau(  94) = (    0.97226385269    0.79543390780    0.97220445126  )
        95           Si  tau(  95) = (    1.06059885311    0.88399736529    0.88382631829  )
        96           Ge  tau(  96) = (    1.14890408167    0.97235023471    0.97219693215  )
        97           Si  tau(  97) = (   -0.00003270000    0.53042232009    0.53038992834  )
        98           Ge  tau(  98) = (    0.08828255506    0.61874649133    0.61856038529  )
        99           Si  tau(  99) = (    0.17668068918    0.70711614355    0.53017852277  )
       100           Ge  tau( 100) = (    0.26507850599    0.79535630462    0.61881136503  )
       101           Si  tau( 101) = (    0.35370551055    0.88382778061    0.53018531709  )
       102           Ge  tau( 102) = (    0.44190724834    0.97237371536    0.61857660029  )
       103           Si  tau( 103) = (    0.53043671115    1.06072704650    0.53038798725  )
       104           Ge  tau( 104) = (    0.61874838322    1.14909256013    0.61879633786  )
       105           Si  tau( 105) = (    0.17674664330    0.53040786618    0.70697781118  )
       106           Ge  tau( 106) = (    0.26518388317    0.61880553042    0.79540025123  )
       107           Si  tau( 107) = (    0.35355375557    0.70708884901    0.70711590257  )
       108           Ge  tau( 108) = (    0.44204890373    0.79539485309    0.79551040811  )
       109           Si  tau( 109) = (    0.53045418596    0.88376337383    0.70706780365  )
       110           Ge  tau( 110) = (    0.61888481391    0.97235338430    0.79554476197  )
       111           Si  tau( 111) = (    0.70717290782    1.06075102673    0.70716806159  )
       112           Ge  tau( 112) = (    0.79561049744    1.14909461545    0.79555831494  )
       113           Si  tau( 113) = (    0.35351331571    0.53026257992    0.88403040557  )
       114           Ge  tau( 114) = (    0.44203591420    0.61866730653    0.97235213474  )
       115           Si  tau( 115) = (    0.53021403623    0.70698184615    0.88388882105  )
       116           Ge  tau( 116) = (    0.61856980300    0.79548068958    0.97234910005  )
       117           Si  tau( 117) = (    0.70714953002    0.88391167794    0.88382347699  )
       118           Ge  tau( 118) = (    0.79546103786    0.97231363813    0.97241563002  )
       119           Si  tau( 119) = (    0.88379340174    1.06068143190    0.88402584811  )
       120           Ge  tau( 120) = (    0.97239101791    1.14895939434    0.97221702418  )
       121           Si  tau( 121) = (    0.53039792379    0.53026987100    1.06066436354  )
       122           Ge  tau( 122) = (    0.61874821940    0.61879787184    1.14910577936  )
       123           Si  tau( 123) = (    0.70712953748    0.70707631270    1.06058622424  )
       124           Ge  tau( 124) = (    0.79558759108    0.79546245346    1.14914496722  )
       125           Si  tau( 125) = (    0.88384519388    0.88377854973    1.06056943304  )
       126           Ge  tau( 126) = (    0.97216600360    0.97215029275    1.14892877794  )
       127           Si  tau( 127) = (    1.06050685503    1.06071377762    1.06061702409  )
       128           Ge  tau( 128) = (    1.14901655266    1.14906550176    1.14893466673  )

   Crystallographic axes

     site n.     atom                  positions (cryst. coord.)
         1           Si  tau(   1) = (    0.00004668806   -0.00020057977    0.00002871242  )
         2           Ge  tau(   2) = (    0.06247439704    0.06247099766    0.06243545292  )
         3           Si  tau(   3) = (   -0.00008911770   -0.00008652612    0.25021552422  )
         4           Ge  tau(   4) = (    0.06264155101    0.06259650411    0.31231841733  )
         5           Si  tau(   5) = (   -0.00002171000    0.00001405403    0.49998836774  )
         6           Ge  tau(   6) = (    0.06246956798    0.06253750694    0.56236340028  )
         7           Si  tau(   7) = (    0.00024696986   -0.00002496598    0.74986781327  )
         8           Ge  tau(   8) = (    0.06268108433    0.06233645751    0.81250364748  )
         9           Si  tau(   9) = (   -0.00012786310    0.25030374676   -0.00007828823  )
        10           Ge  tau(  10) = (    0.06258415044    0.31241888533    0.06242413979  )
        11           Si  tau(  11) = (   -0.00008048253    0.24994680438    0.25005839928  )
        12           Ge  tau(  12) = (    0.06250696561    0.31255537568    0.31228916574  )
        13           Si  tau(  13) = (    0.00000939259    0.24979927987    0.50005098044  )
        14           Ge  tau(  14) = (    0.06245246034    0.31257737306    0.56256319188  )
        15           Si  tau(  15) = (   -0.00013304212    0.25018265014    0.75003753375  )
        16           Ge  tau(  16) = (    0.06261326393    0.31254957699    0.81227774431  )
        17           Si  tau(  17) = (    0.00012092177    0.49994546471   -0.00005017451  )
        18           Ge  tau(  18) = (    0.06255612981    0.56266517493    0.06224472989  )
        19           Si  tau(  19) = (    0.00011339965    0.50012484339    0.24975190256  )
        20           Ge  tau(  20) = (    0.06259897985    0.56248139539    0.31239455382  )
        21           Si  tau(  21) = (   -0.00000151051    0.50001446097    0.49987337449  )
        22           Ge  tau(  22) = (    0.06260724825    0.56241618424    0.56248133462  )
        23           Si  tau(  23) = (   -0.00013446359    0.50007500251    0.75004569648  )
        24           Ge  tau(  24) = (    0.06239184150    0.56255792857    0.81256744533  )
        25           Si  tau(  25) = (    0.00011863060    0.75007630757    0.00000171354  )
        26           Ge  tau(  26) = (    0.06251030449    0.81257164928    0.06260889210  )
        27           Si  tau(  27) = (   -0.00007159817    0.75005863461    0.24992311756  )
        28           Ge  tau(  28) = (    0.06224723649    0.81259349021    0.31258700479  )
        29           Si  tau(  29) = (    0.00011519123    0.74990200939    0.49990122426  )
        30           Ge  tau(  30) = (    0.06232345305    0.81250079751    0.56243883440  )
        31           Si  tau(  31) = (   -0.00017356797    0.75014506657    0.74996578116  )
        32           Ge  tau(  32) = (    0.06261606113    0.81259027250    0.81258457819  )
        33           Si  tau(  33) = (    0.24984680531    0.00005862896   -0.00004231707  )
        34           Ge  tau(  34) = (    0.31253423488    0.06234509748    0.06262126608  )
        35           Si  tau(  35) = (    0.25005818986   -0.00002297322    0.25007387623  )
        36           Ge  tau(  36) = (    0.31271837430    0.06251937880    0.31234532935  )
        37           Si  tau(  37) = (    0.24996327360    0.00009333084    0.49985495142  )
        38           Ge  tau(  38) = (    0.31236150427    0.06240599103    0.56268313788  )
        39           Si  tau(  39) = (    0.24994716396   -0.00016241476    0.75025371017  )
        40           Ge  tau(  40) = (    0.31255849148    0.06267136744    0.81239639636  )
        41           Si  tau(  41) = (    0.24973394513    0.25017112415    0.00003436776  )
        42           Ge  tau(  42) = (    0.31258840917    0.31244645132    0.06261658798  )
        43           Si  tau(  43) = (    0.24993886055    0.25018080700    0.24985999189  )
        44           Ge  tau(  44) = (    0.31238635783    0.31251721643    0.31241779185  )
        45           Si  tau(  45) = (    0.24988167968    0.25024304918    0.49990862830  )
        46           Ge  tau(  46) = (    0.31248350740    0.31233086316    0.56265879796  )
        47           Si  tau(  47) = (    0.24995632737    0.24990563289    0.74986440384  )
        48           Ge  tau(  48) = (    0.31239917948    0.31243934365    0.81243613384  )
        49           Si  tau(  49) = (    0.24991025756    0.49991952245    0.00019583433  )
        50           Ge  tau(  50) = (    0.31257150441    0.56263414715    0.06257389028  )
        51           Si  tau(  51) = (    0.25004619951    0.49986333840    0.25001402862  )
        52           Ge  tau(  52) = (    0.31273121155    0.56226948803    0.31249717783  )
        53           Si  tau(  53) = (    0.25015771750    0.50006977245    0.50004554837  )
        54           Ge  tau(  54) = (    0.31239298155    0.56244552494    0.56266291357  )
        55           Si  tau(  55) = (    0.25001956964    0.50011767397    0.74977776682  )
        56           Ge  tau(  56) = (    0.31265418740    0.56255719874    0.81250912979  )
        57           Si  tau(  57) = (    0.24994050724    0.74983398250    0.00007321055  )
        58           Ge  tau(  58) = (    0.31241048063    0.81239481093    0.06253154198  )
        59           Si  tau(  59) = (    0.25016458546    0.75004629135    0.24988109634  )
        60           Ge  tau(  60) = (    0.31256236141    0.81258982207    0.31223238378  )
        61           Si  tau(  61) = (    0.25000876911    0.74998166084    0.50015794608  )
        62           Ge  tau(  62) = (    0.31270460473    0.81239000689    0.56250848301  )
        63           Si  tau(  63) = (    0.24996597890    0.74980761447    0.75025371397  )
        64           Ge  tau(  64) = (    0.31237592103    0.81244407286    0.81260336897  )
        65           Si  tau(  65) = (    0.50010760153    0.00008476277   -0.00024259588  )
        66           Ge  tau(  66) = (    0.56234671416    0.06248733405    0.06263022761  )
        67           Si  tau(  67) = (    0.50008985879   -0.00013224626    0.24998563586  )
        68           Ge  tau(  68) = (    0.56260758758    0.06252624587    0.31229140504  )
        69           Si  tau(  69) = (    0.49982480064   -0.00002132825    0.50018682638  )
        70           Ge  tau(  70) = (    0.56243660050    0.06247440435    0.56253694151  )
        71           Si  tau(  71) = (    0.50003581645    0.00019041879    0.74982032364  )
        72           Ge  tau(  72) = (    0.56234236588    0.06256932096    0.81253190783  )
        73           Si  tau(  73) = (    0.50005480192    0.24976780841    0.00018202995  )
        74           Ge  tau(  74) = (    0.56245422009    0.31232940638    0.06247416034  )
        75           Si  tau(  75) = (    0.49986437608    0.25001990959    0.24998292884  )
        76           Ge  tau(  76) = (    0.56240572881    0.31249415191    0.31252238217  )
        77           Si  tau(  77) = (    0.49987702554    0.25001528169    0.50010687135  )
        78           Ge  tau(  78) = (    0.56242937239    0.31245075597    0.56245134767  )
        79           Si  tau(  79) = (    0.50014003952    0.24980447151    0.75001501778  )
        80           Ge  tau(  80) = (    0.56266478708    0.31240419556    0.81251798837  )
        81           Si  tau(  81) = (    0.50012997618    0.49991985452   -0.00002073223  )
        82           Ge  tau(  82) = (    0.56263096353    0.56241759278    0.06242225720  )
        83           Si  tau(  83) = (    0.49997755433    0.50007204547    0.24983605383  )
        84           Ge  tau(  84) = (    0.56266947469    0.56247978685    0.31253883405  )
        85           Si  tau(  85) = (    0.49988103259    0.49988215188    0.49990882383  )
        86           Ge  tau(  86) = (    0.56264689014    0.56245766900    0.56237912158  )
        87           Si  tau(  87) = (    0.49990293377    0.50008797846    0.74992867401  )
        88           Ge  tau(  88) = (    0.56263903237    0.56242122302    0.81253433554  )
        89           Si  tau(  89) = (    0.50005879383    0.75015620509    0.00003273890  )
        90           Ge  tau(  90) = (    0.56244667084    0.81259229347    0.06245098232  )
        91           Si  tau(  91) = (    0.50022202026    0.74994917695    0.24991416175  )
        92           Ge  tau(  92) = (    0.56256933877    0.81260193944    0.31263648588  )
        93           Si  tau(  93) = (    0.49999180736    0.75010750141    0.50004852096  )
        94           Ge  tau(  94) = (    0.56241470704    0.81249001333    0.56249871334  )
        95           Si  tau(  95) = (    0.50008347345    0.74983569266    0.75007758965  )
        96           Ge  tau(  96) = (    0.56260462094    0.81228946580    0.81250626837  )
        97           Si  tau(  97) = (    0.75013065682   -0.00004602682   -0.00000021796  )
        98           Ge  tau(  98) = (    0.81248288953    0.06229359650    0.06255679019  )
        99           Si  tau(  99) = (    0.74996733546   -0.00018167807    0.25004590492  )
       100           Ge  tau( 100) = (    0.81252873981    0.06260268516    0.31227493311  )
       101           Si  tau( 101) = (    0.74975068501    0.00004458099    0.50017054912  )
       102           Ge  tau( 102) = (    0.81249614477    0.06230327272    0.56264795119  )
       103           Si  tau( 103) = (    0.75001283457    0.00006905032    0.75008174057  )
       104           Ge  tau( 104) = (    0.81256505053    0.06254512281    0.81249723243  )
       105           Si  tau( 105) = (    0.74998505337    0.24983255549    0.00012494457  )
       106           Ge  tau( 106) = (    0.81248117615    0.31238464666    0.06264199745  )
       107           Si  tau( 107) = (    0.74999351175    0.25001938784    0.24998112832  )
       108           Ge  tau( 108) = (    0.81236412098    0.31265748718    0.31249406771  )
       109           Si  tau( 109) = (    0.74979976133    0.25014511612    0.50003038788  )
       110           Ge  tau( 110) = (    0.81247511898    0.31259507287    0.56264022451  )
       111           Si  tau( 111) = (    0.75006081735    0.25002584623    0.75006767095  )
       112           Ge  tau( 112) = (    0.81249569621    0.31259366243    0.81256949342  )
       113           Si  tau( 113) = (    0.75008449784    0.50012329126   -0.00017996570  )
       114           Ge  tau( 114) = (    0.81245404346    0.56265953290    0.06247365203  )
       115           Si  tau( 115) = (    0.74999749628    0.50001006209    0.24982581890  )
       116           Ge  tau( 116) = (    0.81264952989    0.56245975477    0.31233004991  )
       117           Si  tau( 117) = (    0.74994728740    0.49996786051    0.50009259548  )
       118           Ge  tau( 118) = (    0.81265535904    0.56254801320    0.56240377489  )
       119           Si  tau( 119) = (    0.75017939758    0.50002194630    0.74985066877  )
       120           Ge  tau( 120) = (    0.81231394690    0.56260855426    0.81256001119  )
       121           Si  tau( 121) = (    0.74991241702    0.75009351102    0.00000242626  )
       122           Ge  tau( 122) = (    0.81257559846    0.81250537931    0.06253674426  )
       123           Si  tau( 123) = (    0.74991007559    0.74998534680    0.25004683546  )
       124           Ge  tau( 124) = (    0.81247971323    0.81265668455    0.31247407682  )
       125           Si  tau( 125) = (    0.74988871349    0.74998296256    0.49996289767  )
       126           Ge  tau( 126) = (    0.81240422074    0.81242643923    0.56242390794  )
       127           Si  tau( 127) = (    0.75011580634    0.74982317361    0.74996000377  )
       128           Ge  tau( 128) = (    0.81245410623    0.81238488174    0.81256991042  )

     number of k points=     8  gaussian smearing, width (Ry)=  0.0150
                       cart. coord. in units 2pi/alat
        k(    1) = (   0.0000000   0.0000000   0.0000000), wk =   0.2500000
        k(    2) = (  -0.3535534  -0.3535534   0.3535534), wk =   0.2500000
        k(    3) = (  -0.7071068   0.0000000   0.0000000), wk =   0.2500000
        k(    4) = (   0.3535534   0.3535534   0.3535534), wk =   0.2500000
        k(    5) = (   0.3535534  -0.3535534  -0.3535534), wk =   0.2500000
        k(    6) = (  -0.3535534   0.3535534  -0.3535534), wk =   0.2500000
        k(    7) = (   0.0000000  -0.7071068   0.0000000), wk =   0.2500000
        k(    8) = (   0.0000000   0.0000000  -0.7071068), wk =   0.2500000

                       cryst. coord.
        k(    1) = (   0.0000000   0.0000000   0.0000000), wk =   0.2500000
        k(    2) = (   0.0000000   0.0000000  -0.5000000), wk =   0.2500000
        k(    3) = (   0.0000000  -0.5000000  -0.5000000), wk =   0.2500000
        k(    4) = (   0.5000000   0.5000000   0.5000000), wk =   0.2500000
        k(    5) = (  -0.5000000   0.0000000   0.0000000), wk =   0.2500000
        k(    6) = (   0.0000000  -0.5000000   0.0000000), wk =   0.2500000
        k(    7) = (  -0.5000000   0.0000000  -0.5000000), wk =   0.2500000
        k(    8) = (  -0.5000000  -0.5000000   0.0000000), wk =   0.2500000

     Dense  grid:   876295 G-vectors     FFT dimensions: ( 135, 135, 135)

     Smooth grid:   513103 G-vectors     FFT dimensions: ( 120, 120, 120)

     Largest allocated arrays     est. size (Mb)     dimensions
        Kohn-Sham Wavefunctions        42.47 Mb     (    4028,  691)
        NL pseudopotentials           141.61 Mb     (    4028, 2304)
        Each V/rho on FFT grid          2.50 Mb     (  164025)
        Each G-vector array             0.42 Mb     (   54770)
        G-vector shells                 0.02 Mb     (    2932)
     Largest temporary arrays     est. size (Mb)     dimensions
        Auxiliary wavefunctions       169.88 Mb     (    4028, 2764)
        Each subspace H/S matrix      116.57 Mb     (    2764, 2764)
        Each <psi_i|beta_j> matrix     24.29 Mb     (    2304,  691)
        Arrays for rho mixing          20.02 Mb     (  164025,    8)

     Initial potential from superposition of free atoms

     starting charge 1151.90680, renormalised to 1152.00000
     Starting wfc are  832 randomized atomic wfcs

     total cpu time spent up to now is     1011.1 secs

     Self-consistent Calculation

     iteration #  1     ecut=    35.00 Ry     beta=0.30
     Davidson diagonalization with overlap
     ethr =  1.00E-02,  avg # of iterations =  3.0

     Threshold (ethr) on eigenvalues was too large:
     Diagonalizing with lowered threshold

     Davidson diagonalization with overlap
     ethr =  2.37E-04,  avg # of iterations =  4.1

     total cpu time spent up to now is     7178.5 secs

     total energy              =  -14256.07763632 Ry
     Harris-Foulkes estimate   =  -14256.36457768 Ry
     estimated scf accuracy    <       2.75972270 Ry

     iteration #  2     ecut=    35.00 Ry     beta=0.30
     Davidson diagonalization with overlap
     ethr =  2.40E-04,  avg # of iterations =  1.0

     total cpu time spent up to now is     9054.1 secs

     total energy              =  -14255.54007726 Ry
     Harris-Foulkes estimate   =  -14256.09311656 Ry
     estimated scf accuracy    <       1.70097747 Ry

     iteration #  3     ecut=    35.00 Ry     beta=0.30
     Davidson diagonalization with overlap
     ethr =  1.48E-04,  avg # of iterations =  2.0

     total cpu time spent up to now is    11175.1 secs

     total energy              =  -14255.64038026 Ry
     Harris-Foulkes estimate   =  -14255.63957837 Ry
     estimated scf accuracy    <       0.02573728 Ry

     iteration #  4     ecut=    35.00 Ry     beta=0.30
     Davidson diagonalization with overlap
     ethr =  2.23E-06,  avg # of iterations =  7.9

     total cpu time spent up to now is    19303.8 secs

     total energy              =  -14255.64513562 Ry
     Harris-Foulkes estimate   =  -14255.64735785 Ry
     estimated scf accuracy    <       0.01241754 Ry

     iteration #  5     ecut=    35.00 Ry     beta=0.30
     Davidson diagonalization with overlap
     ethr =  1.08E-06,  avg # of iterations =  2.0

     total cpu time spent up to now is    21623.0 secs

     total energy              =  -14255.64501925 Ry
     Harris-Foulkes estimate   =  -14255.64560706 Ry
     estimated scf accuracy    <       0.00158929 Ry

     iteration #  6     ecut=    35.00 Ry     beta=0.30
     Davidson diagonalization with overlap
     ethr =  1.38E-07,  avg # of iterations =  2.9

     total cpu time spent up to now is    24196.9 secs

     total energy              =  -14255.64518284 Ry
     Harris-Foulkes estimate   =  -14255.64534805 Ry
     estimated scf accuracy    <       0.00067472 Ry

     iteration #  7     ecut=    35.00 Ry     beta=0.30
     Davidson diagonalization with overlap
     ethr =  5.86E-08,  avg # of iterations =  2.0

     total cpu time spent up to now is    26520.5 secs

     total energy              =  -14255.64522526 Ry
     Harris-Foulkes estimate   =  -14255.64523157 Ry
     estimated scf accuracy    <       0.00003702 Ry

     iteration #  8     ecut=    35.00 Ry     beta=0.30
     Davidson diagonalization with overlap
     ethr =  3.21E-09,  avg # of iterations =  2.0

     total cpu time spent up to now is    28752.9 secs

     total energy              =  -14255.64522480 Ry
     Harris-Foulkes estimate   =  -14255.64522675 Ry
     estimated scf accuracy    <       0.00000963 Ry

     iteration #  9     ecut=    35.00 Ry     beta=0.30
     Davidson diagonalization with overlap
     ethr =  8.36E-10,  avg # of iterations =  2.0

     total cpu time spent up to now is    31058.3 secs

     total energy              =  -14255.64522658 Ry
     Harris-Foulkes estimate   =  -14255.64522607 Ry
     estimated scf accuracy    <       0.00000044 Ry

     iteration # 10     ecut=    35.00 Ry     beta=0.30
     Davidson diagonalization with overlap
     ethr =  3.85E-11,  avg # of iterations =  2.3

     total cpu time spent up to now is    33860.0 secs

     total energy              =  -14255.64522689 Ry
     Harris-Foulkes estimate   =  -14255.64522665 Ry
     estimated scf accuracy    <       0.00000016 Ry

     iteration # 11     ecut=    35.00 Ry     beta=0.30
     Davidson diagonalization with overlap
     ethr =  1.41E-11,  avg # of iterations =  2.5

     total cpu time spent up to now is    36620.4 secs

     total energy              =  -14255.64522709 Ry
     Harris-Foulkes estimate   =  -14255.64522693 Ry
     estimated scf accuracy    <       0.00000003 Ry

     iteration # 12     ecut=    35.00 Ry     beta=0.30
     Davidson diagonalization with overlap
     ethr =  2.53E-12,  avg # of iterations =  2.0

     total cpu time spent up to now is    38847.4 secs

     total energy              =  -14255.64522718 Ry
     Harris-Foulkes estimate   =  -14255.64522710 Ry
     estimated scf accuracy    <          5.8E-09 Ry

     iteration # 13     ecut=    35.00 Ry     beta=0.30
     Davidson diagonalization with overlap
     ethr =  5.06E-13,  avg # of iterations =  2.5

     total cpu time spent up to now is    41290.4 secs

     End of self-consistent calculation

          k = 0.0000 0.0000 0.0000 ( 64071 PWs)   bands (ev):

   -17.0166 -17.0165 -17.0165 -17.0130 -17.0129 -17.0128 -17.0126 -17.0126
   -17.0125 -17.0120 -17.0119 -17.0118 -17.0117 -17.0116 -17.0115 -17.0114
   -17.0114 -17.0113 -17.0113 -17.0113 -17.0112 -17.0111 -17.0111 -17.0110
   -17.0110 -17.0109 -17.0108 -17.0108 -17.0107 -17.0106 -17.0105 -17.0104
   -17.0103 -17.0100 -17.0098 -17.0097 -17.0095 -17.0093 -17.0093 -17.0092
   -17.0092 -17.0090 -17.0090 -17.0090 -17.0089 -17.0089 -17.0087 -17.0086
   -17.0085 -17.0083 -17.0082 -17.0082 -17.0080 -17.0080 -17.0079 -17.0078
   -17.0077 -17.0076 -17.0075 -17.0074 -17.0073 -17.0073 -17.0072 -17.0070
   -17.0067 -17.0066 -17.0064 -17.0063 -17.0063 -17.0062 -17.0060 -17.0060
   -17.0059 -17.0058 -17.0058 -17.0057 -17.0056 -17.0056 -17.0054 -17.0052
   -17.0051 -17.0049 -17.0039 -17.0038 -17.0037 -17.0035 -17.0035 -17.0034
   -17.0034 -17.0033 -17.0033 -17.0032 -17.0031 -17.0030 -17.0030 -17.0029
   -17.0029 -17.0028 -17.0028 -17.0027 -17.0027 -17.0026 -17.0026 -17.0025
   -17.0025 -17.0024 -17.0023 -17.0023 -17.0022 -17.0021 -17.0021 -17.0020
   -17.0019 -17.0019 -17.0019 -17.0018 -17.0018 -17.0017 -17.0017 -17.0016
   -17.0016 -17.0016 -17.0015 -17.0014 -17.0014 -17.0013 -17.0012 -17.0011
   -17.0010 -17.0009 -17.0008 -17.0008 -17.0006 -17.0004 -17.0004 -17.0003
   -17.0002 -17.0001 -17.0001 -17.0000 -16.9999 -16.9999 -16.9998 -16.9997
   -16.9996 -16.9996 -16.9995 -16.9994 -16.9993 -16.9993 -16.9993 -16.9992
   -16.9991 -16.9990 -16.9989 -16.9989 -16.9988 -16.9987 -16.9986 -16.9986
   -16.9985 -16.9984 -16.9983 -16.9983 -16.9982 -16.9981 -16.9981 -16.9980
   -16.9979 -16.9979 -16.9978 -16.9977 -16.9976 -16.9975 -16.9974 -16.9973
   -16.9971 -16.9970 -16.9969 -16.9964 -16.9957 -16.9957 -16.9956 -16.9955
   -16.9953 -16.9952 -16.9951 -16.9951 -16.9949 -16.9941 -16.9939 -16.9937
   -16.9860 -16.9858 -16.9856 -16.9833 -16.9832 -16.9831 -16.9828 -16.9827
   -16.9825 -16.9825 -16.9824 -16.9823 -16.9822 -16.9822 -16.9820 -16.9820
   -16.9819 -16.9818 -16.9817 -16.9817 -16.9816 -16.9815 -16.9815 -16.9814
   -16.9814 -16.9813 -16.9812 -16.9812 -16.9812 -16.9810 -16.9809 -16.9809
   -16.9808 -16.9807 -16.9806 -16.9806 -16.9805 -16.9804 -16.9803 -16.9802
   -16.9801 -16.9801 -16.9799 -16.9799 -16.9798 -16.9797 -16.9797 -16.9796
   -16.9794 -16.9794 -16.9793 -16.9793 -16.9792 -16.9792 -16.9791 -16.9790
   -16.9790 -16.9789 -16.9788 -16.9788 -16.9787 -16.9786 -16.9785 -16.9784
   -16.9783 -16.9782 -16.9782 -16.9781 -16.9781 -16.9780 -16.9780 -16.9779
   -16.9778 -16.9778 -16.9777 -16.9777 -16.9776 -16.9775 -16.9774 -16.9774
   -16.9774 -16.9773 -16.9772 -16.9771 -16.9771 -16.9770 -16.9770 -16.9770
   -16.9769 -16.9769 -16.9767 -16.9766 -16.9766 -16.9765 -16.9765 -16.9764
   -16.9763 -16.9763 -16.9762 -16.9761 -16.9760 -16.9759 -16.9758 -16.9758
   -16.9756 -16.9755 -16.9754 -16.9754 -16.9753 -16.9753 -16.9751 -16.9750
   -16.9750 -16.9749 -16.9748 -16.9746 -16.9745 -16.9745 -16.9743 -16.9740
   -16.9739 -16.9738 -16.9735 -16.9733 -16.9730 -16.9725 -16.9721 -16.9716
    -5.0839  -4.3176  -4.3158  -4.3148  -4.3141  -4.3132  -4.3125  -4.3119
    -4.3112  -4.0438  -4.0405  -4.0403  -4.0389  -4.0385  -4.0372  -3.1347
    -3.1327  -3.1323  -3.1310  -3.1309  -3.1302  -3.1282  -3.1278  -3.1273
    -3.1272  -3.1255  -3.1251  -2.8928  -2.8911  -2.8902  -2.8883  -2.5083
    -2.5077  -2.5070  -2.5068  -2.5049  -2.5044  -2.5039  -2.5038  -2.5032
    -2.5025  -2.5018  -2.5011  -2.5007  -2.5005  -2.5000  -2.4994  -2.4991
    -2.4985  -2.4983  -2.4975  -2.4970  -2.4966  -2.4954  -2.4936  -1.4549
    -1.4534  -1.4527  -1.3566  -1.3554  -1.3547  -1.3538  -1.3530  -1.3521
    -0.5971  -0.5955  -0.5937  -0.4252  -0.4237  -0.4232  -0.4217  -0.4212
    -0.4206   0.0787   0.0807   0.0814   0.0821   0.5125   0.5141   0.5146
     0.5151   0.5153   0.5158   0.5162   0.5166   0.5172   0.5176   0.5178
     0.5181   0.5187   0.5191   0.5193   0.5201   0.5203   0.5207   0.5209
     0.5221   0.5232   0.5233   0.5242   0.5248   1.3809   1.3815   1.3821
     1.3830   1.3836   1.3840   1.3851   1.3854   1.3862   1.3869   1.3874
     1.3880   3.0536   3.0544   3.0555   3.0561   3.0564   3.0570   3.0585
     3.0591   3.2788   3.2801   3.2804   3.2814   3.2826   3.2831   3.3800
     3.3811   3.3821   3.3827   3.3830   3.3836   3.4560   3.4564   3.4567
     3.4578   3.4585   3.4592   3.4884   3.4888   3.4890   3.4900   3.4904
     3.4906   3.4912   3.4916   3.4921   3.4925   3.4929   3.4933   3.6696
     3.6698   3.6702   3.6706   3.6709   3.6711   3.6717   3.6719   3.6721
     3.6727   3.6730   3.6732   3.6735   3.6736   3.6738   3.6740   3.6742
     3.6747   3.6750   3.6757   3.6759   3.6762   3.6766   3.6773   4.3568
     4.3571   4.3578   4.3582   4.3583   4.3590   5.0215   5.0224   5.0227
     5.0228   5.0233   5.0237   5.0241   5.0247   5.0249   5.0252   5.0254
     5.0258   5.0261   5.0263   5.0268   5.0271   5.0276   5.0277   5.0281
     5.0283   5.0287   5.0290   5.0296   5.0304   5.3659   5.3662   5.3671
     5.3679   5.3685   5.3690   5.3697   5.3700   5.3704   5.3710   5.3719
     5.3731   5.9229   5.9231   5.9241   5.9245   5.9246   5.9253   5.9260
     5.9272   5.9277   5.9284   5.9289   5.9304   6.0391   6.0394   6.0401
     6.0413   6.0420   6.0424   6.0434   6.0454   6.5247   6.5256   6.5257
     6.5265   6.5269   6.5274   6.5284   6.5287   6.5296   6.5300   6.5307
     6.5310   6.5314   6.5318   6.5333   6.5337   7.3626   7.3647   7.3652
     7.8703   7.8713   7.8734   8.1773   8.1800   8.1824   8.1911   8.1914
     8.1917   8.1925   8.3581   8.3587   8.3592   8.3596   8.3611   8.3618
     8.6996   8.7004   8.7006   8.7009   8.7013   8.7017   8.7017   8.7024
     8.7712   8.7722   8.7730   8.7733   8.7736   8.7740   8.7745   8.7751
     8.7754   8.7756   8.7765   8.7768   8.7770   8.7776   8.7779   8.7781
     8.7786   8.7791   8.7796   8.7799   8.7804   8.7808   8.7810   8.7824
     9.0004   9.5679   9.5686   9.5692   9.5698   9.5702   9.5709   9.5711
     9.5717   9.5719   9.5726   9.5733   9.5748   9.8729   9.8732   9.8747
    10.3425  10.3440  10.3442  10.3446  10.3457  10.3461  10.8579  10.8591
    10.8592  10.8596  10.8617  10.8621  10.8625  10.8638  10.8881  10.8887
    10.8891  10.8898  10.8903  10.8907  10.8910  10.8914  10.8917  10.8929
    10.8930  10.8936  10.8938  10.8946  10.8955  10.8964  11.7422  11.7426
    11.7431  11.7434  11.7441  11.7448  11.7451  11.7455  11.7459  11.7462
    11.7466  11.7470  11.7475  11.7480  11.7481  11.7494  11.7502  11.7506
    11.7513  11.7522  11.7527

     occupation numbers 
     1.0000   1.0000   1.0000   1.0000   1.0000   1.0000   1.0000   1.0000
     1.0000   1.0000   1.0000   1.0000   1.0000   1.0000   1.0000   1.0000
     1.0000   1.0000   1.0000   1.0000   1.0000   1.0000   1.0000   1.0000
     1.0000   1.0000   1.0000   1.0000   1.0000   1.0000   1.0000   1.0000
     1.0000   1.0000   1.0000   1.0000   1.0000   1.0000   1.0000   1.0000
     1.0000   1.0000   1.0000   1.0000   1.0000   1.0000   1.0000   1.0000
     1.0000   1.0000   1.0000   1.0000   1.0000   1.0000   1.0000   1.0000
     1.0000   1.0000   1.0000   1.0000   1.0000   1.0000   1.0000   1.0000
     1.0000   1.0000   1.0000   1.0000   1.0000   1.0000   1.0000   1.0000
     1.0000   1.0000   1.0000   1.0000   1.0000   1.0000   1.0000   1.0000
     1.0000   1.0000   1.0000   1.0000   1.0000   1.0000   1.0000   1.0000
     1.0000   1.0000   1.0000   1.0000   1.0000   1.0000   1.0000   1.0000
     1.0000   1.0000   1.0000   1.0000   1.0000   1.0000   1.0000   1.0000
     1.0000   1.0000   1.0000   1.0000   1.0000   1.0000   1.0000   1.0000
     1.0000   1.0000   1.0000   1.0000   1.0000   1.0000   1.0000   1.0000
     1.0000   1.0000   1.0000   1.0000   1.0000   1.0000   1.0000   1.0000
     1.0000   1.0000   1.0000   1.0000   1.0000   1.0000   1.0000   1.0000
     1.0000   1.0000   1.0000   1.0000   1.0000   1.0000   1.0000   1.0000
     1.0000   1.0000   1.0000   1.0000   1.0000   1.0000   1.0000   1.0000
     1.0000   1.0000   1.0000   1.0000   1.0000   1.0000   1.0000   1.0000
     1.0000   1.0000   1.0000   1.0000   1.0000   1.0000   1.0000   1.0000
     1.0000   1.0000   1.0000   1.0000   1.0000   1.0000   1.0000   1.0000
     1.0000   1.0000   1.0000   1.0000   1.0000   1.0000   1.0000   1.0000
     1.0000   1.0000   1.0000   1.0000   1.0000   1.0000   1.0000   1.0000
     1.0000   1.0000   1.0000   1.0000   1.0000   1.0000   1.0000   1.0000
     1.0000   1.0000   1.0000   1.0000   1.0000   1.0000   1.0000   1.0000
     1.0000   1.0000   1.0000   1.0000   1.0000   1.0000   1.0000   1.0000
     1.0000   1.0000   1.0000   1.0000   1.0000   1.0000   1.0000   1.0000
     1.0000   1.0000   1.0000   1.0000   1.0000   1.0000   1.0000   1.0000
     1.0000   1.0000   1.0000   1.0000   1.0000   1.0000   1.0000   1.0000
     1.0000   1.0000   1.0000   1.0000   1.0000   1.0000   1.0000   1.0000
     1.0000   1.0000   1.0000   1.0000   1.0000   1.0000   1.0000   1.0000
     1.0000   1.0000   1.0000   1.0000   1.0000   1.0000   1.0000   1.0000
     1.0000   1.0000   1.0000   1.0000   1.0000   1.0000   1.0000   1.0000
     1.0000   1.0000   1.0000   1.0000   1.0000   1.0000   1.0000   1.0000
     1.0000   1.0000   1.0000   1.0000   1.0000   1.0000   1.0000   1.0000
     1.0000   1.0000   1.0000   1.0000   1.0000   1.0000   1.0000   1.0000
     1.0000   1.0000   1.0000   1.0000   1.0000   1.0000   1.0000   1.0000
     1.0000   1.0000   1.0000   1.0000   1.0000   1.0000   1.0000   1.0000
     1.0000   1.0000   1.0000   1.0000   1.0000   1.0000   1.0000   1.0000
     1.0000   1.0000   1.0000   1.0000   1.0000   1.0000   1.0000   1.0000
     1.0000   1.0000   1.0000   1.0000   1.0000   1.0000   1.0000   1.0000
     1.0000   1.0000   1.0000   1.0000   1.0000   1.0000   1.0000   1.0000
     1.0000   1.0000   1.0000   1.0000   1.0000   1.0000   1.0000   1.0000
     1.0000   1.0000   1.0000   1.0000   1.0000   1.0000   1.0000   1.0000
     1.0000   1.0000   1.0000   1.0000   1.0000   1.0000   1.0000   1.0000
     1.0000   1.0000   1.0000   1.0000   1.0000   1.0000   1.0000   1.0000
     1.0000   1.0000   1.0000   1.0000   1.0000   1.0000   1.0000   1.0000
     1.0000   1.0000   1.0000   1.0000   1.0000   1.0000   1.0000   1.0000
     1.0000   1.0000   1.0000   1.0000   1.0000   1.0000   1.0000   1.0000
     1.0000   1.0000   1.0000   1.0000   1.0000   1.0000   1.0000   1.0000
     1.0000   1.0000   1.0000   1.0000   1.0000   1.0000   1.0000   1.0000
     1.0000   1.0000   1.0000   1.0000   1.0000   1.0000   1.0000   1.0000
     1.0000   1.0000   1.0000   1.0000   1.0000   1.0000   1.0000   1.0000
     1.0000   1.0000   1.0000   1.0000   1.0000   1.0000   1.0000   1.0000
     1.0000   1.0000   1.0000   1.0000   1.0000   1.0000   1.0000   1.0000
     1.0000   1.0000   1.0000   1.0000   1.0000   1.0000   1.0000   1.0000
     1.0000   1.0000   1.0000   1.0000   1.0000   1.0000   1.0000   1.0000
     1.0000   1.0000   1.0000   1.0000   1.0000   1.0000   1.0000   1.0000
     1.0000   1.0000   1.0000   1.0000   1.0000   1.0000   1.0000   1.0000
     1.0000   1.0000   1.0000   1.0000   1.0000   1.0000   1.0000   1.0000
     1.0000   1.0000   1.0000   1.0000   1.0000   1.0000   1.0000   1.0000
     1.0000   1.0000   1.0000   1.0000   1.0000   1.0000   1.0000   1.0000
     1.0000   1.0000   1.0000   1.0000   1.0000   1.0000   1.0000   1.0000
     1.0000   1.0000   1.0000   1.0000   1.0000   1.0000   1.0000   1.0000
     1.0000   1.0000   1.0000   1.0000   1.0000   1.0000   1.0000   1.0000
     1.0000   1.0000   1.0000   1.0000   1.0000   1.0000   1.0000   1.0000
     1.0000   1.0000   1.0000   1.0000   1.0000   1.0000   1.0000   1.0000
     1.0000   1.0000   1.0000   1.0000   1.0000   1.0000   1.0000   1.0000
     1.0000   1.0000   1.0000   1.0000   1.0000   1.0000   1.0000   1.0000
     1.0000   1.0000   1.0000   1.0000   1.0000   1.0000   1.0000   1.0000
     1.0000   1.0000   1.0000   1.0000   1.0000   0.9336   0.9317   0.9313
     0.0220   0.0216   0.0209   0.0000   0.0000   0.0000   0.0000   0.0000
     0.0000   0.0000   0.0000   0.0000   0.0000   0.0000   0.0000   0.0000
     0.0000   0.0000   0.0000   0.0000   0.0000   0.0000   0.0000   0.0000
     0.0000   0.0000   0.0000   0.0000   0.0000   0.0000   0.0000   0.0000
     0.0000   0.0000   0.0000   0.0000   0.0000   0.0000   0.0000   0.0000
     0.0000   0.0000   0.0000   0.0000   0.0000   0.0000   0.0000   0.0000
     0.0000   0.0000   0.0000   0.0000   0.0000   0.0000   0.0000   0.0000
     0.0000   0.0000   0.0000   0.0000   0.0000   0.0000   0.0000   0.0000
     0.0000   0.0000   0.0000   0.0000   0.0000   0.0000   0.0000   0.0000
     0.0000   0.0000   0.0000   0.0000   0.0000   0.0000   0.0000   0.0000
     0.0000   0.0000   0.0000   0.0000   0.0000   0.0000   0.0000   0.0000
     0.0000   0.0000   0.0000   0.0000   0.0000   0.0000   0.0000   0.0000
     0.0000   0.0000   0.0000   0.0000   0.0000   0.0000   0.0000   0.0000
     0.0000   0.0000   0.0000   0.0000   0.0000   0.0000   0.0000   0.0000
     0.0000   0.0000   0.0000

          k =-0.3536-0.3536 0.3536 ( 64114 PWs)   bands (ev):

   -17.0150 -17.0149 -17.0148 -17.0144 -17.0143 -17.0141 -17.0132 -17.0131
   -17.0130 -17.0129 -17.0127 -17.0124 -17.0117 -17.0114 -17.0113 -17.0112
   -17.0110 -17.0110 -17.0109 -17.0109 -17.0108 -17.0107 -17.0105 -17.0105
   -17.0105 -17.0104 -17.0102 -17.0102 -17.0101 -17.0100 -17.0099 -17.0099
   -17.0097 -17.0097 -17.0097 -17.0095 -17.0095 -17.0095 -17.0095 -17.0093
   -17.0093 -17.0092 -17.0092 -17.0091 -17.0091 -17.0090 -17.0089 -17.0088
   -17.0088 -17.0087 -17.0086 -17.0086 -17.0085 -17.0084 -17.0083 -17.0083
   -17.0081 -17.0080 -17.0080 -17.0079 -17.0078 -17.0077 -17.0076 -17.0075
   -17.0073 -17.0072 -17.0070 -17.0065 -17.0058 -17.0057 -17.0057 -17.0055
   -17.0054 -17.0053 -17.0052 -17.0050 -17.0049 -17.0048 -17.0048 -17.0047
   -17.0046 -17.0046 -17.0044 -17.0044 -17.0043 -17.0042 -17.0042 -17.0041
   -17.0041 -17.0041 -17.0040 -17.0039 -17.0038 -17.0037 -17.0037 -17.0035
   -17.0035 -17.0033 -17.0032 -17.0032 -17.0030 -17.0029 -17.0029 -17.0028
   -17.0028 -17.0026 -17.0026 -17.0025 -17.0025 -17.0023 -17.0023 -17.0022
   -17.0021 -17.0021 -17.0019 -17.0018 -17.0017 -17.0016 -17.0016 -17.0016
   -17.0015 -17.0014 -17.0014 -17.0013 -17.0012 -17.0011 -17.0010 -17.0009
   -17.0009 -17.0007 -17.0007 -17.0006 -17.0006 -17.0006 -17.0004 -17.0004
   -17.0004 -17.0003 -17.0002 -17.0001 -17.0001 -17.0000 -17.0000 -16.9999
   -16.9999 -16.9998 -16.9998 -16.9997 -16.9996 -16.9995 -16.9994 -16.9993
   -16.9992 -16.9991 -16.9991 -16.9990 -16.9990 -16.9989 -16.9988 -16.9988
   -16.9986 -16.9985 -16.9985 -16.9984 -16.9982 -16.9980 -16.9974 -16.9973
   -16.9972 -16.9972 -16.9970 -16.9969 -16.9968 -16.9968 -16.9967 -16.9966
   -16.9966 -16.9965 -16.9961 -16.9961 -16.9960 -16.9959 -16.9959 -16.9957
   -16.9956 -16.9955 -16.9954 -16.9953 -16.9951 -16.9942 -16.9941 -16.9938
   -16.9848 -16.9846 -16.9844 -16.9841 -16.9839 -16.9836 -16.9834 -16.9832
   -16.9829 -16.9829 -16.9827 -16.9825 -16.9825 -16.9824 -16.9822 -16.9822
   -16.9821 -16.9820 -16.9819 -16.9818 -16.9817 -16.9816 -16.9814 -16.9812
   -16.9811 -16.9811 -16.9810 -16.9810 -16.9809 -16.9808 -16.9807 -16.9807
   -16.9806 -16.9805 -16.9805 -16.9804 -16.9803 -16.9803 -16.9802 -16.9802
   -16.9801 -16.9801 -16.9800 -16.9799 -16.9798 -16.9798 -16.9797 -16.9796
   -16.9796 -16.9795 -16.9794 -16.9793 -16.9792 -16.9792 -16.9791 -16.9790
   -16.9790 -16.9789 -16.9788 -16.9787 -16.9787 -16.9786 -16.9786 -16.9785
   -16.9784 -16.9783 -16.9783 -16.9783 -16.9782 -16.9781 -16.9781 -16.9781
   -16.9780 -16.9779 -16.9778 -16.9777 -16.9777 -16.9776 -16.9775 -16.9775
   -16.9775 -16.9774 -16.9773 -16.9772 -16.9771 -16.9771 -16.9771 -16.9770
   -16.9769 -16.9768 -16.9767 -16.9767 -16.9766 -16.9765 -16.9765 -16.9764
   -16.9764 -16.9763 -16.9763 -16.9762 -16.9760 -16.9759 -16.9758 -16.9757
   -16.9756 -16.9755 -16.9755 -16.9754 -16.9754 -16.9753 -16.9751 -16.9750
   -16.9750 -16.9750 -16.9748 -16.9747 -16.9746 -16.9744 -16.9742 -16.9740
   -16.9738 -16.9737 -16.9736 -16.9734 -16.9732 -16.9726 -16.9721 -16.9717
    -4.8875  -4.8862  -4.3712  -4.3704  -4.3690  -4.3684  -4.3671  -4.3659
    -3.8844  -3.8839  -3.8837  -3.8820  -3.8805  -3.8793  -3.4683  -3.4665
    -3.3628  -3.3617  -3.3606  -3.3602  -3.3582  -3.3577  -2.9705  -2.9694
    -2.9690  -2.9678  -2.9674  -2.9662  -2.9647  -2.9645  -2.9642  -2.9637
    -2.9629  -2.9618  -2.8023  -2.8012  -2.8008  -2.8001  -2.7989  -2.7986
    -2.3300  -2.3294  -2.3280  -2.3272  -2.3262  -2.3246  -1.9664  -1.9661
    -1.9650  -1.9638  -1.9638  -1.9619  -1.8396  -1.8384  -1.8377  -1.8365
    -1.8357  -1.8351  -1.8346  -1.8336  -1.8335  -1.8326  -1.8317  -1.8301
    -0.0272  -0.0266  -0.0260  -0.0249  -0.0239  -0.0236  -0.0229  -0.0227
    -0.0212  -0.0201  -0.0195  -0.0186   0.0388   0.0397   0.0417   0.0424
     0.0429   0.0430   0.2649   0.2656   0.2669   0.2680   0.2686   0.2691
     0.2910   0.2933   0.2937   0.2952   0.2963   0.2976   1.0497   1.0516
     1.0539   1.0539   1.0552   1.0554   1.0562   1.0574   1.0578   1.0594
     1.0596   1.0601   1.0604   1.0615   1.8793   1.8798   1.8813   1.8817
     1.8825   1.8833   2.3101   2.3103   2.3114   2.3124   2.3125   2.3139
     3.1916   3.1917   3.1929   3.1934   3.1940   3.1946   3.1946   3.1947
     3.1951   3.1955   3.1962   3.1972   3.2210   3.2224   3.2231   3.2238
     3.2255   3.2262   3.6983   3.6985   3.7001   3.7016   3.7025   3.7045
     3.8072   3.8079   3.8084   3.8088   3.8091   3.8097   3.8702   3.8713
     3.8722   3.8725   3.8735   3.8736   3.8741   3.8744   3.8754   3.8760
     3.8763   3.8772   4.2897   4.2903   4.2910   4.2914   4.2919   4.2920
     4.2925   4.2928   4.2933   4.2943   4.2946   4.2954   4.5322   4.5329
     4.5332   4.5337   4.5342   4.5349   4.5535   4.5541   4.5545   4.5555
     4.5564   4.5568   4.8631   4.8638   4.8648   4.8652   4.8657   4.8666
     4.8910   4.8914   4.8925   4.8934   4.8938   4.8940   5.0287   5.0308
     5.0310   5.0311   5.0318   5.0337   5.3147   5.3151   5.3162   5.3168
     5.3176   5.3181   5.3185   5.3194   5.3199   5.3199   5.3211   5.3217
     5.3476   5.3482   5.3508   5.3514   5.3517   5.3521   5.4557   5.4577
     5.6770   5.6780   5.6785   5.6796   5.6798   5.6809   5.9585   5.9588
     5.9598   5.9601   5.9605   5.9620   5.9624   5.9630   5.9635   5.9641
     5.9647   5.9651   6.1654   6.1662   6.1669   6.1686   6.4979   6.4997
     6.5010   6.5013   6.5019   6.5038   7.0434   7.0456   7.0463   7.0474
     8.1723   8.1727   8.1729   8.1738   8.1743   8.1757   8.3224   8.3237
     8.5998   8.6003   8.6010   8.6027   8.6028   8.6042   9.0582   9.0592
     9.0613   9.0617   9.0619   9.0622   9.1660   9.1669   9.1674   9.1684
     9.1687   9.1699   9.2049   9.2064   9.2935   9.2939   9.2942   9.2946
     9.2965   9.2969   9.3680   9.3693   9.3705   9.3711   9.3712   9.3719
     9.5415   9.5426   9.5431   9.5438   9.5440   9.5451   9.6559   9.6566
     9.6573   9.6581   9.6583   9.6591   9.6594   9.6599   9.6601   9.6608
     9.6613   9.6620  10.0509  10.0520  10.0529  10.0533  10.0539  10.0543
    10.0553  10.0557  10.0566  10.0571  10.0578  10.0595  10.1754  10.1765
    10.1766  10.1776  10.1788  10.1790  10.3127  10.3129  10.3136  10.3153
    10.5147  10.5162  10.5164  10.5175  10.5180  10.5200  10.7900  10.7916
    10.7923  10.7936  10.7940  10.7941  10.7949  10.7956  10.7957  10.7961
    10.7961  10.7966  10.7985  10.7998  10.8001  10.8010  10.8015  10.8036
    10.9346  10.9363  10.9374  10.9385  11.0400  11.0406  11.0414  11.0419
    11.0430  11.0442  11.2020

     occupation numbers 
     1.0000   1.0000   1.0000   1.0000   1.0000   1.0000   1.0000   1.0000
     1.0000   1.0000   1.0000   1.0000   1.0000   1.0000   1.0000   1.0000
     1.0000   1.0000   1.0000   1.0000   1.0000   1.0000   1.0000   1.0000
     1.0000   1.0000   1.0000   1.0000   1.0000   1.0000   1.0000   1.0000
     1.0000   1.0000   1.0000   1.0000   1.0000   1.0000   1.0000   1.0000
     1.0000   1.0000   1.0000   1.0000   1.0000   1.0000   1.0000   1.0000
     1.0000   1.0000   1.0000   1.0000   1.0000   1.0000   1.0000   1.0000
     1.0000   1.0000   1.0000   1.0000   1.0000   1.0000   1.0000   1.0000
     1.0000   1.0000   1.0000   1.0000   1.0000   1.0000   1.0000   1.0000
     1.0000   1.0000   1.0000   1.0000   1.0000   1.0000   1.0000   1.0000
     1.0000   1.0000   1.0000   1.0000   1.0000   1.0000   1.0000   1.0000
     1.0000   1.0000   1.0000   1.0000   1.0000   1.0000   1.0000   1.0000
     1.0000   1.0000   1.0000   1.0000   1.0000   1.0000   1.0000   1.0000
     1.0000   1.0000   1.0000   1.0000   1.0000   1.0000   1.0000   1.0000
     1.0000   1.0000   1.0000   1.0000   1.0000   1.0000   1.0000   1.0000
     1.0000   1.0000   1.0000   1.0000   1.0000   1.0000   1.0000   1.0000
     1.0000   1.0000   1.0000   1.0000   1.0000   1.0000   1.0000   1.0000
     1.0000   1.0000   1.0000   1.0000   1.0000   1.0000   1.0000   1.0000
     1.0000   1.0000   1.0000   1.0000   1.0000   1.0000   1.0000   1.0000
     1.0000   1.0000   1.0000   1.0000   1.0000   1.0000   1.0000   1.0000
     1.0000   1.0000   1.0000   1.0000   1.0000   1.0000   1.0000   1.0000
     1.0000   1.0000   1.0000   1.0000   1.0000   1.0000   1.0000   1.0000
     1.0000   1.0000   1.0000   1.0000   1.0000   1.0000   1.0000   1.0000
     1.0000   1.0000   1.0000   1.0000   1.0000   1.0000   1.0000   1.0000
     1.0000   1.0000   1.0000   1.0000   1.0000   1.0000   1.0000   1.0000
     1.0000   1.0000   1.0000   1.0000   1.0000   1.0000   1.0000   1.0000
     1.0000   1.0000   1.0000   1.0000   1.0000   1.0000   1.0000   1.0000
     1.0000   1.0000   1.0000   1.0000   1.0000   1.0000   1.0000   1.0000
     1.0000   1.0000   1.0000   1.0000   1.0000   1.0000   1.0000   1.0000
     1.0000   1.0000   1.0000   1.0000   1.0000   1.0000   1.0000   1.0000
     1.0000   1.0000   1.0000   1.0000   1.0000   1.0000   1.0000   1.0000
     1.0000   1.0000   1.0000   1.0000   1.0000   1.0000   1.0000   1.0000
     1.0000   1.0000   1.0000   1.0000   1.0000   1.0000   1.0000   1.0000
     1.0000   1.0000   1.0000   1.0000   1.0000   1.0000   1.0000   1.0000
     1.0000   1.0000   1.0000   1.0000   1.0000   1.0000   1.0000   1.0000
     1.0000   1.0000   1.0000   1.0000   1.0000   1.0000   1.0000   1.0000
     1.0000   1.0000   1.0000   1.0000   1.0000   1.0000   1.0000   1.0000
     1.0000   1.0000   1.0000   1.0000   1.0000   1.0000   1.0000   1.0000
     1.0000   1.0000   1.0000   1.0000   1.0000   1.0000   1.0000   1.0000
     1.0000   1.0000   1.0000   1.0000   1.0000   1.0000   1.0000   1.0000
     1.0000   1.0000   1.0000   1.0000   1.0000   1.0000   1.0000   1.0000
     1.0000   1.0000   1.0000   1.0000   1.0000   1.0000   1.0000   1.0000
     1.0000   1.0000   1.0000   1.0000   1.0000   1.0000   1.0000   1.0000
     1.0000   1.0000   1.0000   1.0000   1.0000   1.0000   1.0000   1.0000
     1.0000   1.0000   1.0000   1.0000   1.0000   1.0000   1.0000   1.0000
     1.0000   1.0000   1.0000   1.0000   1.0000   1.0000   1.0000   1.0000
     1.0000   1.0000   1.0000   1.0000   1.0000   1.0000   1.0000   1.0000
     1.0000   1.0000   1.0000   1.0000   1.0000   1.0000   1.0000   1.0000
     1.0000   1.0000   1.0000   1.0000   1.0000   1.0000   1.0000   1.0000
     1.0000   1.0000   1.0000   1.0000   1.0000   1.0000   1.0000   1.0000
     1.0000   1.0000   1.0000   1.0000   1.0000   1.0000   1.0000   1.0000
     1.0000   1.0000   1.0000   1.0000   1.0000   1.0000   1.0000   1.0000
     1.0000   1.0000   1.0000   1.0000   1.0000   1.0000   1.0000   1.0000
     1.0000   1.0000   1.0000   1.0000   1.0000   1.0000   1.0000   1.0000
     1.0000   1.0000   1.0000   1.0000   1.0000   1.0000   1.0000   1.0000
     1.0000   1.0000   1.0000   1.0000   1.0000   1.0000   1.0000   1.0000
     1.0000   1.0000   1.0000   1.0000   1.0000   1.0000   1.0000   1.0000
     1.0000   1.0000   1.0000   1.0000   1.0000   1.0000   1.0000   1.0000
     1.0000   1.0000   1.0000   1.0000   1.0000   1.0000   1.0000   1.0000
     1.0000   1.0000   1.0000   1.0000   1.0000   1.0000   1.0000   1.0000
     1.0000   1.0000   1.0000   1.0000   1.0000   1.0000   1.0000   1.0000
     1.0000   1.0000   1.0000   1.0000   1.0000   1.0000   1.0000   1.0000
     1.0000   1.0000   1.0000   1.0000   1.0000   1.0000   1.0000   1.0000
     1.0000   1.0000   1.0000   1.0000   1.0000   1.0000   1.0000   1.0000
     1.0000   1.0000   1.0000   1.0000   1.0000   1.0000   1.0000   1.0000
     1.0000   1.0000   1.0000   1.0000   1.0000   1.0000   1.0000   1.0000
     1.0000   1.0000   1.0000   1.0000   1.0000   1.0000   1.0000   1.0000
     1.0000   1.0000   1.0000   1.0000   1.0000   1.0000   1.0000   1.0000
     1.0000   1.0000   1.0000   1.0000   1.0000   1.0000   1.0000   1.0000
     1.0000   1.0000   1.0000   1.0000   1.0000   1.0000   1.0000   1.0000
     1.0000   1.0000   1.0000   1.0000   1.0000   1.0000   1.0000   1.0000
     1.0000   1.0000   1.0000   1.0000   0.9999   0.9999   0.9999   0.9999
     0.0000   0.0000   0.0000   0.0000   0.0000   0.0000   0.0000   0.0000
     0.0000   0.0000   0.0000   0.0000   0.0000   0.0000   0.0000   0.0000
     0.0000   0.0000   0.0000   0.0000   0.0000   0.0000   0.0000   0.0000
     0.0000   0.0000   0.0000   0.0000   0.0000   0.0000   0.0000   0.0000
     0.0000   0.0000   0.0000   0.0000   0.0000   0.0000   0.0000   0.0000
     0.0000   0.0000   0.0000   0.0000   0.0000   0.0000   0.0000   0.0000
     0.0000   0.0000   0.0000   0.0000   0.0000   0.0000   0.0000   0.0000
     0.0000   0.0000   0.0000   0.0000   0.0000   0.0000   0.0000   0.0000
     0.0000   0.0000   0.0000   0.0000   0.0000   0.0000   0.0000   0.0000
     0.0000   0.0000   0.0000   0.0000   0.0000   0.0000   0.0000   0.0000
     0.0000   0.0000   0.0000   0.0000   0.0000   0.0000   0.0000   0.0000
     0.0000   0.0000   0.0000   0.0000   0.0000   0.0000   0.0000   0.0000
     0.0000   0.0000   0.0000   0.0000   0.0000   0.0000   0.0000   0.0000
     0.0000   0.0000   0.0000   0.0000   0.0000   0.0000   0.0000   0.0000
     0.0000   0.0000   0.0000

          k =-0.7071 0.0000 0.0000 ( 64192 PWs)   bands (ev):

   -17.0153 -17.0150 -17.0139 -17.0139 -17.0137 -17.0136 -17.0128 -17.0127
   -17.0127 -17.0126 -17.0126 -17.0125 -17.0123 -17.0121 -17.0120 -17.0120
   -17.0118 -17.0117 -17.0114 -17.0112 -17.0110 -17.0109 -17.0108 -17.0108
   -17.0107 -17.0105 -17.0104 -17.0104 -17.0100 -17.0099 -17.0098 -17.0097
   -17.0097 -17.0096 -17.0095 -17.0095 -17.0094 -17.0093 -17.0093 -17.0092
   -17.0091 -17.0090 -17.0090 -17.0089 -17.0088 -17.0088 -17.0087 -17.0086
   -17.0086 -17.0085 -17.0085 -17.0084 -17.0082 -17.0082 -17.0081 -17.0080
   -17.0079 -17.0079 -17.0078 -17.0077 -17.0076 -17.0076 -17.0074 -17.0074
   -17.0072 -17.0071 -17.0069 -17.0068 -17.0067 -17.0066 -17.0063 -17.0062
   -17.0060 -17.0060 -17.0059 -17.0054 -17.0047 -17.0045 -17.0044 -17.0043
   -17.0042 -17.0041 -17.0041 -17.0041 -17.0040 -17.0039 -17.0039 -17.0037
   -17.0037 -17.0036 -17.0036 -17.0036 -17.0035 -17.0034 -17.0034 -17.0032
   -17.0032 -17.0032 -17.0031 -17.0031 -17.0031 -17.0030 -17.0030 -17.0029
   -17.0029 -17.0028 -17.0028 -17.0027 -17.0027 -17.0026 -17.0026 -17.0025
   -17.0025 -17.0024 -17.0024 -17.0023 -17.0023 -17.0022 -17.0022 -17.0021
   -17.0021 -17.0020 -17.0019 -17.0019 -17.0018 -17.0017 -17.0017 -17.0016
   -17.0016 -17.0015 -17.0014 -17.0013 -17.0011 -17.0011 -17.0009 -17.0008
   -17.0007 -17.0006 -17.0005 -17.0004 -17.0001 -16.9996 -16.9995 -16.9994
   -16.9994 -16.9993 -16.9992 -16.9990 -16.9990 -16.9988 -16.9988 -16.9987
   -16.9986 -16.9985 -16.9985 -16.9984 -16.9983 -16.9983 -16.9982 -16.9982
   -16.9982 -16.9981 -16.9980 -16.9979 -16.9978 -16.9978 -16.9977 -16.9975
   -16.9974 -16.9973 -16.9972 -16.9971 -16.9971 -16.9969 -16.9969 -16.9967
   -16.9967 -16.9966 -16.9965 -16.9964 -16.9962 -16.9961 -16.9958 -16.9956
   -16.9955 -16.9954 -16.9953 -16.9952 -16.9950 -16.9944 -16.9942 -16.9936
   -16.9846 -16.9846 -16.9843 -16.9843 -16.9839 -16.9836 -16.9832 -16.9831
   -16.9829 -16.9828 -16.9828 -16.9827 -16.9826 -16.9825 -16.9824 -16.9824
   -16.9822 -16.9821 -16.9818 -16.9817 -16.9816 -16.9814 -16.9814 -16.9813
   -16.9812 -16.9812 -16.9811 -16.9810 -16.9810 -16.9809 -16.9808 -16.9807
   -16.9807 -16.9805 -16.9805 -16.9804 -16.9804 -16.9803 -16.9802 -16.9801
   -16.9800 -16.9800 -16.9800 -16.9799 -16.9797 -16.9797 -16.9797 -16.9797
   -16.9795 -16.9795 -16.9794 -16.9794 -16.9793 -16.9792 -16.9791 -16.9790
   -16.9790 -16.9790 -16.9789 -16.9788 -16.9786 -16.9786 -16.9785 -16.9784
   -16.9783 -16.9782 -16.9782 -16.9782 -16.9781 -16.9780 -16.9780 -16.9779
   -16.9779 -16.9778 -16.9778 -16.9777 -16.9776 -16.9776 -16.9775 -16.9775
   -16.9774 -16.9774 -16.9774 -16.9773 -16.9773 -16.9772 -16.9771 -16.9771
   -16.9769 -16.9769 -16.9769 -16.9768 -16.9767 -16.9766 -16.9765 -16.9764
   -16.9764 -16.9763 -16.9763 -16.9761 -16.9760 -16.9760 -16.9758 -16.9758
   -16.9757 -16.9756 -16.9755 -16.9754 -16.9753 -16.9752 -16.9752 -16.9751
   -16.9750 -16.9749 -16.9749 -16.9748 -16.9745 -16.9743 -16.9743 -16.9740
   -16.9738 -16.9738 -16.9736 -16.9733 -16.9731 -16.9726 -16.9721 -16.9717
    -4.8206  -4.8200  -4.5641  -4.5634  -4.5623  -4.5609  -3.8081  -3.8069
    -3.8057  -3.8052  -3.8043  -3.8028  -3.8014  -3.8008  -3.5936  -3.5934
    -3.5924  -3.5918  -3.5907  -3.5902  -3.5890  -3.5881  -3.0230  -3.0224
    -3.0210  -3.0203  -3.0196  -3.0176  -3.0159  -3.0154  -2.7847  -2.7827
    -2.6065  -2.6058  -2.6054  -2.6047  -2.6038  -2.6034  -2.6021  -2.6009
    -2.3844  -2.3837  -2.3830  -2.3826  -2.3817  -2.3808  -2.3802  -2.3789
    -2.1450  -2.1426  -2.1423  -2.1412  -2.1400  -2.1390  -2.1386  -2.1376
    -1.6366  -1.6362  -1.6359  -1.6339  -1.4066  -1.4054  -1.4052  -1.4041
    -0.5138  -0.5135  -0.5134  -0.5124  -0.2589  -0.2582  -0.2578  -0.2564
     0.1869   0.1871   0.1873   0.1892   0.1899   0.1902   0.1906   0.1912
     0.3049   0.3054   0.3065   0.3069   0.3079   0.3083   0.3090   0.3097
     0.6115   0.6116   0.6123   0.6134   0.6142   0.6152   0.6160   0.6170
     0.8542   0.8549   0.8552   0.8561   0.8572   0.8574   0.8582   0.8589
     1.0643   1.0656   1.6623   1.6645   1.6652   1.6654   1.6661   1.6665
     1.6672   1.6676   2.5572   2.5584   2.5594   2.5600   2.5606   2.5612
     2.5619   2.5637   2.9722   2.9724   2.9726   2.9733   3.0312   3.0317
     3.0324   3.0327   3.0330   3.0332   3.0334   3.0338   3.7152   3.7161
     3.7163   3.7170   3.7174   3.7180   3.7182   3.7186   3.8128   3.8130
     3.8134   3.8134   3.8450   3.8451   3.8454   3.8455   3.8731   3.8739
     3.8740   3.8747   3.8749   3.8750   3.8756   3.8759   4.2499   4.2500
     4.2503   4.2517   4.4915   4.4919   4.4929   4.4931   4.4934   4.4937
     4.4938   4.4942   4.5309   4.5310   4.5319   4.5322   4.5325   4.5330
     4.5333   4.5337   4.6159   4.6161   4.6163   4.6173   4.6636   4.6646
     4.6651   4.6656   4.6661   4.6668   4.6674   4.6682   4.6957   4.6966
     4.6975   4.6982   4.6992   4.6995   4.7009   4.7015   4.7966   4.7970
     4.7976   4.7986   5.0903   5.0910   5.0915   5.0922   5.0925   5.0929
     5.0935   5.0938   5.3200   5.3203   5.3209   5.3215   5.3224   5.3224
     5.3233   5.3243   5.5890   5.5892   5.6454   5.6460   5.6462   5.6466
     5.6649   5.6657   5.6669   5.6680   5.6681   5.6685   5.6688   5.6695
     5.8157   5.8162   5.8167   5.8170   5.8177   5.8183   5.8195   5.8202
     5.9796   5.9800   5.9809   5.9819   5.9829   5.9832   5.9840   5.9846
     6.5050   6.5055   6.5072   6.5081   7.0209   7.0225   7.0233   7.0244
     7.8657   7.8668   8.4776   8.4777   8.4782   8.4795   8.8928   8.8939
     9.1139   9.1152   9.1154   9.1168   9.1921   9.1928   9.1931   9.1938
     9.1941   9.1947   9.1950   9.1960   9.2472   9.2473   9.2479   9.2484
     9.2485   9.2498   9.2503   9.2507   9.2599   9.2601   9.3146   9.3153
     9.3159   9.3164   9.3169   9.3172   9.3179   9.3185   9.4239   9.4247
     9.4255   9.4262   9.6995   9.7003   9.7012   9.7018   9.7020   9.7028
     9.7035   9.7038   9.7770   9.7771   9.7775   9.7785   9.9738   9.9745
     9.9746   9.9753   9.9757   9.9760   9.9767   9.9769  10.0879  10.0882
    10.0886  10.0893  10.0895  10.0901  10.0908  10.0913  10.1179  10.1187
    10.1197  10.1199  10.1206  10.1215  10.1219  10.1227  10.4343  10.4345
    10.4348  10.4365  10.5642  10.5645  10.5648  10.5656  10.5662  10.5667
    10.5672  10.5691  10.5843  10.5846  10.6461  10.6475  10.6476  10.6485
    10.7408  10.7418  10.7420  10.7424  10.7426  10.7431  10.7436  10.7444
    10.7612  10.7618  10.7629  10.7636  10.7640  10.7649  10.7650  10.7661
    10.9776  10.9783  10.9794

     occupation numbers 
     1.0000   1.0000   1.0000   1.0000   1.0000   1.0000   1.0000   1.0000
     1.0000   1.0000   1.0000   1.0000   1.0000   1.0000   1.0000   1.0000
     1.0000   1.0000   1.0000   1.0000   1.0000   1.0000   1.0000   1.0000
     1.0000   1.0000   1.0000   1.0000   1.0000   1.0000   1.0000   1.0000
     1.0000   1.0000   1.0000   1.0000   1.0000   1.0000   1.0000   1.0000
     1.0000   1.0000   1.0000   1.0000   1.0000   1.0000   1.0000   1.0000
     1.0000   1.0000   1.0000   1.0000   1.0000   1.0000   1.0000   1.0000
     1.0000   1.0000   1.0000   1.0000   1.0000   1.0000   1.0000   1.0000
     1.0000   1.0000   1.0000   1.0000   1.0000   1.0000   1.0000   1.0000
     1.0000   1.0000   1.0000   1.0000   1.0000   1.0000   1.0000   1.0000
     1.0000   1.0000   1.0000   1.0000   1.0000   1.0000   1.0000   1.0000
     1.0000   1.0000   1.0000   1.0000   1.0000   1.0000   1.0000   1.0000
     1.0000   1.0000   1.0000   1.0000   1.0000   1.0000   1.0000   1.0000
     1.0000   1.0000   1.0000   1.0000   1.0000   1.0000   1.0000   1.0000
     1.0000   1.0000   1.0000   1.0000   1.0000   1.0000   1.0000   1.0000
     1.0000   1.0000   1.0000   1.0000   1.0000   1.0000   1.0000   1.0000
     1.0000   1.0000   1.0000   1.0000   1.0000   1.0000   1.0000   1.0000
     1.0000   1.0000   1.0000   1.0000   1.0000   1.0000   1.0000   1.0000
     1.0000   1.0000   1.0000   1.0000   1.0000   1.0000   1.0000   1.0000
     1.0000   1.0000   1.0000   1.0000   1.0000   1.0000   1.0000   1.0000
     1.0000   1.0000   1.0000   1.0000   1.0000   1.0000   1.0000   1.0000
     1.0000   1.0000   1.0000   1.0000   1.0000   1.0000   1.0000   1.0000
     1.0000   1.0000   1.0000   1.0000   1.0000   1.0000   1.0000   1.0000
     1.0000   1.0000   1.0000   1.0000   1.0000   1.0000   1.0000   1.0000
     1.0000   1.0000   1.0000   1.0000   1.0000   1.0000   1.0000   1.0000
     1.0000   1.0000   1.0000   1.0000   1.0000   1.0000   1.0000   1.0000
     1.0000   1.0000   1.0000   1.0000   1.0000   1.0000   1.0000   1.0000
     1.0000   1.0000   1.0000   1.0000   1.0000   1.0000   1.0000   1.0000
     1.0000   1.0000   1.0000   1.0000   1.0000   1.0000   1.0000   1.0000
     1.0000   1.0000   1.0000   1.0000   1.0000   1.0000   1.0000   1.0000
     1.0000   1.0000   1.0000   1.0000   1.0000   1.0000   1.0000   1.0000
     1.0000   1.0000   1.0000   1.0000   1.0000   1.0000   1.0000   1.0000
     1.0000   1.0000   1.0000   1.0000   1.0000   1.0000   1.0000   1.0000
     1.0000   1.0000   1.0000   1.0000   1.0000   1.0000   1.0000   1.0000
     1.0000   1.0000   1.0000   1.0000   1.0000   1.0000   1.0000   1.0000
     1.0000   1.0000   1.0000   1.0000   1.0000   1.0000   1.0000   1.0000
     1.0000   1.0000   1.0000   1.0000   1.0000   1.0000   1.0000   1.0000
     1.0000   1.0000   1.0000   1.0000   1.0000   1.0000   1.0000   1.0000
     1.0000   1.0000   1.0000   1.0000   1.0000   1.0000   1.0000   1.0000
     1.0000   1.0000   1.0000   1.0000   1.0000   1.0000   1.0000   1.0000
     1.0000   1.0000   1.0000   1.0000   1.0000   1.0000   1.0000   1.0000
     1.0000   1.0000   1.0000   1.0000   1.0000   1.0000   1.0000   1.0000
     1.0000   1.0000   1.0000   1.0000   1.0000   1.0000   1.0000   1.0000
     1.0000   1.0000   1.0000   1.0000   1.0000   1.0000   1.0000   1.0000
     1.0000   1.0000   1.0000   1.0000   1.0000   1.0000   1.0000   1.0000
     1.0000   1.0000   1.0000   1.0000   1.0000   1.0000   1.0000   1.0000
     1.0000   1.0000   1.0000   1.0000   1.0000   1.0000   1.0000   1.0000
     1.0000   1.0000   1.0000   1.0000   1.0000   1.0000   1.0000   1.0000
     1.0000   1.0000   1.0000   1.0000   1.0000   1.0000   1.0000   1.0000
     1.0000   1.0000   1.0000   1.0000   1.0000   1.0000   1.0000   1.0000
     1.0000   1.0000   1.0000   1.0000   1.0000   1.0000   1.0000   1.0000
     1.0000   1.0000   1.0000   1.0000   1.0000   1.0000   1.0000   1.0000
     1.0000   1.0000   1.0000   1.0000   1.0000   1.0000   1.0000   1.0000
     1.0000   1.0000   1.0000   1.0000   1.0000   1.0000   1.0000   1.0000
     1.0000   1.0000   1.0000   1.0000   1.0000   1.0000   1.0000   1.0000
     1.0000   1.0000   1.0000   1.0000   1.0000   1.0000   1.0000   1.0000
     1.0000   1.0000   1.0000   1.0000   1.0000   1.0000   1.0000   1.0000
     1.0000   1.0000   1.0000   1.0000   1.0000   1.0000   1.0000   1.0000
     1.0000   1.0000   1.0000   1.0000   1.0000   1.0000   1.0000   1.0000
     1.0000   1.0000   1.0000   1.0000   1.0000   1.0000   1.0000   1.0000
     1.0000   1.0000   1.0000   1.0000   1.0000   1.0000   1.0000   1.0000
     1.0000   1.0000   1.0000   1.0000   1.0000   1.0000   1.0000   1.0000
     1.0000   1.0000   1.0000   1.0000   1.0000   1.0000   1.0000   1.0000
     1.0000   1.0000   1.0000   1.0000   1.0000   1.0000   1.0000   1.0000
     1.0000   1.0000   1.0000   1.0000   1.0000   1.0000   1.0000   1.0000
     1.0000   1.0000   1.0000   1.0000   1.0000   1.0000   1.0000   1.0000
     1.0000   1.0000   1.0000   1.0000   1.0000   1.0000   1.0000   1.0000
     1.0000   1.0000   1.0000   1.0000   1.0000   1.0000   1.0000   1.0000
     1.0000   1.0000   1.0000   1.0000   1.0000   1.0000   1.0000   1.0000
     1.0000   1.0000   1.0000   1.0000   1.0000   1.0000   1.0000   1.0000
     1.0000   1.0000   1.0000   1.0000   1.0000   1.0000   1.0000   1.0000
     1.0000   1.0000   1.0000   1.0000   0.9999   0.9999   0.9999   0.9999
     0.0237   0.0233   0.0000   0.0000   0.0000   0.0000   0.0000   0.0000
     0.0000   0.0000   0.0000   0.0000   0.0000   0.0000   0.0000   0.0000
     0.0000   0.0000   0.0000   0.0000   0.0000   0.0000   0.0000   0.0000
     0.0000   0.0000   0.0000   0.0000   0.0000   0.0000   0.0000   0.0000
     0.0000   0.0000   0.0000   0.0000   0.0000   0.0000   0.0000   0.0000
     0.0000   0.0000   0.0000   0.0000   0.0000   0.0000   0.0000   0.0000
     0.0000   0.0000   0.0000   0.0000   0.0000   0.0000   0.0000   0.0000
     0.0000   0.0000   0.0000   0.0000   0.0000   0.0000   0.0000   0.0000
     0.0000   0.0000   0.0000   0.0000   0.0000   0.0000   0.0000   0.0000
     0.0000   0.0000   0.0000   0.0000   0.0000   0.0000   0.0000   0.0000
     0.0000   0.0000   0.0000   0.0000   0.0000   0.0000   0.0000   0.0000
     0.0000   0.0000   0.0000   0.0000   0.0000   0.0000   0.0000   0.0000
     0.0000   0.0000   0.0000   0.0000   0.0000   0.0000   0.0000   0.0000
     0.0000   0.0000   0.0000   0.0000   0.0000   0.0000   0.0000   0.0000
     0.0000   0.0000   0.0000

          k = 0.3536 0.3536 0.3536 ( 64114 PWs)   bands (ev):

   -17.0152 -17.0151 -17.0151 -17.0140 -17.0139 -17.0138 -17.0133 -17.0132
   -17.0130 -17.0129 -17.0128 -17.0127 -17.0115 -17.0114 -17.0113 -17.0112
   -17.0111 -17.0110 -17.0110 -17.0109 -17.0108 -17.0106 -17.0106 -17.0105
   -17.0104 -17.0104 -17.0103 -17.0102 -17.0101 -17.0101 -17.0099 -17.0099
   -17.0097 -17.0097 -17.0096 -17.0095 -17.0095 -17.0095 -17.0094 -17.0093
   -17.0093 -17.0092 -17.0092 -17.0091 -17.0090 -17.0089 -17.0089 -17.0089
   -17.0088 -17.0087 -17.0087 -17.0087 -17.0086 -17.0084 -17.0084 -17.0082
   -17.0081 -17.0080 -17.0079 -17.0078 -17.0077 -17.0077 -17.0075 -17.0074
   -17.0072 -17.0071 -17.0069 -17.0065 -17.0058 -17.0057 -17.0056 -17.0055
   -17.0054 -17.0054 -17.0053 -17.0052 -17.0051 -17.0050 -17.0049 -17.0047
   -17.0045 -17.0045 -17.0044 -17.0044 -17.0043 -17.0042 -17.0041 -17.0041
   -17.0040 -17.0039 -17.0038 -17.0037 -17.0036 -17.0036 -17.0035 -17.0035
   -17.0034 -17.0034 -17.0032 -17.0032 -17.0031 -17.0031 -17.0030 -17.0029
   -17.0029 -17.0028 -17.0026 -17.0026 -17.0025 -17.0024 -17.0023 -17.0022
   -17.0021 -17.0020 -17.0020 -17.0019 -17.0018 -17.0017 -17.0017 -17.0016
   -17.0016 -17.0015 -17.0014 -17.0013 -17.0012 -17.0012 -17.0011 -17.0011
   -17.0010 -17.0009 -17.0008 -17.0007 -17.0006 -17.0006 -17.0005 -17.0004
   -17.0004 -17.0002 -17.0002 -17.0002 -17.0001 -16.9999 -16.9998 -16.9998
   -16.9997 -16.9997 -16.9996 -16.9995 -16.9995 -16.9994 -16.9993 -16.9993
   -16.9991 -16.9991 -16.9991 -16.9989 -16.9989 -16.9988 -16.9987 -16.9986
   -16.9985 -16.9984 -16.9983 -16.9982 -16.9980 -16.9978 -16.9976 -16.9974
   -16.9974 -16.9973 -16.9971 -16.9971 -16.9970 -16.9969 -16.9967 -16.9966
   -16.9966 -16.9965 -16.9964 -16.9961 -16.9960 -16.9960 -16.9958 -16.9958
   -16.9957 -16.9954 -16.9953 -16.9952 -16.9951 -16.9942 -16.9940 -16.9937
   -16.9849 -16.9848 -16.9845 -16.9838 -16.9836 -16.9835 -16.9833 -16.9832
   -16.9829 -16.9829 -16.9827 -16.9826 -16.9825 -16.9824 -16.9823 -16.9822
   -16.9821 -16.9820 -16.9819 -16.9818 -16.9817 -16.9816 -16.9815 -16.9814
   -16.9813 -16.9811 -16.9811 -16.9810 -16.9810 -16.9809 -16.9807 -16.9806
   -16.9805 -16.9805 -16.9804 -16.9804 -16.9803 -16.9802 -16.9802 -16.9801
   -16.9801 -16.9800 -16.9800 -16.9799 -16.9798 -16.9798 -16.9797 -16.9797
   -16.9796 -16.9795 -16.9795 -16.9794 -16.9794 -16.9792 -16.9791 -16.9791
   -16.9790 -16.9789 -16.9788 -16.9787 -16.9787 -16.9786 -16.9785 -16.9785
   -16.9785 -16.9783 -16.9783 -16.9783 -16.9781 -16.9781 -16.9779 -16.9779
   -16.9779 -16.9779 -16.9778 -16.9777 -16.9777 -16.9777 -16.9776 -16.9774
   -16.9774 -16.9774 -16.9773 -16.9773 -16.9771 -16.9771 -16.9770 -16.9770
   -16.9770 -16.9769 -16.9768 -16.9767 -16.9766 -16.9766 -16.9765 -16.9764
   -16.9764 -16.9763 -16.9763 -16.9762 -16.9761 -16.9758 -16.9758 -16.9758
   -16.9757 -16.9756 -16.9755 -16.9754 -16.9753 -16.9753 -16.9751 -16.9750
   -16.9750 -16.9749 -16.9748 -16.9746 -16.9745 -16.9745 -16.9744 -16.9740
   -16.9739 -16.9738 -16.9735 -16.9734 -16.9730 -16.9725 -16.9721 -16.9717
    -4.8882  -4.8855  -4.3703  -4.3697  -4.3693  -4.3683  -4.3673  -4.3670
    -3.8847  -3.8832  -3.8827  -3.8824  -3.8811  -3.8797  -3.4689  -3.4661
    -3.3621  -3.3618  -3.3607  -3.3602  -3.3588  -3.3579  -2.9692  -2.9692
    -2.9686  -2.9681  -2.9676  -2.9664  -2.9658  -2.9652  -2.9647  -2.9639
    -2.9622  -2.9609  -2.8039  -2.8020  -2.8006  -2.7993  -2.7988  -2.7972
    -2.3303  -2.3291  -2.3277  -2.3276  -2.3262  -2.3253  -1.9676  -1.9659
    -1.9647  -1.9643  -1.9631  -1.9612  -1.8389  -1.8379  -1.8371  -1.8365
    -1.8359  -1.8354  -1.8347  -1.8343  -1.8334  -1.8329  -1.8315  -1.8302
    -0.0279  -0.0265  -0.0257  -0.0249  -0.0237  -0.0236  -0.0225  -0.0217
    -0.0214  -0.0207  -0.0204  -0.0189   0.0383   0.0403   0.0407   0.0416
     0.0430   0.0442   0.2638   0.2651   0.2666   0.2676   0.2682   0.2709
     0.2914   0.2931   0.2945   0.2952   0.2968   0.2984   1.0500   1.0516
     1.0536   1.0537   1.0547   1.0559   1.0566   1.0571   1.0578   1.0584
     1.0589   1.0599   1.0609   1.0621   1.8790   1.8798   1.8812   1.8821
     1.8830   1.8842   2.3096   2.3110   2.3117   2.3119   2.3125   2.3139
[...]
     atom   77 type  1   force =   0.00000000E+00  0.00000000E+00  0.00000000E+00
     atom   78 type  2   force =   0.00000000E+00  0.00000000E+00  0.00000000E+00
     atom   79 type  1   force =   0.00000000E+00  0.00000000E+00  0.00000000E+00
     atom   80 type  2   force =   0.00000000E+00  0.00000000E+00  0.00000000E+00
     atom   81 type  1   force =   0.00000000E+00  0.00000000E+00  0.00000000E+00
     atom   82 type  2   force =   0.00000000E+00  0.00000000E+00  0.00000000E+00
     atom   83 type  1   force =   0.00000000E+00  0.00000000E+00  0.00000000E+00
     atom   84 type  2   force =   0.00000000E+00  0.00000000E+00  0.00000000E+00
     atom   85 type  1   force =   0.00000000E+00  0.00000000E+00  0.00000000E+00
     atom   86 type  2   force =   0.00000000E+00  0.00000000E+00  0.00000000E+00
     atom   87 type  1   force =   0.00000000E+00  0.00000000E+00  0.00000000E+00
     atom   88 type  2   force =   0.00000000E+00  0.00000000E+00  0.00000000E+00
     atom   89 type  1   force =   0.00000000E+00  0.00000000E+00  0.00000000E+00
     atom   90 type  2   force =   0.00000000E+00  0.00000000E+00  0.00000000E+00
     atom   91 type  1   force =   0.00000000E+00  0.00000000E+00  0.00000000E+00
     atom   92 type  2   force =   0.00000000E+00  0.00000000E+00  0.00000000E+00
     atom   93 type  1   force =   0.00000000E+00  0.00000000E+00  0.00000000E+00
     atom   94 type  2   force =   0.00000000E+00  0.00000000E+00  0.00000000E+00
     atom   95 type  1   force =   0.00000000E+00  0.00000000E+00  0.00000000E+00
     atom   96 type  2   force =   0.00000000E+00  0.00000000E+00  0.00000000E+00
     atom   97 type  1   force =   0.00000000E+00  0.00000000E+00  0.00000000E+00
     atom   98 type  2   force =   0.00000000E+00  0.00000000E+00  0.00000000E+00
     atom   99 type  1   force =   0.00000000E+00  0.00000000E+00  0.00000000E+00
     atom  100 type  2   force =   0.00000000E+00  0.00000000E+00  0.00000000E+00
     atom  101 type  1   force =   0.00000000E+00  0.00000000E+00  0.00000000E+00
     atom  102 type  2   force =   0.00000000E+00  0.00000000E+00  0.00000000E+00
     atom  103 type  1   force =   0.00000000E+00  0.00000000E+00  0.00000000E+00
     atom  104 type  2   force =   0.00000000E+00  0.00000000E+00  0.00000000E+00
     atom  105 type  1   force =   0.00000000E+00  0.00000000E+00  0.00000000E+00
     atom  106 type  2   force =   0.00000000E+00  0.00000000E+00  0.00000000E+00
     atom  107 type  1   force =   0.00000000E+00  0.00000000E+00  0.00000000E+00
     atom  108 type  2   force =   0.00000000E+00  0.00000000E+00  0.00000000E+00
     atom  109 type  1   force =   0.00000000E+00  0.00000000E+00  0.00000000E+00
     atom  110 type  2   force =   0.00000000E+00  0.00000000E+00  0.00000000E+00
     atom  111 type  1   force =   0.00000000E+00  0.00000000E+00  0.00000000E+00
     atom  112 type  2   force =   0.00000000E+00  0.00000000E+00  0.00000000E+00
     atom  113 type  1   force =   0.00000000E+00  0.00000000E+00  0.00000000E+00
     atom  114 type  2   force =   0.00000000E+00  0.00000000E+00  0.00000000E+00
     atom  115 type  1   force =   0.00000000E+00  0.00000000E+00  0.00000000E+00
     atom  116 type  2   force =   0.00000000E+00  0.00000000E+00  0.00000000E+00
     atom  117 type  1   force =   0.00000000E+00  0.00000000E+00  0.00000000E+00
     atom  118 type  2   force =   0.00000000E+00  0.00000000E+00  0.00000000E+00
     atom  119 type  1   force =   0.00000000E+00  0.00000000E+00  0.00000000E+00
     atom  120 type  2   force =   0.00000000E+00  0.00000000E+00  0.00000000E+00
     atom  121 type  1   force =   0.00000000E+00  0.00000000E+00  0.00000000E+00
     atom  122 type  2   force =   0.00000000E+00  0.00000000E+00  0.00000000E+00
     atom  123 type  1   force =   0.00000000E+00  0.00000000E+00  0.00000000E+00
     atom  124 type  2   force =   0.00000000E+00  0.00000000E+00  0.00000000E+00
     atom  125 type  1   force =   0.00000000E+00  0.00000000E+00  0.00000000E+00
     atom  126 type  2   force =   0.00000000E+00  0.00000000E+00  0.00000000E+00
     atom  127 type  1   force =   0.00000000E+00  0.00000000E+00  0.00000000E+00
     atom  128 type  2   force =   0.00000000E+00  0.00000000E+00  0.00000000E+00
     The SCF correction term to forces
     atom    1 type  1   force =   0.59423889E-07 -0.11468915E-05 -0.12629371E-05
     atom    2 type  2   force =   0.11743652E-05 -0.31371362E-05 -0.25939740E-05
     atom    3 type  1   force =   0.63763578E-06 -0.61549774E-06 -0.19439217E-06
     atom    4 type  2   force =   0.47391293E-05  0.33568266E-06  0.34568367E-05
     atom    5 type  1   force =   0.10778148E-05 -0.17129782E-06  0.13076990E-05
     atom    6 type  2   force =   0.18171039E-05 -0.15587788E-05  0.39719026E-05
     atom    7 type  1   force =   0.65264976E-06 -0.50612274E-06  0.38699742E-06
     atom    8 type  2   force =  -0.23505942E-06 -0.32309268E-05 -0.18456819E-05
     atom    9 type  1   force =   0.46932417E-06 -0.18868520E-06 -0.67579303E-06
     atom   10 type  2   force =   0.41804645E-05  0.35910728E-05 -0.57326449E-06
     atom   11 type  1   force =   0.14366510E-05  0.83251614E-06  0.54750803E-06
     atom   12 type  2   force =   0.13371683E-05  0.17555338E-05  0.18084464E-05
     atom   13 type  1   force =   0.42728608E-07 -0.64143624E-06  0.47850362E-06
     atom   14 type  2   force =  -0.29493451E-05 -0.44245065E-05 -0.13580961E-05
     atom   15 type  1   force =  -0.64798418E-06 -0.13169421E-05 -0.79051303E-06
     atom   16 type  2   force =  -0.13681973E-05 -0.19644089E-05 -0.20882496E-05
     atom   17 type  1   force =   0.11333986E-05  0.14387334E-05 -0.22810628E-07
     atom   18 type  2   force =   0.30929582E-05  0.42024582E-05 -0.54647593E-06
     atom   19 type  1   force =   0.13554412E-06  0.50583850E-06 -0.51774025E-06
     atom   20 type  2   force =  -0.26702764E-05 -0.20022089E-05 -0.46435386E-05
     atom   21 type  1   force =  -0.11629705E-05 -0.10204990E-05 -0.98836993E-06
     atom   22 type  2   force =  -0.45989388E-05 -0.21440437E-05 -0.25466240E-05
     atom   23 type  1   force =  -0.62920632E-06 -0.40240623E-06 -0.53416582E-06
     atom   24 type  2   force =   0.10159463E-05  0.26623213E-05  0.74630928E-07
     atom   25 type  1   force =   0.81773209E-06  0.42905853E-06 -0.53748552E-06
     atom   26 type  2   force =  -0.21993606E-06 -0.26014505E-05 -0.42609230E-05
     atom   27 type  1   force =  -0.65253916E-06 -0.96800995E-06 -0.14076831E-05
     atom   28 type  2   force =  -0.78758305E-06 -0.31057549E-05 -0.29212930E-05
     atom   29 type  1   force =  -0.46448765E-06 -0.47512099E-06 -0.27449751E-06
     atom   30 type  2   force =   0.13995915E-05  0.96022230E-07  0.36697721E-05
     atom   31 type  1   force =   0.80126671E-06  0.48865790E-06  0.76379465E-06
     atom   32 type  2   force =   0.29287317E-05  0.21096050E-05  0.12917516E-05
     atom   33 type  1   force =   0.43483103E-06 -0.32761537E-06 -0.59534397E-07
     atom   34 type  2   force =   0.43409072E-05  0.31941527E-05  0.28511535E-05
     atom   35 type  1   force =   0.15519560E-05  0.81965781E-06  0.11429535E-05
     atom   36 type  2   force =   0.32016540E-05  0.89132563E-06  0.42963374E-05
     atom   37 type  1   force =   0.15504604E-07 -0.55681329E-06  0.10288048E-05
     atom   38 type  2   force =  -0.25964917E-05 -0.40340767E-05  0.82214577E-06
     atom   39 type  1   force =  -0.71835944E-06 -0.12470432E-05 -0.24926324E-06
     atom   40 type  2   force =  -0.16634271E-05 -0.29209357E-05  0.45135262E-06
     atom   41 type  1   force =   0.14108940E-05  0.12404675E-05  0.69305080E-06
     atom   42 type  2   force =   0.32550359E-05  0.44225914E-05  0.76653206E-06
     atom   43 type  1   force =   0.33219806E-06  0.17465618E-06 -0.16635919E-07
     atom   44 type  2   force =  -0.37355815E-05 -0.21164677E-05 -0.30487549E-05
     atom   45 type  1   force =  -0.10692981E-05 -0.10921461E-05 -0.30878527E-06
     atom   46 type  2   force =  -0.36994592E-05 -0.22681706E-05  0.30604469E-06
     atom   47 type  1   force =  -0.47930382E-06 -0.50571322E-06  0.18671023E-06
     atom   48 type  2   force =   0.13027628E-05  0.23689265E-05  0.21642526E-05
     atom   49 type  1   force =   0.17335477E-06  0.84751538E-06 -0.63988633E-06
     atom   50 type  2   force =  -0.28947713E-05 -0.13470452E-06 -0.50764645E-05
     atom   51 type  1   force =  -0.10374589E-05 -0.41341721E-06 -0.15060363E-05
     atom   52 type  2   force =  -0.27876660E-05  0.58809787E-06 -0.40989363E-05
     atom   53 type  1   force =  -0.78600791E-06 -0.38473559E-07 -0.35689582E-06
     atom   54 type  2   force =  -0.11964197E-05  0.20040222E-05  0.26107281E-05
     atom   55 type  1   force =   0.24996974E-06  0.99310375E-06  0.81879430E-06
     atom   56 type  2   force =   0.11434031E-05  0.32424630E-05  0.51820408E-06
     atom   57 type  1   force =  -0.64352507E-06 -0.65604539E-06 -0.13578745E-05
     atom   58 type  2   force =  -0.12972896E-05 -0.75921867E-06 -0.21736842E-05
     atom   59 type  1   force =  -0.42577930E-07  0.19173546E-06 -0.43074614E-06
     atom   60 type  2   force =   0.27370917E-05  0.32151182E-05  0.31784027E-05
     atom   61 type  1   force =   0.40380975E-06  0.65491893E-06  0.10622993E-05
     atom   62 type  2   force =   0.83150268E-06  0.44903781E-06  0.33652712E-05
     atom   63 type  1   force =  -0.81861198E-07  0.17428905E-06  0.26773958E-06
     atom   64 type  2   force =  -0.25889103E-05 -0.29048761E-05 -0.15703021E-05
     atom   65 type  1   force =   0.13573842E-05  0.12225965E-05  0.11818304E-05
     atom   66 type  2   force =   0.37217070E-05  0.33415823E-05  0.27532251E-05
     atom   67 type  1   force =   0.42205882E-06  0.12865221E-06  0.57988877E-06
     atom   68 type  2   force =  -0.23132211E-05 -0.26269756E-05 -0.10543469E-05
     atom   69 type  1   force =  -0.89717079E-06 -0.12684714E-05  0.17240760E-06
     atom   70 type  2   force =  -0.16367614E-05 -0.40922104E-05  0.14122864E-05
     atom   71 type  1   force =  -0.31854301E-06 -0.64040067E-06  0.63818157E-06
     atom   72 type  2   force =   0.21358703E-05  0.12324637E-05  0.35940658E-05
     atom   73 type  1   force =   0.33153358E-06  0.71091514E-06 -0.12624607E-06
     atom   74 type  2   force =  -0.29363706E-05  0.11987644E-07 -0.35231285E-05
     atom   75 type  1   force =  -0.81406908E-06 -0.45620764E-06 -0.85977817E-06
     atom   76 type  2   force =  -0.22804883E-05  0.33681581E-06 -0.22245508E-05
     atom   77 type  1   force =  -0.59932132E-06 -0.26923101E-06  0.31773510E-06
     atom   78 type  2   force =  -0.75895731E-06  0.14281109E-05  0.37065915E-05
     atom   79 type  1   force =   0.35067767E-06  0.72260555E-06  0.13470187E-05
     atom   80 type  2   force =   0.10663715E-05  0.34413329E-05  0.18322808E-05
     atom   81 type  1   force =  -0.10501163E-05  0.17624386E-07 -0.13324492E-05
     atom   82 type  2   force =  -0.23555464E-05  0.11078996E-05 -0.31272112E-05
     atom   83 type  1   force =  -0.55681885E-06  0.65188108E-06 -0.57589877E-06
     atom   84 type  2   force =   0.10635610E-05  0.42979363E-05  0.19051090E-05
     atom   85 type  1   force =  -0.98838227E-07  0.10764543E-05  0.81800006E-06
     atom   86 type  2   force =  -0.17887489E-05  0.20608162E-05  0.25119729E-05
     atom   87 type  1   force =  -0.53642398E-06  0.48235341E-06  0.13114041E-06
     atom   88 type  2   force =  -0.44867031E-05 -0.27633838E-06 -0.21135594E-05
     atom   89 type  1   force =  -0.17287741E-06  0.46700668E-06 -0.17438717E-06
     atom   90 type  2   force =   0.33519042E-05  0.40415711E-05  0.19130551E-05
     atom   91 type  1   force =   0.80544270E-06  0.13135947E-05  0.99740662E-06
     atom   92 type  2   force =   0.14714079E-05  0.20156868E-05  0.38019432E-05
     atom   93 type  1   force =  -0.47610838E-06 -0.19404578E-07  0.73879278E-06
     atom   94 type  2   force =  -0.33483556E-05 -0.35607148E-05  0.20802172E-06
     atom   95 type  1   force =  -0.11714035E-05 -0.76037302E-06 -0.45338058E-06
     atom   96 type  2   force =  -0.16993185E-05 -0.19616408E-05 -0.45802724E-06
     atom   97 type  1   force =   0.94939646E-06  0.27176952E-06  0.67272905E-07
     atom   98 type  2   force =   0.24218496E-06 -0.29329532E-05 -0.28824806E-05
     atom   99 type  1   force =  -0.45753757E-06 -0.11632938E-05 -0.70250319E-06
     atom  100 type  2   force =  -0.71260035E-07 -0.36101478E-05 -0.15674986E-05
     atom  101 type  1   force =   0.78410925E-07 -0.97049819E-06  0.43511937E-06
     atom  102 type  2   force =   0.27957155E-05 -0.12765636E-05  0.47025415E-05
     atom  103 type  1   force =   0.10554799E-05  0.23362843E-06  0.13798013E-05
     atom  104 type  2   force =   0.43147775E-05  0.59559525E-06  0.18931303E-05
     atom  105 type  1   force =  -0.59303490E-06 -0.47303526E-06 -0.11831403E-05
     atom  106 type  2   force =  -0.83070234E-06 -0.68133619E-06 -0.38879575E-05
     atom  107 type  1   force =   0.17652211E-06 -0.14013791E-07 -0.27555896E-06
     atom  108 type  2   force =   0.21014195E-05  0.29553147E-05  0.12581414E-05
     atom  109 type  1   force =   0.54230312E-06  0.34155380E-06  0.11681089E-05
     atom  110 type  2   force =   0.24062338E-06  0.32281263E-06  0.20446513E-05
     atom  111 type  1   force =   0.72717825E-07 -0.38981283E-07  0.38748155E-06
     atom  112 type  2   force =  -0.16422566E-05 -0.26711190E-05 -0.33374585E-05
     atom  113 type  1   force =  -0.29405379E-06  0.46525034E-06 -0.78812515E-06
     atom  114 type  2   force =   0.29254194E-05  0.38626601E-05 -0.53019825E-06
     atom  115 type  1   force =   0.66900071E-06  0.15037405E-05  0.33182333E-06
     atom  116 type  2   force =   0.12312474E-05  0.28662579E-05  0.11075424E-05
     atom  117 type  1   force =  -0.53831897E-06  0.22362182E-06  0.24463165E-06
     atom  118 type  2   force =  -0.45957448E-05 -0.18232138E-05 -0.24438668E-05
     atom  119 type  1   force =  -0.14206671E-05 -0.62910392E-06 -0.87134636E-06
     atom  120 type  2   force =  -0.31833444E-05 -0.95619130E-06 -0.34673761E-05
     atom  121 type  1   force =   0.13244693E-05  0.13081380E-05  0.51034167E-06
     atom  122 type  2   force =   0.42271310E-05  0.25756295E-05  0.10218384E-05
     atom  123 type  1   force =   0.24991961E-06  0.26271328E-06  0.24942087E-07
     atom  124 type  2   force =  -0.19542492E-05 -0.35545656E-05 -0.23809157E-05
     atom  125 type  1   force =  -0.13406156E-05 -0.11039264E-05 -0.59193562E-06
     atom  126 type  2   force =  -0.22273286E-05 -0.40300704E-05 -0.28515552E-06
     atom  127 type  1   force =  -0.39368479E-06 -0.29536225E-06 -0.20995925E-06
     atom  128 type  2   force =   0.32932468E-05  0.14814727E-05  0.18487061E-05

     Total force =     0.016084     Total SCF correction =     0.000038


     entering subroutine stress ...

          total   stress  (Ry/bohr**3)                   (kbar)     P=   -0.09
  -0.0000006072  -0.0000003754  -0.0000004841         -0.09     -0.06     -0.07
  -0.0000003754  -0.0000006060   0.0000002834         -0.06     -0.09      0.04
  -0.0000004841   0.0000002834  -0.0000006086         -0.07      0.04     -0.09

     kinetic stress (kbar)   6412.00      0.05      0.07
                                0.05   6412.00     -0.04
                                0.07     -0.04   6412.00

     local   stress (kbar)   -987.57      2.10      2.73
                                2.10   -987.57     -1.63
                                2.73     -1.63   -987.56

     nonloc. stress (kbar)   2496.70     -0.05     -0.06
                               -0.05   2496.70      0.04
                               -0.06      0.04   2496.70

     hartree stress (kbar)  15111.48     -0.55     -0.71
                               -0.55  15111.48      0.42
                               -0.71      0.42  15111.48

     exc-cor stress (kbar)  10937.41     -0.00     -0.00
                               -0.00  10937.41      0.00
                               -0.00      0.00  10937.41

     corecor stress (kbar) -16604.51      0.00      0.01
                                0.00 -16604.51     -0.00
                                0.01     -0.00 -16604.51

     ewald   stress (kbar) -17365.60     -1.61     -2.10
                               -1.61 -17365.59      1.25
                               -2.10      1.25 -17365.60

     hubbard stress (kbar)      0.00      0.00      0.00
                                0.00      0.00      0.00
                                0.00      0.00      0.00

     london  stress (kbar)      0.00      0.00      0.00
                                0.00      0.00      0.00
                                0.00      0.00      0.00

     XDM     stress (kbar)      0.00      0.00      0.00
                                0.00      0.00      0.00
                                0.00      0.00      0.00

     dft-nl  stress (kbar)      0.00      0.00      0.00
                                0.00      0.00      0.00
                                0.00      0.00      0.00



     Writing output data file SiGe_zns.scf.in.super.444.011.save

     init_run     :   1086.82s CPU   1007.38s WALL (       1 calls)
     electrons    :  44491.92s CPU  40279.55s WALL (       1 calls)
     forces       :    675.38s CPU    539.42s WALL (       1 calls)
     stress       :   2911.11s CPU   2890.35s WALL (       1 calls)

     Called by init_run:
     wfcinit      :   1034.50s CPU    950.55s WALL (       1 calls)
     potinit      :      1.31s CPU      1.42s WALL (       1 calls)

     Called by electrons:
     c_bands      :  39727.24s CPU  35639.40s WALL (      14 calls)
     sum_band     :   4136.28s CPU   3993.18s WALL (      14 calls)
     v_of_rho     :      8.08s CPU      9.71s WALL (      14 calls)
     v_h          :      0.47s CPU      0.68s WALL (      14 calls)
     v_xc         :      8.76s CPU     10.33s WALL (      16 calls)
     newd         :    649.61s CPU    668.04s WALL (      14 calls)
     mix_rho      :     15.70s CPU     17.34s WALL (      14 calls)

     Called by c_bands:
     init_us_2    :     50.62s CPU     52.45s WALL (     248 calls)
     cegterg      :  39455.99s CPU  35351.77s WALL (     112 calls)

     Called by sum_band:
     sum_band:bec :     15.14s CPU     15.39s WALL (     112 calls)
     addusdens    :    410.95s CPU    421.37s WALL (      14 calls)

     Called by *egterg:
     h_psi        :  16476.69s CPU  15507.50s WALL (     425 calls)
     s_psi        :   3741.82s CPU   2557.50s WALL (     425 calls)
     g_psi        :      7.05s CPU      8.53s WALL (     305 calls)
     cdiaghg      :  12231.43s CPU  12132.17s WALL (     409 calls)
     cegterg:over :   3552.21s CPU   2648.16s WALL (     305 calls)
     cegterg:upda :   1625.16s CPU   1164.36s WALL (     305 calls)
     cegterg:last :   1060.19s CPU    719.72s WALL (     112 calls)

     Called by h_psi:
     h_psi:vloc   :   8641.00s CPU  10024.30s WALL (     425 calls)
     h_psi:vnl    :   7817.54s CPU   5464.36s WALL (     425 calls)
     add_vuspsi   :   3729.17s CPU   2547.41s WALL (     425 calls)

     General routines
     calbec       :   6706.20s CPU   4985.79s WALL (     553 calls)
     fft          :    120.27s CPU    123.22s WALL (     249 calls)
     ffts         :      9.95s CPU     11.12s WALL (     366 calls)
     fftw         :   9474.83s CPU  11127.16s WALL (  453738 calls)
     interpolate  :      2.49s CPU      3.03s WALL (      28 calls)

     Parallel routines
     fft_scatter  :   6553.65s CPU   7676.55s WALL (  454353 calls)

     PWSCF        :    13h40m CPU       12h26m WALL


   This run was terminated on:   9: 5:24  19Jan2017            

=------------------------------------------------------------------------------=
   JOB DONE.
=------------------------------------------------------------------------------=
