
     Program PWSCF v.5.1 starts on  2Nov2017 at 12:22: 0 

     This program is part of the open-source Quantum ESPRESSO suite
     for quantum simulation of materials; please cite
         "P. Giannozzi et al., J. Phys.:Condens. Matter 21 395502 (2009);
          URL http://www.quantum-espresso.org", 
     in publications or presentations arising from this work. More details at
     http://www.quantum-espresso.org/quote

     Parallel version (MPI), running on     8 processors
     R & G space division:  proc/nbgrp/npool/nimage =       8
     Reading input from /tmp/SiGe_zns.scf.in.super.444.b.03.12745/SiGe_zns.scf.in.super.444.b.03.t
Warning: card &IONS ignored
Warning: card   ION_DYNAMICS='BFGS', ignored
Warning: card / ignored
Warning: card &CELL ignored
Warning: card  CELL_DYNAMICS = 'BFGS' ignored
Warning: card / ignored
     Message from routine read_cards :
     DEPRECATED: no units specified in CELL_PARAMETERS card

     Current dimensions of program PWSCF are:
     Max number of different atomic species (ntypx) = 10
     Max number of k-points (npk) =  40000
     Max angular momentum in pseudopotentials (lmaxx) =  3
 kfg - two_fermi_energies  F

     Subspace diagonalization in iterative solution of the eigenvalue problem:
     a serial algorithm will be used


     Parallelization info
     --------------------
     sticks:   dense  smooth     PW     G-vecs:    dense   smooth      PW
     Min        1509    1055    277               109358    64048    8633
     Max        1510    1056    278               109359    64071    8636
     Sum       12073    8447   2223               874865   512493   69081



     bravais-lattice index     =            0
     lattice parameter (alat)  =    29.555622726  a.u.
     unit-cell volume          =   18316.0482 (a.u.)^3
     number of atoms/cell      =          128
     number of atomic types    =            2
     number of electrons       =      1122.00
     number of Kohn-Sham states=          673
     kinetic-energy cutoff     =      35.0000  Ry
     charge density cutoff     =     200.0000  Ry
     convergence threshold     =      1.0E-09
     mixing beta               =       0.3000
     number of iterations used =            8  local-TF  mixing
     Exchange-correlation      = SLA  PW   PSX  PSC ( 1  4 10  8 0)
     A smooth kinetic-energy cutoff is imposed at      34.5000 Ry
     height of the smooth step-function =             800.0000 Ry
     width of the smooth step-function  =               1.0000 Ry


     celldm(1)=  29.555623  celldm(2)=   0.000000  celldm(3)=   0.000000
     celldm(4)=   0.000000  celldm(5)=   0.000000  celldm(6)=   0.000000

     crystal axes: (cart. coord. in units of alat)
               a(1) = (  -0.001255916410   0.706500180784   0.707711747271 )  
               a(2) = (   0.707575898653  -0.001480864434   0.708648533001 )  
               a(3) = (   0.707705624900   0.707174647453   0.000765631141 )  

     reciprocal axes: (cart. coord. in units 2 pi/alat)
               b(1) = ( -0.706394  0.706159  0.706801 )  
               b(2) = (  0.704696 -0.705990  0.706032 )  
               b(3) = (  0.707196  0.707114 -0.704648 )  


     PseudoPot. # 1 for Si read from file:
     /users/kfg/psuedo/gbrv_1.5/si.pbesol.UPF
     MD5 check sum: ef58ba74faed4df802eb8a9742fc00a8
     Pseudo is Ultrasoft + core correction, Zval =  4.0
     Generated by new atomic code, or converted to UPF format
     Using radial grid of  899 points,  6 beta functions with: 
                l(1) =   0
                l(2) =   0
                l(3) =   1
                l(4) =   1
                l(5) =   2
                l(6) =   2
     Q(r) pseudized with  8 coefficients,  rinner =    0.900   0.900   0.900
                                                       0.900   0.900

     PseudoPot. # 2 for Ge read from file:
     /users/kfg/psuedo/gbrv_1.5/ge.pbesol.UPF
     MD5 check sum: 7bed0412183f5e553a4d27ec7023354d
     Pseudo is Ultrasoft + core correction, Zval = 14.0
     Generated by new atomic code, or converted to UPF format
     Using radial grid of  873 points,  6 beta functions with: 
                l(1) =   0
                l(2) =   0
                l(3) =   1
                l(4) =   1
                l(5) =   2
                l(6) =   2
     Q(r) pseudized with  8 coefficients,  rinner =    1.400   1.400   1.400
                                                       1.400   1.400

     atomic species   valence    mass     pseudopotential
        Si             4.00    28.08550     Si( 1.00)
        Ge            14.00    72.64000     Ge( 1.00)

     No symmetry found


                                    s                        frac. trans.

      isym =  1     identity                                     

 cryst.   s( 1) = (     1          0          0      )
                  (     0          1          0      )
                  (     0          0          1      )

 cart.    s( 1) = (  1.0000000  0.0000000  0.0000000 )
                  (  0.0000000  1.0000000  0.0000000 )
                  (  0.0000000  0.0000000  1.0000000 )


     point group C_1 (1)    
     there are  1 classes
     the character table:

       E    
A      1.00

     the symmetry operations in each class:
     E        1

   Cartesian axes

     site n.     atom                  positions (alat units)
         1           Si  tau(   1) = (   -0.00167844728   -0.00083561836    0.00168659921  )
         2           Si  tau(   2) = (    0.08943314839    0.08801410094    0.08913779742  )
         3           Si  tau(   3) = (    0.17847867737    0.17608739361   -0.00054043870  )
         4           Ge  tau(   4) = (    0.26494602712    0.26550000477    0.09023414179  )
         5           Si  tau(   5) = (    0.35222978041    0.35321643963   -0.00017166305  )
         6           Si  tau(   6) = (    0.44284723297    0.44336966890    0.08801569293  )
         7           Si  tau(   7) = (    0.53153852329    0.53172625265    0.00190516203  )
         8           Ge  tau(   8) = (    0.61825347612    0.61842899220    0.08897998783  )
         9           Ge  tau(   9) = (    0.17524716398   -0.00203348171    0.17649826215  )
        10           Ge  tau(  10) = (    0.26503678007    0.08739987931    0.26627341496  )
        11           Si  tau(  11) = (    0.35483223500    0.17569556629    0.17790696167  )
        12           Ge  tau(  12) = (    0.44210269330    0.26564537354    0.26481712375  )
        13           Si  tau(  13) = (    0.53095719627    0.35485643979    0.17603618383  )
        14           Ge  tau(  14) = (    0.61989384587    0.44248600056    0.26504496908  )
        15           Si  tau(  15) = (    0.70801781339    0.52930612028    0.17805632277  )
        16           Ge  tau(  16) = (    0.79572879453    0.61799864559    0.26524135887  )
        17           Si  tau(  17) = (    0.35227608162    0.00023972054    0.35331554767  )
        18           Ge  tau(  18) = (    0.44228453615    0.08801211549    0.44187011083  )
        19           Si  tau(  19) = (    0.53004341956    0.17603858962    0.35447339176  )
        20           Ge  tau(  20) = (    0.61847280404    0.26377042796    0.44428137672  )
        21           Si  tau(  21) = (    0.70599567460    0.35414237126    0.35482532055  )
        22           Si  tau(  22) = (    0.79506006293    0.43959372187    0.44409996636  )
        23           Si  tau(  23) = (    0.88544675670    0.53079192527    0.35324367187  )
        24           Ge  tau(  24) = (    0.97265853286    0.61666596172    0.44296514277  )
        25           Si  tau(  25) = (    0.53097983929   -0.00078767879    0.53284845376  )
        26           Si  tau(  26) = (    0.61957775202    0.08645729495    0.62054979152  )
        27           Ge  tau(  27) = (    0.70864607808    0.17580616295    0.53117297088  )
        28           Ge  tau(  28) = (    0.79608998331    0.26423758118    0.62177093513  )
        29           Si  tau(  29) = (    0.88339262088    0.35116567223    0.53162211012  )
        30           Ge  tau(  30) = (    0.97392690837    0.44063927549    0.62063403795  )
        31           Ge  tau(  31) = (    1.06233561504    0.52950063107    0.53179520341  )
        32           Ge  tau(  32) = (    1.14915239448    0.61780960640    0.62190129451  )
        33           Ge  tau(  33) = (   -0.00092289960    0.17520094587    0.17820588251  )
        34           Ge  tau(  34) = (    0.08834449980    0.26420427278    0.26631093068  )
        35           Ge  tau(  35) = (    0.17827975361    0.35491726529    0.17868805730  )
        36           Si  tau(  36) = (    0.26458040155    0.44262935459    0.26717135883  )
        37           Ge  tau(  37) = (    0.35474160792    0.52994441855    0.17596944656  )
        38           Si  tau(  38) = (    0.44214325911    0.61944934948    0.26645780105  )
        39           Si  tau(  39) = (    0.52879397224    0.70684351428    0.17767483943  )
        40           Ge  tau(  40) = (    0.61930070142    0.79382187609    0.26535422237  )
        41           Ge  tau(  41) = (    0.17755333787    0.17494698076    0.35461492848  )
        42           Ge  tau(  42) = (    0.26482052099    0.26453120900    0.44124937510  )
        43           Si  tau(  43) = (    0.35404038388    0.35419536511    0.35392164837  )
        44           Si  tau(  44) = (    0.44094606235    0.44064075198    0.44364396145  )
        45           Ge  tau(  45) = (    0.53138875656    0.53032862805    0.35475555860  )
        46           Ge  tau(  46) = (    0.61932661610    0.61732696890    0.44168521971  )
        47           Si  tau(  47) = (    0.70849763612    0.70713765019    0.35504094419  )
        48           Si  tau(  48) = (    0.79471599612    0.79527716299    0.44215529221  )
        49           Ge  tau(  49) = (    0.35326064609    0.17725664854    0.53202024749  )
        50           Si  tau(  50) = (    0.44101182258    0.26444974980    0.61990026826  )
        51           Ge  tau(  51) = (    0.53171449835    0.35282709533    0.52988896344  )
        52           Ge  tau(  52) = (    0.62046531025    0.44260270118    0.62004896417  )
        53           Ge  tau(  53) = (    0.70833702022    0.52943924870    0.53024685008  )
        54           Si  tau(  54) = (    0.79543826854    0.61827615208    0.61989607386  )
        55           Si  tau(  55) = (    0.88462153259    0.70739262257    0.53110467810  )
        56           Si  tau(  56) = (    0.97400912096    0.79599933781    0.61930362880  )
        57           Si  tau(  57) = (    0.52871452556    0.17586865452    0.70768990922  )
        58           Ge  tau(  58) = (    0.62020810958    0.26543338362    0.79779592090  )
        59           Ge  tau(  59) = (    0.70764862594    0.35315038707    0.70695436783  )
        60           Ge  tau(  60) = (    0.79622429381    0.44185764663    0.79782933056  )
        61           Si  tau(  61) = (    0.88274588850    0.52970944809    0.71013949695  )
        62           Ge  tau(  62) = (    0.97318651809    0.61776586721    0.79726102708  )
        63           Si  tau(  63) = (    1.06055813025    0.70434241976    0.71000349316  )
        64           Si  tau(  64) = (    1.14831307428    0.79509875963    0.79809787082  )
        65           Ge  tau(  65) = (   -0.00173794155    0.35421920932    0.35281925402  )
        66           Si  tau(  66) = (    0.08690171710    0.44306562950    0.44409457221  )
        67           Ge  tau(  67) = (    0.17613323833    0.52864919902    0.35312396631  )
        68           Ge  tau(  68) = (    0.26375271929    0.61773250121    0.44290233697  )
        69           Ge  tau(  69) = (    0.35258552821    0.70528741017    0.35520427597  )
        70           Ge  tau(  70) = (    0.44244085772    0.79653258854    0.44215342788  )
        71           Si  tau(  71) = (    0.52993766605    0.88462274400    0.35409434094  )
        72           Si  tau(  72) = (    0.61856388590    0.97271376866    0.44295128969  )
        73           Si  tau(  73) = (    0.17642387423    0.35204550433    0.53077643116  )
        74           Si  tau(  74) = (    0.26568050675    0.44214732159    0.61820309246  )
        75           Ge  tau(  75) = (    0.35278316465    0.52956006465    0.53122639997  )
        76           Si  tau(  76) = (    0.44066521914    0.61959419160    0.62049453818  )
        77           Si  tau(  77) = (    0.53141227229    0.70788220808    0.53023283525  )
        78           Si  tau(  78) = (    0.61914546752    0.79471474326    0.62068453295  )
        79           Ge  tau(  79) = (    0.70661036630    0.88260474188    0.53187466852  )
        80           Ge  tau(  80) = (    0.79596274082    0.97060810014    0.61945088985  )
        81           Ge  tau(  81) = (    0.35248237590    0.35234015714    0.70982012488  )
        82           Ge  tau(  82) = (    0.44172089017    0.44043432768    0.79732023782  )
        83           Ge  tau(  83) = (    0.53054502170    0.52796065423    0.70855775193  )
        84           Ge  tau(  84) = (    0.61820065581    0.61844225749    0.79651358011  )
        85           Si  tau(  85) = (    0.70607827734    0.70728211481    0.70713559844  )
        86           Si  tau(  86) = (    0.79371701513    0.79315600140    0.79701341595  )
        87           Si  tau(  87) = (    0.88415052726    0.88227893383    0.71001057825  )
        88           Si  tau(  88) = (    0.97183409575    0.96989425870    0.79874730394  )
        89           Si  tau(  89) = (    0.53065582836    0.35264450108    0.88384229349  )
        90           Si  tau(  90) = (    0.61830102494    0.44163638306    0.97504441170  )
        91           Ge  tau(  91) = (    0.70791243983    0.53010156727    0.88410389534  )
        92           Ge  tau(  92) = (    0.79448266844    0.61697648136    0.97470421562  )
        93           Si  tau(  93) = (    0.88475558471    0.70729404544    0.88444503993  )
        94           Si  tau(  94) = (    0.97178170588    0.79515037780    0.97493527379  )
        95           Si  tau(  95) = (    1.05986452534    0.88328941504    0.88469871552  )
        96           Ge  tau(  96) = (    1.14793189334    0.97144612474    0.97397886016  )
        97           Si  tau(  97) = (    0.00001303060    0.53151851959    0.52909846747  )
        98           Si  tau(  98) = (    0.08713045020    0.61844902626    0.62056911071  )
        99           Ge  tau(  99) = (    0.17608057215    0.70659578969    0.53136172520  )
       100           Si  tau( 100) = (    0.26328787456    0.79353658934    0.62061995683  )
       101           Si  tau( 101) = (    0.35338887377    0.88337552437    0.53114926520  )
       102           Si  tau( 102) = (    0.44150613425    0.97231469330    0.62082838946  )
       103           Ge  tau( 103) = (    0.52851472305    1.05909193030    0.53082674398  )
       104           Si  tau( 104) = (    0.61893210816    1.14735546046    0.62155359116  )
       105           Si  tau( 105) = (    0.17559850899    0.53010752283    0.70759929091  )
       106           Si  tau( 106) = (    0.26497965427    0.61861645659    0.79626264307  )
       107           Ge  tau( 107) = (    0.35186612722    0.70532297693    0.70757321327  )
       108           Si  tau( 108) = (    0.43991503037    0.79599884371    0.79666504659  )
       109           Si  tau( 109) = (    0.52827849108    0.88369854455    0.70943257252  )
       110           Ge  tau( 110) = (    0.61861125867    0.97009730714    0.79823424338  )
       111           Ge  tau( 111) = (    0.70522172586    1.05880279628    0.70884224301  )
       112           Ge  tau( 112) = (    0.79479610587    1.14856599911    0.79711036308  )
       113           Ge  tau( 113) = (    0.35302622164    0.52761752494    0.88539832950  )
       114           Si  tau( 114) = (    0.44277505167    0.61600273021    0.97282256071  )
       115           Si  tau( 115) = (    0.52958784628    0.70603618999    0.88576818693  )
       116           Si  tau( 116) = (    0.61739386984    0.79515675930    0.97354266385  )
       117           Si  tau( 117) = (    0.70619569073    0.88268406842    0.88633875865  )
       118           Ge  tau( 118) = (    0.79428405688    0.97189166937    0.97377889372  )
       119           Ge  tau( 119) = (    0.88520159926    1.05833134525    0.88533914492  )
       120           Si  tau( 120) = (    0.97074839743    1.14920366949    0.97560135413  )
       121           Si  tau( 121) = (    0.52877818652    0.52848138634    1.06058280217  )
       122           Ge  tau( 122) = (    0.61948663776    0.61763101726    1.15040148622  )
       123           Ge  tau( 123) = (    0.70606495931    0.70396420141    1.06163006142  )
       124           Ge  tau( 124) = (    0.79645799177    0.79304187834    1.15069112831  )
       125           Ge  tau( 125) = (    0.88199245920    0.88336544701    1.06399401128  )
       126           Si  tau( 126) = (    0.97099740704    0.97137123133    1.15175969412  )
       127           Si  tau( 127) = (    1.06163372532    1.06026987906    1.06354724752  )
       128           Ge  tau( 128) = (    1.14876076767    1.14884482969    1.15150387190  )

   Crystallographic axes

     site n.     atom                  positions (cryst. coord.)
         1           Si  tau(   1) = (    0.00178765508    0.00059793509   -0.00296632741  )
         2           Si  tau(   2) = (    0.06197957619    0.06382026850    0.06267197004  )
         3           Si  tau(   3) = (   -0.00211252282    0.00107579111    0.25111404249  )
         4           Ge  tau(   4) = (    0.06410652670    0.06297435906    0.31152416075  )
         5           Si  tau(   5) = (    0.00049269129   -0.00127338383    0.49898065309  )
         6           Si  tau(   6) = (    0.06247447477    0.06120021473    0.56467249192  )
         7           Si  tau(   7) = (    0.00135431285    0.00052501931    0.75055039059  )
         8           Ge  tau(   8) = (    0.06286986684    0.06189906965    0.81182645066  )
         9           Ge  tau(   9) = (   -0.00048045758    0.24954503308   -0.00187294042  )
        10           Ge  tau(  10) = (    0.06270001888    0.31306451302    0.06160558908  )
        11           Si  tau(  11) = (   -0.00083760872    0.25161765794    0.24981091909  )
        12           Ge  tau(  12) = (    0.06246210226    0.31097451634    0.31389190619  )
        13           Si  tau(  13) = (   -0.00005739810    0.24792568667    0.50237114294  )
        14           Ge  tau(  14) = (    0.06191016943    0.31157646905    0.56451098553  )
        15           Si  tau(  15) = (   -0.00051487994    0.25096623394    0.74951998341  )
        16           Ge  tau(  16) = (    0.06178008798    0.31171522523    0.81282977596  )
        17           Si  tau(  17) = (    0.00104715550    0.49753042694    0.00033468409  )
        18           Ge  tau(  18) = (    0.06203742549    0.56151497161    0.06365356971  )
        19           Si  tau(  19) = (    0.00043372178    0.49950767677    0.24954495879  )
        20           Ge  tau(  20) = (    0.06339671758    0.56329304476    0.31083523280  )
        21           Si  tau(  21) = (    0.00216046622    0.49800959770    0.49966933552  )
        22           Si  tau(  22) = (    0.06268754676    0.56347589733    0.56017193431  )
        23           Si  tau(  23) = (   -0.00097791071    0.49863863198    0.75260225674  )
        24           Ge  tau(  24) = (    0.06147214415    0.56281646342    0.81177872782  )
        25           Si  tau(  25) = (    0.00098032296    0.75094358003   -0.00052070800  )
        26           Si  tau(  26) = (    0.06199148780    0.81370407083    0.06202892480  )
        27           Ge  tau(  27) = (   -0.00100291483    0.75028792415    0.25117670409  )
        28           Ge  tau(  28) = (    0.06370859054    0.81344268272    0.31170807604  )
        29           Si  tau(  29) = (   -0.00029364747    0.74994624615    0.49843939430  )
        30           Ge  tau(  30) = (    0.06184976697    0.81342322159    0.56301081338  )
        31           Ge  tau(  31) = (   -0.00064269689    0.75026625764    0.75096829485  )
        32           Ge  tau(  32) = (    0.06407768604    0.81271824834    0.81131618228  )
        33           Ge  tau(  33) = (    0.25032774967    0.00147856589   -0.00233812817  )
        34           Ge  tau(  34) = (    0.31239301334    0.06375449440    0.06164384470  )
        35           Ge  tau(  35) = (    0.25098919830    0.00122455300    0.25113338742  )
        36           Si  tau(  36) = (    0.31450568817    0.06258848217    0.31183769794  )
        37           Ge  tau(  37) = (    0.24801311555    0.00008975652    0.50160627473  )
        38           Si  tau(  38) = (    0.31343506772    0.06237946179    0.56294409653  )
        39           Si  tau(  39) = (    0.25118786079   -0.00094108390    0.74858149045  )
        40           Ge  tau(  40) = (    0.31064686060    0.06333726735    0.81230797639  )
        41           Ge  tau(  41) = (    0.24875985756    0.25197980510   -0.00060629386  )
        42           Ge  tau(  42) = (    0.31160884920    0.31139778668    0.06340815352  )
        43           Si  tau(  43) = (    0.25017834636    0.24931256267    0.25144215355  )
        44           Si  tau(  44) = (    0.31324868656    0.31287191522    0.31080556972  )
        45           Ge  tau(  45) = (    0.24986804596    0.25052978296    0.50082085144  )
        46           Ge  tau(  46) = (    0.31062588488    0.31245442877    0.56327306015  )
        47           Si  tau(  47) = (    0.24981641824    0.25071387835    0.75089453606  )
        48           Si  tau(  48) = (    0.31272528772    0.31075153819    0.81280752026  )
        49           Ge  tau(  49) = (    0.25166242079    0.49942329170    0.00027812216  )
        50           Si  tau(  50) = (    0.31336137822    0.56174986791    0.06206635800  )
        51           Ge  tau(  51) = (    0.24807797694    0.49972336047    0.25213005438  )
        52           Ge  tau(  52) = (    0.31250594881    0.56254089240    0.31484476919  )
        53           Ge  tau(  53) = (    0.24828213253    0.49975489679    0.50166949242  )
        54           Si  tau(  54) = (    0.31285145551    0.56171207698    0.56291379092  )
        55           Si  tau(  55) = (    0.25002553035    0.49895432552    0.75156600397  )
        56           Si  tau(  56) = (    0.31179219256    0.56166125274    0.81528635628  )
        57           Si  tau(  57) = (    0.25090610246    0.74807327044   -0.00040832506  )
        58           Ge  tau(  58) = (    0.31320952393    0.81293438267    0.06413499709  )
        59           Ge  tau(  59) = (    0.24917736637    0.74848905661    0.25200980287  )
        60           Ge  tau(  60) = (    0.31347997183    0.81244219272    0.31334141772  )
        61           Si  tau(  61) = (    0.25241976141    0.74947935401    0.49844083016  )
        62           Ge  tau(  62) = (    0.31229244311    0.81255616581    0.56327596960  )
        63           Si  tau(  63) = (    0.25003680602    0.75139786139    0.74777014614  )
        64           Si  tau(  64) = (    0.31440082397    0.81136282511    0.81192961466  )
        65           Ge  tau(  65) = (    0.50073575479   -0.00219827570    0.00063075322  )
        66           Si  tau(  66) = (    0.56537439859    0.06198437217    0.06182391477  )
        67           Ge  tau(  67) = (    0.49847932664    0.00021622793    0.24954766899  )
        68           Ge  tau(  68) = (    0.56294785101    0.06245583151    0.31124168847  )
        69           Ge  tau(  69) = (    0.50003954374    0.00132549128    0.49777144338  )
        70           Ge  tau(  70) = (    0.56245561318    0.06161690813    0.56456894187  )
        71           Si  tau(  71) = (    0.50061384492   -0.00108768118    0.75078675863  )
        72           Si  tau(  72) = (    0.56301924713    0.06191135227    0.81314036521  )
        73           Si  tau(  73) = (    0.49912854616    0.25052973836   -0.00030813206  )
        74           Si  tau(  74) = (    0.56149764047    0.31154359377    0.06492100797  )
        75           Ge  tau(  75) = (    0.50022097376    0.24980369925    0.24961836839  )
        76           Si  tau(  76) = (    0.56481481891    0.31119682448    0.31252995429  )
        77           Si  tau(  77) = (    0.49926000761    0.24908786598    0.50273831095  )
        78           Si  tau(  78) = (    0.56253471269    0.31347201250    0.56244674217  )
        79           Ge  tau(  79) = (    0.50004349251    0.25035617257    0.74902949289  )
        80           Ge  tau(  80) = (    0.56096881789    0.31302458188    0.81273710523  )
        81           Ge  tau(  81) = (    0.50151811097    0.50080003440   -0.00175467542  )
        82           Ge  tau(  82) = (    0.56253420104    0.56327035934    0.06199025961  )
        83           Ge  tau(  83) = (    0.49885950350    0.50140256527    0.24924371183  )
        84           Ge  tau(  84) = (    0.56300173871    0.56139368656    0.31323630739  )
        85           Si  tau(  85) = (    0.50048817958    0.49749699140    0.50118291476  )
        86           Si  tau(  86) = (    0.56274703128    0.56208619263    0.56055105616  )
        87           Si  tau(  87) = (    0.50030665526    0.50146770318    0.74883170520  )
        88           Si  tau(  88) = (    0.56295704733    0.56405341162    0.81026701351  )
        89           Si  tau(  89) = (    0.49887131318    0.74900853034    0.00183972690  )
        90           Si  tau(  90) = (    0.56426342062    0.81233600837    0.06248404696  )
        91           Ge  tau(  91) = (    0.49915614050    0.74882242728    0.25249288689  )
        92           Ge  tau(  92) = (    0.56338733123    0.81246204869    0.31130411270  )
        93           Si  tau(  93) = (    0.49960241776    0.74858791201    0.50261050147  )
        94           Si  tau(  94) = (    0.56412679719    0.81177820338    0.56251567913  )
        95           Si  tau(  95) = (    0.50036655428    0.74791469994    0.75071683661  )
        96           Ge  tau(  96) = (    0.56351222542    0.81077232935    0.81242346793  )
        97           Si  tau(  97) = (    0.74929470572   -0.00167715574    0.00302498245  )
        98           Si  tau(  98) = (    0.81379376596    0.06292329702    0.06164921851  )
        99           Ge  tau(  99) = (    0.75015374149    0.00039215253    0.24974398768  )
       100           Si  tau( 100) = (    0.81303284358    0.06348664572    0.30999803835  )
       101           Si  tau( 101) = (    0.74958868398    0.00038596177    0.50028879917  )
       102           Si  tau( 102) = (    0.81353365134    0.06300803424    0.56230286161  )
       103           Ge  tau( 103) = (    0.74973662724   -0.00048520257    0.74861584900  )
       104           Si  tau( 104) = (    0.81232022249    0.06497447907    0.81104052143  )
       105           Si  tau( 105) = (    0.75043024996    0.24908069013    0.00042036334  )
       106           Si  tau( 106) = (    0.81246065347    0.31217999185    0.06373977693  )
       107           Ge  tau( 107) = (    0.74962742896    0.24957709167    0.24899174952  )
       108           Si  tau( 108) = (    0.81443197136    0.31051025588    0.31259934600  )
       109           Si  tau( 109) = (    0.75228653221    0.24927566526    0.49857148906  )
       110           Ge  tau( 110) = (    0.81225236187    0.31463298853    0.56097428954  )
       111           Ge  tau( 111) = (    0.75052911943    0.24992829929    0.74793963494  )
       112           Ge  tau( 112) = (    0.81302938659    0.31199922519    0.81256111362  )
       113           Ge  tau( 113) = (    0.74900648190    0.50140303314   -0.00114989984  )
       114           Si  tau( 114) = (    0.80981397153    0.56397393323    0.06321519305  )
       115           Si  tau( 115) = (    0.75053780104    0.50012472828    0.24961544568  )
       116           Si  tau( 116) = (    0.81348451596    0.56105466485    0.31287977929  )
       117           Si  tau( 117) = (    0.75092787819    0.50027086237    0.49901989744  )
       118           Ge  tau( 118) = (    0.81350029312    0.56110226532    0.56278103723  )
       119           Ge  tau( 119) = (    0.74780758455    0.50170471715    0.75051914002  )
       120           Si  tau( 120) = (    0.81534555208    0.56156228278    0.81167147213  )
       121           Si  tau( 121) = (    0.74928683462    0.74833072562    0.00030866291  )
       122           Ge  tau( 122) = (    0.81164866050    0.81272875033    0.06420568547  )
       123           Ge  tau( 123) = (    0.74871152340    0.75011437747    0.24903352109  )
       124           Ge  tau( 124) = (    0.81070986401    0.81380602471    0.31319045451  )
       125           Ge  tau( 125) = (    0.75279406881    0.74910340799    0.49864007876  )
       126           Si  tau( 126) = (    0.81410043907    0.81165904008    0.56197020409  )
       127           Si  tau( 127) = (    0.75050346889    0.75048778776    0.75108803066  )
       128           Ge  tau( 128) = (    0.81367326041    0.81145305192    0.81335802712  )

     number of k points=     8  gaussian smearing, width (Ry)=  0.0150
                       cart. coord. in units 2pi/alat
        k(    1) = (   0.0000000   0.0000000   0.0000000), wk =   0.2500000
        k(    2) = (  -0.3535981  -0.3535568   0.3523240), wk =   0.2500000
        k(    3) = (  -0.3523482   0.3529949  -0.3530159), wk =   0.2500000
        k(    4) = (  -0.7059462  -0.0005619  -0.0006919), wk =   0.2500000
        k(    5) = (   0.3531971  -0.3530797  -0.3534003), wk =   0.2500000
        k(    6) = (  -0.0004010  -0.7066365  -0.0010763), wk =   0.2500000
        k(    7) = (   0.0008489  -0.0000848  -0.7064162), wk =   0.2500000
        k(    8) = (  -0.3527491  -0.3536416  -0.3540922), wk =   0.2500000

                       cryst. coord.
        k(    1) = (   0.0000000   0.0000000   0.0000000), wk =   0.2500000
        k(    2) = (   0.0000000  -0.0000000  -0.5000000), wk =   0.2500000
        k(    3) = (  -0.0000000  -0.5000000  -0.0000000), wk =   0.2500000
        k(    4) = (  -0.0000000  -0.5000000  -0.5000000), wk =   0.2500000
        k(    5) = (  -0.5000000   0.0000000  -0.0000000), wk =   0.2500000
        k(    6) = (  -0.5000000  -0.0000000  -0.5000000), wk =   0.2500000
        k(    7) = (  -0.5000000  -0.5000000  -0.0000000), wk =   0.2500000
        k(    8) = (  -0.5000000  -0.5000000  -0.5000000), wk =   0.2500000

     Dense  grid:   874865 G-vectors     FFT dimensions: ( 135, 135, 135)

     Smooth grid:   512493 G-vectors     FFT dimensions: ( 120, 120, 120)

     Largest allocated arrays     est. size (Mb)     dimensions
        Kohn-Sham Wavefunctions        82.58 Mb     (    8042,  673)
        NL pseudopotentials           282.73 Mb     (    8042, 2304)
        Each V/rho on FFT grid          4.73 Mb     (  309825)
        Each G-vector array             0.83 Mb     (  109359)
        G-vector shells                 0.82 Mb     (  107949)
     Largest temporary arrays     est. size (Mb)     dimensions
        Auxiliary wavefunctions       330.34 Mb     (    8042, 2692)
        Each subspace H/S matrix      110.58 Mb     (    2692, 2692)
        Each <psi_i|beta_j> matrix     23.66 Mb     (    2304,  673)
        Arrays for rho mixing          37.82 Mb     (  309825,    8)

     Check: negative/imaginary core charge=   -0.000001    0.000000

     Initial potential from superposition of free atoms

     starting charge 1121.90728, renormalised to 1122.00000
     Starting wfc are  817 randomized atomic wfcs

     total cpu time spent up to now is     1513.5 secs

     per-process dynamical memory:  1166.6 Mb

     Self-consistent Calculation

     iteration #  1     ecut=    35.00 Ry     beta=0.30
     Davidson diagonalization with overlap
     ethr =  1.00E-02,  avg # of iterations =  3.0

     Threshold (ethr) on eigenvalues was too large:
     Diagonalizing with lowered threshold

     Davidson diagonalization with overlap
     ethr =  2.53E-04,  avg # of iterations =  4.4

     total cpu time spent up to now is     9688.0 secs

     total energy              =  -13645.14825842 Ry
     Harris-Foulkes estimate   =  -13645.44384446 Ry
     estimated scf accuracy    <       2.84428548 Ry

     iteration #  2     ecut=    35.00 Ry     beta=0.30
     Davidson diagonalization with overlap
     ethr =  2.54E-04,  avg # of iterations =  1.0

     total cpu time spent up to now is    12799.3 secs

     total energy              =  -13644.58505221 Ry
     Harris-Foulkes estimate   =  -13645.16279805 Ry
     estimated scf accuracy    <       1.75635574 Ry

     iteration #  3     ecut=    35.00 Ry     beta=0.30
     Davidson diagonalization with overlap
     ethr =  1.57E-04,  avg # of iterations =  2.4

     total cpu time spent up to now is    16296.6 secs

     total energy              =  -13644.69394615 Ry
     Harris-Foulkes estimate   =  -13644.69280295 Ry
     estimated scf accuracy    <       0.02455105 Ry

     iteration #  4     ecut=    35.00 Ry     beta=0.30
     Davidson diagonalization with overlap
     ethr =  2.19E-06,  avg # of iterations =  9.8

     total cpu time spent up to now is    24880.0 secs

     total energy              =  -13644.69844862 Ry
     Harris-Foulkes estimate   =  -13644.69901659 Ry
     estimated scf accuracy    <       0.01103992 Ry

     iteration #  5     ecut=    35.00 Ry     beta=0.30
     Davidson diagonalization with overlap
     ethr =  9.84E-07,  avg # of iterations =  2.0

     total cpu time spent up to now is    28703.6 secs

     total energy              =  -13644.69936816 Ry
     Harris-Foulkes estimate   =  -13644.69950756 Ry
     estimated scf accuracy    <       0.00068980 Ry

     iteration #  6     ecut=    35.00 Ry     beta=0.30
     Davidson diagonalization with overlap
     ethr =  6.15E-08,  avg # of iterations =  2.0

     total cpu time spent up to now is    31727.3 secs

     total energy              =  -13644.69933437 Ry
     Harris-Foulkes estimate   =  -13644.69940348 Ry
     estimated scf accuracy    <       0.00020929 Ry

     iteration #  7     ecut=    35.00 Ry     beta=0.30
     Davidson diagonalization with overlap
     ethr =  1.87E-08,  avg # of iterations =  2.1

     total cpu time spent up to now is    35017.3 secs

     total energy              =  -13644.69936294 Ry
     Harris-Foulkes estimate   =  -13644.69935917 Ry
     estimated scf accuracy    <       0.00003644 Ry

     iteration #  8     ecut=    35.00 Ry     beta=0.30
     Davidson diagonalization with overlap
     ethr =  3.25E-09,  avg # of iterations =  2.0

     total cpu time spent up to now is    38073.7 secs

     total energy              =  -13644.69936114 Ry
     Harris-Foulkes estimate   =  -13644.69936570 Ry
     estimated scf accuracy    <       0.00002100 Ry

     iteration #  9     ecut=    35.00 Ry     beta=0.30
     Davidson diagonalization with overlap
     ethr =  1.87E-09,  avg # of iterations =  2.0

     total cpu time spent up to now is    41964.8 secs

     total energy              =  -13644.69936477 Ry
     Harris-Foulkes estimate   =  -13644.69936480 Ry
     estimated scf accuracy    <       0.00000450 Ry

     iteration # 10     ecut=    35.00 Ry     beta=0.30
     Davidson diagonalization with overlap
     ethr =  4.02E-10,  avg # of iterations =  1.6

     total cpu time spent up to now is    44886.3 secs

     total energy              =  -13644.69936400 Ry
     Harris-Foulkes estimate   =  -13644.69936494 Ry
     estimated scf accuracy    <       0.00000253 Ry

     iteration # 11     ecut=    35.00 Ry     beta=0.30
     Davidson diagonalization with overlap
     ethr =  2.26E-10,  avg # of iterations =  2.4

     total cpu time spent up to now is    48956.0 secs

     total energy              =  -13644.69936466 Ry
     Harris-Foulkes estimate   =  -13644.69936452 Ry
     estimated scf accuracy    <       0.00000021 Ry

     iteration # 12     ecut=    35.00 Ry     beta=0.30
     Davidson diagonalization with overlap
     ethr =  1.85E-11,  avg # of iterations =  2.0

     total cpu time spent up to now is    51967.4 secs

     total energy              =  -13644.69936471 Ry
     Harris-Foulkes estimate   =  -13644.69936467 Ry
     estimated scf accuracy    <       0.00000012 Ry

     iteration # 13     ecut=    35.00 Ry     beta=0.30
     Davidson diagonalization with overlap
     ethr =  1.04E-11,  avg # of iterations =  2.0

     total cpu time spent up to now is    55566.2 secs

     total energy              =  -13644.69936476 Ry
     Harris-Foulkes estimate   =  -13644.69936473 Ry
     estimated scf accuracy    <          6.7E-09 Ry

     iteration # 14     ecut=    35.00 Ry     beta=0.30
     Davidson diagonalization with overlap
     ethr =  6.00E-13,  avg # of iterations =  2.8

     total cpu time spent up to now is    59179.4 secs

     total energy              =  -13644.69936478 Ry
     Harris-Foulkes estimate   =  -13644.69936477 Ry
     estimated scf accuracy    <          2.8E-09 Ry

     iteration # 15     ecut=    35.00 Ry     beta=0.30
     Davidson diagonalization with overlap
     ethr =  2.48E-13,  avg # of iterations =  2.4

     total cpu time spent up to now is    62581.9 secs

     End of self-consistent calculation

          k = 0.0000 0.0000 0.0000 ( 64053 PWs)   bands (ev):

   -17.4468 -17.4209 -17.4078 -17.4066 -17.3996 -17.3980 -17.3967 -17.3946
   -17.3896 -17.3880 -17.3844 -17.3822 -17.3814 -17.3804 -17.3786 -17.3745
   -17.3739 -17.3686 -17.3679 -17.3618 -17.3581 -17.3570 -17.3478 -17.3459
   -17.3429 -17.3397 -17.3377 -17.3343 -17.3333 -17.3307 -17.3261 -17.3173
   -17.3158 -17.3144 -17.3117 -17.3090 -17.3082 -17.3025 -17.3000 -17.2992
   -17.2979 -17.2943 -17.2920 -17.2905 -17.2890 -17.2861 -17.2853 -17.2817
   -17.2808 -17.2765 -17.2760 -17.2729 -17.2703 -17.2676 -17.2651 -17.2639
   -17.2630 -17.2607 -17.2587 -17.2535 -17.2527 -17.2500 -17.2467 -17.2452
   -17.2443 -17.2425 -17.2380 -17.2331 -17.2325 -17.2303 -17.2284 -17.2274
   -17.2241 -17.2228 -17.2176 -17.2166 -17.2161 -17.2145 -17.2134 -17.2105
   -17.2084 -17.2066 -17.2055 -17.2033 -17.2024 -17.1979 -17.1968 -17.1958
   -17.1936 -17.1910 -17.1901 -17.1890 -17.1886 -17.1860 -17.1848 -17.1812
   -17.1810 -17.1803 -17.1795 -17.1779 -17.1747 -17.1736 -17.1731 -17.1727
   -17.1722 -17.1694 -17.1677 -17.1674 -17.1666 -17.1656 -17.1646 -17.1636
   -17.1620 -17.1596 -17.1576 -17.1562 -17.1545 -17.1538 -17.1534 -17.1514
   -17.1496 -17.1480 -17.1468 -17.1455 -17.1450 -17.1439 -17.1427 -17.1403
   -17.1392 -17.1381 -17.1368 -17.1353 -17.1331 -17.1328 -17.1322 -17.1302
   -17.1300 -17.1286 -17.1262 -17.1239 -17.1234 -17.1225 -17.1215 -17.1210
   -17.1209 -17.1206 -17.1201 -17.1199 -17.1194 -17.1190 -17.1188 -17.1178
   -17.1172 -17.1166 -17.1163 -17.1160 -17.1154 -17.1145 -17.1138 -17.1136
   -17.1133 -17.1131 -17.1127 -17.1121 -17.1115 -17.1114 -17.1110 -17.1106
   -17.1104 -17.1091 -17.1079 -17.1071 -17.1069 -17.1052 -17.1048 -17.1045
   -17.1041 -17.1033 -17.1029 -17.1024 -17.1019 -17.1012 -17.1011 -17.1010
   -17.1006 -17.0994 -17.0983 -17.0981 -17.0977 -17.0963 -17.0960 -17.0957
   -17.0944 -17.0941 -17.0936 -17.0935 -17.0932 -17.0927 -17.0923 -17.0913
   -17.0910 -17.0904 -17.0900 -17.0895 -17.0892 -17.0888 -17.0888 -17.0880
   -17.0878 -17.0873 -17.0871 -17.0865 -17.0862 -17.0860 -17.0856 -17.0852
   -17.0842 -17.0840 -17.0837 -17.0825 -17.0818 -17.0810 -17.0797 -17.0787
   -17.0781 -17.0770 -17.0764 -17.0745 -17.0737 -17.0726 -17.0722 -17.0718
   -17.0711 -17.0708 -17.0699 -17.0682 -17.0679 -17.0678 -17.0666 -17.0663
   -17.0655 -17.0648 -17.0646 -17.0643 -17.0636 -17.0628 -17.0618 -17.0615
   -17.0607 -17.0596 -17.0580 -17.0572 -17.0570 -17.0567 -17.0561 -17.0558
   -17.0552 -17.0547 -17.0545 -17.0543 -17.0519 -17.0500 -17.0488 -17.0471
   -17.0457 -17.0451 -17.0444 -17.0434 -17.0431 -17.0380 -17.0347 -17.0342
   -17.0338 -17.0316 -17.0288 -17.0277 -17.0267 -17.0231 -17.0218 -17.0209
   -17.0192 -17.0189 -17.0159 -17.0152 -17.0126 -17.0103 -17.0097 -17.0081
   -17.0062 -17.0052 -17.0000 -16.9976 -16.9973 -16.9969 -16.9963 -16.9955
   -16.9928 -16.9914 -16.9901 -16.9885 -16.9874 -16.9861 -16.9843 -16.9821
   -16.9787  -5.2225  -4.6458  -4.6204  -4.5724  -4.4866  -4.4308  -4.4028
    -4.3523  -4.3106  -4.2282  -4.1595  -4.1475  -4.0631  -3.9874  -3.9370
    -3.4875  -3.4409  -3.4015  -3.3677  -3.3232  -3.2943  -3.2650  -3.1752
    -3.1296  -3.0738  -3.0631  -3.0212  -2.9793  -2.9274  -2.8733  -2.8489
    -2.8073  -2.7818  -2.7658  -2.7504  -2.6818  -2.6696  -2.6229  -2.5862
    -2.5723  -2.5328  -2.4817  -2.4607  -2.4460  -2.4140  -2.3716  -2.3592
    -2.3369  -2.2720  -2.2116  -2.1726  -2.1519  -2.1361  -2.1049  -2.0432
    -1.2781  -1.2257  -1.1824  -1.1569  -1.1393  -1.0705  -1.0484  -1.0038
    -0.9832  -0.9684  -0.9266  -0.8748  -0.8427  -0.8195  -0.7856  -0.6947
    -0.6719  -0.6162  -0.0778  -0.0176   0.0062   0.0288   0.1168   0.1800
     0.2116   0.2202   0.2372   0.2709   0.3235   0.3557   0.3852   0.3939
     0.4126   0.4282   0.4754   0.4788   0.5009   0.5221   0.5381   0.5864
     0.5926   0.6604   0.6838   0.6898   0.7008   0.7517   1.1378   1.1819
     1.2130   1.2550   1.2930   1.3451   1.3685   1.4012   1.4428   1.4789
     1.5532   1.5645   2.8940   2.9163   2.9409   2.9759   3.0119   3.0428
     3.0564   3.0837   3.0994   3.2188   3.2222   3.2652   3.3171   3.3236
     3.3242   3.3358   3.3421   3.3468   3.3513   3.3522   3.3575   3.3647
     3.3715   3.3744   3.3779   3.3964   3.4008   3.4114   3.4161   3.4193
     3.4244   3.4276   3.4359   3.4378   3.4434   3.4543   3.4668   3.4692
     3.5587   3.5679   3.5713   3.5772   3.5802   3.5817   3.5953   3.6007
     3.6083   3.6109   3.6198   3.6210   3.6246   3.6259   3.6311   3.6375
     3.6440   3.6460   3.6525   3.6575   3.6616   3.6690   3.6763   3.6806
     4.2794   4.2871   4.2949   4.3001   4.3094   4.3144   4.9074   4.9203
     4.9260   4.9321   4.9374   4.9425   4.9433   4.9446   4.9490   4.9502
     4.9581   4.9591   4.9667   4.9698   4.9711   4.9756   4.9786   4.9845
     4.9848   4.9921   4.9986   5.0028   5.0091   5.0178   5.2605   5.2762
     5.2778   5.2885   5.2956   5.2996   5.3113   5.3209   5.3288   5.3343
     5.3451   5.3606   5.8124   5.8189   5.8409   5.8452   5.8480   5.8536
     5.8604   5.8687   5.8794   5.8864   5.8913   5.9102   5.9497   5.9512
     5.9790   5.9871   5.9924   5.9990   6.0092   6.0192   6.3898   6.4115
     6.4125   6.4273   6.4392   6.4526   6.4557   6.4740   6.4770   6.4810
     6.4866   6.4979   6.5110   6.5146   6.5297   6.5470   7.2701   7.2984
     7.3344   7.8259   7.8712   7.8843   7.9187   7.9542   7.9589   7.9905
     8.0897   8.1561   8.1783   8.2286   8.2331   8.2626   8.2807   8.3186
     8.3356   8.4369   8.4629   8.5158   8.5318   8.5418   8.5537   8.5646
     8.5732   8.6002   8.6201   8.6288   8.6395   8.6541   8.6660   8.6739
     8.6951   8.7092   8.7194   8.7214   8.7379   8.7443   8.7517   8.7742
     8.7815   8.7903   8.7979   8.8030   8.8153   8.8376   8.8477   8.8661
     8.8796   9.0414   9.3787   9.4018   9.4139   9.4297   9.4846   9.4986
     9.5217   9.5280   9.5667   9.5797   9.6257   9.6350   9.7938   9.8091
     9.8237  10.1509  10.1839  10.2236  10.2680  10.3046  10.3290  10.6605
    10.6755  10.6777  10.6965  10.7125  10.7183  10.7284  10.7409  10.7565
    10.7708  10.7727  10.7795  10.7892  10.7943  10.8037  10.8119  10.8225
    10.8267  10.8395  10.8859  10.8901  10.8958  10.9210  10.9767  11.5028
    11.5118  11.5189  11.5332  11.5430  11.5457  11.5536  11.5668  11.5743
    11.5834  11.5881  11.5930  11.6032  11.6047  11.6223  11.6335  11.6357
    11.6501

     occupation numbers 
     1.0000   1.0000   1.0000   1.0000   1.0000   1.0000   1.0000   1.0000
     1.0000   1.0000   1.0000   1.0000   1.0000   1.0000   1.0000   1.0000
     1.0000   1.0000   1.0000   1.0000   1.0000   1.0000   1.0000   1.0000
     1.0000   1.0000   1.0000   1.0000   1.0000   1.0000   1.0000   1.0000
     1.0000   1.0000   1.0000   1.0000   1.0000   1.0000   1.0000   1.0000
     1.0000   1.0000   1.0000   1.0000   1.0000   1.0000   1.0000   1.0000
     1.0000   1.0000   1.0000   1.0000   1.0000   1.0000   1.0000   1.0000
     1.0000   1.0000   1.0000   1.0000   1.0000   1.0000   1.0000   1.0000
     1.0000   1.0000   1.0000   1.0000   1.0000   1.0000   1.0000   1.0000
     1.0000   1.0000   1.0000   1.0000   1.0000   1.0000   1.0000   1.0000
     1.0000   1.0000   1.0000   1.0000   1.0000   1.0000   1.0000   1.0000
     1.0000   1.0000   1.0000   1.0000   1.0000   1.0000   1.0000   1.0000
     1.0000   1.0000   1.0000   1.0000   1.0000   1.0000   1.0000   1.0000
     1.0000   1.0000   1.0000   1.0000   1.0000   1.0000   1.0000   1.0000
     1.0000   1.0000   1.0000   1.0000   1.0000   1.0000   1.0000   1.0000
     1.0000   1.0000   1.0000   1.0000   1.0000   1.0000   1.0000   1.0000
     1.0000   1.0000   1.0000   1.0000   1.0000   1.0000   1.0000   1.0000
     1.0000   1.0000   1.0000   1.0000   1.0000   1.0000   1.0000   1.0000
     1.0000   1.0000   1.0000   1.0000   1.0000   1.0000   1.0000   1.0000
     1.0000   1.0000   1.0000   1.0000   1.0000   1.0000   1.0000   1.0000
     1.0000   1.0000   1.0000   1.0000   1.0000   1.0000   1.0000   1.0000
     1.0000   1.0000   1.0000   1.0000   1.0000   1.0000   1.0000   1.0000
     1.0000   1.0000   1.0000   1.0000   1.0000   1.0000   1.0000   1.0000
     1.0000   1.0000   1.0000   1.0000   1.0000   1.0000   1.0000   1.0000
     1.0000   1.0000   1.0000   1.0000   1.0000   1.0000   1.0000   1.0000
     1.0000   1.0000   1.0000   1.0000   1.0000   1.0000   1.0000   1.0000
     1.0000   1.0000   1.0000   1.0000   1.0000   1.0000   1.0000   1.0000
     1.0000   1.0000   1.0000   1.0000   1.0000   1.0000   1.0000   1.0000
     1.0000   1.0000   1.0000   1.0000   1.0000   1.0000   1.0000   1.0000
     1.0000   1.0000   1.0000   1.0000   1.0000   1.0000   1.0000   1.0000
     1.0000   1.0000   1.0000   1.0000   1.0000   1.0000   1.0000   1.0000
     1.0000   1.0000   1.0000   1.0000   1.0000   1.0000   1.0000   1.0000
     1.0000   1.0000   1.0000   1.0000   1.0000   1.0000   1.0000   1.0000
     1.0000   1.0000   1.0000   1.0000   1.0000   1.0000   1.0000   1.0000
     1.0000   1.0000   1.0000   1.0000   1.0000   1.0000   1.0000   1.0000
     1.0000   1.0000   1.0000   1.0000   1.0000   1.0000   1.0000   1.0000
     1.0000   1.0000   1.0000   1.0000   1.0000   1.0000   1.0000   1.0000
     1.0000   1.0000   1.0000   1.0000   1.0000   1.0000   1.0000   1.0000
     1.0000   1.0000   1.0000   1.0000   1.0000   1.0000   1.0000   1.0000
     1.0000   1.0000   1.0000   1.0000   1.0000   1.0000   1.0000   1.0000
     1.0000   1.0000   1.0000   1.0000   1.0000   1.0000   1.0000   1.0000
     1.0000   1.0000   1.0000   1.0000   1.0000   1.0000   1.0000   1.0000
     1.0000   1.0000   1.0000   1.0000   1.0000   1.0000   1.0000   1.0000
     1.0000   1.0000   1.0000   1.0000   1.0000   1.0000   1.0000   1.0000
     1.0000   1.0000   1.0000   1.0000   1.0000   1.0000   1.0000   1.0000
     1.0000   1.0000   1.0000   1.0000   1.0000   1.0000   1.0000   1.0000
     1.0000   1.0000   1.0000   1.0000   1.0000   1.0000   1.0000   1.0000
     1.0000   1.0000   1.0000   1.0000   1.0000   1.0000   1.0000   1.0000
     1.0000   1.0000   1.0000   1.0000   1.0000   1.0000   1.0000   1.0000
     1.0000   1.0000   1.0000   1.0000   1.0000   1.0000   1.0000   1.0000
     1.0000   1.0000   1.0000   1.0000   1.0000   1.0000   1.0000   1.0000
     1.0000   1.0000   1.0000   1.0000   1.0000   1.0000   1.0000   1.0000
     1.0000   1.0000   1.0000   1.0000   1.0000   1.0000   1.0000   1.0000
     1.0000   1.0000   1.0000   1.0000   1.0000   1.0000   1.0000   1.0000
     1.0000   1.0000   1.0000   1.0000   1.0000   1.0000   1.0000   1.0000
     1.0000   1.0000   1.0000   1.0000   1.0000   1.0000   1.0000   1.0000
     1.0000   1.0000   1.0000   1.0000   1.0000   1.0000   1.0000   1.0000
     1.0000   1.0000   1.0000   1.0000   1.0000   1.0000   1.0000   1.0000
     1.0000   1.0000   1.0000   1.0000   1.0000   1.0000   1.0000   1.0000
     1.0000   1.0000   1.0000   1.0000   1.0000   1.0000   1.0000   1.0000
     1.0000   1.0000   1.0000   1.0000   1.0000   1.0000   1.0000   1.0000
     1.0000   1.0000   1.0000   1.0000   1.0000   1.0000   1.0000   1.0000
     1.0000   1.0000   1.0000   1.0000   1.0000   1.0000   1.0000   1.0000
     1.0000   1.0000   1.0000   1.0000   1.0000   1.0000   1.0000   1.0000
     1.0000   1.0000   1.0000   1.0000   1.0000   1.0000   1.0000   1.0000
     1.0000   1.0000   1.0000   1.0000   1.0000   1.0000   1.0000   1.0000
     1.0000   1.0000   1.0000   1.0000   1.0000   1.0000   1.0000   1.0000
     1.0000   1.0000   1.0000   1.0000   1.0000   1.0000   1.0000   1.0000
     1.0000   1.0000   1.0000   1.0000   1.0000   1.0000   1.0000   1.0000
     1.0000   1.0000   1.0000   1.0000   1.0000   1.0000   0.9561   0.9346
     0.8965   0.0160   0.0070   0.0054   0.0027   0.0012   0.0011   0.0005
     0.0000   0.0000   0.0000   0.0000   0.0000   0.0000   0.0000   0.0000
     0.0000   0.0000   0.0000   0.0000   0.0000   0.0000   0.0000   0.0000
     0.0000   0.0000   0.0000   0.0000   0.0000   0.0000   0.0000   0.0000
     0.0000   0.0000   0.0000   0.0000   0.0000   0.0000   0.0000   0.0000
     0.0000   0.0000   0.0000   0.0000   0.0000   0.0000   0.0000   0.0000
     0.0000   0.0000   0.0000   0.0000   0.0000   0.0000   0.0000   0.0000
     0.0000   0.0000   0.0000   0.0000   0.0000   0.0000   0.0000   0.0000
     0.0000   0.0000   0.0000   0.0000   0.0000   0.0000   0.0000   0.0000
     0.0000   0.0000   0.0000   0.0000   0.0000   0.0000   0.0000   0.0000
     0.0000   0.0000   0.0000   0.0000   0.0000   0.0000   0.0000   0.0000
     0.0000   0.0000   0.0000   0.0000   0.0000   0.0000   0.0000   0.0000
     0.0000   0.0000   0.0000   0.0000   0.0000   0.0000   0.0000   0.0000
     0.0000   0.0000   0.0000   0.0000   0.0000   0.0000   0.0000   0.0000
     0.0000

          k =-0.3536-0.3536 0.3523 ( 64050 PWs)   bands (ev):

   -17.4469 -17.4210 -17.4078 -17.4066 -17.3996 -17.3981 -17.3967 -17.3947
   -17.3897 -17.3881 -17.3844 -17.3822 -17.3814 -17.3804 -17.3786 -17.3745
   -17.3740 -17.3686 -17.3680 -17.3618 -17.3582 -17.3570 -17.3479 -17.3459
   -17.3430 -17.3397 -17.3377 -17.3343 -17.3333 -17.3308 -17.3262 -17.3173
   -17.3159 -17.3144 -17.3117 -17.3091 -17.3083 -17.3024 -17.3001 -17.2992
   -17.2979 -17.2943 -17.2921 -17.2905 -17.2890 -17.2862 -17.2852 -17.2818
   -17.2808 -17.2765 -17.2759 -17.2729 -17.2704 -17.2676 -17.2651 -17.2639
   -17.2631 -17.2607 -17.2587 -17.2534 -17.2527 -17.2500 -17.2468 -17.2451
   -17.2443 -17.2425 -17.2380 -17.2332 -17.2325 -17.2304 -17.2284 -17.2275
   -17.2241 -17.2228 -17.2177 -17.2165 -17.2162 -17.2145 -17.2135 -17.2105
   -17.2083 -17.2067 -17.2058 -17.2033 -17.2026 -17.1979 -17.1970 -17.1958
   -17.1932 -17.1910 -17.1902 -17.1891 -17.1887 -17.1859 -17.1848 -17.1814
   -17.1809 -17.1804 -17.1795 -17.1779 -17.1746 -17.1737 -17.1731 -17.1727
   -17.1723 -17.1695 -17.1677 -17.1673 -17.1666 -17.1656 -17.1646 -17.1637
   -17.1620 -17.1597 -17.1576 -17.1561 -17.1547 -17.1538 -17.1534 -17.1515
   -17.1495 -17.1480 -17.1472 -17.1456 -17.1449 -17.1441 -17.1426 -17.1403
   -17.1391 -17.1383 -17.1369 -17.1353 -17.1332 -17.1329 -17.1322 -17.1303
   -17.1301 -17.1286 -17.1262 -17.1238 -17.1234 -17.1222 -17.1216 -17.1212
   -17.1208 -17.1206 -17.1201 -17.1199 -17.1194 -17.1190 -17.1187 -17.1178
   -17.1171 -17.1167 -17.1163 -17.1163 -17.1155 -17.1149 -17.1137 -17.1136
   -17.1133 -17.1130 -17.1126 -17.1120 -17.1119 -17.1113 -17.1111 -17.1110
   -17.1107 -17.1092 -17.1079 -17.1074 -17.1067 -17.1059 -17.1047 -17.1044
   -17.1043 -17.1034 -17.1030 -17.1023 -17.1017 -17.1012 -17.1011 -17.1009
   -17.1004 -17.0995 -17.0984 -17.0980 -17.0978 -17.0963 -17.0960 -17.0958
   -17.0945 -17.0939 -17.0938 -17.0935 -17.0933 -17.0926 -17.0923 -17.0914
   -17.0912 -17.0905 -17.0900 -17.0895 -17.0892 -17.0888 -17.0887 -17.0881
   -17.0876 -17.0873 -17.0871 -17.0865 -17.0862 -17.0861 -17.0858 -17.0849
   -17.0842 -17.0840 -17.0834 -17.0828 -17.0820 -17.0811 -17.0798 -17.0788
   -17.0781 -17.0770 -17.0765 -17.0744 -17.0736 -17.0727 -17.0721 -17.0719
   -17.0711 -17.0709 -17.0700 -17.0683 -17.0679 -17.0678 -17.0667 -17.0663
   -17.0655 -17.0647 -17.0646 -17.0643 -17.0637 -17.0629 -17.0619 -17.0615
   -17.0607 -17.0598 -17.0580 -17.0574 -17.0570 -17.0566 -17.0561 -17.0559
   -17.0553 -17.0547 -17.0546 -17.0543 -17.0520 -17.0501 -17.0487 -17.0471
   -17.0457 -17.0451 -17.0444 -17.0434 -17.0432 -17.0381 -17.0348 -17.0342
   -17.0340 -17.0315 -17.0289 -17.0279 -17.0268 -17.0232 -17.0218 -17.0210
   -17.0193 -17.0189 -17.0159 -17.0152 -17.0127 -17.0103 -17.0098 -17.0081
   -17.0063 -17.0053 -17.0002 -16.9978 -16.9973 -16.9972 -16.9959 -16.9955
   -16.9928 -16.9915 -16.9900 -16.9886 -16.9875 -16.9861 -16.9844 -16.9821
   -16.9787  -5.1045  -4.9545  -4.6336  -4.6046  -4.5241  -4.4972  -4.4338
    -4.4061  -4.1203  -4.0855  -4.0013  -3.9805  -3.9030  -3.8730  -3.6848
    -3.6119  -3.5590  -3.4821  -3.4488  -3.4113  -3.3595  -3.2971  -3.2718
    -3.2182  -3.1592  -3.1196  -3.0941  -3.0572  -3.0476  -3.0010  -2.9726
    -2.9544  -2.8952  -2.8852  -2.8200  -2.7711  -2.7594  -2.6848  -2.5878
    -2.5538  -2.4202  -2.3986  -2.3033  -2.2868  -2.2562  -2.1597  -2.0662
    -2.0425  -1.9956  -1.9613  -1.9188  -1.8821  -1.8583  -1.8084  -1.7869
    -1.7410  -1.6847  -1.6589  -1.6381  -1.5654  -1.5598  -1.5101  -1.4855
    -1.4565  -0.4317  -0.4022  -0.3794  -0.3408  -0.3160  -0.2964  -0.2861
    -0.2500  -0.1943  -0.1566  -0.1478  -0.0991  -0.0737  -0.0175  -0.0112
     0.0339   0.0656   0.0821   0.1021   0.1253   0.1588   0.1943   0.2174
     0.2312   0.2689   0.2943   0.3094   0.3324   0.3541   0.3640   0.8313
     0.8973   0.8996   0.9282   0.9509   0.9726   0.9990   1.0267   1.0504
     1.0952   1.1183   1.1481   1.1624   1.1691   1.7248   1.7831   1.8385
     1.8803   1.8930   1.9735   2.2058   2.2245   2.2818   2.2965   2.3212
     2.3924   3.0968   3.1030   3.1083   3.1134   3.1167   3.1212   3.1297
     3.1313   3.1400   3.1448   3.1494   3.1542   3.1551   3.1661   3.1676
     3.1736   3.1830   3.1864   3.5764   3.5929   3.6495   3.6709   3.6884
     3.7182   3.7300   3.7362   3.7428   3.7465   3.7538   3.7582   3.7688
     3.7941   3.8001   3.8035   3.8074   3.8118   3.8213   3.8327   3.8423
     3.8523   3.8550   3.8613   4.2001   4.2050   4.2129   4.2168   4.2173
     4.2269   4.2294   4.2361   4.2387   4.2443   4.2599   4.2608   4.4419
     4.4516   4.4609   4.4695   4.4731   4.4780   4.4815   4.4903   4.4943
     4.5010   4.5133   4.5222   4.7536   4.7873   4.7962   4.8032   4.8058
     4.8091   4.8222   4.8273   4.8351   4.8509   4.8615   4.8656   4.9471
     4.9563   4.9630   4.9689   4.9895   4.9991   5.2124   5.2231   5.2306
     5.2350   5.2442   5.2473   5.2499   5.2556   5.2606   5.2650   5.2777
     5.2813   5.2836   5.2970   5.3026   5.3102   5.3147   5.3203   5.3816
     5.4608   5.5855   5.6030   5.6091   5.6140   5.6392   5.6526   5.8506
     5.8656   5.8750   5.8909   5.8934   5.8972   5.9075   5.9108   5.9196
     5.9294   5.9398   5.9597   6.0847   6.0911   6.1066   6.1483   6.3906
     6.4204   6.4289   6.4387   6.4698   6.4881   6.9483   6.9684   6.9797
     7.0390   8.0353   8.0462   8.0631   8.1160   8.1232   8.1395   8.1999
     8.2493   8.4782   8.4829   8.4892   8.5119   8.5381   8.5695   8.8785
     8.8959   8.9367   8.9515   8.9600   8.9816   9.0013   9.0448   9.0623
     9.0741   9.0818   9.1072   9.1288   9.1316   9.1433   9.1480   9.1956
     9.2130   9.2220   9.2451   9.2578   9.2751   9.2984   9.3082   9.3278
     9.3341   9.4010   9.4330   9.4595   9.4979   9.5049   9.5172   9.5401
     9.5523   9.5627   9.5656   9.5719   9.6059   9.6188   9.6268   9.6447
     9.6534   9.6700   9.6865   9.9096   9.9298   9.9370   9.9545   9.9640
     9.9733   9.9831  10.0011  10.0069  10.0272  10.0396  10.0442  10.0508
    10.0820  10.0951  10.1032  10.1392  10.1756  10.2101  10.2293  10.2491
    10.2882  10.4168  10.4430  10.4518  10.4582  10.4696  10.4902  10.5958
    10.6105  10.6372  10.6660  10.6767  10.6816  10.6913  10.7077  10.7100
    10.7250  10.7290  10.7366  10.7430  10.7580  10.7750  10.7808  10.7893
    10.8114  10.8141  10.8247  10.8614  10.9154  10.9473  10.9634  10.9758
    11.0024

     occupation numbers 
     1.0000   1.0000   1.0000   1.0000   1.0000   1.0000   1.0000   1.0000
     1.0000   1.0000   1.0000   1.0000   1.0000   1.0000   1.0000   1.0000
     1.0000   1.0000   1.0000   1.0000   1.0000   1.0000   1.0000   1.0000
     1.0000   1.0000   1.0000   1.0000   1.0000   1.0000   1.0000   1.0000
     1.0000   1.0000   1.0000   1.0000   1.0000   1.0000   1.0000   1.0000
     1.0000   1.0000   1.0000   1.0000   1.0000   1.0000   1.0000   1.0000
     1.0000   1.0000   1.0000   1.0000   1.0000   1.0000   1.0000   1.0000
     1.0000   1.0000   1.0000   1.0000   1.0000   1.0000   1.0000   1.0000
     1.0000   1.0000   1.0000   1.0000   1.0000   1.0000   1.0000   1.0000
     1.0000   1.0000   1.0000   1.0000   1.0000   1.0000   1.0000   1.0000
     1.0000   1.0000   1.0000   1.0000   1.0000   1.0000   1.0000   1.0000
     1.0000   1.0000   1.0000   1.0000   1.0000   1.0000   1.0000   1.0000
     1.0000   1.0000   1.0000   1.0000   1.0000   1.0000   1.0000   1.0000
     1.0000   1.0000   1.0000   1.0000   1.0000   1.0000   1.0000   1.0000
     1.0000   1.0000   1.0000   1.0000   1.0000   1.0000   1.0000   1.0000
     1.0000   1.0000   1.0000   1.0000   1.0000   1.0000   1.0000   1.0000
     1.0000   1.0000   1.0000   1.0000   1.0000   1.0000   1.0000   1.0000
     1.0000   1.0000   1.0000   1.0000   1.0000   1.0000   1.0000   1.0000
     1.0000   1.0000   1.0000   1.0000   1.0000   1.0000   1.0000   1.0000
     1.0000   1.0000   1.0000   1.0000   1.0000   1.0000   1.0000   1.0000
     1.0000   1.0000   1.0000   1.0000   1.0000   1.0000   1.0000   1.0000
     1.0000   1.0000   1.0000   1.0000   1.0000   1.0000   1.0000   1.0000
     1.0000   1.0000   1.0000   1.0000   1.0000   1.0000   1.0000   1.0000
     1.0000   1.0000   1.0000   1.0000   1.0000   1.0000   1.0000   1.0000
     1.0000   1.0000   1.0000   1.0000   1.0000   1.0000   1.0000   1.0000
     1.0000   1.0000   1.0000   1.0000   1.0000   1.0000   1.0000   1.0000
     1.0000   1.0000   1.0000   1.0000   1.0000   1.0000   1.0000   1.0000
     1.0000   1.0000   1.0000   1.0000   1.0000   1.0000   1.0000   1.0000
     1.0000   1.0000   1.0000   1.0000   1.0000   1.0000   1.0000   1.0000
     1.0000   1.0000   1.0000   1.0000   1.0000   1.0000   1.0000   1.0000
     1.0000   1.0000   1.0000   1.0000   1.0000   1.0000   1.0000   1.0000
     1.0000   1.0000   1.0000   1.0000   1.0000   1.0000   1.0000   1.0000
     1.0000   1.0000   1.0000   1.0000   1.0000   1.0000   1.0000   1.0000
     1.0000   1.0000   1.0000   1.0000   1.0000   1.0000   1.0000   1.0000
     1.0000   1.0000   1.0000   1.0000   1.0000   1.0000   1.0000   1.0000
     1.0000   1.0000   1.0000   1.0000   1.0000   1.0000   1.0000   1.0000
     1.0000   1.0000   1.0000   1.0000   1.0000   1.0000   1.0000   1.0000
     1.0000   1.0000   1.0000   1.0000   1.0000   1.0000   1.0000   1.0000
     1.0000   1.0000   1.0000   1.0000   1.0000   1.0000   1.0000   1.0000
     1.0000   1.0000   1.0000   1.0000   1.0000   1.0000   1.0000   1.0000
     1.0000   1.0000   1.0000   1.0000   1.0000   1.0000   1.0000   1.0000
     1.0000   1.0000   1.0000   1.0000   1.0000   1.0000   1.0000   1.0000
     1.0000   1.0000   1.0000   1.0000   1.0000   1.0000   1.0000   1.0000
     1.0000   1.0000   1.0000   1.0000   1.0000   1.0000   1.0000   1.0000
     1.0000   1.0000   1.0000   1.0000   1.0000   1.0000   1.0000   1.0000
     1.0000   1.0000   1.0000   1.0000   1.0000   1.0000   1.0000   1.0000
     1.0000   1.0000   1.0000   1.0000   1.0000   1.0000   1.0000   1.0000
     1.0000   1.0000   1.0000   1.0000   1.0000   1.0000   1.0000   1.0000
     1.0000   1.0000   1.0000   1.0000   1.0000   1.0000   1.0000   1.0000
     1.0000   1.0000   1.0000   1.0000   1.0000   1.0000   1.0000   1.0000
     1.0000   1.0000   1.0000   1.0000   1.0000   1.0000   1.0000   1.0000
     1.0000   1.0000   1.0000   1.0000   1.0000   1.0000   1.0000   1.0000
     1.0000   1.0000   1.0000   1.0000   1.0000   1.0000   1.0000   1.0000
     1.0000   1.0000   1.0000   1.0000   1.0000   1.0000   1.0000   1.0000
     1.0000   1.0000   1.0000   1.0000   1.0000   1.0000   1.0000   1.0000
     1.0000   1.0000   1.0000   1.0000   1.0000   1.0000   1.0000   1.0000
     1.0000   1.0000   1.0000   1.0000   1.0000   1.0000   1.0000   1.0000
     1.0000   1.0000   1.0000   1.0000   1.0000   1.0000   1.0000   1.0000
     1.0000   1.0000   1.0000   1.0000   1.0000   1.0000   1.0000   1.0000
     1.0000   1.0000   1.0000   1.0000   1.0000   1.0000   1.0000   1.0000
     1.0000   1.0000   1.0000   1.0000   1.0000   1.0000   1.0000   1.0000
     1.0000   1.0000   1.0000   1.0000   1.0000   1.0000   1.0000   1.0000
     1.0000   1.0000   1.0000   1.0000   1.0000   1.0000   1.0000   1.0000
     1.0000   1.0000   1.0000   1.0000   1.0000   1.0000   1.0000   1.0000
     1.0000   1.0000   1.0000   1.0000   1.0000   1.0000   1.0000   1.0000
     1.0000   1.0000   1.0000   1.0000   1.0000   1.0000   1.0000   1.0000
     1.0000   1.0000   1.0000   1.0000   1.0000   1.0000   1.0000   1.0000
     1.0000   1.0000   1.0000   1.0000   1.0000   1.0000   1.0000   1.0000
     1.0000   1.0000   1.0000   1.0000   1.0000   1.0000   1.0000   1.0000
     1.0000   1.0000   1.0000   1.0000   1.0000   1.0000   0.9999   0.9999
     0.9995   0.0002   0.0001   0.0001   0.0000   0.0000   0.0000   0.0000
     0.0000   0.0000   0.0000   0.0000   0.0000   0.0000   0.0000   0.0000
     0.0000   0.0000   0.0000   0.0000   0.0000   0.0000   0.0000   0.0000
     0.0000   0.0000   0.0000   0.0000   0.0000   0.0000   0.0000   0.0000
     0.0000   0.0000   0.0000   0.0000   0.0000   0.0000   0.0000   0.0000
     0.0000   0.0000   0.0000   0.0000   0.0000   0.0000   0.0000   0.0000
     0.0000   0.0000   0.0000   0.0000   0.0000   0.0000   0.0000   0.0000
     0.0000   0.0000   0.0000   0.0000   0.0000   0.0000   0.0000   0.0000
     0.0000   0.0000   0.0000   0.0000   0.0000   0.0000   0.0000   0.0000
     0.0000   0.0000   0.0000   0.0000   0.0000   0.0000   0.0000   0.0000
     0.0000   0.0000   0.0000   0.0000   0.0000   0.0000   0.0000   0.0000
     0.0000   0.0000   0.0000   0.0000   0.0000   0.0000   0.0000   0.0000
     0.0000   0.0000   0.0000   0.0000   0.0000   0.0000   0.0000   0.0000
     0.0000   0.0000   0.0000   0.0000   0.0000   0.0000   0.0000   0.0000
     0.0000

          k =-0.3523 0.3530-0.3530 ( 64074 PWs)   bands (ev):

   -17.4469 -17.4210 -17.4079 -17.4066 -17.3997 -17.3981 -17.3967 -17.3947
   -17.3897 -17.3880 -17.3843 -17.3822 -17.3815 -17.3804 -17.3786 -17.3747
   -17.3739 -17.3686 -17.3680 -17.3618 -17.3582 -17.3570 -17.3479 -17.3459
   -17.3430 -17.3397 -17.3376 -17.3343 -17.3334 -17.3308 -17.3262 -17.3173
   -17.3159 -17.3144 -17.3116 -17.3090 -17.3082 -17.3025 -17.3001 -17.2992
   -17.2978 -17.2942 -17.2921 -17.2903 -17.2892 -17.2862 -17.2852 -17.2818
   -17.2808 -17.2766 -17.2761 -17.2728 -17.2703 -17.2677 -17.2651 -17.2639
   -17.2631 -17.2607 -17.2587 -17.2533 -17.2527 -17.2500 -17.2467 -17.2453
   -17.2442 -17.2425 -17.2380 -17.2333 -17.2326 -17.2303 -17.2284 -17.2276
   -17.2241 -17.2228 -17.2177 -17.2165 -17.2162 -17.2146 -17.2135 -17.2104
   -17.2084 -17.2067 -17.2058 -17.2034 -17.2027 -17.1979 -17.1969 -17.1958
   -17.1933 -17.1910 -17.1901 -17.1891 -17.1887 -17.1858 -17.1848 -17.1813
   -17.1810 -17.1803 -17.1795 -17.1780 -17.1748 -17.1737 -17.1732 -17.1727
   -17.1724 -17.1695 -17.1677 -17.1674 -17.1666 -17.1656 -17.1648 -17.1636
   -17.1618 -17.1599 -17.1576 -17.1561 -17.1547 -17.1538 -17.1534 -17.1513
   -17.1497 -17.1480 -17.1470 -17.1454 -17.1449 -17.1442 -17.1426 -17.1404
   -17.1389 -17.1382 -17.1367 -17.1350 -17.1332 -17.1330 -17.1323 -17.1307
   -17.1301 -17.1283 -17.1266 -17.1238 -17.1236 -17.1222 -17.1215 -17.1212
   -17.1208 -17.1203 -17.1202 -17.1201 -17.1193 -17.1189 -17.1187 -17.1180
   -17.1171 -17.1167 -17.1166 -17.1159 -17.1153 -17.1146 -17.1143 -17.1133
   -17.1132 -17.1127 -17.1126 -17.1122 -17.1120 -17.1115 -17.1113 -17.1108
   -17.1106 -17.1091 -17.1079 -17.1071 -17.1067 -17.1059 -17.1048 -17.1045
   -17.1042 -17.1034 -17.1030 -17.1028 -17.1013 -17.1012 -17.1011 -17.1009
   -17.1005 -17.0995 -17.0983 -17.0981 -17.0977 -17.0965 -17.0961 -17.0958
   -17.0944 -17.0939 -17.0939 -17.0933 -17.0933 -17.0927 -17.0925 -17.0912
   -17.0911 -17.0909 -17.0899 -17.0895 -17.0892 -17.0889 -17.0888 -17.0883
   -17.0880 -17.0872 -17.0870 -17.0865 -17.0862 -17.0861 -17.0857 -17.0851
   -17.0843 -17.0840 -17.0833 -17.0828 -17.0822 -17.0806 -17.0800 -17.0787
   -17.0783 -17.0769 -17.0766 -17.0745 -17.0733 -17.0727 -17.0722 -17.0718
   -17.0712 -17.0707 -17.0700 -17.0683 -17.0680 -17.0679 -17.0667 -17.0663
   -17.0655 -17.0647 -17.0646 -17.0643 -17.0636 -17.0628 -17.0617 -17.0613
   -17.0607 -17.0599 -17.0580 -17.0574 -17.0569 -17.0565 -17.0560 -17.0558
   -17.0554 -17.0549 -17.0546 -17.0544 -17.0520 -17.0499 -17.0489 -17.0470
   -17.0457 -17.0452 -17.0444 -17.0434 -17.0431 -17.0380 -17.0347 -17.0343
   -17.0338 -17.0315 -17.0288 -17.0279 -17.0267 -17.0233 -17.0220 -17.0210
   -17.0193 -17.0188 -17.0159 -17.0153 -17.0127 -17.0102 -17.0099 -17.0081
   -17.0063 -17.0053 -17.0003 -16.9978 -16.9973 -16.9972 -16.9960 -16.9956
   -16.9928 -16.9913 -16.9901 -16.9886 -16.9875 -16.9861 -16.9843 -16.9822
   -16.9788  -5.0641  -5.0114  -4.6964  -4.5827  -4.4991  -4.4543  -4.3984
    -4.3711  -4.2055  -4.0821  -3.9687  -3.9574  -3.9460  -3.8810  -3.7260
    -3.5673  -3.5571  -3.4981  -3.4685  -3.4410  -3.3678  -3.3241  -3.2232
    -3.1990  -3.1808  -3.1308  -3.0964  -3.0755  -3.0154  -2.9790  -2.9564
    -2.9382  -2.9198  -2.8550  -2.7766  -2.7550  -2.7248  -2.6790  -2.6469
    -2.5409  -2.5103  -2.3670  -2.2998  -2.2836  -2.2187  -2.1709  -2.1062
    -2.0837  -2.0146  -1.9386  -1.9052  -1.8906  -1.8613  -1.8366  -1.7941
    -1.7366  -1.7212  -1.6754  -1.6124  -1.5436  -1.5332  -1.4765  -1.4559
    -1.4348  -0.4764  -0.4311  -0.4005  -0.3609  -0.3476  -0.2858  -0.2302
    -0.2123  -0.1995  -0.1866  -0.1688  -0.1313  -0.0662  -0.0312   0.0080
     0.0387   0.0495   0.0913   0.1113   0.1564   0.1693   0.1859   0.2289
     0.2638   0.2769   0.2854   0.3096   0.3169   0.3722   0.4003   0.7876
     0.8667   0.9036   0.9240   0.9542   0.9890   1.0052   1.0284   1.0499
     1.0730   1.0777   1.1299   1.1820   1.2280   1.6566   1.8091   1.8677
     1.8781   1.9356   1.9619   2.1228   2.2581   2.2894   2.3298   2.3508
     2.3805   3.0857   3.0945   3.1031   3.1073   3.1192   3.1246   3.1281
     3.1333   3.1414   3.1490   3.1519   3.1538   3.1607   3.1682   3.1774
     3.1813   3.1970   3.2099   3.5174   3.5886   3.6409   3.6941   3.7112
     3.7169   3.7266   3.7314   3.7440   3.7480   3.7514   3.7573   3.7759
     3.7789   3.7960   3.8056   3.8095   3.8134   3.8250   3.8313   3.8400
     3.8498   3.8542   3.8727   4.1982   4.2037   4.2087   4.2105   4.2165
     4.2225   4.2239   4.2307   4.2325   4.2419   4.2469   4.2536   4.4403
     4.4538   4.4641   4.4710   4.4738   4.4793   4.4853   4.4948   4.5020
     4.5039   4.5143   4.5194   4.7627   4.7646   4.7849   4.7975   4.8013
     4.8069   4.8138   4.8244   4.8294   4.8342   4.8367   4.8611   4.9549
     4.9650   4.9730   4.9817   4.9921   4.9987   5.2135   5.2229   5.2240
     5.2319   5.2395   5.2476   5.2551   5.2597   5.2639   5.2673   5.2684
     5.2785   5.2900   5.2982   5.3045   5.3077   5.3172   5.3239   5.4059
     5.4125   5.5946   5.6091   5.6124   5.6164   5.6390   5.6500   5.8518
     5.8617   5.8715   5.8758   5.8914   5.9064   5.9083   5.9155   5.9208
     5.9266   5.9446   5.9529   6.0903   6.1082   6.1208   6.1568   6.4079
     6.4273   6.4404   6.4454   6.4684   6.4736   6.9607   6.9770   6.9835
     7.0444   8.0469   8.0596   8.0874   8.1148   8.1217   8.1490   8.2448
     8.2667   8.4725   8.5056   8.5208   8.5251   8.5360   8.5439   8.8829
     8.9271   8.9411   8.9560   8.9698   8.9929   9.0050   9.0252   9.0311
     9.0800   9.0951   9.1027   9.1131   9.1339   9.1409   9.1735   9.1786
     9.1839   9.2025   9.2427   9.2571   9.2755   9.2964   9.3066   9.3294
     9.3370   9.3810   9.4411   9.4662   9.4729   9.4939   9.5061   9.5105
     9.5258   9.5466   9.5677   9.5732   9.5873   9.5908   9.6052   9.6292
     9.6510   9.6737   9.6887   9.8913   9.9254   9.9364   9.9514   9.9547
     9.9669   9.9742   9.9863   9.9888  10.0006  10.0069  10.0302  10.0547
    10.0781  10.0962  10.1311  10.1509  10.1554  10.2316  10.2373  10.2481
    10.2760  10.3936  10.4199  10.4333  10.4444  10.4633  10.4775  10.5744
    10.6223  10.6320  10.6384  10.6423  10.6702  10.6815  10.6937  10.6974
    10.7024  10.7207  10.7374  10.7576  10.7607  10.7728  10.7762  10.7969
    10.8142  10.8283  10.8351  10.8489  10.8841  10.9373  10.9417  10.9836
    11.0366

     occupation numbers 
     1.0000   1.0000   1.0000   1.0000   1.0000   1.0000   1.0000   1.0000
     1.0000   1.0000   1.0000   1.0000   1.0000   1.0000   1.0000   1.0000
     1.0000   1.0000   1.0000   1.0000   1.0000   1.0000   1.0000   1.0000
     1.0000   1.0000   1.0000   1.0000   1.0000   1.0000   1.0000   1.0000
     1.0000   1.0000   1.0000   1.0000   1.0000   1.0000   1.0000   1.0000
     1.0000   1.0000   1.0000   1.0000   1.0000   1.0000   1.0000   1.0000
     1.0000   1.0000   1.0000   1.0000   1.0000   1.0000   1.0000   1.0000
     1.0000   1.0000   1.0000   1.0000   1.0000   1.0000   1.0000   1.0000
     1.0000   1.0000   1.0000   1.0000   1.0000   1.0000   1.0000   1.0000
     1.0000   1.0000   1.0000   1.0000   1.0000   1.0000   1.0000   1.0000
     1.0000   1.0000   1.0000   1.0000   1.0000   1.0000   1.0000   1.0000
     1.0000   1.0000   1.0000   1.0000   1.0000   1.0000   1.0000   1.0000
     1.0000   1.0000   1.0000   1.0000   1.0000   1.0000   1.0000   1.0000
     1.0000   1.0000   1.0000   1.0000   1.0000   1.0000   1.0000   1.0000
     1.0000   1.0000   1.0000   1.0000   1.0000   1.0000   1.0000   1.0000
     1.0000   1.0000   1.0000   1.0000   1.0000   1.0000   1.0000   1.0000
     1.0000   1.0000   1.0000   1.0000   1.0000   1.0000   1.0000   1.0000
     1.0000   1.0000   1.0000   1.0000   1.0000   1.0000   1.0000   1.0000
     1.0000   1.0000   1.0000   1.0000   1.0000   1.0000   1.0000   1.0000
     1.0000   1.0000   1.0000   1.0000   1.0000   1.0000   1.0000   1.0000
     1.0000   1.0000   1.0000   1.0000   1.0000   1.0000   1.0000   1.0000
     1.0000   1.0000   1.0000   1.0000   1.0000   1.0000   1.0000   1.0000
     1.0000   1.0000   1.0000   1.0000   1.0000   1.0000   1.0000   1.0000
     1.0000   1.0000   1.0000   1.0000   1.0000   1.0000   1.0000   1.0000
     1.0000   1.0000   1.0000   1.0000   1.0000   1.0000   1.0000   1.0000
     1.0000   1.0000   1.0000   1.0000   1.0000   1.0000   1.0000   1.0000
     1.0000   1.0000   1.0000   1.0000   1.0000   1.0000   1.0000   1.0000
     1.0000   1.0000   1.0000   1.0000   1.0000   1.0000   1.0000   1.0000
     1.0000   1.0000   1.0000   1.0000   1.0000   1.0000   1.0000   1.0000
     1.0000   1.0000   1.0000   1.0000   1.0000   1.0000   1.0000   1.0000
     1.0000   1.0000   1.0000   1.0000   1.0000   1.0000   1.0000   1.0000
     1.0000   1.0000   1.0000   1.0000   1.0000   1.0000   1.0000   1.0000
     1.0000   1.0000   1.0000   1.0000   1.0000   1.0000   1.0000   1.0000
     1.0000   1.0000   1.0000   1.0000   1.0000   1.0000   1.0000   1.0000
     1.0000   1.0000   1.0000   1.0000   1.0000   1.0000   1.0000   1.0000
     1.0000   1.0000   1.0000   1.0000   1.0000   1.0000   1.0000   1.0000
     1.0000   1.0000   1.0000   1.0000   1.0000   1.0000   1.0000   1.0000
     1.0000   1.0000   1.0000   1.0000   1.0000   1.0000   1.0000   1.0000
     1.0000   1.0000   1.0000   1.0000   1.0000   1.0000   1.0000   1.0000
     1.0000   1.0000   1.0000   1.0000   1.0000   1.0000   1.0000   1.0000
     1.0000   1.0000   1.0000   1.0000   1.0000   1.0000   1.0000   1.0000
     1.0000   1.0000   1.0000   1.0000   1.0000   1.0000   1.0000   1.0000
     1.0000   1.0000   1.0000   1.0000   1.0000   1.0000   1.0000   1.0000
     1.0000   1.0000   1.0000   1.0000   1.0000   1.0000   1.0000   1.0000
     1.0000   1.0000   1.0000   1.0000   1.0000   1.0000   1.0000   1.0000
     1.0000   1.0000   1.0000   1.0000   1.0000   1.0000   1.0000   1.0000
     1.0000   1.0000   1.0000   1.0000   1.0000   1.0000   1.0000   1.0000
     1.0000   1.0000   1.0000   1.0000   1.0000   1.0000   1.0000   1.0000
     1.0000   1.0000   1.0000   1.0000   1.0000   1.0000   1.0000   1.0000
     1.0000   1.0000   1.0000   1.0000   1.0000   1.0000   1.0000   1.0000
     1.0000   1.0000   1.0000   1.0000   1.0000   1.0000   1.0000   1.0000
     1.0000   1.0000   1.0000   1.0000   1.0000   1.0000   1.0000   1.0000
     1.0000   1.0000   1.0000   1.0000   1.0000   1.0000   1.0000   1.0000
     1.0000   1.0000   1.0000   1.0000   1.0000   1.0000   1.0000   1.0000
     1.0000   1.0000   1.0000   1.0000   1.0000   1.0000   1.0000   1.0000
     1.0000   1.0000   1.0000   1.0000   1.0000   1.0000   1.0000   1.0000
     1.0000   1.0000   1.0000   1.0000   1.0000   1.0000   1.0000   1.0000
     1.0000   1.0000   1.0000   1.0000   1.0000   1.0000   1.0000   1.0000
     1.0000   1.0000   1.0000   1.0000   1.0000   1.0000   1.0000   1.0000
     1.0000   1.0000   1.0000   1.0000   1.0000   1.0000   1.0000   1.0000
     1.0000   1.0000   1.0000   1.0000   1.0000   1.0000   1.0000   1.0000
     1.0000   1.0000   1.0000   1.0000   1.0000   1.0000   1.0000   1.0000
     1.0000   1.0000   1.0000   1.0000   1.0000   1.0000   1.0000   1.0000
     1.0000   1.0000   1.0000   1.0000   1.0000   1.0000   1.0000   1.0000
     1.0000   1.0000   1.0000   1.0000   1.0000   1.0000   1.0000   1.0000
     1.0000   1.0000   1.0000   1.0000   1.0000   1.0000   1.0000   1.0000
     1.0000   1.0000   1.0000   1.0000   1.0000   1.0000   1.0000   1.0000
     1.0000   1.0000   1.0000   1.0000   1.0000   1.0000   1.0000   1.0000
     1.0000   1.0000   1.0000   1.0000   1.0000   1.0000   1.0000   1.0000
     1.0000   1.0000   1.0000   1.0000   1.0000   0.9999   0.9999   0.9999
     0.9995   0.0001   0.0001   0.0000   0.0000   0.0000   0.0000   0.0000
     0.0000   0.0000   0.0000   0.0000   0.0000   0.0000   0.0000   0.0000
     0.0000   0.0000   0.0000   0.0000   0.0000   0.0000   0.0000   0.0000
     0.0000   0.0000   0.0000   0.0000   0.0000   0.0000   0.0000   0.0000
     0.0000   0.0000   0.0000   0.0000   0.0000   0.0000   0.0000   0.0000
     0.0000   0.0000   0.0000   0.0000   0.0000   0.0000   0.0000   0.0000
     0.0000   0.0000   0.0000   0.0000   0.0000   0.0000   0.0000   0.0000
     0.0000   0.0000   0.0000   0.0000   0.0000   0.0000   0.0000   0.0000
     0.0000   0.0000   0.0000   0.0000   0.0000   0.0000   0.0000   0.0000
     0.0000   0.0000   0.0000   0.0000   0.0000   0.0000   0.0000   0.0000
     0.0000   0.0000   0.0000   0.0000   0.0000   0.0000   0.0000   0.0000
     0.0000   0.0000   0.0000   0.0000   0.0000   0.0000   0.0000   0.0000
     0.0000   0.0000   0.0000   0.0000   0.0000   0.0000   0.0000   0.0000
     0.0000   0.0000   0.0000   0.0000   0.0000   0.0000   0.0000   0.0000
     0.0000

          k =-0.7059-0.0006-0.0007 ( 64080 PWs)   bands (ev):

   -17.4469 -17.4210 -17.4078 -17.4066 -17.3997 -17.3981 -17.3967 -17.3947
   -17.3897 -17.3881 -17.3843 -17.3822 -17.3815 -17.3804 -17.3786 -17.3747
   -17.3740 -17.3686 -17.3680 -17.3618 -17.3581 -17.3571 -17.3479 -17.3459
   -17.3430 -17.3398 -17.3377 -17.3344 -17.3333 -17.3308 -17.3262 -17.3173
   -17.3158 -17.3145 -17.3117 -17.3091 -17.3083 -17.3024 -17.3001 -17.2992
   -17.2978 -17.2943 -17.2921 -17.2904 -17.2892 -17.2861 -17.2853 -17.2817
   -17.2809 -17.2766 -17.2760 -17.2728 -17.2703 -17.2677 -17.2652 -17.2639
   -17.2630 -17.2607 -17.2587 -17.2534 -17.2528 -17.2500 -17.2467 -17.2452
   -17.2442 -17.2425 -17.2380 -17.2332 -17.2325 -17.2303 -17.2285 -17.2275
   -17.2241 -17.2229 -17.2176 -17.2166 -17.2162 -17.2145 -17.2134 -17.2104
   -17.2085 -17.2067 -17.2055 -17.2034 -17.2025 -17.1979 -17.1970 -17.1958
   -17.1936 -17.1911 -17.1901 -17.1891 -17.1887 -17.1860 -17.1847 -17.1812
   -17.1811 -17.1803 -17.1795 -17.1780 -17.1749 -17.1736 -17.1732 -17.1728
   -17.1723 -17.1695 -17.1677 -17.1674 -17.1666 -17.1656 -17.1647 -17.1637
   -17.1618 -17.1599 -17.1576 -17.1563 -17.1546 -17.1538 -17.1535 -17.1513
   -17.1498 -17.1480 -17.1466 -17.1455 -17.1451 -17.1441 -17.1427 -17.1403
   -17.1391 -17.1381 -17.1367 -17.1351 -17.1332 -17.1330 -17.1323 -17.1307
   -17.1301 -17.1284 -17.1266 -17.1239 -17.1236 -17.1225 -17.1216 -17.1210
   -17.1208 -17.1204 -17.1202 -17.1201 -17.1194 -17.1188 -17.1188 -17.1179
   -17.1171 -17.1168 -17.1163 -17.1160 -17.1153 -17.1146 -17.1141 -17.1134
   -17.1131 -17.1130 -17.1127 -17.1126 -17.1116 -17.1114 -17.1111 -17.1108
   -17.1104 -17.1092 -17.1081 -17.1073 -17.1069 -17.1054 -17.1046 -17.1044
   -17.1042 -17.1036 -17.1030 -17.1025 -17.1014 -17.1012 -17.1011 -17.1008
   -17.1008 -17.0995 -17.0984 -17.0981 -17.0976 -17.0964 -17.0961 -17.0960
   -17.0944 -17.0943 -17.0937 -17.0933 -17.0933 -17.0927 -17.0924 -17.0913
   -17.0911 -17.0909 -17.0898 -17.0895 -17.0892 -17.0889 -17.0887 -17.0880
   -17.0879 -17.0872 -17.0870 -17.0867 -17.0862 -17.0860 -17.0857 -17.0849
   -17.0843 -17.0839 -17.0833 -17.0828 -17.0825 -17.0806 -17.0802 -17.0787
   -17.0783 -17.0770 -17.0764 -17.0746 -17.0733 -17.0727 -17.0721 -17.0718
   -17.0712 -17.0708 -17.0700 -17.0682 -17.0679 -17.0678 -17.0667 -17.0663
   -17.0655 -17.0646 -17.0646 -17.0643 -17.0637 -17.0628 -17.0617 -17.0614
   -17.0608 -17.0599 -17.0580 -17.0574 -17.0568 -17.0564 -17.0560 -17.0558
   -17.0552 -17.0550 -17.0546 -17.0543 -17.0520 -17.0499 -17.0489 -17.0470
   -17.0457 -17.0452 -17.0444 -17.0434 -17.0432 -17.0380 -17.0347 -17.0342
   -17.0340 -17.0315 -17.0289 -17.0278 -17.0267 -17.0233 -17.0220 -17.0210
   -17.0192 -17.0189 -17.0159 -17.0153 -17.0127 -17.0103 -17.0098 -17.0081
   -17.0064 -17.0053 -17.0002 -16.9978 -16.9973 -16.9969 -16.9965 -16.9956
   -16.9928 -16.9913 -16.9900 -16.9886 -16.9875 -16.9862 -16.9843 -16.9822
   -16.9788  -5.0417  -4.9166  -4.7753  -4.7477  -4.6906  -4.5190  -4.1432
    -4.1011  -4.0552  -4.0244  -3.9885  -3.9089  -3.8601  -3.7987  -3.7899
    -3.7372  -3.6657  -3.6446  -3.5870  -3.5660  -3.5280  -3.4197  -3.3125
    -3.2395  -3.1411  -3.0804  -3.0594  -3.0054  -2.9820  -2.9693  -2.8591
    -2.8210  -2.7987  -2.7660  -2.7023  -2.6513  -2.6056  -2.5803  -2.5548
    -2.5200  -2.4592  -2.4330  -2.4015  -2.3762  -2.3291  -2.2536  -2.2372
    -2.1772  -2.1439  -2.1262  -2.0552  -2.0286  -2.0109  -1.9386  -1.8673
    -1.7846  -1.5838  -1.4795  -1.4255  -1.3843  -1.0995  -1.0763  -1.0510
    -1.0227  -0.9617  -0.9329  -0.9105  -0.7908  -0.5831  -0.5002  -0.4148
    -0.3870  -0.1033  -0.0790  -0.0289  -0.0055   0.0354   0.0565   0.0827
     0.1219   0.1503   0.1545   0.1968   0.2215   0.2657   0.3190   0.3372
     0.3733   0.4581   0.4938   0.5085   0.5394   0.5753   0.6192   0.6279
     0.6415   0.6860   0.7457   0.7739   0.8172   0.8608   0.8807   0.9332
     0.9705   1.0392   1.1110   1.5237   1.5445   1.5870   1.6337   1.6665
     1.6722   1.7046   1.7650   2.3664   2.4386   2.4875   2.5104   2.5235
     2.5769   2.6653   2.6882   2.8936   2.9033   2.9079   2.9180   2.9488
     2.9574   2.9702   2.9730   2.9812   2.9829   2.9922   3.0038   3.6115
     3.6193   3.6387   3.6537   3.6690   3.6703   3.6793   3.6889   3.7421
     3.7496   3.7596   3.7623   3.7634   3.7677   3.7796   3.7810   3.7951
[...]
     atom   77 type  1   force =   0.00000000E+00  0.00000000E+00  0.00000000E+00
     atom   78 type  1   force =   0.00000000E+00  0.00000000E+00  0.00000000E+00
     atom   79 type  2   force =   0.00000000E+00  0.00000000E+00  0.00000000E+00
     atom   80 type  2   force =   0.00000000E+00  0.00000000E+00  0.00000000E+00
     atom   81 type  2   force =   0.00000000E+00  0.00000000E+00  0.00000000E+00
     atom   82 type  2   force =   0.00000000E+00  0.00000000E+00  0.00000000E+00
     atom   83 type  2   force =   0.00000000E+00  0.00000000E+00  0.00000000E+00
     atom   84 type  2   force =   0.00000000E+00  0.00000000E+00  0.00000000E+00
     atom   85 type  1   force =   0.00000000E+00  0.00000000E+00  0.00000000E+00
     atom   86 type  1   force =   0.00000000E+00  0.00000000E+00  0.00000000E+00
     atom   87 type  1   force =   0.00000000E+00  0.00000000E+00  0.00000000E+00
     atom   88 type  1   force =   0.00000000E+00  0.00000000E+00  0.00000000E+00
     atom   89 type  1   force =   0.00000000E+00  0.00000000E+00  0.00000000E+00
     atom   90 type  1   force =   0.00000000E+00  0.00000000E+00  0.00000000E+00
     atom   91 type  2   force =   0.00000000E+00  0.00000000E+00  0.00000000E+00
     atom   92 type  2   force =   0.00000000E+00  0.00000000E+00  0.00000000E+00
     atom   93 type  1   force =   0.00000000E+00  0.00000000E+00  0.00000000E+00
     atom   94 type  1   force =   0.00000000E+00  0.00000000E+00  0.00000000E+00
     atom   95 type  1   force =   0.00000000E+00  0.00000000E+00  0.00000000E+00
     atom   96 type  2   force =   0.00000000E+00  0.00000000E+00  0.00000000E+00
     atom   97 type  1   force =   0.00000000E+00  0.00000000E+00  0.00000000E+00
     atom   98 type  1   force =   0.00000000E+00  0.00000000E+00  0.00000000E+00
     atom   99 type  2   force =   0.00000000E+00  0.00000000E+00  0.00000000E+00
     atom  100 type  1   force =   0.00000000E+00  0.00000000E+00  0.00000000E+00
     atom  101 type  1   force =   0.00000000E+00  0.00000000E+00  0.00000000E+00
     atom  102 type  1   force =   0.00000000E+00  0.00000000E+00  0.00000000E+00
     atom  103 type  2   force =   0.00000000E+00  0.00000000E+00  0.00000000E+00
     atom  104 type  1   force =   0.00000000E+00  0.00000000E+00  0.00000000E+00
     atom  105 type  1   force =   0.00000000E+00  0.00000000E+00  0.00000000E+00
     atom  106 type  1   force =   0.00000000E+00  0.00000000E+00  0.00000000E+00
     atom  107 type  2   force =   0.00000000E+00  0.00000000E+00  0.00000000E+00
     atom  108 type  1   force =   0.00000000E+00  0.00000000E+00  0.00000000E+00
     atom  109 type  1   force =   0.00000000E+00  0.00000000E+00  0.00000000E+00
     atom  110 type  2   force =   0.00000000E+00  0.00000000E+00  0.00000000E+00
     atom  111 type  2   force =   0.00000000E+00  0.00000000E+00  0.00000000E+00
     atom  112 type  2   force =   0.00000000E+00  0.00000000E+00  0.00000000E+00
     atom  113 type  2   force =   0.00000000E+00  0.00000000E+00  0.00000000E+00
     atom  114 type  1   force =   0.00000000E+00  0.00000000E+00  0.00000000E+00
     atom  115 type  1   force =   0.00000000E+00  0.00000000E+00  0.00000000E+00
     atom  116 type  1   force =   0.00000000E+00  0.00000000E+00  0.00000000E+00
     atom  117 type  1   force =   0.00000000E+00  0.00000000E+00  0.00000000E+00
     atom  118 type  2   force =   0.00000000E+00  0.00000000E+00  0.00000000E+00
     atom  119 type  2   force =   0.00000000E+00  0.00000000E+00  0.00000000E+00
     atom  120 type  1   force =   0.00000000E+00  0.00000000E+00  0.00000000E+00
     atom  121 type  1   force =   0.00000000E+00  0.00000000E+00  0.00000000E+00
     atom  122 type  2   force =   0.00000000E+00  0.00000000E+00  0.00000000E+00
     atom  123 type  2   force =   0.00000000E+00  0.00000000E+00  0.00000000E+00
     atom  124 type  2   force =   0.00000000E+00  0.00000000E+00  0.00000000E+00
     atom  125 type  2   force =   0.00000000E+00  0.00000000E+00  0.00000000E+00
     atom  126 type  1   force =   0.00000000E+00  0.00000000E+00  0.00000000E+00
     atom  127 type  1   force =   0.00000000E+00  0.00000000E+00  0.00000000E+00
     atom  128 type  2   force =   0.00000000E+00  0.00000000E+00  0.00000000E+00
     The SCF correction term to forces
     atom    1 type  1   force =  -0.16522678E-05  0.40262996E-06 -0.48563643E-06
     atom    2 type  1   force =  -0.11278868E-05 -0.15261074E-06  0.45807982E-06
     atom    3 type  1   force =  -0.27654036E-06 -0.89768812E-06 -0.39173732E-06
     atom    4 type  2   force =   0.35667370E-05  0.27868420E-05 -0.48119203E-05
     atom    5 type  1   force =   0.13893031E-05  0.23329344E-05 -0.10892009E-05
     atom    6 type  1   force =  -0.43218190E-06  0.23726624E-05 -0.27954755E-06
     atom    7 type  1   force =  -0.25059232E-05  0.11828924E-05 -0.76642658E-06
     atom    8 type  2   force =  -0.10931572E-04  0.30993763E-05 -0.39873800E-05
     atom    9 type  2   force =   0.24081437E-05  0.57189534E-06 -0.25611698E-05
     atom   10 type  2   force =   0.48172506E-05 -0.69892111E-05  0.87488817E-05
     atom   11 type  1   force =   0.50478641E-06 -0.10797748E-05  0.10808275E-05
     atom   12 type  2   force =   0.36817481E-05  0.44652029E-06  0.37595712E-05
     atom   13 type  1   force =  -0.58958639E-06  0.12705881E-05 -0.10360303E-05
     atom   14 type  2   force =  -0.28733633E-05 -0.75258602E-06 -0.33053375E-05
     atom   15 type  1   force =  -0.81417648E-06  0.28214388E-06 -0.15066038E-06
     atom   16 type  2   force =   0.27453007E-05  0.51051285E-07  0.16892306E-05
     atom   17 type  1   force =   0.20429622E-05 -0.90357157E-06  0.12093071E-05
     atom   18 type  2   force =   0.44344362E-06 -0.69183314E-05  0.44968141E-05
     atom   19 type  1   force =  -0.76860564E-06 -0.27893445E-05  0.10928610E-05
     atom   20 type  2   force =  -0.48470906E-05 -0.51445029E-05 -0.44640345E-05
     atom   21 type  1   force =   0.11419556E-05 -0.46036677E-06 -0.77919667E-06
     atom   22 type  1   force =   0.16034614E-05 -0.32610000E-06 -0.53162257E-06
     atom   23 type  1   force =   0.25834457E-05 -0.79958936E-06 -0.23848739E-06
     atom   24 type  2   force =   0.80279555E-05  0.30145721E-05 -0.87339004E-06
     atom   25 type  1   force =  -0.21647306E-05 -0.23391353E-06  0.14676152E-06
     atom   26 type  1   force =  -0.34934885E-05 -0.11376335E-05 -0.82299097E-07
     atom   27 type  2   force =  -0.52475643E-05 -0.11256476E-04  0.18698293E-05
     atom   28 type  2   force =   0.31083081E-05  0.21797854E-05 -0.16989477E-05
     atom   29 type  1   force =   0.21921848E-05  0.35857679E-06 -0.13365593E-05
     atom   30 type  2   force =   0.53264530E-05  0.38353427E-05 -0.10444708E-06
     atom   31 type  2   force =   0.85618970E-05  0.43216925E-05  0.29661251E-05
     atom   32 type  2   force =  -0.13035675E-05  0.64453469E-05  0.30961910E-05
     atom   33 type  2   force =  -0.66385562E-05  0.22827694E-06 -0.45521518E-06
     atom   34 type  2   force =  -0.79604368E-05 -0.10531268E-05  0.34759162E-05
     atom   35 type  2   force =  -0.10462943E-05  0.87357019E-05  0.74482345E-05
     atom   36 type  1   force =   0.76822166E-06  0.26439502E-05  0.27229251E-06
     atom   37 type  2   force =   0.35373910E-05  0.62174526E-05 -0.20170330E-05
     atom   38 type  1   force =  -0.22280193E-05  0.23066734E-05 -0.10261139E-05
     atom   39 type  1   force =  -0.34083317E-05  0.74526921E-06  0.51210036E-06
     atom   40 type  2   force =  -0.10324066E-04  0.30569407E-05  0.30499500E-06
     atom   41 type  2   force =   0.13247705E-05 -0.11796711E-05  0.33762543E-05
     atom   42 type  2   force =   0.23586414E-05 -0.48342190E-06  0.66187260E-05
     atom   43 type  1   force =  -0.86799568E-06  0.76360571E-06  0.75907766E-06
     atom   44 type  1   force =  -0.15501567E-05  0.40734930E-06  0.23187990E-06
     atom   45 type  2   force =  -0.98244648E-05  0.77050272E-05 -0.58003523E-05
     atom   46 type  2   force =  -0.73841940E-05  0.95971897E-05 -0.69270574E-06
     atom   47 type  1   force =  -0.14001022E-05  0.13644542E-05 -0.19140706E-06
     atom   48 type  1   force =   0.20416037E-06  0.12681970E-07 -0.49953168E-06
     atom   49 type  2   force =   0.29422952E-05 -0.62990502E-05  0.84146103E-05
     atom   50 type  1   force =  -0.17625855E-05 -0.13846789E-05  0.23854520E-05
     atom   51 type  2   force =  -0.98405585E-05 -0.25683943E-05  0.93048524E-05
     atom   52 type  2   force =  -0.93139491E-05  0.32523845E-05  0.94312145E-05
     atom   53 type  2   force =   0.32391962E-05 -0.34122017E-06  0.23468345E-05
     atom   54 type  1   force =   0.14375107E-05  0.43693906E-06  0.15788420E-05
     atom   55 type  1   force =   0.23971933E-05  0.25335309E-06  0.11741748E-05
     atom   56 type  1   force =   0.27692942E-05  0.14405791E-06  0.16628457E-05
     atom   57 type  1   force =  -0.27872086E-05  0.95121052E-07  0.66547965E-06
     atom   58 type  2   force =  -0.18254428E-04  0.93233645E-06  0.64217576E-05
     atom   59 type  2   force =  -0.87656498E-05  0.60251723E-06  0.69092139E-05
     atom   60 type  2   force =  -0.61867054E-06  0.85856608E-05  0.76439813E-07
     atom   61 type  1   force =   0.20627551E-05  0.21306539E-05  0.73273402E-06
     atom   62 type  2   force =   0.45824599E-05  0.10914879E-04  0.19902717E-05
     atom   63 type  1   force =   0.50952204E-06  0.37436465E-06  0.54827669E-06
     atom   64 type  1   force =  -0.19725152E-05  0.31256620E-06  0.97371230E-07
     atom   65 type  2   force =  -0.73263142E-05  0.74173024E-05 -0.21465028E-05
     atom   66 type  1   force =  -0.31598077E-06  0.33969832E-06 -0.44267858E-06
     atom   67 type  2   force =  -0.42435396E-06  0.99041728E-06 -0.21130539E-05
     atom   68 type  2   force =   0.55286275E-05  0.51965486E-05 -0.11005322E-04
     atom   69 type  2   force =   0.76094813E-06  0.83451198E-05 -0.10279832E-04
     atom   70 type  2   force =  -0.28466625E-05  0.62098251E-06 -0.66603732E-05
     atom   71 type  1   force =  -0.21374674E-05  0.39017701E-06 -0.75743808E-06
     atom   72 type  1   force =  -0.22404133E-05  0.16029605E-06 -0.25977288E-05
     atom   73 type  1   force =   0.11171973E-05  0.39578065E-06  0.62588738E-07
     atom   74 type  1   force =   0.12951748E-05 -0.16102154E-05  0.11558045E-05
     atom   75 type  2   force =  -0.20274981E-05 -0.54445588E-06  0.37137411E-05
     atom   76 type  1   force =   0.77302656E-06 -0.91621901E-06 -0.33699945E-07
     atom   77 type  1   force =  -0.16562726E-05  0.99952468E-06 -0.12871787E-05
     atom   78 type  1   force =  -0.93044715E-06 -0.93513680E-06 -0.58130914E-06
     atom   79 type  2   force =  -0.42998715E-05 -0.25328199E-05 -0.31702249E-05
     atom   80 type  2   force =   0.12073499E-04  0.18132531E-06  0.37336421E-05
     atom   81 type  2   force =   0.38726885E-05 -0.74216061E-06  0.66008251E-05
     atom   82 type  2   force =   0.22076078E-05 -0.61468428E-05  0.55535902E-05
     atom   83 type  2   force =  -0.10490709E-04 -0.71872309E-05  0.78687290E-05
     atom   84 type  2   force =  -0.47296692E-05 -0.24912370E-05  0.31590012E-06
     atom   85 type  1   force =   0.10090748E-05 -0.16600884E-06  0.11887378E-05
     atom   86 type  1   force =   0.27315063E-05 -0.73363642E-06  0.13966643E-05
     atom   87 type  1   force =   0.30836701E-05 -0.93672433E-06  0.17204527E-05
     atom   88 type  1   force =   0.29174476E-05 -0.11395009E-05  0.68269305E-07
     atom   89 type  1   force =  -0.20986632E-05  0.32612457E-06  0.26879001E-06
     atom   90 type  1   force =  -0.26600861E-05 -0.70799961E-06 -0.29850014E-06
     atom   91 type  2   force =  -0.44812325E-05 -0.17341460E-05  0.88136917E-05
     atom   92 type  2   force =   0.71305456E-05  0.57038970E-05 -0.40713636E-05
     atom   93 type  1   force =   0.23628290E-05  0.87404506E-06  0.25834741E-06
     atom   94 type  1   force =   0.14518557E-05 -0.66273439E-06 -0.10443172E-05
     atom   95 type  1   force =   0.53024286E-07 -0.44731174E-06  0.12602782E-06
     atom   96 type  2   force =  -0.33061245E-06  0.14809702E-05 -0.52884484E-05
     atom   97 type  1   force =  -0.98122631E-06  0.24486824E-07 -0.13182369E-05
     atom   98 type  1   force =  -0.55198191E-06 -0.51261238E-06 -0.71259045E-06
     atom   99 type  2   force =   0.13209911E-05 -0.22176537E-05 -0.32798505E-05
     atom  100 type  1   force =   0.67621760E-06  0.14365005E-06 -0.17738778E-05
     atom  101 type  1   force =   0.12191297E-05 -0.10568493E-06 -0.30878778E-05
     atom  102 type  1   force =  -0.33566734E-06  0.61330807E-06 -0.16972327E-05
     atom  103 type  2   force =  -0.44580455E-05  0.29682785E-05 -0.31606562E-05
     atom  104 type  1   force =  -0.14701040E-05  0.13300337E-05 -0.90852976E-06
     atom  105 type  1   force =   0.17643063E-05 -0.67156540E-06 -0.41463626E-07
     atom  106 type  1   force =   0.14047348E-05 -0.22352553E-05  0.12391990E-05
     atom  107 type  2   force =   0.94403337E-06 -0.63860336E-05 -0.14032976E-05
     atom  108 type  1   force =   0.57090012E-06 -0.77174672E-06  0.68927154E-06
     atom  109 type  1   force =   0.34052067E-07  0.25477869E-06 -0.75042488E-06
     atom  110 type  2   force =   0.23446719E-06 -0.27193319E-05  0.37825892E-05
     atom  111 type  2   force =  -0.32182681E-05  0.29798020E-05 -0.32038349E-05
     atom  112 type  2   force =   0.61805374E-05  0.47663538E-06 -0.96110090E-06
     atom  113 type  2   force =   0.89263665E-05 -0.79006921E-05  0.24396318E-05
     atom  114 type  1   force =  -0.30620724E-06 -0.18770228E-05  0.95864262E-06
     atom  115 type  1   force =  -0.47285854E-07 -0.19481849E-05  0.18035146E-05
     atom  116 type  1   force =   0.20684795E-06 -0.96393826E-06  0.83277002E-06
     atom  117 type  1   force =   0.15242545E-05 -0.14430524E-05  0.34313716E-06
     atom  118 type  2   force =   0.34732894E-05 -0.85757461E-05 -0.19979502E-05
     atom  119 type  2   force =   0.15003327E-04 -0.43120808E-05  0.70286348E-07
     atom  120 type  1   force =   0.32562683E-05 -0.58778104E-06 -0.48571257E-06
     atom  121 type  1   force =  -0.89081307E-06 -0.40231592E-06 -0.78970311E-06
     atom  122 type  2   force =  -0.88976954E-05 -0.20736123E-05 -0.18812681E-07
     atom  123 type  2   force =  -0.26207504E-05 -0.10555551E-05 -0.39844424E-05
     atom  124 type  2   force =   0.36164208E-05 -0.10319389E-05 -0.10014357E-04
     atom  125 type  2   force =   0.14729266E-04 -0.59503688E-05 -0.64406885E-05
     atom  126 type  1   force =   0.18949947E-05 -0.43680951E-06 -0.20961326E-05
     atom  127 type  1   force =   0.14147056E-05 -0.60196981E-06 -0.15253837E-05
     atom  128 type  2   force =  -0.91009390E-07  0.29192083E-05 -0.95115616E-05

     Total force =     0.254967     Total SCF correction =     0.000078


     entering subroutine stress ...

          total   stress  (Ry/bohr**3)                   (kbar)     P=    1.12
   0.0000042398  -0.0000025690  -0.0000107972          0.62     -0.38     -1.59
  -0.0000025690   0.0000102891   0.0000085732         -0.38      1.51      1.26
  -0.0000107972   0.0000085732   0.0000082244         -1.59      1.26      1.21

     kinetic stress (kbar)   6213.89      2.12      1.02
                                2.12   6214.90      0.97
                                1.02      0.97   6214.56

     local   stress (kbar)  -6391.17   2167.30  -2205.37
                             2167.30  -4236.03  -1602.88
                            -2205.37  -1602.88  -5227.66

     nonloc. stress (kbar)   2467.70     -0.79     -1.32
                               -0.79   2467.42      0.22
                               -1.32      0.22   2467.49

     hartree stress (kbar)  17130.04  -1051.74   1095.13
                            -1051.74  16067.19    779.72
                             1095.13    779.72  16555.00

     exc-cor stress (kbar)  10480.33     -0.02     -0.06
                               -0.02  10480.32      0.00
                               -0.06      0.00  10480.33

     corecor stress (kbar) -15931.82      0.11      0.06
                                0.11 -15931.79     -0.05
                                0.06     -0.05 -15931.80

     ewald   stress (kbar) -13968.35  -1117.36   1108.95
                            -1117.36 -15060.50    823.28
                             1108.95    823.28 -14556.72

     hubbard stress (kbar)      0.00      0.00      0.00
                                0.00      0.00      0.00
                                0.00      0.00      0.00

     london  stress (kbar)      0.00      0.00      0.00
                                0.00      0.00      0.00
                                0.00      0.00      0.00

     XDM     stress (kbar)      0.00      0.00      0.00
                                0.00      0.00      0.00
                                0.00      0.00      0.00

     dft-nl  stress (kbar)      0.00      0.00      0.00
                                0.00      0.00      0.00
                                0.00      0.00      0.00



     Writing output data file SiGe_zns.scf.in.super.444.b.033.save

     init_run     :   1962.80s CPU   1512.05s WALL (       1 calls)
     electrons    :  78745.82s CPU  61068.67s WALL (       1 calls)
     forces       :   1359.25s CPU    977.16s WALL (       1 calls)
     stress       :   6082.53s CPU   6095.44s WALL (       1 calls)

     Called by init_run:
     wfcinit      :   1741.69s CPU   1290.71s WALL (       1 calls)
     potinit      :      9.90s CPU      9.93s WALL (       1 calls)

     Called by electrons:
     c_bands      :  68712.54s CPU  52457.56s WALL (      16 calls)
     sum_band     :   8448.18s CPU   6979.82s WALL (      16 calls)
     v_of_rho     :     19.03s CPU     19.18s WALL (      16 calls)
     v_h          :      1.22s CPU      1.21s WALL (      16 calls)
     v_xc         :     19.82s CPU     20.04s WALL (      18 calls)
     newd         :   1720.69s CPU   1765.03s WALL (      16 calls)
     mix_rho      :     33.97s CPU     35.58s WALL (      16 calls)

     Called by c_bands:
     init_us_2    :     89.80s CPU     93.43s WALL (     280 calls)
     cegterg      :  68106.78s CPU  51825.35s WALL (     128 calls)

     Called by sum_band:
     sum_band:bec :     18.35s CPU     18.76s WALL (     128 calls)
     addusdens    :   1105.77s CPU   1123.38s WALL (      16 calls)

     Called by *egterg:
     h_psi        :  31937.62s CPU  24929.83s WALL (     486 calls)
     s_psi        :   8903.37s CPU   5280.83s WALL (     486 calls)
     g_psi        :     14.39s CPU     17.71s WALL (     350 calls)
     cdiaghg      :  11939.24s CPU  11465.17s WALL (     470 calls)
     cegterg:over :   7396.75s CPU   4919.21s WALL (     350 calls)
     cegterg:upda :   3586.73s CPU   2198.98s WALL (     350 calls)
     cegterg:last :   2465.59s CPU   1457.81s WALL (     128 calls)

     Called by h_psi:
     h_psi:vloc   :  13131.36s CPU  13487.61s WALL (     486 calls)
     h_psi:vnl    :  18780.26s CPU  11414.89s WALL (     486 calls)
     add_vuspsi   :   8833.17s CPU   5249.27s WALL (     486 calls)

     General routines
     calbec       :  15148.17s CPU   9611.78s WALL (     630 calls)
     fft          :    605.44s CPU    613.17s WALL (     281 calls)
     ffts         :     19.44s CPU     20.24s WALL (     454 calls)
     fftw         :  14630.17s CPU  15023.52s WALL (  498454 calls)
     interpolate  :      4.20s CPU      4.22s WALL (      32 calls)

     Parallel routines
     fft_scatter  :   9679.21s CPU   9939.38s WALL (  499189 calls)

     PWSCF        :     1d    0h29m CPU        0d   19h21m WALL


   This run was terminated on:   7:43:30   3Nov2017            

=------------------------------------------------------------------------------=
   JOB DONE.
=------------------------------------------------------------------------------=
