
     Program PWSCF v.5.1 starts on 13Feb2017 at 13:55:43 

     This program is part of the open-source Quantum ESPRESSO suite
     for quantum simulation of materials; please cite
         "P. Giannozzi et al., J. Phys.:Condens. Matter 21 395502 (2009);
          URL http://www.quantum-espresso.org", 
     in publications or presentations arising from this work. More details at
     http://www.quantum-espresso.org/quote

     Parallel version (MPI), running on    16 processors
     R & G space division:  proc/nbgrp/npool/nimage =      16
     Reading input from /tmp/SiGe_zns.scf.in.super.228.c.02.8146/SiGe_zns.scf.in.super.228.c.02.t
Warning: card &IONS ignored
Warning: card   ION_DYNAMICS='BFGS', ignored
Warning: card / ignored
Warning: card &CELL ignored
Warning: card  CELL_DYNAMICS = 'BFGS' ignored
Warning: card / ignored
     Message from routine read_cards :
     DEPRECATED: no units specified in CELL_PARAMETERS card

     Current dimensions of program PWSCF are:
     Max number of different atomic species (ntypx) = 10
     Max number of k-points (npk) =  40000
     Max angular momentum in pseudopotentials (lmaxx) =  3

     Subspace diagonalization in iterative solution of the eigenvalue problem:
     a serial algorithm will be used

     warning: symmetry operation #  3 not compatible with FFT grid. 
  -1   1   0
   0   1   0
   0   4  -1
     warning: symmetry operation #  4 not compatible with FFT grid. 
   1   0   0
   1  -1   0
   4   0  -1
     warning: symmetry operation #  5 not compatible with FFT grid. 
  -1   1   0
  -1   0   0
  -4   0   1
     warning: symmetry operation #  6 not compatible with FFT grid. 
   0  -1   0
   1  -1   0
   0  -4   1
     warning: symmetry operation #  9 not compatible with FFT grid. 
   1  -1   0
   0  -1   0
   0  -4   1
     warning: symmetry operation # 10 not compatible with FFT grid. 
  -1   0   0
  -1   1   0
  -4   0   1
     warning: symmetry operation # 11 not compatible with FFT grid. 
   1  -1   0
   1   0   0
   4   0  -1
     warning: symmetry operation # 12 not compatible with FFT grid. 
   0   1   0
  -1   1   0
   0   4  -1

     Parallelization info
     --------------------
     sticks:   dense  smooth     PW     G-vecs:    dense   smooth      PW
     Min         189     131     36                27389    16001    2346
     Max         192     132     37                27391    16042    2363
     Sum        3037    2107    583               438235   256383   37657



     bravais-lattice index     =            0
     lattice parameter (alat)  =    14.799446477  a.u.
     unit-cell volume          =    9168.1437 (a.u.)^3
     number of atoms/cell      =           64
     number of atomic types    =            2
     number of electrons       =       526.00
     number of Kohn-Sham states=          316
     kinetic-energy cutoff     =      35.0000  Ry
     charge density cutoff     =     200.0000  Ry
     convergence threshold     =      1.0E-09
     mixing beta               =       0.3000
     number of iterations used =            8  local-TF  mixing
     Exchange-correlation      = SLA  PW   PSX  PSC ( 1  4 10  8 0)
     A smooth kinetic-energy cutoff is imposed at      34.5000 Ry
     height of the smooth step-function =             800.0000 Ry
     width of the smooth step-function  =               1.0000 Ry


     celldm(1)=  14.799446  celldm(2)=   0.000000  celldm(3)=   0.000000
     celldm(4)=   0.000000  celldm(5)=   0.000000  celldm(6)=   0.000000

     crystal axes: (cart. coord. in units of alat)
               a(1) = (   0.000000000000   0.707106781187   0.707106781187 )  
               a(2) = (   0.707106781187   0.000000000000   0.707106781187 )  
               a(3) = (   2.828427124746   2.828427124746  -0.000000000000 )  

     reciprocal axes: (cart. coord. in units 2 pi/alat)
               b(1) = ( -0.707107  0.707107  0.707107 )  
               b(2) = (  0.707107 -0.707107  0.707107 )  
               b(3) = (  0.176777  0.176777 -0.176777 )  


     PseudoPot. # 1 for Si read from file:
     /users/kfg/psuedo/gbrv_1.5/si.pbesol.UPF
     MD5 check sum: ef58ba74faed4df802eb8a9742fc00a8
     Pseudo is Ultrasoft + core correction, Zval =  4.0
     Generated by new atomic code, or converted to UPF format
     Using radial grid of  899 points,  6 beta functions with: 
                l(1) =   0
                l(2) =   0
                l(3) =   1
                l(4) =   1
                l(5) =   2
                l(6) =   2
     Q(r) pseudized with  8 coefficients,  rinner =    0.900   0.900   0.900
                                                       0.900   0.900

     PseudoPot. # 2 for Ge read from file:
     /users/kfg/psuedo/gbrv_1.5/ge.pbesol.UPF
     MD5 check sum: 7bed0412183f5e553a4d27ec7023354d
     Pseudo is Ultrasoft + core correction, Zval = 14.0
     Generated by new atomic code, or converted to UPF format
     Using radial grid of  873 points,  6 beta functions with: 
                l(1) =   0
                l(2) =   0
                l(3) =   1
                l(4) =   1
                l(5) =   2
                l(6) =   2
     Q(r) pseudized with  8 coefficients,  rinner =    1.400   1.400   1.400
                                                       1.400   1.400

     atomic species   valence    mass     pseudopotential
        Si             4.00    28.08550     Si( 1.00)
        Ge            14.00    72.64000     Ge( 1.00)

     No symmetry found


                                    s                        frac. trans.

      isym =  1     identity                                     

 cryst.   s( 1) = (     1          0          0      )
                  (     0          1          0      )
                  (     0          0          1      )

 cart.    s( 1) = (  1.0000000  0.0000000  0.0000000 )
                  (  0.0000000  1.0000000  0.0000000 )
                  (  0.0000000  0.0000000  1.0000000 )


     point group C_1 (1)    
     there are  1 classes
     the character table:

       E    
A      1.00

     the symmetry operations in each class:
     E        1

   Cartesian axes

     site n.     atom                  positions (alat units)
         1           Ge  tau(   1) = (    0.00032748488    0.00025939820   -0.00032961024  )
         2           Si  tau(   2) = (    0.17670715949    0.17650921661    0.17682314130  )
         3           Ge  tau(   3) = (    0.35355323595    0.35384747679    0.00010031151  )
         4           Ge  tau(   4) = (    0.53030459095    0.53031099018    0.17688834192  )
         5           Ge  tau(   5) = (    0.70715501059    0.70728396612    0.00005568168  )
         6           Ge  tau(   6) = (    0.88402678892    0.88365188983    0.17682090112  )
         7           Ge  tau(   7) = (    1.06034218336    1.06055972351    0.00003376450  )
         8           Ge  tau(   8) = (    1.23755022296    1.23712523640    0.17698633444  )
         9           Si  tau(   9) = (    1.41399546400    1.41450166866   -0.00011211200  )
        10           Si  tau(  10) = (    1.59070289822    1.59085538933    0.17652133644  )
        11           Si  tau(  11) = (    1.76810051960    1.76809459267    0.00016593239  )
        12           Ge  tau(  12) = (    1.94465505628    1.94458882578    0.17702341756  )
        13           Ge  tau(  13) = (    2.12124862303    2.12115974368   -0.00015853387  )
        14           Ge  tau(  14) = (    2.29793068919    2.29800774200    0.17695367977  )
        15           Si  tau(  15) = (    2.47454954060    2.47492726619    0.00020103979  )
        16           Si  tau(  16) = (    2.65188696474    2.65188577278    0.17649377692  )
        17           Ge  tau(  17) = (    0.35352741711   -0.00004574598    0.35366815239  )
        18           Si  tau(  18) = (    0.53024962053    0.17662449576    0.53025287620  )
        19           Ge  tau(  19) = (    0.70737259584    0.35355044083    0.35331738229  )
        20           Si  tau(  20) = (    0.88397054201    0.53026515196    0.53001690550  )
        21           Ge  tau(  21) = (    1.06077193391    0.70698345352    0.35325462928  )
        22           Ge  tau(  22) = (    1.23737413382    0.88416393507    0.53065950088  )
        23           Si  tau(  23) = (    1.41443998800    1.06032504390    0.35373367333  )
        24           Ge  tau(  24) = (    1.59073302385    1.23739322393    0.53024070870  )
        25           Si  tau(  25) = (    1.76755805489    1.41447477497    0.35332931730  )
        26           Si  tau(  26) = (    1.94428995511    1.59093424249    0.53044270709  )
        27           Ge  tau(  27) = (    2.12106394815    1.76766170065    0.35368180119  )
        28           Ge  tau(  28) = (    2.29794760185    1.94438310799    0.53065405770  )
        29           Si  tau(  29) = (    2.47481946748    2.12111898061    0.35366871503  )
        30           Si  tau(  30) = (    2.65183797487    2.29788810466    0.53035956324  )
        31           Si  tau(  31) = (    2.82814619386    2.47487305021    0.35330089049  )
        32           Si  tau(  32) = (    3.00515152441    2.65186382245    0.53061120258  )
        33           Ge  tau(  33) = (   -0.00029128370    0.35356778095    0.35345539805  )
        34           Si  tau(  34) = (    0.17696674569    0.53051407395    0.53024869595  )
        35           Si  tau(  35) = (    0.35382936028    0.70680631736    0.35366484182  )
        36           Si  tau(  36) = (    0.53060465270    0.88413030763    0.53037653238  )
        37           Ge  tau(  37) = (    0.70686785959    1.06051815377    0.35371461103  )
        38           Si  tau(  38) = (    0.88401875432    1.23754900432    0.53005644474  )
        39           Si  tau(  39) = (    1.06067433907    1.41403474256    0.35349277318  )
        40           Si  tau(  40) = (    1.23737229800    1.59129638223    0.53045629122  )
        41           Ge  tau(  41) = (    1.41429706898    1.76748864526    0.35338209131  )
        42           Ge  tau(  42) = (    1.59085398044    1.94487266304    0.53004358252  )
        43           Si  tau(  43) = (    1.76807103170    2.12134694843    0.35387694768  )
        44           Si  tau(  44) = (    1.94462181585    2.29825396569    0.53024900210  )
        45           Si  tau(  45) = (    2.12121233763    2.47484521375    0.35331827366  )
        46           Si  tau(  46) = (    2.29806249898    2.65187183189    0.53035221268  )
        47           Si  tau(  47) = (    2.47518641729    2.82870344542    0.35332930899  )
        48           Si  tau(  48) = (    2.65178708015    3.00506078026    0.53033598529  )
        49           Ge  tau(  49) = (    0.35375420172    0.35346087536    0.70694134557  )
        50           Ge  tau(  50) = (    0.53033869865    0.53055352836    0.88396954107  )
        51           Si  tau(  51) = (    0.70703779676    0.70706062040    0.70701383505  )
        52           Si  tau(  52) = (    0.88357333145    0.88359486499    0.88409409086  )
        53           Ge  tau(  53) = (    1.06086673769    1.06052835354    0.70713160507  )
        54           Si  tau(  54) = (    1.23776890769    1.23776711371    0.88401717554  )
        55           Ge  tau(  55) = (    1.41452800593    1.41424758343    0.70677220318  )
        56           Ge  tau(  56) = (    1.59118065445    1.59117658937    0.88360443147  )
        57           Si  tau(  57) = (    1.76789754982    1.76804486260    0.70722515593  )
        58           Si  tau(  58) = (    1.94469648993    1.94485646645    0.88412387303  )
        59           Si  tau(  59) = (    2.12120929167    2.12164649151    0.70693443215  )
        60           Ge  tau(  60) = (    2.29832754102    2.29791355972    0.88367429814  )
        61           Si  tau(  61) = (    2.47510048987    2.47478394840    0.70698895959  )
        62           Si  tau(  62) = (    2.65166290691    2.65143924492    0.88355796777  )
        63           Si  tau(  63) = (    2.82872939372    2.82818743463    0.70729186017  )
        64           Si  tau(  64) = (    3.00512730115    3.00504668076    0.88380439248  )

   Crystallographic axes

     site n.     atom                  positions (cryst. coord.)
         1           Ge  tau(   1) = (   -0.00028121419   -0.00018492508    0.00016201466  )
         2           Si  tau(   2) = (    0.12489287553    0.12517280903    0.03118221312  )
         3           Ge  tau(   3) = (    0.00027899065   -0.00013712875    0.12503422751  )
         4           Ge  tau(   4) = (    0.12508347103    0.12507442115    0.15622238089  )
         5           Ge  tau(   5) = (    0.00013055822   -0.00005181244    0.25003000478  )
         6           Ge  tau(   6) = (    0.12476616456    0.12529635193    0.28122658062  )
         7           Ge  tau(   7) = (    0.00017769922   -0.00012994901    0.37492006137  )
         8           Ge  tau(   8) = (    0.12484772638    0.12544874814    0.40617789032  )
         9           Si  tau(   9) = (    0.00027866559   -0.00043721590    0.50003219456  )
        10           Si  tau(  10) = (    0.12492726153    0.12471160652    0.53122050146  )
        11           Si  tau(  11) = (    0.00011314094    0.00012152290    0.62508755289  )
        12           Ge  tau(  12) = (    0.12512762695    0.12522129102    0.65623406593  )
        13           Ge  tau(  13) = (   -0.00017494757   -0.00004925318    0.74998695626  )
        14           Ge  tau(  14) = (    0.12517963148    0.12507066236    0.78117352092  )
        15           Si  tau(  15) = (    0.00040924893   -0.00012493573    0.87491661420  )
        16           Si  tau(  16) = (    0.12479910365    0.12480078934    0.90638343052  )
        17           Ge  tau(  17) = (    0.00006716757    0.50009513011   -0.00003296554  )
        18           Si  tau(  18) = (    0.12489468078    0.62499612823    0.03122251914  )
        19           Ge  tau(  19) = (   -0.00035692822    0.50002316207    0.12508818916  )
        20           Si  tau(  20) = (    0.12467106817    0.62488602787    0.15630927534  )
        21           Ge  tau(  21) = (   -0.00037748975    0.49995497744    0.25005076952  )
        22           Ge  tau(  22) = (    0.12547560485    0.62499025829    0.28123025587  )
        23           Si  tau(  23) = (   -0.00026959914    0.50052455743    0.37494891419  )
        24           Ge  tau(  24) = (    0.12508783219    0.62478576937    0.40621261177  )
        25           Si  tau(  25) = (    0.00017397471    0.49950913781    0.50004885892  )
        26           Si  tau(  26) = (    0.12521941465    0.62493985578    0.53117534198  )
        27           Ge  tau(  27) = (    0.00019767431    0.49998392570    0.62491336911  )
        28           Ge  tau(  28) = (    0.12522123147    0.62523693387    0.65613793257  )
        29           Si  tau(  29) = (   -0.00002246608    0.50018555947    0.74993442397  )
        30           Si  tau(  30) = (    0.12474049021    0.62530119705    0.78124100806  )
        31           Si  tau(  31) = (    0.00001961998    0.49962329095    0.87499485320  )
        32           Si  tau(  32) = (    0.12538664975    0.62501090929    0.90622878338  )
        33           Ge  tau(  33) = (    0.50014685300   -0.00028543539   -0.00003162549  )
        34           Si  tau(  34) = (    0.62493816190    0.12494673534    0.03133050913  )
        35           Si  tau(  35) = (    0.49967120787    0.00048640796    0.12497596803  )
        36           Si  tau(  36) = (    0.62501323056    0.12505245470    0.15633396035  )
        37           Ge  tau(  37) = (    0.50018252124    0.00004547888    0.24990415874  )
        38           Si  tau(  38) = (    0.62479014362    0.12482286936    0.28134211060  )
        39           Si  tau(  39) = (    0.49982067453    0.00009359950    0.37498160902  )
        40           Si  tau(  40) = (    0.62535136063    0.12482712067    0.40627039122  )
        41           Ge  tau(  41) = (    0.49962303176    0.00013471447    0.49999584543  )
        42           Ge  tau(  42) = (    0.62512642266    0.12446840039    0.53133471863  )
        43           Si  tau(  43) = (    0.50003258576    0.00042499306    0.62500125980  )
        44           Si  tau(  44) = (    0.62499835630    0.12488697391    0.65630589294  )
        45           Si  tau(  45) = (    0.49988995198   -0.00022245753    0.75001742852  )
        46           Si  tau(  46) = (    0.62519662455    0.12483466746    0.78127912145  )
        47           Si  tau(  47) = (    0.49981583823   -0.00013273748    0.87514373455  )
        48           Si  tau(  48) = (    0.62480640047    0.12520194255    0.90624782768  )
        49           Ge  tau(  49) = (    0.49967560629    0.50009043242    0.00004838935  )
        50           Ge  tau(  50) = (    0.62521276440    0.62490894930    0.03127580774  )
        51           Si  tau(  51) = (    0.49995041591    0.49991813840    0.12499607572  )
        52           Si  tau(  52) = (    0.62516415336    0.62513370035    0.15610692209  )
        53           Ge  tau(  53) = (    0.49977827941    0.50025682686    0.25000882536  )
        54           Si  tau(  54) = (    0.62509327097    0.62509580804    0.28134344207  )
        55           Ge  tau(  55) = (    0.49956512897    0.49996170628    0.37512074602  )
        56           Ge  tau(  56) = (    0.62479981093    0.62480555983    0.40636592547  )
        57           Si  tau(  57) = (    0.50018786946    0.49997953771    0.50005128853  )
        58           Si  tau(  58) = (    0.62528310651    0.62505686555    0.53128982130  )
        59           Si  tau(  59) = (    0.50018727780    0.49956898385    0.62506849126  )
        60           Ge  tau(  60) = (    0.62455935960    0.62514481756    0.65629529043  )
        61           Si  tau(  61) = (    0.49969285893    0.50014051617    0.75004504121  )
        62           Si  tau(  62) = (    0.62461167768    0.62492798349    0.78127241558  )
        63           Si  tau(  63) = (    0.49974764766    0.50051409355    0.87497834483  )
        64           Si  tau(  64) = (    0.62488707194    0.62500108639    0.90622267489  )

     number of k points=    10  gaussian smearing, width (Ry)=  0.0150
                       cart. coord. in units 2pi/alat
        k(    1) = (   0.0000000   0.0000000   0.0000000), wk =   0.1250000
        k(    2) = (   0.1767767  -0.1767767   0.1767767), wk =   0.2500000
        k(    3) = (  -0.3535534   0.3535534  -0.3535534), wk =   0.1250000
        k(    4) = (  -0.5303301   0.5303301  -0.1767767), wk =   0.2500000
        k(    5) = (   0.1767767  -0.1767767  -0.1767767), wk =   0.2500000
        k(    6) = (   0.1767767   0.1767767   0.1767767), wk =   0.2500000
        k(    7) = (  -0.3535534   0.3535534   0.3535534), wk =   0.1250000
        k(    8) = (  -0.3535534  -0.3535534  -0.3535534), wk =   0.1250000
        k(    9) = (  -0.5303301   0.5303301   0.1767767), wk =   0.2500000
        k(   10) = (   0.5303301  -0.1767767   0.5303301), wk =   0.2500000

                       cryst. coord.
        k(    1) = (   0.0000000   0.0000000   0.0000000), wk =   0.1250000
        k(    2) = (   0.0000000   0.2500000   0.0000000), wk =   0.2500000
        k(    3) = (   0.0000000  -0.5000000   0.0000000), wk =   0.1250000
        k(    4) = (   0.2500000  -0.5000000   0.0000000), wk =   0.2500000
        k(    5) = (  -0.2500000   0.0000000   0.0000000), wk =   0.2500000
        k(    6) = (   0.2500000   0.2500000   1.0000000), wk =   0.2500000
        k(    7) = (   0.5000000   0.0000000   0.0000000), wk =   0.1250000
        k(    8) = (  -0.5000000  -0.5000000  -2.0000000), wk =   0.1250000
        k(    9) = (   0.5000000  -0.2500000   0.0000000), wk =   0.2500000
        k(   10) = (   0.2500000   0.7500000   1.0000000), wk =   0.2500000

     Dense  grid:   438235 G-vectors     FFT dimensions: (  72,  72, 270)

     Smooth grid:   256383 G-vectors     FFT dimensions: (  60,  60, 225)

     Largest allocated arrays     est. size (Mb)     dimensions
        Kohn-Sham Wavefunctions         9.72 Mb     (    2015,  316)
        NL pseudopotentials            35.42 Mb     (    2015, 1152)
        Each V/rho on FFT grid          1.34 Mb     (   88128)
        Each G-vector array             0.21 Mb     (   27391)
        G-vector shells                 0.04 Mb     (    5735)
     Largest temporary arrays     est. size (Mb)     dimensions
        Auxiliary wavefunctions        38.86 Mb     (    2015, 1264)
        Each subspace H/S matrix       24.38 Mb     (    1264, 1264)
        Each <psi_i|beta_j> matrix      5.55 Mb     (    1152,  316)
        Arrays for rho mixing          10.76 Mb     (   88128,    8)

     Initial potential from superposition of free atoms

     starting charge  525.95420, renormalised to  526.00000
     Starting wfc are  391 randomized atomic wfcs

     total cpu time spent up to now is      122.4 secs

     Self-consistent Calculation

     iteration #  1     ecut=    35.00 Ry     beta=0.30
     Davidson diagonalization with overlap
     ethr =  1.00E-02,  avg # of iterations =  3.0

     Threshold (ethr) on eigenvalues was too large:
     Diagonalizing with lowered threshold

     Davidson diagonalization with overlap
     ethr =  2.72E-04,  avg # of iterations =  7.8

     total cpu time spent up to now is      991.1 secs

     total energy              =   -6109.90055771 Ry
     Harris-Foulkes estimate   =   -6110.04861839 Ry
     estimated scf accuracy    <       1.43417715 Ry

     iteration #  2     ecut=    35.00 Ry     beta=0.30
     Davidson diagonalization with overlap
     ethr =  2.73E-04,  avg # of iterations =  1.1

     total cpu time spent up to now is     1259.0 secs

     total energy              =   -6109.61858575 Ry
     Harris-Foulkes estimate   =   -6109.90806401 Ry
     estimated scf accuracy    <       0.88581528 Ry

     iteration #  3     ecut=    35.00 Ry     beta=0.30
     Davidson diagonalization with overlap
     ethr =  1.68E-04,  avg # of iterations =  2.6

     total cpu time spent up to now is     1565.8 secs

     total energy              =   -6109.67213011 Ry
     Harris-Foulkes estimate   =   -6109.67107879 Ry
     estimated scf accuracy    <       0.01348294 Ry

     iteration #  4     ecut=    35.00 Ry     beta=0.30
     Davidson diagonalization with overlap
     ethr =  2.56E-06,  avg # of iterations = 11.0

     total cpu time spent up to now is     2496.6 secs

     total energy              =   -6109.67486179 Ry
     Harris-Foulkes estimate   =   -6109.67548651 Ry
     estimated scf accuracy    <       0.00641274 Ry

     iteration #  5     ecut=    35.00 Ry     beta=0.30
     Davidson diagonalization with overlap
     ethr =  1.22E-06,  avg # of iterations =  2.0

     total cpu time spent up to now is     2805.6 secs

     total energy              =   -6109.67524619 Ry
     Harris-Foulkes estimate   =   -6109.67533399 Ry
     estimated scf accuracy    <       0.00104375 Ry

     iteration #  6     ecut=    35.00 Ry     beta=0.30
     Davidson diagonalization with overlap
     ethr =  1.98E-07,  avg # of iterations =  1.0

     total cpu time spent up to now is     3056.8 secs

     total energy              =   -6109.67518569 Ry
     Harris-Foulkes estimate   =   -6109.67526666 Ry
     estimated scf accuracy    <       0.00068206 Ry

     iteration #  7     ecut=    35.00 Ry     beta=0.30
     Davidson diagonalization with overlap
     ethr =  1.30E-07,  avg # of iterations =  2.0

     total cpu time spent up to now is     3353.1 secs

     total energy              =   -6109.67523155 Ry
     Harris-Foulkes estimate   =   -6109.67523126 Ry
     estimated scf accuracy    <       0.00036919 Ry

     iteration #  8     ecut=    35.00 Ry     beta=0.30
     Davidson diagonalization with overlap
     ethr =  7.02E-08,  avg # of iterations =  1.1

     total cpu time spent up to now is     3608.3 secs

     total energy              =   -6109.67519263 Ry
     Harris-Foulkes estimate   =   -6109.67524056 Ry
     estimated scf accuracy    <       0.00023828 Ry

     iteration #  9     ecut=    35.00 Ry     beta=0.30
     Davidson diagonalization with overlap
     ethr =  4.53E-08,  avg # of iterations =  2.7

     total cpu time spent up to now is     3937.2 secs

     total energy              =   -6109.67519428 Ry
     Harris-Foulkes estimate   =   -6109.67523905 Ry
     estimated scf accuracy    <       0.00010033 Ry

     iteration # 10     ecut=    35.00 Ry     beta=0.30
     Davidson diagonalization with overlap
     ethr =  1.91E-08,  avg # of iterations =  2.5

     total cpu time spent up to now is     4257.1 secs

     total energy              =   -6109.67520137 Ry
     Harris-Foulkes estimate   =   -6109.67520588 Ry
     estimated scf accuracy    <       0.00001363 Ry

     iteration # 11     ecut=    35.00 Ry     beta=0.30
     Davidson diagonalization with overlap
     ethr =  2.59E-09,  avg # of iterations =  2.1

     total cpu time spent up to now is     4594.4 secs

     total energy              =   -6109.67520330 Ry
     Harris-Foulkes estimate   =   -6109.67520338 Ry
     estimated scf accuracy    <       0.00000140 Ry

     iteration # 12     ecut=    35.00 Ry     beta=0.30
     Davidson diagonalization with overlap
     ethr =  2.66E-10,  avg # of iterations =  2.4

     total cpu time spent up to now is     4925.2 secs

     total energy              =   -6109.67520323 Ry
     Harris-Foulkes estimate   =   -6109.67520343 Ry
     estimated scf accuracy    <       0.00000066 Ry

     iteration # 13     ecut=    35.00 Ry     beta=0.30
     Davidson diagonalization with overlap
     ethr =  1.26E-10,  avg # of iterations =  2.0

     total cpu time spent up to now is     5229.2 secs

     total energy              =   -6109.67520332 Ry
     Harris-Foulkes estimate   =   -6109.67520332 Ry
     estimated scf accuracy    <       0.00000010 Ry

     iteration # 14     ecut=    35.00 Ry     beta=0.30
     Davidson diagonalization with overlap
     ethr =  1.98E-11,  avg # of iterations =  2.2

     total cpu time spent up to now is     5518.4 secs

     total energy              =   -6109.67520333 Ry
     Harris-Foulkes estimate   =   -6109.67520332 Ry
     estimated scf accuracy    <       0.00000004 Ry

     iteration # 15     ecut=    35.00 Ry     beta=0.30
     Davidson diagonalization with overlap
     ethr =  6.90E-12,  avg # of iterations =  2.0

     total cpu time spent up to now is     5813.7 secs

     total energy              =   -6109.67520333 Ry
     Harris-Foulkes estimate   =   -6109.67520333 Ry
     estimated scf accuracy    <       0.00000001 Ry

     iteration # 16     ecut=    35.00 Ry     beta=0.30
     Davidson diagonalization with overlap
     ethr =  2.59E-12,  avg # of iterations =  2.4

     total cpu time spent up to now is     6123.8 secs

     total energy              =   -6109.67520334 Ry
     Harris-Foulkes estimate   =   -6109.67520333 Ry
     estimated scf accuracy    <          4.0E-09 Ry

     iteration # 17     ecut=    35.00 Ry     beta=0.30
     Davidson diagonalization with overlap
     ethr =  7.68E-13,  avg # of iterations =  2.4

     total cpu time spent up to now is     6423.5 secs

     total energy              =   -6109.67520334 Ry
     Harris-Foulkes estimate   =   -6109.67520334 Ry
     estimated scf accuracy    <          1.7E-09 Ry

     iteration # 18     ecut=    35.00 Ry     beta=0.30
     Davidson diagonalization with overlap
     ethr =  3.27E-13,  avg # of iterations =  1.1

     total cpu time spent up to now is     6686.0 secs

     total energy              =   -6109.67520334 Ry
     Harris-Foulkes estimate   =   -6109.67520334 Ry
     estimated scf accuracy    <          1.3E-09 Ry

     iteration # 19     ecut=    35.00 Ry     beta=0.30
     Davidson diagonalization with overlap
     ethr =  2.47E-13,  avg # of iterations =  1.0

     total cpu time spent up to now is     6940.4 secs

     End of self-consistent calculation

          k = 0.0000 0.0000 0.0000 ( 32017 PWs)   bands (ev):

   -17.5759 -17.5664 -17.5516 -17.5485 -17.5295 -17.5290 -17.5192 -17.5174
   -17.5159 -17.5119 -17.5073 -17.5036 -17.4956 -17.4891 -17.4755 -17.4641
   -17.4598 -17.4587 -17.4567 -17.4543 -17.4482 -17.4464 -17.4439 -17.4438
   -17.4185 -17.4153 -17.4151 -17.4134 -17.4128 -17.4101 -17.4011 -17.3994
   -17.3902 -17.3815 -17.3773 -17.3771 -17.3692 -17.3685 -17.3645 -17.3606
   -17.3555 -17.3550 -17.3533 -17.3284 -17.3263 -17.3215 -17.3172 -17.3162
   -17.3156 -17.3097 -17.3094 -17.3070 -17.3067 -17.3044 -17.3026 -17.3020
   -17.3020 -17.2980 -17.2965 -17.2954 -17.2948 -17.2942 -17.2940 -17.2926
   -17.2920 -17.2916 -17.2906 -17.2901 -17.2898 -17.2892 -17.2890 -17.2886
   -17.2881 -17.2879 -17.2862 -17.2858 -17.2854 -17.2846 -17.2844 -17.2837
   -17.2834 -17.2830 -17.2821 -17.2820 -17.2759 -17.2745 -17.2740 -17.2739
   -17.2737 -17.2719 -17.2711 -17.2710 -17.2693 -17.2659 -17.2604 -17.2594
   -17.2574 -17.2573 -17.2567 -17.2566 -17.2550 -17.2523 -17.2521 -17.2507
   -17.2492 -17.2462 -17.2461 -17.2439 -17.2435 -17.2411 -17.2407 -17.2403
   -17.2399 -17.2387 -17.2385 -17.2363 -17.2323 -17.2322 -17.2270 -17.2204
   -17.2164 -17.2074 -17.2006 -17.1983 -17.1936 -17.1888 -17.1863 -17.1857
   -17.1814 -17.1797 -17.1789 -17.1767 -17.1758 -17.1694 -17.1669  -5.3992
    -5.1062  -5.0701  -4.6182  -4.3901  -3.7932  -3.6551  -3.3572  -3.2552
    -3.1703  -3.0486  -3.0102  -2.9785  -2.9372  -2.9256  -2.8871  -2.8606
    -2.7635  -2.7018  -2.5798  -2.5441  -2.3680  -2.3577  -2.2031  -2.0379
    -2.0246  -1.9991  -1.9032  -1.8643  -1.3066  -1.2814  -1.2065  -1.1597
    -1.0709  -0.9890  -0.4907  -0.3814  -0.2744  -0.2299  -0.1848  -0.1473
    -0.1092  -0.0959  -0.0763  -0.0400   0.0009   0.0468   0.0745   0.1002
     0.1253   0.1850   0.2502   0.3281   0.3753   0.3903   0.4642   0.5112
     0.8627   0.8852   2.8141   2.8874   3.4217   3.4229   3.4278   3.4333
     3.4416   3.4567   3.5607   3.5682   3.5707   3.5756   3.5797   3.5846
     4.1162   4.1181   4.1190   4.1210   4.1232   4.1248   4.2864   4.2905
     4.2930   4.2962   4.2983   4.3020   4.5946   4.6016   4.6229   4.6336
     4.6414   4.6547   4.7632   4.7720   4.7782   4.7844   4.7910   4.7962
     5.2136   5.2499   5.4111   5.4199   5.4244   5.4271   5.4307   5.4454
     5.7575   5.7695   5.7718   5.7844   5.7880   5.7978   5.8002   5.8068
     5.9019   5.9056   5.9196   5.9241   6.2395   6.2413   6.2881   6.2932
     6.7631   6.7665   6.7799   6.7814   7.0843   7.0920   7.0964   7.6357
     7.6607   7.6704   7.6829   7.7238   7.7525   7.7806   7.8209   7.8632
     7.8900   7.9057   7.9315   7.9530   7.9588   7.9674   8.0183   8.1349
     8.1896   8.4041   8.4365   8.4624   8.4896   8.5096   8.5222   8.5511
     8.5622   8.7254   8.8543   8.8724   8.8849   8.9051   8.9319   8.9457
     8.9626   9.0012   9.0206   9.0318   9.0571   9.0611   9.1075   9.1746
     9.5726   9.5831   9.6002   9.9805   9.9852  10.0327  10.0498  10.3511
    10.3717  10.3984  10.4098  10.4210

     occupation numbers 
     1.0000   1.0000   1.0000   1.0000   1.0000   1.0000   1.0000   1.0000
     1.0000   1.0000   1.0000   1.0000   1.0000   1.0000   1.0000   1.0000
     1.0000   1.0000   1.0000   1.0000   1.0000   1.0000   1.0000   1.0000
     1.0000   1.0000   1.0000   1.0000   1.0000   1.0000   1.0000   1.0000
     1.0000   1.0000   1.0000   1.0000   1.0000   1.0000   1.0000   1.0000
     1.0000   1.0000   1.0000   1.0000   1.0000   1.0000   1.0000   1.0000
     1.0000   1.0000   1.0000   1.0000   1.0000   1.0000   1.0000   1.0000
     1.0000   1.0000   1.0000   1.0000   1.0000   1.0000   1.0000   1.0000
     1.0000   1.0000   1.0000   1.0000   1.0000   1.0000   1.0000   1.0000
     1.0000   1.0000   1.0000   1.0000   1.0000   1.0000   1.0000   1.0000
     1.0000   1.0000   1.0000   1.0000   1.0000   1.0000   1.0000   1.0000
     1.0000   1.0000   1.0000   1.0000   1.0000   1.0000   1.0000   1.0000
     1.0000   1.0000   1.0000   1.0000   1.0000   1.0000   1.0000   1.0000
     1.0000   1.0000   1.0000   1.0000   1.0000   1.0000   1.0000   1.0000
     1.0000   1.0000   1.0000   1.0000   1.0000   1.0000   1.0000   1.0000
     1.0000   1.0000   1.0000   1.0000   1.0000   1.0000   1.0000   1.0000
     1.0000   1.0000   1.0000   1.0000   1.0000   1.0000   1.0000   1.0000
     1.0000   1.0000   1.0000   1.0000   1.0000   1.0000   1.0000   1.0000
     1.0000   1.0000   1.0000   1.0000   1.0000   1.0000   1.0000   1.0000
     1.0000   1.0000   1.0000   1.0000   1.0000   1.0000   1.0000   1.0000
     1.0000   1.0000   1.0000   1.0000   1.0000   1.0000   1.0000   1.0000
     1.0000   1.0000   1.0000   1.0000   1.0000   1.0000   1.0000   1.0000
     1.0000   1.0000   1.0000   1.0000   1.0000   1.0000   1.0000   1.0000
     1.0000   1.0000   1.0000   1.0000   1.0000   1.0000   1.0000   1.0000
     1.0000   1.0000   1.0000   1.0000   1.0000   1.0000   1.0000   1.0000
     1.0000   1.0000   1.0000   1.0000   1.0000   1.0000   1.0000   1.0000
     1.0000   1.0000   1.0000   1.0000   1.0000   1.0000   1.0000   1.0000
     1.0000   1.0000   1.0000   1.0000   1.0000   1.0000   1.0000   1.0000
     1.0000   1.0000   1.0000   1.0000   1.0000   1.0000   1.0000   1.0000
     1.0000   1.0000   1.0000   1.0000   1.0000   1.0000   1.0000   1.0000
     1.0000   1.0000   1.0000   1.0000   1.0000   1.0000   1.0000   1.0000
     1.0000   1.0000   1.0000   1.0000   1.0000   1.0000   1.0000   1.0000
     0.9999   0.9999   0.9999   0.9999   0.9395   0.9328   0.9287   0.0116
     0.0073   0.0060   0.0047   0.0020   0.0010   0.0005   0.0002   0.0001
     0.0000   0.0000   0.0000   0.0000   0.0000   0.0000   0.0000   0.0000
     0.0000   0.0000   0.0000   0.0000   0.0000   0.0000   0.0000   0.0000
     0.0000   0.0000   0.0000   0.0000   0.0000   0.0000   0.0000   0.0000
     0.0000   0.0000   0.0000   0.0000   0.0000   0.0000   0.0000   0.0000
     0.0000   0.0000   0.0000   0.0000   0.0000   0.0000   0.0000   0.0000
     0.0000   0.0000   0.0000   0.0000

          k = 0.1768-0.1768 0.1768 ( 32087 PWs)   bands (ev):

   -17.5775 -17.5695 -17.5541 -17.5484 -17.5305 -17.5294 -17.5198 -17.5176
   -17.5161 -17.5110 -17.5073 -17.5018 -17.4953 -17.4890 -17.4714 -17.4634
   -17.4590 -17.4586 -17.4543 -17.4529 -17.4479 -17.4457 -17.4436 -17.4414
   -17.4176 -17.4150 -17.4145 -17.4135 -17.4092 -17.4089 -17.4011 -17.3986
   -17.3898 -17.3816 -17.3771 -17.3764 -17.3691 -17.3685 -17.3664 -17.3606
   -17.3555 -17.3551 -17.3547 -17.3321 -17.3258 -17.3226 -17.3175 -17.3167
   -17.3143 -17.3097 -17.3095 -17.3093 -17.3062 -17.3058 -17.3026 -17.3023
   -17.3010 -17.2990 -17.2977 -17.2961 -17.2952 -17.2944 -17.2943 -17.2930
   -17.2921 -17.2916 -17.2911 -17.2905 -17.2896 -17.2893 -17.2887 -17.2880
   -17.2878 -17.2871 -17.2864 -17.2859 -17.2851 -17.2842 -17.2839 -17.2833
   -17.2833 -17.2825 -17.2822 -17.2816 -17.2769 -17.2761 -17.2740 -17.2736
   -17.2733 -17.2728 -17.2712 -17.2699 -17.2698 -17.2664 -17.2604 -17.2604
   -17.2576 -17.2571 -17.2569 -17.2562 -17.2552 -17.2522 -17.2521 -17.2507
   -17.2493 -17.2460 -17.2458 -17.2438 -17.2435 -17.2416 -17.2400 -17.2400
   -17.2392 -17.2389 -17.2379 -17.2360 -17.2323 -17.2322 -17.2246 -17.2203
   -17.2160 -17.2103 -17.1993 -17.1943 -17.1937 -17.1886 -17.1859 -17.1850
   -17.1803 -17.1799 -17.1794 -17.1767 -17.1748 -17.1701 -17.1672  -5.2228
    -4.9887  -4.8150  -4.5573  -4.0939  -3.9327  -3.8915  -3.6537  -3.5552
    -3.4023  -3.3358  -3.2394  -3.1305  -3.1101  -3.0677  -2.9493  -2.9040
    -2.8553  -2.7659  -2.7050  -2.6948  -2.4743  -2.4020  -2.3133  -2.1017
    -2.0017  -1.9621  -1.8810  -1.8105  -1.5419  -1.2392  -1.1695  -1.0465
    -0.9972  -0.6344  -0.3628  -0.3240  -0.2553  -0.1819  -0.1528  -0.0890
    -0.0265   0.0437   0.0794   0.1057   0.1372   0.3501   0.3931   0.4158
     0.5001   0.6362   0.6911   0.8122   0.9285   0.9464   0.9941   1.4597
     1.4866   1.7519   2.1286   2.7370   2.9553   2.9603   2.9939   3.4692
     3.4779   3.5012   3.5630   3.5671   3.5703   3.5871   3.5888   3.5958
     3.5973   3.6159   3.6284   3.6546   3.6620   4.0432   4.0499   4.0547
     4.2454   4.2489   4.2909   4.2950   4.2989   4.3095   4.3754   4.3767
     4.4503   4.4533   4.4610   4.4760   4.5563   4.6133   4.6307   4.6349
     4.6534   4.7852   4.8420   4.8450   5.0552   5.0677   5.0733   5.0956
     5.1014   5.2232   5.3830   5.3925   5.3940   5.4178   5.4231   5.4301
     5.4457   5.6939   5.7065   5.7193   5.7269   5.7303   5.7446   5.9111
     5.9147   6.2116   6.2430   6.2692   6.7305   6.7743   6.7980   7.5855
     7.8563   7.8951   7.9180   8.0694   8.1772   8.3146   8.5504   8.7476
     8.7883   8.8103   8.8381   8.8625   8.8816   8.8968   8.9177   8.9239
     8.9384   8.9577   8.9688   8.9854   8.9970   9.0195   9.0363   9.0481
     9.0594   9.0834   9.1281   9.1489   9.1969   9.3312   9.3858   9.3938
     9.5674   9.6206   9.6548   9.7854   9.8037   9.8219   9.8400   9.8909
    10.0160  10.0221  10.1605  10.2083  10.2322  10.2563  10.3443  10.3815
    10.4572  10.4669  10.4955  10.4988

     occupation numbers 
     1.0000   1.0000   1.0000   1.0000   1.0000   1.0000   1.0000   1.0000
     1.0000   1.0000   1.0000   1.0000   1.0000   1.0000   1.0000   1.0000
     1.0000   1.0000   1.0000   1.0000   1.0000   1.0000   1.0000   1.0000
     1.0000   1.0000   1.0000   1.0000   1.0000   1.0000   1.0000   1.0000
     1.0000   1.0000   1.0000   1.0000   1.0000   1.0000   1.0000   1.0000
     1.0000   1.0000   1.0000   1.0000   1.0000   1.0000   1.0000   1.0000
     1.0000   1.0000   1.0000   1.0000   1.0000   1.0000   1.0000   1.0000
     1.0000   1.0000   1.0000   1.0000   1.0000   1.0000   1.0000   1.0000
     1.0000   1.0000   1.0000   1.0000   1.0000   1.0000   1.0000   1.0000
     1.0000   1.0000   1.0000   1.0000   1.0000   1.0000   1.0000   1.0000
     1.0000   1.0000   1.0000   1.0000   1.0000   1.0000   1.0000   1.0000
     1.0000   1.0000   1.0000   1.0000   1.0000   1.0000   1.0000   1.0000
     1.0000   1.0000   1.0000   1.0000   1.0000   1.0000   1.0000   1.0000
     1.0000   1.0000   1.0000   1.0000   1.0000   1.0000   1.0000   1.0000
     1.0000   1.0000   1.0000   1.0000   1.0000   1.0000   1.0000   1.0000
     1.0000   1.0000   1.0000   1.0000   1.0000   1.0000   1.0000   1.0000
     1.0000   1.0000   1.0000   1.0000   1.0000   1.0000   1.0000   1.0000
     1.0000   1.0000   1.0000   1.0000   1.0000   1.0000   1.0000   1.0000
     1.0000   1.0000   1.0000   1.0000   1.0000   1.0000   1.0000   1.0000
     1.0000   1.0000   1.0000   1.0000   1.0000   1.0000   1.0000   1.0000
     1.0000   1.0000   1.0000   1.0000   1.0000   1.0000   1.0000   1.0000
     1.0000   1.0000   1.0000   1.0000   1.0000   1.0000   1.0000   1.0000
     1.0000   1.0000   1.0000   1.0000   1.0000   1.0000   1.0000   1.0000
     1.0000   1.0000   1.0000   1.0000   1.0000   1.0000   1.0000   1.0000
     1.0000   1.0000   1.0000   1.0000   1.0000   1.0000   1.0000   1.0000
     1.0000   1.0000   1.0000   1.0000   1.0000   1.0000   1.0000   1.0000
     1.0000   1.0000   1.0000   1.0000   1.0000   1.0000   1.0000   1.0000
     1.0000   1.0000   1.0000   1.0000   1.0000   1.0000   1.0000   1.0000
     1.0000   1.0000   1.0000   1.0000   1.0000   1.0000   1.0000   1.0000
     1.0000   1.0000   1.0000   1.0000   1.0000   1.0000   1.0000   1.0000
     1.0000   1.0000   1.0000   1.0000   1.0000   1.0000   1.0000   1.0000
     1.0000   1.0000   1.0000   1.0000   1.0000   1.0000   1.0000   1.0000
     1.0000   1.0000   1.0000   1.0000   1.0000   0.9999   0.9998   0.0273
     0.0001   0.0000   0.0000   0.0000   0.0000   0.0000   0.0000   0.0000
     0.0000   0.0000   0.0000   0.0000   0.0000   0.0000   0.0000   0.0000
     0.0000   0.0000   0.0000   0.0000   0.0000   0.0000   0.0000   0.0000
     0.0000   0.0000   0.0000   0.0000   0.0000   0.0000   0.0000   0.0000
     0.0000   0.0000   0.0000   0.0000   0.0000   0.0000   0.0000   0.0000
     0.0000   0.0000   0.0000   0.0000   0.0000   0.0000   0.0000   0.0000
     0.0000   0.0000   0.0000   0.0000

          k =-0.3536 0.3536-0.3536 ( 32056 PWs)   bands (ev):

   -17.5790 -17.5725 -17.5556 -17.5486 -17.5314 -17.5298 -17.5203 -17.5180
   -17.5161 -17.5106 -17.5073 -17.5004 -17.4950 -17.4888 -17.4686 -17.4631
   -17.4584 -17.4584 -17.4541 -17.4479 -17.4476 -17.4451 -17.4433 -17.4379
   -17.4179 -17.4148 -17.4139 -17.4137 -17.4082 -17.4031 -17.4011 -17.3947
   -17.3889 -17.3838 -17.3771 -17.3770 -17.3701 -17.3684 -17.3680 -17.3606
   -17.3563 -17.3554 -17.3550 -17.3342 -17.3277 -17.3200 -17.3188 -17.3183
   -17.3144 -17.3116 -17.3095 -17.3092 -17.3076 -17.3058 -17.3026 -17.3023
   -17.3008 -17.2997 -17.2977 -17.2973 -17.2958 -17.2950 -17.2944 -17.2929
   -17.2921 -17.2918 -17.2914 -17.2903 -17.2897 -17.2889 -17.2883 -17.2878
   -17.2876 -17.2869 -17.2859 -17.2856 -17.2852 -17.2840 -17.2837 -17.2835
   -17.2830 -17.2825 -17.2812 -17.2811 -17.2790 -17.2763 -17.2740 -17.2736
   -17.2726 -17.2723 -17.2713 -17.2705 -17.2696 -17.2668 -17.2615 -17.2603
   -17.2579 -17.2573 -17.2569 -17.2566 -17.2547 -17.2523 -17.2522 -17.2507
   -17.2495 -17.2460 -17.2446 -17.2438 -17.2433 -17.2421 -17.2400 -17.2392
   -17.2391 -17.2379 -17.2372 -17.2356 -17.2322 -17.2322 -17.2223 -17.2207
   -17.2156 -17.2110 -17.1986 -17.1938 -17.1925 -17.1880 -17.1857 -17.1848
   -17.1805 -17.1796 -17.1781 -17.1766 -17.1737 -17.1704 -17.1676  -4.7574
    -4.6720  -4.5244  -4.5038  -4.3242  -4.2827  -4.0645  -4.0595  -3.6059
    -3.5497  -3.4872  -3.3504  -3.2717  -3.1841  -3.1757  -3.0746  -3.0562
    -2.9857  -2.8282  -2.7393  -2.5945  -2.5752  -2.4446  -2.4166  -2.3202
    -2.2172  -1.9239  -1.8919  -1.8388  -1.7654  -1.1652  -1.1220  -0.9554
    -0.9392  -0.3781  -0.3379  -0.2530  -0.2169  -0.0303   0.0289   0.1978
     0.2835   0.2917   0.3248   0.3852   0.4431   0.7529   0.8439   0.8986
     0.9302   1.1432   1.1909   1.2366   1.3035   1.7112   1.7313   2.1197
     2.1345   2.8353   2.8491   2.9493   2.9567   2.9587   2.9637   2.9921
     3.0034   3.0472   3.1430   3.1745   3.1793   3.1847   3.1917   3.2466
     3.2546   3.2573   3.2594   3.4030   3.4158   3.4290   3.4411   3.4530
     3.4588   3.5202   3.5601   3.6351   3.6407   3.6536   3.6573   4.0460
     4.0490   4.0509   4.0542   4.3093   4.3167   4.6464   4.6519   4.7648
     4.7719   4.7742   4.7807   4.7841   4.7873   4.7933   4.7990   5.0581
     5.0650   5.0691   5.0717   5.0968   5.1047   5.1084   5.1176   5.1282
     5.1354   5.6546   5.6641   5.6681   5.6751   5.7048   5.7072   5.7192
     5.7210   6.2255   6.2329   6.2625   6.2704   6.2733   6.2813   8.0249
     8.0974   8.2942   8.3218   8.4052   8.4462   8.4508   8.4651   8.4787
     8.5086   8.5414   8.5714   8.7673   8.7949   9.0653   9.0949   9.2218
     9.2507   9.2597   9.3083   9.3351   9.3516   9.3603   9.3857   9.4039
     9.4195   9.7640   9.7755   9.7857   9.7952   9.8597   9.8841  10.0419
    10.0619  10.2450  10.2810  10.4798  10.4975  10.5133  10.5430  10.5480
    10.5777  10.5888  10.5963  10.7310  10.7816  10.9210  10.9460  11.1541
    11.2349  11.2814  11.2912  11.3746

     occupation numbers 
     1.0000   1.0000   1.0000   1.0000   1.0000   1.0000   1.0000   1.0000
     1.0000   1.0000   1.0000   1.0000   1.0000   1.0000   1.0000   1.0000
     1.0000   1.0000   1.0000   1.0000   1.0000   1.0000   1.0000   1.0000
     1.0000   1.0000   1.0000   1.0000   1.0000   1.0000   1.0000   1.0000
     1.0000   1.0000   1.0000   1.0000   1.0000   1.0000   1.0000   1.0000
     1.0000   1.0000   1.0000   1.0000   1.0000   1.0000   1.0000   1.0000
     1.0000   1.0000   1.0000   1.0000   1.0000   1.0000   1.0000   1.0000
     1.0000   1.0000   1.0000   1.0000   1.0000   1.0000   1.0000   1.0000
     1.0000   1.0000   1.0000   1.0000   1.0000   1.0000   1.0000   1.0000
     1.0000   1.0000   1.0000   1.0000   1.0000   1.0000   1.0000   1.0000
     1.0000   1.0000   1.0000   1.0000   1.0000   1.0000   1.0000   1.0000
     1.0000   1.0000   1.0000   1.0000   1.0000   1.0000   1.0000   1.0000
     1.0000   1.0000   1.0000   1.0000   1.0000   1.0000   1.0000   1.0000
     1.0000   1.0000   1.0000   1.0000   1.0000   1.0000   1.0000   1.0000
     1.0000   1.0000   1.0000   1.0000   1.0000   1.0000   1.0000   1.0000
     1.0000   1.0000   1.0000   1.0000   1.0000   1.0000   1.0000   1.0000
     1.0000   1.0000   1.0000   1.0000   1.0000   1.0000   1.0000   1.0000
     1.0000   1.0000   1.0000   1.0000   1.0000   1.0000   1.0000   1.0000
     1.0000   1.0000   1.0000   1.0000   1.0000   1.0000   1.0000   1.0000
     1.0000   1.0000   1.0000   1.0000   1.0000   1.0000   1.0000   1.0000
     1.0000   1.0000   1.0000   1.0000   1.0000   1.0000   1.0000   1.0000
     1.0000   1.0000   1.0000   1.0000   1.0000   1.0000   1.0000   1.0000
     1.0000   1.0000   1.0000   1.0000   1.0000   1.0000   1.0000   1.0000
     1.0000   1.0000   1.0000   1.0000   1.0000   1.0000   1.0000   1.0000
     1.0000   1.0000   1.0000   1.0000   1.0000   1.0000   1.0000   1.0000
     1.0000   1.0000   1.0000   1.0000   1.0000   1.0000   1.0000   1.0000
     1.0000   1.0000   1.0000   1.0000   1.0000   1.0000   1.0000   1.0000
     1.0000   1.0000   1.0000   1.0000   1.0000   1.0000   1.0000   1.0000
     1.0000   1.0000   1.0000   1.0000   1.0000   1.0000   1.0000   1.0000
     1.0000   1.0000   1.0000   1.0000   1.0000   1.0000   1.0000   1.0000
     1.0000   1.0000   1.0000   1.0000   1.0000   1.0000   1.0000   1.0000
     1.0000   1.0000   1.0000   1.0000   1.0000   1.0000   1.0000   1.0000
     1.0000   1.0000   1.0000   1.0000   1.0000   1.0000   1.0000   0.0000
     0.0000   0.0000   0.0000   0.0000   0.0000   0.0000   0.0000   0.0000
     0.0000   0.0000   0.0000   0.0000   0.0000   0.0000   0.0000   0.0000
     0.0000   0.0000   0.0000   0.0000   0.0000   0.0000   0.0000   0.0000
     0.0000   0.0000   0.0000   0.0000   0.0000   0.0000   0.0000   0.0000
     0.0000   0.0000   0.0000   0.0000   0.0000   0.0000   0.0000   0.0000
     0.0000   0.0000   0.0000   0.0000   0.0000   0.0000   0.0000   0.0000
     0.0000   0.0000   0.0000   0.0000

          k =-0.5303 0.5303-0.1768 ( 32066 PWs)   bands (ev):

   -17.5790 -17.5726 -17.5555 -17.5484 -17.5312 -17.5296 -17.5204 -17.5178
   -17.5164 -17.5108 -17.5077 -17.5003 -17.4956 -17.4889 -17.4690 -17.4629
   -17.4587 -17.4585 -17.4542 -17.4479 -17.4477 -17.4452 -17.4434 -17.4380
   -17.4179 -17.4145 -17.4142 -17.4137 -17.4087 -17.4032 -17.4007 -17.3946
   -17.3891 -17.3830 -17.3770 -17.3767 -17.3703 -17.3684 -17.3680 -17.3604
   -17.3555 -17.3553 -17.3550 -17.3343 -17.3277 -17.3209 -17.3187 -17.3183
   -17.3149 -17.3108 -17.3095 -17.3093 -17.3080 -17.3059 -17.3028 -17.3019
   -17.3010 -17.2999 -17.2983 -17.2972 -17.2961 -17.2950 -17.2947 -17.2933
   -17.2932 -17.2925 -17.2913 -17.2905 -17.2895 -17.2892 -17.2883 -17.2876
   -17.2875 -17.2872 -17.2861 -17.2856 -17.2852 -17.2835 -17.2832 -17.2830
   -17.2827 -17.2826 -17.2815 -17.2814 -17.2787 -17.2764 -17.2736 -17.2735
   -17.2731 -17.2728 -17.2715 -17.2705 -17.2698 -17.2671 -17.2608 -17.2603
   -17.2579 -17.2572 -17.2568 -17.2565 -17.2542 -17.2521 -17.2516 -17.2508
   -17.2498 -17.2457 -17.2449 -17.2437 -17.2434 -17.2422 -17.2397 -17.2394
   -17.2393 -17.2384 -17.2374 -17.2356 -17.2322 -17.2322 -17.2224 -17.2205
   -17.2157 -17.2108 -17.1991 -17.1936 -17.1927 -17.1882 -17.1857 -17.1849
   -17.1804 -17.1798 -17.1777 -17.1771 -17.1738 -17.1704 -17.1673  -4.8864
    -4.6228  -4.5816  -4.3331  -4.1717  -4.1229  -4.0116  -3.9370  -3.9108
    -3.7710  -3.6883  -3.5700  -3.4169  -3.3488  -3.1182  -3.0315  -2.9585
    -2.7940  -2.6711  -2.5481  -2.4963  -2.4349  -2.3981  -2.3625  -2.1969
    -2.1295  -1.9962  -1.9051  -1.8565  -1.7436  -1.7148  -1.5355  -0.5955
    -0.4963  -0.3496  -0.3248  -0.2778  -0.1456  -0.0912  -0.0315   0.0290
     0.1032   0.1337   0.2113   0.2877   0.5649   0.6804   0.7915   0.8865
     0.9137   0.9767   1.4166   1.5083   1.5839   1.8256   2.0681   2.1698
     2.3029   2.3857   2.4041   2.4935   2.7355   2.7874   2.7917   2.7986
     2.8099   2.9487   2.9601   2.9653   2.9725   2.9824   3.0050   3.4535
     3.4769   3.5132   3.5422   3.6268   3.6329   3.6371   3.6396   3.6502
     3.6549   4.0419   4.0490   4.0508   4.0551   4.0650   4.2480   4.2504
     4.2701   4.2753   4.2870   4.3017   4.3148   4.3208   4.4161   4.4183
     4.4242   4.4272   4.5551   4.6405   4.6556   4.7781   4.7925   4.8414
     4.8461   5.0563   5.0613   5.0632   5.0718   5.0793   5.0889   5.1034
     5.1097   5.3892   5.4057   5.4242   5.5389   5.5535   5.5731   5.5857
     5.7017   5.7064   5.7125   5.7192   6.2360   6.2453   6.7519   8.1861
     8.2972   8.3346   8.7506   8.7691   8.8811   8.9123   9.0171   9.0553
     9.0721   9.1068   9.2362   9.2711   9.3353   9.3363   9.3665   9.3709
     9.3880   9.4139   9.4553   9.4869   9.5175   9.6098   9.6485   9.7088
     9.7399   9.7540   9.7839   9.7881   9.8068   9.8243   9.8484   9.8661
     9.9215   9.9511   9.9804  10.1616  10.2107  10.2300  10.2434  10.2711
    10.3279  10.3991  10.4378  10.4563  10.4620  10.4863  10.5172  10.5371
    10.5782  10.6051  10.6345  10.7488

     occupation numbers 
     1.0000   1.0000   1.0000   1.0000   1.0000   1.0000   1.0000   1.0000
     1.0000   1.0000   1.0000   1.0000   1.0000   1.0000   1.0000   1.0000
     1.0000   1.0000   1.0000   1.0000   1.0000   1.0000   1.0000   1.0000
     1.0000   1.0000   1.0000   1.0000   1.0000   1.0000   1.0000   1.0000
     1.0000   1.0000   1.0000   1.0000   1.0000   1.0000   1.0000   1.0000
     1.0000   1.0000   1.0000   1.0000   1.0000   1.0000   1.0000   1.0000
     1.0000   1.0000   1.0000   1.0000   1.0000   1.0000   1.0000   1.0000
     1.0000   1.0000   1.0000   1.0000   1.0000   1.0000   1.0000   1.0000
     1.0000   1.0000   1.0000   1.0000   1.0000   1.0000   1.0000   1.0000
     1.0000   1.0000   1.0000   1.0000   1.0000   1.0000   1.0000   1.0000
     1.0000   1.0000   1.0000   1.0000   1.0000   1.0000   1.0000   1.0000
     1.0000   1.0000   1.0000   1.0000   1.0000   1.0000   1.0000   1.0000
     1.0000   1.0000   1.0000   1.0000   1.0000   1.0000   1.0000   1.0000
     1.0000   1.0000   1.0000   1.0000   1.0000   1.0000   1.0000   1.0000
     1.0000   1.0000   1.0000   1.0000   1.0000   1.0000   1.0000   1.0000
     1.0000   1.0000   1.0000   1.0000   1.0000   1.0000   1.0000   1.0000
     1.0000   1.0000   1.0000   1.0000   1.0000   1.0000   1.0000   1.0000
     1.0000   1.0000   1.0000   1.0000   1.0000   1.0000   1.0000   1.0000
     1.0000   1.0000   1.0000   1.0000   1.0000   1.0000   1.0000   1.0000
     1.0000   1.0000   1.0000   1.0000   1.0000   1.0000   1.0000   1.0000
     1.0000   1.0000   1.0000   1.0000   1.0000   1.0000   1.0000   1.0000
     1.0000   1.0000   1.0000   1.0000   1.0000   1.0000   1.0000   1.0000
     1.0000   1.0000   1.0000   1.0000   1.0000   1.0000   1.0000   1.0000
     1.0000   1.0000   1.0000   1.0000   1.0000   1.0000   1.0000   1.0000
     1.0000   1.0000   1.0000   1.0000   1.0000   1.0000   1.0000   1.0000
     1.0000   1.0000   1.0000   1.0000   1.0000   1.0000   1.0000   1.0000
     1.0000   1.0000   1.0000   1.0000   1.0000   1.0000   1.0000   1.0000
     1.0000   1.0000   1.0000   1.0000   1.0000   1.0000   1.0000   1.0000
     1.0000   1.0000   1.0000   1.0000   1.0000   1.0000   1.0000   1.0000
     1.0000   1.0000   1.0000   1.0000   1.0000   1.0000   1.0000   1.0000
     1.0000   1.0000   1.0000   1.0000   1.0000   1.0000   1.0000   1.0000
     1.0000   1.0000   1.0000   1.0000   1.0000   1.0000   1.0000   1.0000
     1.0000   1.0000   1.0000   1.0000   1.0000   1.0000   0.9999   0.0000
     0.0000   0.0000   0.0000   0.0000   0.0000   0.0000   0.0000   0.0000
     0.0000   0.0000   0.0000   0.0000   0.0000   0.0000   0.0000   0.0000
     0.0000   0.0000   0.0000   0.0000   0.0000   0.0000   0.0000   0.0000
     0.0000   0.0000   0.0000   0.0000   0.0000   0.0000   0.0000   0.0000
     0.0000   0.0000   0.0000   0.0000   0.0000   0.0000   0.0000   0.0000
     0.0000   0.0000   0.0000   0.0000   0.0000   0.0000   0.0000   0.0000
     0.0000   0.0000   0.0000   0.0000

          k = 0.1768-0.1768-0.1768 ( 32087 PWs)   bands (ev):

   -17.5759 -17.5664 -17.5518 -17.5490 -17.5301 -17.5291 -17.5192 -17.5177
   -17.5160 -17.5119 -17.5076 -17.5034 -17.4955 -17.4891 -17.4752 -17.4633
   -17.4599 -17.4586 -17.4564 -17.4542 -17.4479 -17.4461 -17.4437 -17.4435
   -17.4181 -17.4151 -17.4145 -17.4131 -17.4126 -17.4097 -17.4006 -17.3990
   -17.3897 -17.3812 -17.3771 -17.3765 -17.3691 -17.3685 -17.3645 -17.3604
   -17.3555 -17.3551 -17.3539 -17.3277 -17.3261 -17.3226 -17.3178 -17.3169
   -17.3168 -17.3096 -17.3093 -17.3090 -17.3059 -17.3049 -17.3027 -17.3027
   -17.3012 -17.2976 -17.2967 -17.2960 -17.2956 -17.2947 -17.2939 -17.2933
   -17.2924 -17.2916 -17.2903 -17.2901 -17.2897 -17.2895 -17.2889 -17.2882
   -17.2877 -17.2873 -17.2863 -17.2859 -17.2851 -17.2843 -17.2836 -17.2832
   -17.2829 -17.2824 -17.2819 -17.2817 -17.2762 -17.2745 -17.2739 -17.2734
   -17.2733 -17.2719 -17.2714 -17.2701 -17.2698 -17.2654 -17.2602 -17.2590
   -17.2576 -17.2572 -17.2567 -17.2566 -17.2545 -17.2520 -17.2517 -17.2501
   -17.2483 -17.2456 -17.2455 -17.2438 -17.2435 -17.2407 -17.2406 -17.2402
   -17.2387 -17.2384 -17.2380 -17.2359 -17.2323 -17.2322 -17.2264 -17.2200
   -17.2159 -17.2076 -17.2002 -17.1985 -17.1935 -17.1886 -17.1864 -17.1857
   -17.1814 -17.1805 -17.1789 -17.1773 -17.1766 -17.1704 -17.1669  -5.2279
    -4.9895  -4.8225  -4.5554  -4.1363  -3.9143  -3.7779  -3.6751  -3.5582
    -3.3939  -3.3022  -3.2229  -3.1560  -3.1208  -3.0735  -2.9951  -2.9080
    -2.8598  -2.8158  -2.7658  -2.6575  -2.4575  -2.4009  -2.2962  -2.1639
    -2.0194  -1.9286  -1.8243  -1.7980  -1.5217  -1.2196  -1.1476  -1.0654
    -1.0020  -0.6933  -0.4393  -0.3969  -0.1949  -0.1355  -0.1158  -0.0901
    -0.0263   0.0466   0.0807   0.1181   0.1253   0.3577   0.4084   0.4344
     0.5009   0.6584   0.7078   0.8168   0.9188   0.9387   0.9634   1.4502
     1.4933   1.7307   2.1383   2.7368   2.9561   2.9601   2.9913   3.4533
     3.4797   3.5187   3.5633   3.5638   3.5691   3.5878   3.5891   3.5934
     3.5961   3.6229   3.6254   3.6558   3.6613   4.0419   4.0503   4.0535
     4.2456   4.2473   4.2921   4.2960   4.2981   4.3090   4.3742   4.3768
     4.4478   4.4544   4.4632   4.4777   4.5558   4.6157   4.6284   4.6389
     4.6489   4.7852   4.8433   4.8448   5.0558   5.0646   5.0739   5.0890
     5.1018   5.2207   5.3842   5.3949   5.3966   5.4120   5.4254   5.4342
     5.4449   5.6927   5.7077   5.7195   5.7239   5.7313   5.7478   5.9099
     5.9109   6.2144   6.2411   6.2714   6.7309   6.7752   6.8025   7.5836
     7.8544   7.8997   7.9208   8.0650   8.1788   8.3185   8.5517   8.7336
     8.7860   8.8165   8.8384   8.8585   8.8720   8.8894   8.9127   8.9262
     8.9447   8.9635   8.9716   8.9960   9.0037   9.0268   9.0438   9.0527
     9.0806   9.1003   9.1195   9.1565   9.1686   9.3319   9.3797   9.3954
     9.5435   9.6359   9.6462   9.7761   9.7955   9.8262   9.8483   9.8908
    10.0032  10.0346  10.1519  10.2157  10.2438  10.2695  10.3262  10.3879
    10.4357  10.4721  10.4825  10.5067

     occupation numbers 
     1.0000   1.0000   1.0000   1.0000   1.0000   1.0000   1.0000   1.0000
     1.0000   1.0000   1.0000   1.0000   1.0000   1.0000   1.0000   1.0000
     1.0000   1.0000   1.0000   1.0000   1.0000   1.0000   1.0000   1.0000
     1.0000   1.0000   1.0000   1.0000   1.0000   1.0000   1.0000   1.0000
     1.0000   1.0000   1.0000   1.0000   1.0000   1.0000   1.0000   1.0000
     1.0000   1.0000   1.0000   1.0000   1.0000   1.0000   1.0000   1.0000
     1.0000   1.0000   1.0000   1.0000   1.0000   1.0000   1.0000   1.0000
     1.0000   1.0000   1.0000   1.0000   1.0000   1.0000   1.0000   1.0000
     1.0000   1.0000   1.0000   1.0000   1.0000   1.0000   1.0000   1.0000
     1.0000   1.0000   1.0000   1.0000   1.0000   1.0000   1.0000   1.0000
     1.0000   1.0000   1.0000   1.0000   1.0000   1.0000   1.0000   1.0000
     1.0000   1.0000   1.0000   1.0000   1.0000   1.0000   1.0000   1.0000
     1.0000   1.0000   1.0000   1.0000   1.0000   1.0000   1.0000   1.0000
     1.0000   1.0000   1.0000   1.0000   1.0000   1.0000   1.0000   1.0000
     1.0000   1.0000   1.0000   1.0000   1.0000   1.0000   1.0000   1.0000
     1.0000   1.0000   1.0000   1.0000   1.0000   1.0000   1.0000   1.0000
     1.0000   1.0000   1.0000   1.0000   1.0000   1.0000   1.0000   1.0000
     1.0000   1.0000   1.0000   1.0000   1.0000   1.0000   1.0000   1.0000
     1.0000   1.0000   1.0000   1.0000   1.0000   1.0000   1.0000   1.0000
     1.0000   1.0000   1.0000   1.0000   1.0000   1.0000   1.0000   1.0000
     1.0000   1.0000   1.0000   1.0000   1.0000   1.0000   1.0000   1.0000
     1.0000   1.0000   1.0000   1.0000   1.0000   1.0000   1.0000   1.0000
     1.0000   1.0000   1.0000   1.0000   1.0000   1.0000   1.0000   1.0000
     1.0000   1.0000   1.0000   1.0000   1.0000   1.0000   1.0000   1.0000
     1.0000   1.0000   1.0000   1.0000   1.0000   1.0000   1.0000   1.0000
     1.0000   1.0000   1.0000   1.0000   1.0000   1.0000   1.0000   1.0000
     1.0000   1.0000   1.0000   1.0000   1.0000   1.0000   1.0000   1.0000
     1.0000   1.0000   1.0000   1.0000   1.0000   1.0000   1.0000   1.0000
     1.0000   1.0000   1.0000   1.0000   1.0000   1.0000   1.0000   1.0000
     1.0000   1.0000   1.0000   1.0000   1.0000   1.0000   1.0000   1.0000
     1.0000   1.0000   1.0000   1.0000   1.0000   1.0000   1.0000   1.0000
     1.0000   1.0000   1.0000   1.0000   1.0000   1.0000   1.0000   1.0000
     1.0000   1.0000   1.0000   1.0000   1.0000   0.9999   0.9998   0.0281
     0.0001   0.0000   0.0000   0.0000   0.0000   0.0000   0.0000   0.0000
     0.0000   0.0000   0.0000   0.0000   0.0000   0.0000   0.0000   0.0000
     0.0000   0.0000   0.0000   0.0000   0.0000   0.0000   0.0000   0.0000
     0.0000   0.0000   0.0000   0.0000   0.0000   0.0000   0.0000   0.0000
     0.0000   0.0000   0.0000   0.0000   0.0000   0.0000   0.0000   0.0000
     0.0000   0.0000   0.0000   0.0000   0.0000   0.0000   0.0000   0.0000
     0.0000   0.0000   0.0000   0.0000

          k = 0.1768 0.1768 0.1768 ( 32087 PWs)   bands (ev):

   -17.5774 -17.5696 -17.5539 -17.5483 -17.5303 -17.5291 -17.5199 -17.5174
   -17.5163 -17.5112 -17.5076 -17.5017 -17.4958 -17.4890 -17.4716 -17.4631
   -17.4594 -17.4585 -17.4542 -17.4527 -17.4479 -17.4458 -17.4436 -17.4415
   -17.4176 -17.4150 -17.4146 -17.4134 -17.4096 -17.4091 -17.4007 -17.3984
   -17.3900 -17.3807 -17.3770 -17.3764 -17.3691 -17.3685 -17.3665 -17.3604
   -17.3555 -17.3551 -17.3539 -17.3321 -17.3258 -17.3227 -17.3183 -17.3170
   -17.3143 -17.3096 -17.3094 -17.3092 -17.3062 -17.3059 -17.3025 -17.3021
   -17.3010 -17.2991 -17.2983 -17.2962 -17.2951 -17.2948 -17.2945 -17.2932
   -17.2929 -17.2918 -17.2912 -17.2905 -17.2899 -17.2890 -17.2886 -17.2880
   -17.2878 -17.2874 -17.2860 -17.2859 -17.2853 -17.2838 -17.2834 -17.2832
   -17.2828 -17.2824 -17.2823 -17.2819 -17.2767 -17.2760 -17.2739 -17.2735
   -17.2735 -17.2733 -17.2714 -17.2700 -17.2698 -17.2664 -17.2603 -17.2598
   -17.2576 -17.2571 -17.2567 -17.2562 -17.2547 -17.2521 -17.2516 -17.2508
   -17.2495 -17.2460 -17.2457 -17.2437 -17.2434 -17.2417 -17.2404 -17.2400
   -17.2393 -17.2390 -17.2379 -17.2358 -17.2323 -17.2322 -17.2245 -17.2201
   -17.2160 -17.2100 -17.1998 -17.1945 -17.1935 -17.1888 -17.1859 -17.1851
   -17.1803 -17.1799 -17.1792 -17.1772 -17.1748 -17.1700 -17.1670  -5.2238
    -4.9909  -4.8175  -4.5572  -4.0966  -3.9104  -3.8086  -3.6353  -3.5756
    -3.4450  -3.3753  -3.2702  -3.2144  -3.1423  -3.0463  -2.9361  -2.9102
    -2.8554  -2.7979  -2.7356  -2.6002  -2.4537  -2.3577  -2.2987  -2.0974
    -2.0501  -1.9138  -1.8653  -1.7589  -1.5728  -1.2169  -1.1424  -1.1140
    -0.9586  -0.6269  -0.4472  -0.3148  -0.2647  -0.2209  -0.1339  -0.1081
    -0.0334   0.0276   0.0707   0.1161   0.1668   0.3204   0.3906   0.4495
     0.4982   0.6389   0.7186   0.8116   0.9044   0.9680   1.0046   1.4400
     1.5156   1.7451   2.1278   2.7376   2.9509   2.9650   2.9934   3.4517
     3.4747   3.5232   3.5643   3.5670   3.5718   3.5858   3.5924   3.5943
     3.5972   3.6197   3.6224   3.6579   3.6599   4.0456   4.0485   4.0550
     4.2473   4.2483   4.2910   4.2924   4.3006   4.3089   4.3751   4.3775
     4.4493   4.4514   4.4655   4.4741   4.5559   4.6168   4.6193   4.6443
     4.6548   4.7842   4.8405   4.8464   5.0605   5.0668   5.0739   5.0883
     5.1011   5.2243   5.3844   5.3921   5.3956   5.4145   5.4182   5.4296
     5.4508   5.6908   5.7071   5.7185   5.7195   5.7404   5.7459   5.9100
     5.9119   6.2108   6.2433   6.2695   6.7299   6.7745   6.7974   7.5825
     7.8663   7.8697   7.9460   8.0831   8.1893   8.3192   8.5541   8.7387
     8.7792   8.7950   8.8227   8.8526   8.8750   8.8818   8.9064   8.9202
     8.9376   8.9560   8.9785   8.9873   8.9991   9.0208   9.0362   9.0548
     9.0718   9.1055   9.1402   9.1562   9.2006   9.3326   9.3738   9.4064
     9.5535   9.6088   9.6669   9.7388   9.7889   9.8309   9.8647   9.9342
    10.0188  10.0255  10.1617  10.2059  10.2266  10.2611  10.3413  10.3937
    10.4269  10.4427  10.4782  10.5041

     occupation numbers 
     1.0000   1.0000   1.0000   1.0000   1.0000   1.0000   1.0000   1.0000
     1.0000   1.0000   1.0000   1.0000   1.0000   1.0000   1.0000   1.0000
     1.0000   1.0000   1.0000   1.0000   1.0000   1.0000   1.0000   1.0000
     1.0000   1.0000   1.0000   1.0000   1.0000   1.0000   1.0000   1.0000
     1.0000   1.0000   1.0000   1.0000   1.0000   1.0000   1.0000   1.0000
     1.0000   1.0000   1.0000   1.0000   1.0000   1.0000   1.0000   1.0000
     1.0000   1.0000   1.0000   1.0000   1.0000   1.0000   1.0000   1.0000
     1.0000   1.0000   1.0000   1.0000   1.0000   1.0000   1.0000   1.0000
     1.0000   1.0000   1.0000   1.0000   1.0000   1.0000   1.0000   1.0000
     1.0000   1.0000   1.0000   1.0000   1.0000   1.0000   1.0000   1.0000
     1.0000   1.0000   1.0000   1.0000   1.0000   1.0000   1.0000   1.0000
     1.0000   1.0000   1.0000   1.0000   1.0000   1.0000   1.0000   1.0000
     1.0000   1.0000   1.0000   1.0000   1.0000   1.0000   1.0000   1.0000
     1.0000   1.0000   1.0000   1.0000   1.0000   1.0000   1.0000   1.0000
     1.0000   1.0000   1.0000   1.0000   1.0000   1.0000   1.0000   1.0000
     1.0000   1.0000   1.0000   1.0000   1.0000   1.0000   1.0000   1.0000
     1.0000   1.0000   1.0000   1.0000   1.0000   1.0000   1.0000   1.0000
     1.0000   1.0000   1.0000   1.0000   1.0000   1.0000   1.0000   1.0000
     1.0000   1.0000   1.0000   1.0000   1.0000   1.0000   1.0000   1.0000
     1.0000   1.0000   1.0000   1.0000   1.0000   1.0000   1.0000   1.0000
     1.0000   1.0000   1.0000   1.0000   1.0000   1.0000   1.0000   1.0000
     1.0000   1.0000   1.0000   1.0000   1.0000   1.0000   1.0000   1.0000
     1.0000   1.0000   1.0000   1.0000   1.0000   1.0000   1.0000   1.0000
     1.0000   1.0000   1.0000   1.0000   1.0000   1.0000   1.0000   1.0000
     1.0000   1.0000   1.0000   1.0000   1.0000   1.0000   1.0000   1.0000
     1.0000   1.0000   1.0000   1.0000   1.0000   1.0000   1.0000   1.0000
     1.0000   1.0000   1.0000   1.0000   1.0000   1.0000   1.0000   1.0000
     1.0000   1.0000   1.0000   1.0000   1.0000   1.0000   1.0000   1.0000
     1.0000   1.0000   1.0000   1.0000   1.0000   1.0000   1.0000   1.0000
     1.0000   1.0000   1.0000   1.0000   1.0000   1.0000   1.0000   1.0000
     1.0000   1.0000   1.0000   1.0000   1.0000   1.0000   1.0000   1.0000
     1.0000   1.0000   1.0000   1.0000   1.0000   1.0000   1.0000   1.0000
     1.0000   1.0000   1.0000   1.0000   1.0000   0.9999   0.9998   0.0286
     0.0001   0.0000   0.0000   0.0000   0.0000   0.0000   0.0000   0.0000
     0.0000   0.0000   0.0000   0.0000   0.0000   0.0000   0.0000   0.0000
     0.0000   0.0000   0.0000   0.0000   0.0000   0.0000   0.0000   0.0000
     0.0000   0.0000   0.0000   0.0000   0.0000   0.0000   0.0000   0.0000
     0.0000   0.0000   0.0000   0.0000   0.0000   0.0000   0.0000   0.0000
     0.0000   0.0000   0.0000   0.0000   0.0000   0.0000   0.0000   0.0000
     0.0000   0.0000   0.0000   0.0000

          k =-0.3536 0.3536 0.3536 ( 32056 PWs)   bands (ev):

   -17.5759 -17.5664 -17.5518 -17.5496 -17.5307 -17.5292 -17.5191 -17.5181
   -17.5160 -17.5120 -17.5080 -17.5031 -17.4954 -17.4889 -17.4749 -17.4624
   -17.4601 -17.4585 -17.4561 -17.4541 -17.4476 -17.4458 -17.4435 -17.4433
   -17.4177 -17.4149 -17.4138 -17.4128 -17.4125 -17.4093 -17.4000 -17.3985
   -17.3890 -17.3809 -17.3770 -17.3756 -17.3690 -17.3683 -17.3646 -17.3602
   -17.3554 -17.3551 -17.3545 -17.3271 -17.3258 -17.3236 -17.3190 -17.3182
   -17.3175 -17.3102 -17.3095 -17.3092 -17.3053 -17.3052 -17.3032 -17.3026
   -17.3003 -17.2976 -17.2971 -17.2965 -17.2963 -17.2962 -17.2935 -17.2935
   -17.2923 -17.2915 -17.2904 -17.2899 -17.2896 -17.2890 -17.2888 -17.2878
   -17.2873 -17.2868 -17.2864 -17.2857 -17.2853 -17.2841 -17.2836 -17.2830
   -17.2823 -17.2817 -17.2815 -17.2813 -17.2763 -17.2747 -17.2738 -17.2730
   -17.2726 -17.2717 -17.2717 -17.2703 -17.2694 -17.2649 -17.2599 -17.2587
   -17.2578 -17.2572 -17.2567 -17.2566 -17.2539 -17.2516 -17.2512 -17.2497
   -17.2477 -17.2451 -17.2448 -17.2437 -17.2435 -17.2407 -17.2402 -17.2399
   -17.2381 -17.2376 -17.2374 -17.2355 -17.2323 -17.2321 -17.2258 -17.2195
   -17.2154 -17.2079 -17.1999 -17.1983 -17.1932 -17.1883 -17.1864 -17.1856
   -17.1813 -17.1811 -17.1789 -17.1779 -17.1773 -17.1714 -17.1669  -4.8456
    -4.6235  -4.5720  -4.4547  -4.3398  -4.2165  -4.0918  -3.9392  -3.6951
    -3.4801  -3.4185  -3.3999  -3.3114  -3.1940  -3.1376  -3.1206  -3.0674
    -2.9905  -2.8474  -2.7889  -2.6336  -2.5641  -2.4890  -2.3723  -2.3077
    -2.1734  -2.0296  -1.8713  -1.7695  -1.7368  -1.1594  -1.0770  -0.9936
    -0.9381  -0.4854  -0.4352  -0.1672  -0.1576  -0.0815   0.0785   0.2050
     0.2691   0.3135   0.3367   0.4072   0.4425   0.7889   0.8582   0.9089
     0.9220   1.1228   1.1886   1.2432   1.3175   1.6308   1.7835   2.0333
     2.2032   2.7951   2.8894   2.9455   2.9491   2.9645   2.9713   2.9834
     2.9935   3.0416   3.1595   3.1751   3.1790   3.1833   3.1917   3.2474
     3.2506   3.2565   3.2600   3.4109   3.4179   3.4298   3.4372   3.4525
     3.4619   3.4898   3.5796   3.6289   3.6412   3.6503   3.6631   4.0449
     4.0484   4.0516   4.0571   4.2951   4.3287   4.6314   4.6670   4.7659
     4.7722   4.7745   4.7770   4.7852   4.7880   4.7887   4.8084   5.0619
     5.0639   5.0676   5.0748   5.0891   5.1054   5.1099   5.1203   5.1281
     5.1329   5.6476   5.6625   5.6669   5.6799   5.6875   5.7016   5.7233
     5.7409   6.2059   6.2359   6.2400   6.2577   6.2977   6.3147   8.0386
     8.0868   8.2648   8.3328   8.3717   8.4148   8.4684   8.4773   8.4968
     8.5221   8.5682   8.5771   8.7306   8.8508   9.0507   9.1131   9.2276
     9.2425   9.2865   9.3013   9.3242   9.3403   9.3493   9.3642   9.4107
     9.4308   9.7451   9.7549   9.8144   9.8237   9.8566   9.8901  10.0508
    10.0514  10.2466  10.2775  10.4650  10.4956  10.5049  10.5242  10.5291
    10.5512  10.6228  10.6586  10.6800  10.8163  10.8649  11.0061  11.1641
    11.2083  11.2717  11.3210  11.3746

     occupation numbers 
     1.0000   1.0000   1.0000   1.0000   1.0000   1.0000   1.0000   1.0000
     1.0000   1.0000   1.0000   1.0000   1.0000   1.0000   1.0000   1.0000
     1.0000   1.0000   1.0000   1.0000   1.0000   1.0000   1.0000   1.0000
     1.0000   1.0000   1.0000   1.0000   1.0000   1.0000   1.0000   1.0000
     1.0000   1.0000   1.0000   1.0000   1.0000   1.0000   1.0000   1.0000
     1.0000   1.0000   1.0000   1.0000   1.0000   1.0000   1.0000   1.0000
     1.0000   1.0000   1.0000   1.0000   1.0000   1.0000   1.0000   1.0000
     1.0000   1.0000   1.0000   1.0000   1.0000   1.0000   1.0000   1.0000
     1.0000   1.0000   1.0000   1.0000   1.0000   1.0000   1.0000   1.0000
     1.0000   1.0000   1.0000   1.0000   1.0000   1.0000   1.0000   1.0000
     1.0000   1.0000   1.0000   1.0000   1.0000   1.0000   1.0000   1.0000
     1.0000   1.0000   1.0000   1.0000   1.0000   1.0000   1.0000   1.0000
     1.0000   1.0000   1.0000   1.0000   1.0000   1.0000   1.0000   1.0000
     1.0000   1.0000   1.0000   1.0000   1.0000   1.0000   1.0000   1.0000
     1.0000   1.0000   1.0000   1.0000   1.0000   1.0000   1.0000   1.0000
     1.0000   1.0000   1.0000   1.0000   1.0000   1.0000   1.0000   1.0000
     1.0000   1.0000   1.0000   1.0000   1.0000   1.0000   1.0000   1.0000
     1.0000   1.0000   1.0000   1.0000   1.0000   1.0000   1.0000   1.0000
     1.0000   1.0000   1.0000   1.0000   1.0000   1.0000   1.0000   1.0000
     1.0000   1.0000   1.0000   1.0000   1.0000   1.0000   1.0000   1.0000
     1.0000   1.0000   1.0000   1.0000   1.0000   1.0000   1.0000   1.0000
     1.0000   1.0000   1.0000   1.0000   1.0000   1.0000   1.0000   1.0000
     1.0000   1.0000   1.0000   1.0000   1.0000   1.0000   1.0000   1.0000
     1.0000   1.0000   1.0000   1.0000   1.0000   1.0000   1.0000   1.0000
     1.0000   1.0000   1.0000   1.0000   1.0000   1.0000   1.0000   1.0000
     1.0000   1.0000   1.0000   1.0000   1.0000   1.0000   1.0000   1.0000
     1.0000   1.0000   1.0000   1.0000   1.0000   1.0000   1.0000   1.0000
     1.0000   1.0000   1.0000   1.0000   1.0000   1.0000   1.0000   1.0000
     1.0000   1.0000   1.0000   1.0000   1.0000   1.0000   1.0000   1.0000
     1.0000   1.0000   1.0000   1.0000   1.0000   1.0000   1.0000   1.0000
     1.0000   1.0000   1.0000   1.0000   1.0000   1.0000   1.0000   1.0000
     1.0000   1.0000   1.0000   1.0000   1.0000   1.0000   1.0000   1.0000
     1.0000   1.0000   1.0000   1.0000   1.0000   1.0000   1.0000   0.0000
     0.0000   0.0000   0.0000   0.0000   0.0000   0.0000   0.0000   0.0000
     0.0000   0.0000   0.0000   0.0000   0.0000   0.0000   0.0000   0.0000
     0.0000   0.0000   0.0000   0.0000   0.0000   0.0000   0.0000   0.0000
     0.0000   0.0000   0.0000   0.0000   0.0000   0.0000   0.0000   0.0000
     0.0000   0.0000   0.0000   0.0000   0.0000   0.0000   0.0000   0.0000
     0.0000   0.0000   0.0000   0.0000   0.0000   0.0000   0.0000   0.0000
     0.0000   0.0000   0.0000   0.0000

          k =-0.3536-0.3536-0.3536 ( 32056 PWs)   bands (ev):

   -17.5790 -17.5726 -17.5553 -17.5483 -17.5309 -17.5292 -17.5204 -17.5173
   -17.5168 -17.5111 -17.5079 -17.5001 -17.4961 -17.4890 -17.4694 -17.4626
   -17.4589 -17.4585 -17.4543 -17.4478 -17.4476 -17.4452 -17.4433 -17.4380
   -17.4179 -17.4147 -17.4140 -17.4137 -17.4091 -17.4032 -17.4002 -17.3945
   -17.3893 -17.3823 -17.3769 -17.3764 -17.3704 -17.3683 -17.3679 -17.3602
   -17.3554 -17.3550 -17.3545 -17.3342 -17.3276 -17.3220 -17.3189 -17.3178
   -17.3150 -17.3107 -17.3094 -17.3093 -17.3078 -17.3056 -17.3029 -17.3015
   -17.3011 -17.2995 -17.2987 -17.2976 -17.2964 -17.2963 -17.2953 -17.2936
   -17.2928 -17.2918 -17.2915 -17.2906 -17.2897 -17.2889 -17.2883 -17.2876
   -17.2875 -17.2871 -17.2861 -17.2856 -17.2854 -17.2834 -17.2832 -17.2827
   -17.2824 -17.2823 -17.2817 -17.2813 -17.2784 -17.2761 -17.2738 -17.2734
   -17.2733 -17.2728 -17.2716 -17.2705 -17.2701 -17.2672 -17.2602 -17.2602
   -17.2578 -17.2571 -17.2567 -17.2562 -17.2539 -17.2518 -17.2510 -17.2507
   -17.2501 -17.2453 -17.2450 -17.2435 -17.2433 -17.2423 -17.2400 -17.2399
   -17.2394 -17.2379 -17.2373 -17.2355 -17.2322 -17.2321 -17.2223 -17.2203
   -17.2157 -17.2104 -17.1995 -17.1932 -17.1928 -17.1883 -17.1856 -17.1849
   -17.1808 -17.1793 -17.1776 -17.1773 -17.1739 -17.1703 -17.1671  -4.7829
    -4.6830  -4.5874  -4.3918  -4.3683  -4.1521  -4.0671  -4.0195  -3.6864
    -3.5787  -3.4715  -3.4150  -3.3651  -3.2307  -3.1582  -3.1271  -3.0200
    -2.9439  -2.8262  -2.7723  -2.6317  -2.4659  -2.4343  -2.3739  -2.3032
    -2.2017  -1.9425  -1.8528  -1.8400  -1.7024  -1.1736  -1.0701  -1.0401
    -0.8707  -0.4598  -0.3326  -0.3171  -0.1694  -0.0659   0.0001   0.1559
     0.2428   0.2792   0.3470   0.3796   0.5017   0.7011   0.8684   0.9387
     0.9488   1.1407   1.1995   1.2332   1.3208   1.7018   1.7516   2.0746
     2.1729   2.8187   2.8561   2.9392   2.9587   2.9603   2.9675   2.9820
     2.9970   3.0830   3.1510   3.1707   3.1840   3.1867   3.1874   3.2486
     3.2526   3.2547   3.2599   3.4172   3.4205   3.4328   3.4441   3.4461
     3.4618   3.4902   3.5798   3.6312   3.6387   3.6516   3.6589   4.0428
     4.0465   4.0538   4.0550   4.3040   4.3230   4.6376   4.6571   4.7589
     4.7684   4.7719   4.7785   4.7828   4.7886   4.7985   4.8053   5.0576
     5.0651   5.0695   5.0772   5.0921   5.1067   5.1088   5.1110   5.1304
     5.1371   5.6524   5.6630   5.6695   5.6818   5.6888   5.6988   5.7253
     5.7301   6.2160   6.2407   6.2593   6.2677   6.2753   6.2868   8.0320
     8.0973   8.2929   8.3109   8.4143   8.4285   8.4519   8.4608   8.4757
     8.5278   8.5400   8.5988   8.7602   8.8052   9.0497   9.1168   9.2158
     9.2621   9.2843   9.2978   9.3119   9.3380   9.3546   9.3656   9.4225
     9.4370   9.7436   9.7800   9.7931   9.8363   9.8608   9.8855  10.0453
    10.0578  10.2423  10.2687  10.4267  10.4831  10.5036  10.5291  10.5716
    10.5780  10.5960  10.6063  10.7195  10.7979  10.9014  10.9638  11.1826
    11.1899  11.2747  11.3015  11.3633

     occupation numbers 
     1.0000   1.0000   1.0000   1.0000   1.0000   1.0000   1.0000   1.0000
     1.0000   1.0000   1.0000   1.0000   1.0000   1.0000   1.0000   1.0000
     1.0000   1.0000   1.0000   1.0000   1.0000   1.0000   1.0000   1.0000
     1.0000   1.0000   1.0000   1.0000   1.0000   1.0000   1.0000   1.0000
     1.0000   1.0000   1.0000   1.0000   1.0000   1.0000   1.0000   1.0000
     1.0000   1.0000   1.0000   1.0000   1.0000   1.0000   1.0000   1.0000
     1.0000   1.0000   1.0000   1.0000   1.0000   1.0000   1.0000   1.0000
     1.0000   1.0000   1.0000   1.0000   1.0000   1.0000   1.0000   1.0000
     1.0000   1.0000   1.0000   1.0000   1.0000   1.0000   1.0000   1.0000
     1.0000   1.0000   1.0000   1.0000   1.0000   1.0000   1.0000   1.0000
     1.0000   1.0000   1.0000   1.0000   1.0000   1.0000   1.0000   1.0000
     1.0000   1.0000   1.0000   1.0000   1.0000   1.0000   1.0000   1.0000
     1.0000   1.0000   1.0000   1.0000   1.0000   1.0000   1.0000   1.0000
     1.0000   1.0000   1.0000   1.0000   1.0000   1.0000   1.0000   1.0000
     1.0000   1.0000   1.0000   1.0000   1.0000   1.0000   1.0000   1.0000
     1.0000   1.0000   1.0000   1.0000   1.0000   1.0000   1.0000   1.0000
     1.0000   1.0000   1.0000   1.0000   1.0000   1.0000   1.0000   1.0000
     1.0000   1.0000   1.0000   1.0000   1.0000   1.0000   1.0000   1.0000
     1.0000   1.0000   1.0000   1.0000   1.0000   1.0000   1.0000   1.0000
     1.0000   1.0000   1.0000   1.0000   1.0000   1.0000   1.0000   1.0000
     1.0000   1.0000   1.0000   1.0000   1.0000   1.0000   1.0000   1.0000
     1.0000   1.0000   1.0000   1.0000   1.0000   1.0000   1.0000   1.0000
     1.0000   1.0000   1.0000   1.0000   1.0000   1.0000   1.0000   1.0000
     1.0000   1.0000   1.0000   1.0000   1.0000   1.0000   1.0000   1.0000
     1.0000   1.0000   1.0000   1.0000   1.0000   1.0000   1.0000   1.0000
     1.0000   1.0000   1.0000   1.0000   1.0000   1.0000   1.0000   1.0000
     1.0000   1.0000   1.0000   1.0000   1.0000   1.0000   1.0000   1.0000
     1.0000   1.0000   1.0000   1.0000   1.0000   1.0000   1.0000   1.0000
     1.0000   1.0000   1.0000   1.0000   1.0000   1.0000   1.0000   1.0000
     1.0000   1.0000   1.0000   1.0000   1.0000   1.0000   1.0000   1.0000
     1.0000   1.0000   1.0000   1.0000   1.0000   1.0000   1.0000   1.0000
     1.0000   1.0000   1.0000   1.0000   1.0000   1.0000   1.0000   1.0000
     1.0000   1.0000   1.0000   1.0000   1.0000   1.0000   1.0000   0.0000
     0.0000   0.0000   0.0000   0.0000   0.0000   0.0000   0.0000   0.0000
     0.0000   0.0000   0.0000   0.0000   0.0000   0.0000   0.0000   0.0000
     0.0000   0.0000   0.0000   0.0000   0.0000   0.0000   0.0000   0.0000
     0.0000   0.0000   0.0000   0.0000   0.0000   0.0000   0.0000   0.0000
     0.0000   0.0000   0.0000   0.0000   0.0000   0.0000   0.0000   0.0000
     0.0000   0.0000   0.0000   0.0000   0.0000   0.0000   0.0000   0.0000
     0.0000   0.0000   0.0000   0.0000

          k =-0.5303 0.5303 0.1768 ( 32066 PWs)   bands (ev):

   -17.5775 -17.5697 -17.5541 -17.5487 -17.5309 -17.5293 -17.5199 -17.5178
   -17.5164 -17.5113 -17.5080 -17.5016 -17.4958 -17.4890 -17.4713 -17.4626
   -17.4594 -17.4585 -17.4542 -17.4525 -17.4477 -17.4454 -17.4433 -17.4414
   -17.4173 -17.4147 -17.4141 -17.4132 -17.4092 -17.4087 -17.4001 -17.3979
   -17.3893 -17.3804 -17.3770 -17.3756 -17.3690 -17.3684 -17.3666 -17.3602
   -17.3554 -17.3550 -17.3545 -17.3314 -17.3259 -17.3233 -17.3195 -17.3177
   -17.3147 -17.3113 -17.3095 -17.3093 -17.3065 -17.3055 -17.3030 -17.3021
   -17.3002 -17.2990 -17.2980 -17.2976 -17.2963 -17.2955 -17.2941 -17.2936
   -17.2925 -17.2920 -17.2919 -17.2901 -17.2897 -17.2890 -17.2883 -17.2876
   -17.2875 -17.2870 -17.2860 -17.2857 -17.2855 -17.2837 -17.2832 -17.2829
   -17.2826 -17.2821 -17.2816 -17.2813 -17.2769 -17.2763 -17.2735 -17.2732
   -17.2731 -17.2727 -17.2717 -17.2704 -17.2696 -17.2658 -17.2601 -17.2593
   -17.2578 -17.2572 -17.2568 -17.2561 -17.2542 -17.2518 -17.2511 -17.2504
   -17.2491 -17.2452 -17.2452 -17.2436 -17.2435 -17.2412 -17.2404 -17.2395
   -17.2390 -17.2381 -17.2375 -17.2355 -17.2322 -17.2322 -17.2238 -17.2198
   -17.2156 -17.2102 -17.1991 -17.1946 -17.1933 -17.1886 -17.1858 -17.1851
   -17.1808 -17.1800 -17.1792 -17.1778 -17.1755 -17.1709 -17.1670  -4.9051
    -4.6373  -4.5900  -4.2863  -4.1738  -4.1094  -3.9939  -3.9499  -3.8466
    -3.7831  -3.7029  -3.5775  -3.5221  -3.2541  -3.1131  -3.0344  -2.9512
    -2.8078  -2.7135  -2.5959  -2.5298  -2.4495  -2.3965  -2.2726  -2.1987
    -2.1054  -2.0382  -1.9072  -1.8363  -1.7372  -1.6819  -1.5693  -0.5975
    -0.4739  -0.4409  -0.3204  -0.2523  -0.1508  -0.0532  -0.0050   0.0360
     0.1166   0.1415   0.1856   0.2699   0.5849   0.6718   0.7854   0.8803
     0.9254   0.9631   1.4048   1.4984   1.7229   1.7311   2.0956   2.1268
     2.3074   2.3641   2.4194   2.4915   2.7343   2.7877   2.7929   2.8003
     2.8086   2.9506   2.9564   2.9660   2.9705   2.9912   3.0058   3.4510
     3.4778   3.5014   3.5416   3.6246   3.6327   3.6361   3.6424   3.6527
     3.6590   4.0451   4.0466   4.0505   4.0540   4.0649   4.2434   4.2488
     4.2740   4.2775   4.2873   4.3033   4.3135   4.3195   4.4165   4.4197
     4.4218   4.4271   4.5555   4.6452   4.6522   4.7837   4.7856   4.8413
     4.8469   5.0529   5.0593   5.0706   5.0748   5.0824   5.0883   5.1025
     5.1038   5.3883   5.4053   5.4250   5.5392   5.5619   5.5677   5.5853
     5.7016   5.7067   5.7113   5.7202   6.2354   6.2458   6.7537   8.1886
     8.3078   8.3161   8.7579   8.7723   8.8867   8.9191   9.0258   9.0501
     9.0604   9.0951   9.2398   9.2731   9.3104   9.3395   9.3646   9.3685
     9.4005   9.4294   9.4458   9.4821   9.5197   9.6013   9.6617   9.6995
     9.7435   9.7605   9.7742   9.7936   9.8096   9.8318   9.8592   9.8853
     9.9043   9.9355   9.9677  10.1522  10.2267  10.2418  10.2544  10.2635
    10.3181  10.3862  10.4248  10.4620  10.4774  10.4992  10.5230  10.5286
    10.5712  10.6081  10.6377  10.7483

     occupation numbers 
     1.0000   1.0000   1.0000   1.0000   1.0000   1.0000   1.0000   1.0000
     1.0000   1.0000   1.0000   1.0000   1.0000   1.0000   1.0000   1.0000
     1.0000   1.0000   1.0000   1.0000   1.0000   1.0000   1.0000   1.0000
     1.0000   1.0000   1.0000   1.0000   1.0000   1.0000   1.0000   1.0000
     1.0000   1.0000   1.0000   1.0000   1.0000   1.0000   1.0000   1.0000
     1.0000   1.0000   1.0000   1.0000   1.0000   1.0000   1.0000   1.0000
     1.0000   1.0000   1.0000   1.0000   1.0000   1.0000   1.0000   1.0000
     1.0000   1.0000   1.0000   1.0000   1.0000   1.0000   1.0000   1.0000
     1.0000   1.0000   1.0000   1.0000   1.0000   1.0000   1.0000   1.0000
[...]
     atom   13 type  2   force =  -0.57023289E-04 -0.75323068E-04 -0.63696936E-03
     atom   14 type  2   force =   0.24728801E-03  0.24679464E-03  0.34269466E-03
     atom   15 type  1   force =   0.47435940E-04  0.23801677E-03 -0.12266330E-03
     atom   16 type  1   force =  -0.23000063E-03 -0.26066945E-03  0.18219069E-03
     atom   17 type  2   force =  -0.13678560E-03  0.55142894E-03  0.19433437E-03
     atom   18 type  1   force =  -0.13449808E-03  0.15565414E-04 -0.23525796E-04
     atom   19 type  2   force =   0.30826725E-03 -0.26348898E-03  0.28921329E-03
     atom   20 type  1   force =  -0.69534850E-04  0.19636474E-03  0.28860153E-04
     atom   21 type  2   force =  -0.59516921E-04 -0.63857099E-03 -0.31811654E-03
     atom   22 type  2   force =   0.57533735E-03  0.41435608E-03 -0.22126032E-03
     atom   23 type  1   force =  -0.62499665E-04 -0.79812593E-04  0.27886210E-03
     atom   24 type  2   force =  -0.27340714E-03 -0.29480871E-03 -0.50991665E-03
     atom   25 type  1   force =   0.11437504E-03  0.14400289E-03 -0.14580767E-03
     atom   26 type  1   force =   0.62811683E-04 -0.68551026E-05  0.13393438E-03
     atom   27 type  2   force =  -0.48186913E-03 -0.11814307E-03  0.24098321E-03
     atom   28 type  2   force =   0.23828334E-03  0.26621552E-03  0.25873271E-03
     atom   29 type  1   force =   0.24820834E-03  0.83153130E-04  0.78136129E-04
     atom   30 type  1   force =  -0.19503738E-03 -0.41666022E-04 -0.21565735E-04
     atom   31 type  1   force =  -0.12918092E-03 -0.52794906E-04 -0.75267562E-04
     atom   32 type  1   force =  -0.43786101E-04 -0.48492131E-04  0.36926334E-03
     atom   33 type  2   force =   0.34027960E-03 -0.26680911E-03  0.83548635E-04
     atom   34 type  1   force =   0.28925998E-03  0.21410215E-03 -0.21562951E-03
     atom   35 type  1   force =  -0.17154577E-03 -0.16468851E-03  0.16601596E-03
     atom   36 type  1   force =   0.18511119E-03 -0.26352658E-03 -0.46878847E-04
     atom   37 type  2   force =  -0.36321338E-03  0.31115116E-03  0.23696392E-03
     atom   38 type  1   force =   0.15269637E-03  0.40939379E-03 -0.22904858E-03
     atom   39 type  1   force =  -0.51063948E-04 -0.12219834E-03  0.52670572E-03
     atom   40 type  1   force =  -0.26181302E-03 -0.45304379E-04  0.30262043E-04
     atom   41 type  2   force =  -0.41769587E-03 -0.46303478E-03 -0.20963789E-03
     atom   42 type  2   force =   0.46281360E-03  0.50713373E-03  0.22606258E-03
     atom   43 type  1   force =   0.20004458E-03 -0.13098808E-04  0.12866426E-03
     atom   44 type  1   force =  -0.30257095E-04 -0.16648799E-03 -0.68267751E-04
     atom   45 type  1   force =  -0.10373952E-03  0.10677028E-03  0.40797439E-04
     atom   46 type  1   force =  -0.20021890E-04 -0.73608519E-04  0.56280212E-04
     atom   47 type  1   force =   0.75770457E-04  0.11807684E-03 -0.49136223E-04
     atom   48 type  1   force =  -0.19569930E-03 -0.12253614E-03  0.13621762E-04
     atom   49 type  2   force =  -0.70567074E-04 -0.26094526E-03 -0.53808603E-03
     atom   50 type  2   force =   0.34085851E-03  0.28679646E-03 -0.23147796E-03
     atom   51 type  1   force =   0.36120939E-04  0.71771519E-04 -0.33535611E-04
     atom   52 type  1   force =  -0.18093089E-03 -0.33168098E-03  0.47934502E-04
     atom   53 type  2   force =  -0.30580215E-04  0.30397842E-03  0.12207992E-03
     atom   54 type  1   force =   0.28945126E-04  0.20864716E-03  0.71927746E-04
     atom   55 type  2   force =  -0.74473250E-03 -0.16541833E-03 -0.65824729E-04
     atom   56 type  2   force =   0.18900734E-03  0.48813083E-03  0.34633051E-03
     atom   57 type  1   force =   0.36240531E-03 -0.88175162E-04  0.21750381E-04
     atom   58 type  1   force =  -0.19139110E-03  0.17069244E-03 -0.22702860E-03
     atom   59 type  1   force =  -0.26264136E-03 -0.95171395E-05  0.29915852E-04
     atom   60 type  2   force =   0.23085665E-03 -0.40976888E-03 -0.22971922E-03
     atom   61 type  1   force =   0.19510752E-03  0.10870585E-03 -0.10673485E-03
     atom   62 type  1   force =  -0.47401754E-04 -0.93170540E-04 -0.12209153E-04
     atom   63 type  1   force =   0.23826704E-03 -0.23920606E-04 -0.49778356E-04
     atom   64 type  1   force =  -0.15079271E-03 -0.23243016E-03  0.12138476E-03
     The Hubbard contrib.    to forces
     atom    1 type  2   force =   0.00000000E+00  0.00000000E+00  0.00000000E+00
     atom    2 type  1   force =   0.00000000E+00  0.00000000E+00  0.00000000E+00
     atom    3 type  2   force =   0.00000000E+00  0.00000000E+00  0.00000000E+00
     atom    4 type  2   force =   0.00000000E+00  0.00000000E+00  0.00000000E+00
     atom    5 type  2   force =   0.00000000E+00  0.00000000E+00  0.00000000E+00
     atom    6 type  2   force =   0.00000000E+00  0.00000000E+00  0.00000000E+00
     atom    7 type  2   force =   0.00000000E+00  0.00000000E+00  0.00000000E+00
     atom    8 type  2   force =   0.00000000E+00  0.00000000E+00  0.00000000E+00
     atom    9 type  1   force =   0.00000000E+00  0.00000000E+00  0.00000000E+00
     atom   10 type  1   force =   0.00000000E+00  0.00000000E+00  0.00000000E+00
     atom   11 type  1   force =   0.00000000E+00  0.00000000E+00  0.00000000E+00
     atom   12 type  2   force =   0.00000000E+00  0.00000000E+00  0.00000000E+00
     atom   13 type  2   force =   0.00000000E+00  0.00000000E+00  0.00000000E+00
     atom   14 type  2   force =   0.00000000E+00  0.00000000E+00  0.00000000E+00
     atom   15 type  1   force =   0.00000000E+00  0.00000000E+00  0.00000000E+00
     atom   16 type  1   force =   0.00000000E+00  0.00000000E+00  0.00000000E+00
     atom   17 type  2   force =   0.00000000E+00  0.00000000E+00  0.00000000E+00
     atom   18 type  1   force =   0.00000000E+00  0.00000000E+00  0.00000000E+00
     atom   19 type  2   force =   0.00000000E+00  0.00000000E+00  0.00000000E+00
     atom   20 type  1   force =   0.00000000E+00  0.00000000E+00  0.00000000E+00
     atom   21 type  2   force =   0.00000000E+00  0.00000000E+00  0.00000000E+00
     atom   22 type  2   force =   0.00000000E+00  0.00000000E+00  0.00000000E+00
     atom   23 type  1   force =   0.00000000E+00  0.00000000E+00  0.00000000E+00
     atom   24 type  2   force =   0.00000000E+00  0.00000000E+00  0.00000000E+00
     atom   25 type  1   force =   0.00000000E+00  0.00000000E+00  0.00000000E+00
     atom   26 type  1   force =   0.00000000E+00  0.00000000E+00  0.00000000E+00
     atom   27 type  2   force =   0.00000000E+00  0.00000000E+00  0.00000000E+00
     atom   28 type  2   force =   0.00000000E+00  0.00000000E+00  0.00000000E+00
     atom   29 type  1   force =   0.00000000E+00  0.00000000E+00  0.00000000E+00
     atom   30 type  1   force =   0.00000000E+00  0.00000000E+00  0.00000000E+00
     atom   31 type  1   force =   0.00000000E+00  0.00000000E+00  0.00000000E+00
     atom   32 type  1   force =   0.00000000E+00  0.00000000E+00  0.00000000E+00
     atom   33 type  2   force =   0.00000000E+00  0.00000000E+00  0.00000000E+00
     atom   34 type  1   force =   0.00000000E+00  0.00000000E+00  0.00000000E+00
     atom   35 type  1   force =   0.00000000E+00  0.00000000E+00  0.00000000E+00
     atom   36 type  1   force =   0.00000000E+00  0.00000000E+00  0.00000000E+00
     atom   37 type  2   force =   0.00000000E+00  0.00000000E+00  0.00000000E+00
     atom   38 type  1   force =   0.00000000E+00  0.00000000E+00  0.00000000E+00
     atom   39 type  1   force =   0.00000000E+00  0.00000000E+00  0.00000000E+00
     atom   40 type  1   force =   0.00000000E+00  0.00000000E+00  0.00000000E+00
     atom   41 type  2   force =   0.00000000E+00  0.00000000E+00  0.00000000E+00
     atom   42 type  2   force =   0.00000000E+00  0.00000000E+00  0.00000000E+00
     atom   43 type  1   force =   0.00000000E+00  0.00000000E+00  0.00000000E+00
     atom   44 type  1   force =   0.00000000E+00  0.00000000E+00  0.00000000E+00
     atom   45 type  1   force =   0.00000000E+00  0.00000000E+00  0.00000000E+00
     atom   46 type  1   force =   0.00000000E+00  0.00000000E+00  0.00000000E+00
     atom   47 type  1   force =   0.00000000E+00  0.00000000E+00  0.00000000E+00
     atom   48 type  1   force =   0.00000000E+00  0.00000000E+00  0.00000000E+00
     atom   49 type  2   force =   0.00000000E+00  0.00000000E+00  0.00000000E+00
     atom   50 type  2   force =   0.00000000E+00  0.00000000E+00  0.00000000E+00
     atom   51 type  1   force =   0.00000000E+00  0.00000000E+00  0.00000000E+00
     atom   52 type  1   force =   0.00000000E+00  0.00000000E+00  0.00000000E+00
     atom   53 type  2   force =   0.00000000E+00  0.00000000E+00  0.00000000E+00
     atom   54 type  1   force =   0.00000000E+00  0.00000000E+00  0.00000000E+00
     atom   55 type  2   force =   0.00000000E+00  0.00000000E+00  0.00000000E+00
     atom   56 type  2   force =   0.00000000E+00  0.00000000E+00  0.00000000E+00
     atom   57 type  1   force =   0.00000000E+00  0.00000000E+00  0.00000000E+00
     atom   58 type  1   force =   0.00000000E+00  0.00000000E+00  0.00000000E+00
     atom   59 type  1   force =   0.00000000E+00  0.00000000E+00  0.00000000E+00
     atom   60 type  2   force =   0.00000000E+00  0.00000000E+00  0.00000000E+00
     atom   61 type  1   force =   0.00000000E+00  0.00000000E+00  0.00000000E+00
     atom   62 type  1   force =   0.00000000E+00  0.00000000E+00  0.00000000E+00
     atom   63 type  1   force =   0.00000000E+00  0.00000000E+00  0.00000000E+00
     atom   64 type  1   force =   0.00000000E+00  0.00000000E+00  0.00000000E+00
     The SCF correction term to forces
     atom    1 type  2   force =   0.98505849E-06  0.22831047E-05 -0.74192557E-06
     atom    2 type  1   force =  -0.94836535E-06 -0.53800682E-06  0.12882360E-05
     atom    3 type  2   force =  -0.15200439E-04 -0.12242828E-04  0.20994617E-04
     atom    4 type  2   force =  -0.19004608E-04 -0.25259105E-04  0.19141149E-04
     atom    5 type  2   force =  -0.25824633E-04 -0.24790977E-04  0.27739346E-04
     atom    6 type  2   force =  -0.24341435E-04 -0.23123023E-04  0.22361161E-04
     atom    7 type  2   force =  -0.19447998E-04 -0.18030029E-04  0.13577929E-04
     atom    8 type  2   force =  -0.86624814E-05 -0.14861100E-04  0.11579149E-04
     atom    9 type  1   force =   0.13092843E-05  0.15810468E-05 -0.95011166E-06
     atom   10 type  1   force =   0.25203128E-05  0.20634390E-05 -0.25199293E-05
     atom   11 type  1   force =   0.41874320E-05  0.42185090E-05 -0.50340314E-05
     atom   12 type  2   force =   0.23584007E-04  0.15691233E-04 -0.15471000E-04
     atom   13 type  2   force =   0.24088301E-04  0.23508377E-04 -0.16594774E-04
     atom   14 type  2   force =   0.22658377E-04  0.18709896E-04 -0.22617190E-04
     atom   15 type  1   force =   0.42376402E-05  0.39333732E-05 -0.42502969E-05
     atom   16 type  1   force =   0.29214938E-05  0.29218992E-05 -0.29718117E-05
     atom   17 type  2   force =   0.31093038E-05  0.69251260E-06 -0.34514819E-05
     atom   18 type  1   force =  -0.14138652E-05 -0.40633671E-06  0.10711133E-05
     atom   19 type  2   force =  -0.20518015E-04 -0.12308484E-04  0.14871911E-04
     atom   20 type  1   force =  -0.56873055E-05 -0.55924024E-05  0.56404807E-05
     atom   21 type  2   force =  -0.23344560E-04 -0.24961843E-04  0.21521751E-04
     atom   22 type  2   force =  -0.23290007E-04 -0.21035366E-04  0.24970144E-04
     atom   23 type  1   force =  -0.40857080E-05 -0.41766984E-05  0.51307476E-05
     atom   24 type  2   force =  -0.14944397E-04 -0.16009923E-04  0.11423411E-04
     atom   25 type  1   force =   0.10440666E-05  0.83729966E-06 -0.13855312E-05
     atom   26 type  1   force =   0.25741893E-05  0.25315315E-05 -0.25888789E-05
     atom   27 type  2   force =   0.24996999E-04  0.19042244E-04 -0.18131873E-04
     atom   28 type  2   force =   0.13278926E-04  0.16387527E-04 -0.21700710E-04
     atom   29 type  1   force =   0.56749133E-05  0.57061479E-05 -0.56071777E-05
     atom   30 type  1   force =   0.53712274E-05  0.58299383E-05 -0.62694963E-05
     atom   31 type  1   force =   0.42341069E-05  0.40260844E-05 -0.42019309E-05
     atom   32 type  1   force =   0.29817484E-05  0.31961557E-05 -0.29479222E-05
     atom   33 type  2   force =  -0.67691147E-06  0.19196612E-05 -0.38650485E-05
     atom   34 type  1   force =  -0.54830362E-06 -0.15400085E-05  0.80467351E-06
     atom   35 type  1   force =  -0.43646137E-05 -0.44923412E-05  0.43210805E-05
     atom   36 type  1   force =  -0.56070141E-05 -0.57508518E-05  0.54973574E-05
     atom   37 type  2   force =  -0.24736031E-04 -0.23888436E-04  0.20393525E-04
     atom   38 type  1   force =  -0.64393389E-05 -0.64624019E-05  0.68826342E-05
     atom   39 type  1   force =  -0.41644343E-05 -0.40925693E-05  0.54721014E-05
     atom   40 type  1   force =  -0.35671417E-05 -0.33162392E-05  0.28517117E-05
     atom   41 type  2   force =   0.38519586E-05  0.53482057E-05 -0.14282482E-05
     atom   42 type  2   force =   0.69081026E-05  0.65186011E-05 -0.11642017E-04
     atom   43 type  1   force =   0.44243372E-05  0.51522101E-05 -0.43601862E-05
     atom   44 type  1   force =   0.51720704E-05  0.49558466E-05 -0.46211491E-05
     atom   45 type  1   force =   0.57302535E-05  0.57276603E-05 -0.57524719E-05
     atom   46 type  1   force =   0.60040556E-05  0.55699392E-05 -0.61413537E-05
     atom   47 type  1   force =   0.42664740E-05  0.44825426E-05 -0.41532910E-05
     atom   48 type  1   force =   0.33624153E-05  0.31427603E-05 -0.31070415E-05
     atom   49 type  2   force =   0.35637915E-05  0.19749509E-05  0.88213495E-06
     atom   50 type  2   force =  -0.64156916E-05 -0.99510510E-05  0.45022502E-05
     atom   51 type  1   force =  -0.44886823E-05 -0.45429171E-05  0.45373287E-05
     atom   52 type  1   force =  -0.54117224E-05 -0.56233705E-05  0.55178190E-05
     atom   53 type  2   force =  -0.20795029E-04 -0.22671971E-04  0.25172926E-04
     atom   54 type  1   force =  -0.69555774E-05 -0.68287508E-05  0.64643508E-05
     atom   55 type  2   force =  -0.17081787E-04 -0.19201671E-04  0.13980207E-04
     atom   56 type  2   force =  -0.14171364E-04 -0.77603283E-05  0.11962862E-04
     atom   57 type  1   force =   0.16484708E-05  0.13772845E-05 -0.78553584E-06
     atom   58 type  1   force =   0.22000027E-05  0.26380601E-05 -0.26240982E-05
     atom   59 type  1   force =   0.45820736E-05  0.45448212E-05 -0.46747329E-05
     atom   60 type  2   force =   0.11925713E-04  0.20078525E-04 -0.14714805E-04
     atom   61 type  1   force =   0.58114593E-05  0.56594928E-05 -0.57391792E-05
     atom   62 type  1   force =   0.57977396E-05  0.61009348E-05 -0.56905548E-05
     atom   63 type  1   force =   0.40448892E-05  0.43564391E-05 -0.41787710E-05
     atom   64 type  1   force =   0.32710230E-05  0.32670406E-05 -0.35118549E-05

     Total force =     0.123465     Total SCF correction =     0.000160


     entering subroutine stress ...

          total   stress  (Ry/bohr**3)                   (kbar)     P=   -5.98
  -0.0000406963  -0.0000007782   0.0000016264         -5.99     -0.11      0.24
  -0.0000007782  -0.0000407200   0.0000016785         -0.11     -5.99      0.25
   0.0000016264   0.0000016785  -0.0000405473          0.24      0.25     -5.96

     kinetic stress (kbar)   5725.94      0.11      0.13
                                0.11   5725.93      0.01
                                0.13      0.01   5725.96

     local   stress (kbar) -10713.75  15079.43 -18407.73
                            15079.43 -11037.39 -15529.50
                           -18407.73 -15529.50 -10377.82

     nonloc. stress (kbar)   2388.28     -0.25     -0.78
                               -0.25   2388.27     -0.53
                               -0.78     -0.53   2388.29

     hartree stress (kbar)  17680.69  -7520.26   9114.31
                            -7520.26  17838.06   7713.51
                             9114.31   7713.51  17513.82

     exc-cor stress (kbar)   9376.21     -0.01     -0.02
                               -0.01   9376.21     -0.01
                               -0.02     -0.01   9376.21

     corecor stress (kbar) -14302.74      0.00     -0.03
                                0.00 -14302.74     -0.03
                               -0.03     -0.03 -14302.74

     ewald   stress (kbar) -10160.63  -7559.13   9294.36
                            -7559.13  -9994.33   7816.80
                             9294.36   7816.80 -10329.70

     hubbard stress (kbar)      0.00      0.00      0.00
                                0.00      0.00      0.00
                                0.00      0.00      0.00

     london  stress (kbar)      0.00      0.00      0.00
                                0.00      0.00      0.00
                                0.00      0.00      0.00

     XDM     stress (kbar)      0.00      0.00      0.00
                                0.00      0.00      0.00
                                0.00      0.00      0.00

     dft-nl  stress (kbar)      0.00      0.00      0.00
                                0.00      0.00      0.00
                                0.00      0.00      0.00



     Writing output data file SiGe_zns.scf.in.super.228.c.022.save

     init_run     :    136.79s CPU    122.04s WALL (       1 calls)
     electrons    :   7580.48s CPU   6818.21s WALL (       1 calls)
     forces       :     85.35s CPU     65.34s WALL (       1 calls)
     stress       :    388.98s CPU    391.07s WALL (       1 calls)

     Called by init_run:
     wfcinit      :    129.36s CPU    114.27s WALL (       1 calls)
     potinit      :      0.80s CPU      0.81s WALL (       1 calls)

     Called by electrons:
     c_bands      :   6647.90s CPU   5922.36s WALL (      20 calls)
     sum_band     :    829.58s CPU    786.29s WALL (      20 calls)
     v_of_rho     :      4.49s CPU      4.89s WALL (      20 calls)
     v_h          :      0.24s CPU      0.30s WALL (      20 calls)
     v_xc         :      4.62s CPU      4.99s WALL (      22 calls)
     newd         :     96.35s CPU    101.24s WALL (      20 calls)
     mix_rho      :      6.95s CPU      7.83s WALL (      20 calls)

     Called by c_bands:
     init_us_2    :     18.78s CPU     19.60s WALL (     430 calls)
     cegterg      :   6555.48s CPU   5822.31s WALL (     200 calls)

     Called by sum_band:
     sum_band:bec :      5.49s CPU      5.58s WALL (     200 calls)
     addusdens    :     91.16s CPU     93.33s WALL (      20 calls)

     Called by *egterg:
     h_psi        :   2999.11s CPU   2759.05s WALL (     754 calls)
     s_psi        :    718.07s CPU    485.39s WALL (     754 calls)
     g_psi        :      2.13s CPU      2.15s WALL (     544 calls)
     cdiaghg      :   1612.43s CPU   1621.12s WALL (     734 calls)
     cegterg:over :    564.90s CPU    440.27s WALL (     544 calls)
     cegterg:upda :    254.94s CPU    177.67s WALL (     544 calls)
     cegterg:last :    184.08s CPU    120.66s WALL (     200 calls)

     Called by h_psi:
     h_psi:vloc   :   1459.22s CPU   1672.06s WALL (     754 calls)
     h_psi:vnl    :   1535.34s CPU   1082.25s WALL (     754 calls)
     add_vuspsi   :    721.17s CPU    486.78s WALL (     754 calls)

     General routines
     calbec       :   1269.64s CPU    946.46s WALL (     974 calls)
     fft          :     20.36s CPU     21.08s WALL (     345 calls)
     ffts         :      4.24s CPU      4.82s WALL (     580 calls)
     fftw         :   1677.93s CPU   1922.75s WALL (  352282 calls)
     interpolate  :      0.76s CPU      1.00s WALL (      40 calls)

     Parallel routines
     fft_scatter  :   1025.49s CPU   1197.97s WALL (  353207 calls)

     PWSCF        :     2h16m CPU        2h 3m WALL


   This run was terminated on:  15:59:16  13Feb2017            

=------------------------------------------------------------------------------=
   JOB DONE.
=------------------------------------------------------------------------------=
