
     Program PWSCF v.5.1 starts on 13Feb2017 at 13:59:53 

     This program is part of the open-source Quantum ESPRESSO suite
     for quantum simulation of materials; please cite
         "P. Giannozzi et al., J. Phys.:Condens. Matter 21 395502 (2009);
          URL http://www.quantum-espresso.org", 
     in publications or presentations arising from this work. More details at
     http://www.quantum-espresso.org/quote

     Parallel version (MPI), running on    16 processors
     R & G space division:  proc/nbgrp/npool/nimage =      16
     Reading input from /tmp/SiGe_zns.scf.in.super.228.c.03.32341/SiGe_zns.scf.in.super.228.c.03.t
Warning: card &IONS ignored
Warning: card   ION_DYNAMICS='BFGS', ignored
Warning: card / ignored
Warning: card &CELL ignored
Warning: card  CELL_DYNAMICS = 'BFGS' ignored
Warning: card / ignored
     Message from routine read_cards :
     DEPRECATED: no units specified in CELL_PARAMETERS card

     Current dimensions of program PWSCF are:
     Max number of different atomic species (ntypx) = 10
     Max number of k-points (npk) =  40000
     Max angular momentum in pseudopotentials (lmaxx) =  3

     Subspace diagonalization in iterative solution of the eigenvalue problem:
     a serial algorithm will be used

     warning: symmetry operation #  3 not compatible with FFT grid. 
  -1   1   0
   0   1   0
   0   4  -1
     warning: symmetry operation #  4 not compatible with FFT grid. 
   1   0   0
   1  -1   0
   4   0  -1
     warning: symmetry operation #  5 not compatible with FFT grid. 
  -1   1   0
  -1   0   0
  -4   0   1
     warning: symmetry operation #  6 not compatible with FFT grid. 
   0  -1   0
   1  -1   0
   0  -4   1
     warning: symmetry operation #  9 not compatible with FFT grid. 
   1  -1   0
   0  -1   0
   0  -4   1
     warning: symmetry operation # 10 not compatible with FFT grid. 
  -1   0   0
  -1   1   0
  -4   0   1
     warning: symmetry operation # 11 not compatible with FFT grid. 
   1  -1   0
   1   0   0
   4   0  -1
     warning: symmetry operation # 12 not compatible with FFT grid. 
   0   1   0
  -1   1   0
   0   4  -1

     Parallelization info
     --------------------
     sticks:   dense  smooth     PW     G-vecs:    dense   smooth      PW
     Min         189     131     36                27389    16001    2346
     Max         192     132     37                27391    16042    2363
     Sum        3037    2107    583               438235   256383   37657



     bravais-lattice index     =            0
     lattice parameter (alat)  =    14.799446477  a.u.
     unit-cell volume          =    9168.1437 (a.u.)^3
     number of atoms/cell      =           64
     number of atomic types    =            2
     number of electrons       =       576.00
     number of Kohn-Sham states=          346
     kinetic-energy cutoff     =      35.0000  Ry
     charge density cutoff     =     200.0000  Ry
     convergence threshold     =      1.0E-09
     mixing beta               =       0.3000
     number of iterations used =            8  local-TF  mixing
     Exchange-correlation      = SLA  PW   PSX  PSC ( 1  4 10  8 0)
     A smooth kinetic-energy cutoff is imposed at      34.5000 Ry
     height of the smooth step-function =             800.0000 Ry
     width of the smooth step-function  =               1.0000 Ry


     celldm(1)=  14.799446  celldm(2)=   0.000000  celldm(3)=   0.000000
     celldm(4)=   0.000000  celldm(5)=   0.000000  celldm(6)=   0.000000

     crystal axes: (cart. coord. in units of alat)
               a(1) = (  -0.000000000000   0.707106781187   0.707106781187 )  
               a(2) = (   0.707106781187   0.000000000000   0.707106781187 )  
               a(3) = (   2.828427124746   2.828427124746   0.000000000000 )  

     reciprocal axes: (cart. coord. in units 2 pi/alat)
               b(1) = ( -0.707107  0.707107  0.707107 )  
               b(2) = (  0.707107 -0.707107  0.707107 )  
               b(3) = (  0.176777  0.176777 -0.176777 )  


     PseudoPot. # 1 for Si read from file:
     /users/kfg/psuedo/gbrv_1.5/si.pbesol.UPF
     MD5 check sum: ef58ba74faed4df802eb8a9742fc00a8
     Pseudo is Ultrasoft + core correction, Zval =  4.0
     Generated by new atomic code, or converted to UPF format
     Using radial grid of  899 points,  6 beta functions with: 
                l(1) =   0
                l(2) =   0
                l(3) =   1
                l(4) =   1
                l(5) =   2
                l(6) =   2
     Q(r) pseudized with  8 coefficients,  rinner =    0.900   0.900   0.900
                                                       0.900   0.900

     PseudoPot. # 2 for Ge read from file:
     /users/kfg/psuedo/gbrv_1.5/ge.pbesol.UPF
     MD5 check sum: 7bed0412183f5e553a4d27ec7023354d
     Pseudo is Ultrasoft + core correction, Zval = 14.0
     Generated by new atomic code, or converted to UPF format
     Using radial grid of  873 points,  6 beta functions with: 
                l(1) =   0
                l(2) =   0
                l(3) =   1
                l(4) =   1
                l(5) =   2
                l(6) =   2
     Q(r) pseudized with  8 coefficients,  rinner =    1.400   1.400   1.400
                                                       1.400   1.400

     atomic species   valence    mass     pseudopotential
        Si             4.00    28.08550     Si( 1.00)
        Ge            14.00    72.64000     Ge( 1.00)

     No symmetry found


                                    s                        frac. trans.

      isym =  1     identity                                     

 cryst.   s( 1) = (     1          0          0      )
                  (     0          1          0      )
                  (     0          0          1      )

 cart.    s( 1) = (  1.0000000  0.0000000  0.0000000 )
                  (  0.0000000  1.0000000  0.0000000 )
                  (  0.0000000  0.0000000  1.0000000 )


     point group C_1 (1)    
     there are  1 classes
     the character table:

       E    
A      1.00

     the symmetry operations in each class:
     E        1

   Cartesian axes

     site n.     atom                  positions (alat units)
         1           Ge  tau(   1) = (    0.00011324418   -0.00026307396   -0.00006207308  )
         2           Si  tau(   2) = (    0.17661492744    0.17653311626    0.17686981388  )
         3           Ge  tau(   3) = (    0.35351604548    0.35349471073    0.00000349248  )
         4           Ge  tau(   4) = (    0.53023908833    0.53033633024    0.17697125383  )
         5           Si  tau(   5) = (    0.70730639966    0.70683565913    0.00005509621  )
         6           Ge  tau(   6) = (    0.88358501511    0.88380227486    0.17686872219  )
         7           Si  tau(   7) = (    1.06094471570    1.06067135701    0.00029763186  )
         8           Ge  tau(   8) = (    1.23775936084    1.23726607845    0.17678516089  )
         9           Ge  tau(   9) = (    1.41403290996    1.41399667580   -0.00020803992  )
        10           Ge  tau(  10) = (    1.59093837474    1.59073375714    0.17645392516  )
        11           Si  tau(  11) = (    1.76779744646    1.76767472389    0.00026727320  )
        12           Si  tau(  12) = (    1.94437318249    1.94450437698    0.17706792643  )
        13           Ge  tau(  13) = (    2.12103769150    2.12144023361   -0.00027830057  )
        14           Si  tau(  14) = (    2.29802261157    2.29822962831    0.17688393363  )
        15           Ge  tau(  15) = (    2.47489161018    2.47470355408    0.00015679965  )
        16           Si  tau(  16) = (    2.65182416416    2.65141492499    0.17699720377  )
        17           Ge  tau(  17) = (    0.35380236628    0.00002678392    0.35350755977  )
        18           Si  tau(  18) = (    0.53037883453    0.17667030419    0.53036878315  )
        19           Si  tau(  19) = (    0.70692172562    0.35388887641    0.35363540822  )
        20           Si  tau(  20) = (    0.88382365240    0.53007657947    0.53045851410  )
        21           Si  tau(  21) = (    1.06045311102    0.70688936529    0.35363622121  )
        22           Si  tau(  22) = (    1.23741936579    0.88399524057    0.53029611364  )
        23           Si  tau(  23) = (    1.41443036779    1.06095375335    0.35376537353  )
        24           Ge  tau(  24) = (    1.59112024765    1.23742585237    0.53023549063  )
        25           Si  tau(  25) = (    1.76760384142    1.41430878753    0.35330430803  )
        26           Ge  tau(  26) = (    1.94457268602    1.59075430807    0.53039655579  )
        27           Ge  tau(  27) = (    2.12104328225    1.76786145918    0.35323910454  )
        28           Si  tau(  28) = (    2.29825603998    1.94430323133    0.53060221602  )
        29           Si  tau(  29) = (    2.47505101105    2.12126791773    0.35378427297  )
        30           Ge  tau(  30) = (    2.65194734675    2.29818463689    0.53066416400  )
        31           Si  tau(  31) = (    2.82831989222    2.47458174173    0.35324415436  )
        32           Si  tau(  32) = (    3.00487546510    2.65135594409    0.53002170728  )
        33           Si  tau(  33) = (   -0.00029825258    0.35322984549    0.35328665662  )
        34           Ge  tau(  34) = (    0.17657894221    0.53029415317    0.53042194209  )
        35           Si  tau(  35) = (    0.35325389568    0.70707236962    0.35377088515  )
        36           Ge  tau(  36) = (    0.53026727466    0.88355924440    0.53019970080  )
        37           Ge  tau(  37) = (    0.70716375257    1.06042143743    0.35382214599  )
        38           Si  tau(  38) = (    0.88413702625    1.23763106913    0.53004175879  )
        39           Ge  tau(  39) = (    1.06086997743    1.41388748800    0.35355216814  )
        40           Si  tau(  40) = (    1.23736456015    1.59127635556    0.53066288806  )
        41           Si  tau(  41) = (    1.41397709398    1.76763006033    0.35362559086  )
        42           Ge  tau(  42) = (    1.59088261478    1.94474208574    0.53039793641  )
        43           Ge  tau(  43) = (    1.76797091500    2.12115389506    0.35327965857  )
        44           Si  tau(  44) = (    1.94442636456    2.29785941389    0.53066536102  )
        45           Si  tau(  45) = (    2.12100533561    2.47486080464    0.35338577221  )
        46           Ge  tau(  46) = (    2.29793736666    2.65152690281    0.53037604717  )
        47           Ge  tau(  47) = (    2.47482228072    2.82872850853    0.35359309318  )
        48           Ge  tau(  48) = (    2.65144963502    3.00547814694    0.53037554640  )
        49           Si  tau(  49) = (    0.35380971058    0.35321623886    0.70680584509  )
        50           Si  tau(  50) = (    0.53032390386    0.53002179973    0.88403554800  )
        51           Ge  tau(  51) = (    0.70689890560    0.70723360270    0.70699298732  )
        52           Ge  tau(  52) = (    0.88400571525    0.88401932870    0.88392629284  )
        53           Si  tau(  53) = (    1.06043075101    1.06095549385    0.70704474957  )
        54           Ge  tau(  54) = (    1.23754291456    1.23738860964    0.88389733352  )
        55           Si  tau(  55) = (    1.41451674775    1.41408636776    0.70712636913  )
        56           Ge  tau(  56) = (    1.59109191059    1.59075966865    0.88374041503  )
        57           Si  tau(  57) = (    1.76763915473    1.76746671397    0.70698219495  )
        58           Ge  tau(  58) = (    1.94443917186    1.94464669665    0.88410567925  )
        59           Ge  tau(  59) = (    2.12123092021    2.12103655882    0.70709023020  )
        60           Ge  tau(  60) = (    2.29804864188    2.29796119282    0.88380129311  )
        61           Ge  tau(  61) = (    2.47508935496    2.47465785035    0.70712914970  )
        62           Ge  tau(  62) = (    2.65194068198    2.65153137406    0.88359303881  )
        63           Si  tau(  63) = (    2.82820181804    2.82816155025    0.70723517506  )
        64           Si  tau(  64) = (    3.00539934254    3.00489643280    0.88400634391  )

   Crystallographic axes

     site n.     atom                  positions (cryst. coord.)
         1           Ge  tau(   1) = (   -0.00030998940    0.00022220481   -0.00001551334  )
         2           Si  tau(   2) = (    0.12500799554    0.12512369402    0.03116188292  )
         3           Ge  tau(   3) = (   -0.00001261639    0.00001755550    0.12498240763  )
         4           Ge  tau(   4) = (    0.12520633407    0.12506881324    0.15620062420  )
         5           Si  tau(   5) = (   -0.00029390491    0.00037182272    0.24997762011  )
         6           Ge  tau(   6) = (    0.12521869868    0.12491144700    0.28116661622  )
         7           Si  tau(   7) = (    0.00001716372    0.00040375129    0.37499966365  )
         8           Ge  tau(   8) = (    0.12465718276    0.12535478940    0.40627532141  )
         9           Ge  tau(   9) = (   -0.00017272786   -0.00012148501    0.49996650098  )
        10           Ge  tau(  10) = (    0.12462708056    0.12491645354    0.53125254323  )
        11           Si  tau(  11) = (    0.00010221273    0.00027576865    0.62494183892  )
        12           Si  tau(  12) = (    0.12529870002    0.12511316299    0.65616144050  )
        13           Ge  tau(  13) = (    0.00008785204   -0.00048142847    0.75002042452  )
        14           Si  tau(  14) = (    0.12522221189    0.12492944601    0.78124132448  )
        15           Ge  tau(  15) = (   -0.00002210165    0.00024384984    0.87494535767  )
        16           Si  tau(  16) = (    0.12486654724    0.12544529883    0.90620009979  )
        17           Ge  tau(  17) = (   -0.00018952058    0.50012470601    0.00005684969  )
        18           Si  tau(  18) = (    0.12491766273    0.62513706346    0.03123296938  )
        19           Si  tau(  19) = (    0.00042607356    0.49968991688    0.12501209376  )
        20           Si  tau(  20) = (    0.12495385836    0.62522776655    0.15617190736  )
        21           Si  tau(  21) = (    0.00005124791    0.50006589228    0.24991031990  )
        22           Si  tau(  22) = (    0.12506738242    0.62488457357    0.28127266897  )
        23           Si  tau(  23) = (    0.00020418351    0.50009560563    0.37505275088  )
        24           Ge  tau(  24) = (    0.12483340568    0.62503281642    0.40628775429  )
        25           Si  tau(  25) = (    0.00000654366    0.49964120040    0.50003203126  )
        26           Ge  tau(  26) = (    0.12485962695    0.62523437567    0.53120167248  )
        27           Ge  tau(  27) = (    0.00004050412    0.49951502829    0.62502328696  )
        28           Si  tau(  28) = (    0.12490999384    0.62547485628    0.65618750132  )
        29           Si  tau(  29) = (    0.00000083414    0.50032568285    0.74998125614  )
        30           Ge  tau(  30) = (    0.12508821782    0.62538423997    0.78125891613  )
        31           Si  tau(  31) = (   -0.00034930802    0.49991198194    0.87498409209  )
        32           Si  tau(  32) = (    0.12480589281    0.62475799398    0.90619441050  )
        33           Si  tau(  33) = (    0.49979350609   -0.00017072488   -0.00006276699  )
        34           Ge  tau(  34) = (    0.62517937642    0.12495052787    0.03119245176  )
        35           Si  tau(  35) = (    0.50034123411   -0.00003365035    0.12490252514  )
        36           Ge  tau(  36) = (    0.62472295136    0.12509265628    0.15620462881  )
        37           Ge  tau(  37) = (    0.49998094323    0.00039913429    0.24992035885  )
        38           Si  tau(  38) = (    0.62475415678    0.12483808713    0.28138012160  )
        39           Ge  tau(  39) = (    0.49962021120    0.00037805999    0.37497966250  )
        40           Si  tau(  40) = (    0.62548875715    0.12498189619    0.40622896159  )
        41           Si  tau(  41) = (    0.50012146400   -0.00001935740    0.49992123515  )
        42           Ge  tau(  42) = (    0.62526440906    0.12483154606    0.53125405598  )
        43           Ge  tau(  43) = (    0.49954452243    0.00006836203    0.62505502096  )
        44           Si  tau(  44) = (    0.62515198119    0.12532216945    0.65612799159  )
        45           Si  tau(  45) = (    0.50009507762   -0.00033212580    0.74997165932  )
        46           Ge  tau(  46) = (    0.62505805830    0.12500694077    0.78119181216  )
        47           Ge  tau(  47) = (    0.50027756756   -0.00022141962    0.87503716337  )
        48           Ge  tau(  48) = (    0.62536810694    0.12469618393    0.90625496247  )
        49           Si  tau(  49) = (    0.49936755816    0.50020685392    0.00003890932  )
        50           Si  tau(  50) = (    0.62489391092    0.62532115068    0.03116752665  )
        51           Ge  tau(  51) = (    0.50015620217    0.49968286899    0.12500578763  )
        52           Ge  tau(  52) = (    0.62503990189    0.62502064957    0.15628805554  )
        53           Si  tau(  53) = (    0.50032718624    0.49958508780    0.25002261556  )
        54           Ge  tau(  54) = (    0.62490068835    0.62511890846    0.28125776633  )
        55           Si  tau(  55) = (    0.49970952616    0.50031817538    0.37502764838  )
        56           Ge  tau(  56) = (    0.62466390975    0.62513377080    0.40625249703  )
        57           Si  tau(  57) = (    0.49978997020    0.50003383826    0.49994635694  )
        58           Ge  tau(  58) = (    0.62530386327    0.62501037890    0.53121046729  )
        59           Ge  tau(  59) = (    0.49985086242    0.50012573094    0.62493695134  )
        60           Ge  tau(  60) = (    0.62488005176    0.62500372340    0.65623195824  )
        61           Ge  tau(  61) = (    0.49971069710    0.50032093676    0.74999599928  )
        62           Ge  tau(  62) = (    0.62450520514    0.62508405396    0.78133160628  )
        63           Si  tau(  63) = (    0.50006231455    0.50011926180    0.87489052660  )
        64           Si  tau(  64) = (    0.62473126950    0.62544249128    0.90620850482  )

     number of k points=    10  gaussian smearing, width (Ry)=  0.0150
                       cart. coord. in units 2pi/alat
        k(    1) = (   0.0000000   0.0000000   0.0000000), wk =   0.1250000
        k(    2) = (   0.1767767  -0.1767767   0.1767767), wk =   0.2500000
        k(    3) = (  -0.3535534   0.3535534  -0.3535534), wk =   0.1250000
        k(    4) = (  -0.5303301   0.5303301  -0.1767767), wk =   0.2500000
        k(    5) = (   0.1767767  -0.1767767  -0.1767767), wk =   0.2500000
        k(    6) = (   0.1767767   0.1767767   0.1767767), wk =   0.2500000
        k(    7) = (  -0.3535534   0.3535534   0.3535534), wk =   0.1250000
        k(    8) = (  -0.3535534  -0.3535534  -0.3535534), wk =   0.1250000
        k(    9) = (  -0.5303301   0.5303301   0.1767767), wk =   0.2500000
        k(   10) = (   0.5303301  -0.1767767   0.5303301), wk =   0.2500000

                       cryst. coord.
        k(    1) = (   0.0000000   0.0000000   0.0000000), wk =   0.1250000
        k(    2) = (   0.0000000   0.2500000   0.0000000), wk =   0.2500000
        k(    3) = (   0.0000000  -0.5000000   0.0000000), wk =   0.1250000
        k(    4) = (   0.2500000  -0.5000000   0.0000000), wk =   0.2500000
        k(    5) = (  -0.2500000   0.0000000   0.0000000), wk =   0.2500000
        k(    6) = (   0.2500000   0.2500000   1.0000000), wk =   0.2500000
        k(    7) = (   0.5000000   0.0000000   0.0000000), wk =   0.1250000
        k(    8) = (  -0.5000000  -0.5000000  -2.0000000), wk =   0.1250000
        k(    9) = (   0.5000000  -0.2500000   0.0000000), wk =   0.2500000
        k(   10) = (   0.2500000   0.7500000   1.0000000), wk =   0.2500000

     Dense  grid:   438235 G-vectors     FFT dimensions: (  72,  72, 270)

     Smooth grid:   256383 G-vectors     FFT dimensions: (  60,  60, 225)

     Largest allocated arrays     est. size (Mb)     dimensions
        Kohn-Sham Wavefunctions        10.64 Mb     (    2015,  346)
        NL pseudopotentials            35.42 Mb     (    2015, 1152)
        Each V/rho on FFT grid          1.34 Mb     (   88128)
        Each G-vector array             0.21 Mb     (   27391)
        G-vector shells                 0.04 Mb     (    5735)
     Largest temporary arrays     est. size (Mb)     dimensions
        Auxiliary wavefunctions        42.55 Mb     (    2015, 1384)
        Each subspace H/S matrix       29.23 Mb     (    1384, 1384)
        Each <psi_i|beta_j> matrix      6.08 Mb     (    1152,  346)
        Arrays for rho mixing          10.76 Mb     (   88128,    8)

     Check: negative/imaginary core charge=   -0.000001    0.000000

     Initial potential from superposition of free atoms

     starting charge  575.95340, renormalised to  576.00000
     Starting wfc are  416 randomized atomic wfcs

     total cpu time spent up to now is      243.7 secs

     per-process dynamical memory:   188.7 Mb

     Self-consistent Calculation

     iteration #  1     ecut=    35.00 Ry     beta=0.30
     Davidson diagonalization with overlap
     ethr =  1.00E-02,  avg # of iterations =  3.0

     Threshold (ethr) on eigenvalues was too large:
     Diagonalizing with lowered threshold

     Davidson diagonalization with overlap
     ethr =  2.42E-04,  avg # of iterations =  8.2

     total cpu time spent up to now is     1954.1 secs

     total energy              =   -7128.03182691 Ry
     Harris-Foulkes estimate   =   -7128.17797079 Ry
     estimated scf accuracy    <       1.40451064 Ry

     iteration #  2     ecut=    35.00 Ry     beta=0.30
     Davidson diagonalization with overlap
     ethr =  2.44E-04,  avg # of iterations =  1.0

     total cpu time spent up to now is     2518.5 secs

     total energy              =   -7127.75490979 Ry
     Harris-Foulkes estimate   =   -7128.03883482 Ry
     estimated scf accuracy    <       0.86537847 Ry

     iteration #  3     ecut=    35.00 Ry     beta=0.30
     Davidson diagonalization with overlap
     ethr =  1.50E-04,  avg # of iterations =  2.0

     total cpu time spent up to now is     3146.1 secs

     total energy              =   -7127.80775616 Ry
     Harris-Foulkes estimate   =   -7127.80716510 Ry
     estimated scf accuracy    <       0.01229193 Ry

     iteration #  4     ecut=    35.00 Ry     beta=0.30
     Davidson diagonalization with overlap
     ethr =  2.13E-06,  avg # of iterations = 11.7

     total cpu time spent up to now is     5179.1 secs

     total energy              =   -7127.80986190 Ry
     Harris-Foulkes estimate   =   -7127.81027848 Ry
     estimated scf accuracy    <       0.00536626 Ry

     iteration #  5     ecut=    35.00 Ry     beta=0.30
     Davidson diagonalization with overlap
     ethr =  9.32E-07,  avg # of iterations =  2.0

     total cpu time spent up to now is     5874.5 secs

     total energy              =   -7127.81026906 Ry
     Harris-Foulkes estimate   =   -7127.81034905 Ry
     estimated scf accuracy    <       0.00047461 Ry

     iteration #  6     ecut=    35.00 Ry     beta=0.30
     Davidson diagonalization with overlap
     ethr =  8.24E-08,  avg # of iterations =  1.7

     total cpu time spent up to now is     6444.1 secs

     total energy              =   -7127.81024564 Ry
     Harris-Foulkes estimate   =   -7127.81028570 Ry
     estimated scf accuracy    <       0.00020227 Ry

     iteration #  7     ecut=    35.00 Ry     beta=0.30
     Davidson diagonalization with overlap
     ethr =  3.51E-08,  avg # of iterations =  2.0

     total cpu time spent up to now is     7097.0 secs

     total energy              =   -7127.81026404 Ry
     Harris-Foulkes estimate   =   -7127.81026141 Ry
     estimated scf accuracy    <       0.00009605 Ry

     iteration #  8     ecut=    35.00 Ry     beta=0.30
     Davidson diagonalization with overlap
     ethr =  1.67E-08,  avg # of iterations =  1.0

     total cpu time spent up to now is     7638.6 secs

     total energy              =   -7127.81026014 Ry
     Harris-Foulkes estimate   =   -7127.81026601 Ry
     estimated scf accuracy    <       0.00007324 Ry

     iteration #  9     ecut=    35.00 Ry     beta=0.30
     Davidson diagonalization with overlap
     ethr =  1.27E-08,  avg # of iterations =  2.4

     total cpu time spent up to now is     8496.0 secs

     total energy              =   -7127.81025923 Ry
     Harris-Foulkes estimate   =   -7127.81028120 Ry
     estimated scf accuracy    <       0.00006854 Ry

     iteration # 10     ecut=    35.00 Ry     beta=0.30
     Davidson diagonalization with overlap
     ethr =  1.19E-08,  avg # of iterations =  1.0

     total cpu time spent up to now is     9040.7 secs

     total energy              =   -7127.81025533 Ry
     Harris-Foulkes estimate   =   -7127.81026270 Ry
     estimated scf accuracy    <       0.00001527 Ry

     iteration # 11     ecut=    35.00 Ry     beta=0.30
     Davidson diagonalization with overlap
     ethr =  2.65E-09,  avg # of iterations =  2.0

     total cpu time spent up to now is     9863.2 secs

     total energy              =   -7127.81025868 Ry
     Harris-Foulkes estimate   =   -7127.81025946 Ry
     estimated scf accuracy    <       0.00000254 Ry

     iteration # 12     ecut=    35.00 Ry     beta=0.30
     Davidson diagonalization with overlap
     ethr =  4.41E-10,  avg # of iterations =  2.0

     total cpu time spent up to now is    10508.6 secs

     total energy              =   -7127.81025890 Ry
     Harris-Foulkes estimate   =   -7127.81025898 Ry
     estimated scf accuracy    <       0.00000049 Ry

     iteration # 13     ecut=    35.00 Ry     beta=0.30
     Davidson diagonalization with overlap
     ethr =  8.46E-11,  avg # of iterations =  2.4

     total cpu time spent up to now is    11165.9 secs

     total energy              =   -7127.81025895 Ry
     Harris-Foulkes estimate   =   -7127.81025895 Ry
     estimated scf accuracy    <       0.00000011 Ry

     iteration # 14     ecut=    35.00 Ry     beta=0.30
     Davidson diagonalization with overlap
     ethr =  1.90E-11,  avg # of iterations =  1.3

     total cpu time spent up to now is    11738.9 secs

     total energy              =   -7127.81025896 Ry
     Harris-Foulkes estimate   =   -7127.81025895 Ry
     estimated scf accuracy    <       0.00000006 Ry

     iteration # 15     ecut=    35.00 Ry     beta=0.30
     Davidson diagonalization with overlap
     ethr =  9.86E-12,  avg # of iterations =  2.4

     total cpu time spent up to now is    12403.1 secs

     total energy              =   -7127.81025897 Ry
     Harris-Foulkes estimate   =   -7127.81025897 Ry
     estimated scf accuracy    <          9.4E-09 Ry

     iteration # 16     ecut=    35.00 Ry     beta=0.30
     Davidson diagonalization with overlap
     ethr =  1.62E-12,  avg # of iterations =  2.0

     total cpu time spent up to now is    12998.4 secs

     total energy              =   -7127.81025897 Ry
     Harris-Foulkes estimate   =   -7127.81025897 Ry
     estimated scf accuracy    <          5.1E-09 Ry

     iteration # 17     ecut=    35.00 Ry     beta=0.30
     Davidson diagonalization with overlap
     ethr =  8.89E-13,  avg # of iterations =  2.4

     total cpu time spent up to now is    13672.3 secs

     End of self-consistent calculation

          k = 0.0000 0.0000 0.0000 ( 32017 PWs)   bands (ev):

   -17.3393 -17.3241 -17.3176 -17.3145 -17.3121 -17.3067 -17.3012 -17.3004
   -17.2952 -17.2834 -17.2826 -17.2639 -17.2524 -17.2512 -17.2420 -17.2384
   -17.2352 -17.2293 -17.2288 -17.2200 -17.2164 -17.2144 -17.2129 -17.2114
   -17.2100 -17.2030 -17.2012 -17.2008 -17.1962 -17.1879 -17.1772 -17.1762
   -17.1672 -17.1616 -17.1607 -17.1379 -17.1351 -17.1339 -17.1315 -17.1311
   -17.1284 -17.1271 -17.1258 -17.1229 -17.1226 -17.1224 -17.1187 -17.1186
   -17.1159 -17.1145 -17.1142 -17.1123 -17.1114 -17.1018 -17.1006 -17.1002
   -17.0989 -17.0953 -17.0893 -17.0842 -17.0830 -17.0815 -17.0791 -17.0769
   -17.0724 -17.0685 -17.0669 -17.0642 -17.0600 -17.0579 -17.0572 -17.0558
   -17.0540 -17.0532 -17.0524 -17.0509 -17.0500 -17.0496 -17.0480 -17.0476
   -17.0463 -17.0446 -17.0443 -17.0440 -17.0436 -17.0427 -17.0411 -17.0404
   -17.0394 -17.0385 -17.0383 -17.0369 -17.0354 -17.0349 -17.0344 -17.0341
   -17.0325 -17.0322 -17.0309 -17.0305 -17.0294 -17.0283 -17.0254 -17.0252
   -17.0246 -17.0244 -17.0241 -17.0238 -17.0232 -17.0217 -17.0182 -17.0166
   -17.0164 -17.0158 -17.0149 -17.0140 -17.0094 -17.0078 -17.0066 -17.0060
   -17.0034 -17.0030 -17.0029 -17.0026 -16.9995 -16.9993 -16.9987 -16.9977
   -16.9964 -16.9934 -16.9930 -16.9921 -16.9917 -16.9915 -16.9878 -16.9874
   -16.9841 -16.9826 -16.9790 -16.9786 -16.9751 -16.9723 -16.9701 -16.9675
   -16.9631 -16.9577 -16.9535 -16.9527 -16.9494 -16.9462 -16.9452 -16.9379
   -16.9311 -16.9305 -16.9293 -16.9280 -16.9258 -16.9212 -16.9205 -16.9163
    -5.1720  -4.9612  -4.9221  -4.3879  -4.3518  -3.5981  -3.5416  -3.1393
    -3.0722  -2.9503  -2.9426  -2.9197  -2.8863  -2.8303  -2.8010  -2.7493
    -2.6640  -2.6102  -2.4964  -2.4292  -2.3294  -2.2966  -2.1978  -2.0545
    -1.9218  -1.8180  -1.7438  -1.7182  -1.6754  -1.1259  -1.0928  -1.0548
    -1.0140  -0.9366  -0.8308  -0.2315  -0.1793  -0.1381  -0.0934  -0.0583
    -0.0235   0.0247   0.0608   0.1237   0.1995   0.2050   0.2531   0.2584
     0.3102   0.3482   0.3679   0.4344   0.5062   0.5152   0.6000   0.6270
     0.6720   1.0775   1.0977   3.0533   3.0771   3.6542   3.6621   3.6735
     3.6806   3.6828   3.6863   3.8028   3.8037   3.8067   3.8115   3.8164
     3.8192   4.3555   4.3573   4.3592   4.3596   4.3602   4.3620   4.5260
     4.5270   4.5346   4.5399   4.5412   4.5428   4.8222   4.8408   4.8488
     4.8794   4.8919   4.8970   5.0135   5.0194   5.0278   5.0295   5.0359
     5.0432   5.4415   5.4856   5.6609   5.6689   5.6765   5.6822   5.6966
     5.6978   6.0238   6.0296   6.0313   6.0421   6.0473   6.0513   6.0591
     6.0615   6.1656   6.1691   6.1789   6.1808   6.5233   6.5261   6.5400
     6.5425   7.0375   7.0399   7.0584   7.0627   7.3658   7.3695   7.3740
     7.9157   7.9240   7.9381   7.9617   7.9885   8.0110   8.0434   8.0588
     8.1031   8.1324   8.1769   8.1835   8.2032   8.2260   8.2337   8.2693
     8.3442   8.4415   8.6378   8.6778   8.7180   8.7257   8.7557   8.7818
     8.8131   8.8181   8.9669   9.0292   9.0617   9.1587   9.2052   9.2121
     9.2233   9.2462   9.2530   9.2789   9.2868   9.3088   9.3434   9.3605
     9.3987   9.8672   9.8735   9.8851  10.3015  10.3046  10.3261  10.3302
    10.7210  10.7325  10.7533  10.7605  10.7831  10.7951  10.8022  10.8175
    10.8316  10.8513

     occupation numbers 
     1.0000   1.0000   1.0000   1.0000   1.0000   1.0000   1.0000   1.0000
     1.0000   1.0000   1.0000   1.0000   1.0000   1.0000   1.0000   1.0000
     1.0000   1.0000   1.0000   1.0000   1.0000   1.0000   1.0000   1.0000
     1.0000   1.0000   1.0000   1.0000   1.0000   1.0000   1.0000   1.0000
     1.0000   1.0000   1.0000   1.0000   1.0000   1.0000   1.0000   1.0000
     1.0000   1.0000   1.0000   1.0000   1.0000   1.0000   1.0000   1.0000
     1.0000   1.0000   1.0000   1.0000   1.0000   1.0000   1.0000   1.0000
     1.0000   1.0000   1.0000   1.0000   1.0000   1.0000   1.0000   1.0000
     1.0000   1.0000   1.0000   1.0000   1.0000   1.0000   1.0000   1.0000
     1.0000   1.0000   1.0000   1.0000   1.0000   1.0000   1.0000   1.0000
     1.0000   1.0000   1.0000   1.0000   1.0000   1.0000   1.0000   1.0000
     1.0000   1.0000   1.0000   1.0000   1.0000   1.0000   1.0000   1.0000
     1.0000   1.0000   1.0000   1.0000   1.0000   1.0000   1.0000   1.0000
     1.0000   1.0000   1.0000   1.0000   1.0000   1.0000   1.0000   1.0000
     1.0000   1.0000   1.0000   1.0000   1.0000   1.0000   1.0000   1.0000
     1.0000   1.0000   1.0000   1.0000   1.0000   1.0000   1.0000   1.0000
     1.0000   1.0000   1.0000   1.0000   1.0000   1.0000   1.0000   1.0000
     1.0000   1.0000   1.0000   1.0000   1.0000   1.0000   1.0000   1.0000
     1.0000   1.0000   1.0000   1.0000   1.0000   1.0000   1.0000   1.0000
     1.0000   1.0000   1.0000   1.0000   1.0000   1.0000   1.0000   1.0000
     1.0000   1.0000   1.0000   1.0000   1.0000   1.0000   1.0000   1.0000
     1.0000   1.0000   1.0000   1.0000   1.0000   1.0000   1.0000   1.0000
     1.0000   1.0000   1.0000   1.0000   1.0000   1.0000   1.0000   1.0000
     1.0000   1.0000   1.0000   1.0000   1.0000   1.0000   1.0000   1.0000
     1.0000   1.0000   1.0000   1.0000   1.0000   1.0000   1.0000   1.0000
     1.0000   1.0000   1.0000   1.0000   1.0000   1.0000   1.0000   1.0000
     1.0000   1.0000   1.0000   1.0000   1.0000   1.0000   1.0000   1.0000
     1.0000   1.0000   1.0000   1.0000   1.0000   1.0000   1.0000   1.0000
     1.0000   1.0000   1.0000   1.0000   1.0000   1.0000   1.0000   1.0000
     1.0000   1.0000   1.0000   1.0000   1.0000   1.0000   1.0000   1.0000
     1.0000   1.0000   1.0000   1.0000   1.0000   1.0000   1.0000   1.0000
     1.0000   1.0000   1.0000   1.0000   1.0000   1.0000   1.0000   1.0000
     1.0000   1.0000   1.0000   1.0000   1.0000   1.0000   1.0000   1.0000
     1.0000   1.0000   1.0000   1.0000   1.0000   1.0000   1.0000   1.0000
     1.0000   1.0000   1.0000   1.0000   1.0000   1.0000   1.0000   1.0000
     1.0000   0.9999   0.9999   0.9999   0.9998   0.9329   0.9296   0.9252
     0.0104   0.0089   0.0068   0.0043   0.0024   0.0015   0.0007   0.0005
     0.0002   0.0001   0.0000   0.0000   0.0000   0.0000   0.0000   0.0000
     0.0000   0.0000   0.0000   0.0000   0.0000   0.0000   0.0000   0.0000
     0.0000   0.0000   0.0000   0.0000   0.0000   0.0000   0.0000   0.0000
     0.0000   0.0000   0.0000   0.0000   0.0000   0.0000   0.0000   0.0000
     0.0000   0.0000   0.0000   0.0000   0.0000   0.0000   0.0000   0.0000
     0.0000   0.0000   0.0000   0.0000   0.0000   0.0000   0.0000   0.0000
     0.0000   0.0000

          k = 0.1768-0.1768 0.1768 ( 32087 PWs)   bands (ev):

   -17.3396 -17.3249 -17.3178 -17.3155 -17.3131 -17.3069 -17.3013 -17.3012
   -17.2986 -17.2839 -17.2828 -17.2643 -17.2540 -17.2517 -17.2420 -17.2365
   -17.2336 -17.2288 -17.2270 -17.2183 -17.2153 -17.2131 -17.2116 -17.2097
   -17.2092 -17.2016 -17.2010 -17.1982 -17.1959 -17.1878 -17.1768 -17.1764
   -17.1633 -17.1613 -17.1607 -17.1369 -17.1344 -17.1336 -17.1313 -17.1303
   -17.1283 -17.1268 -17.1258 -17.1230 -17.1223 -17.1214 -17.1189 -17.1183
   -17.1162 -17.1150 -17.1139 -17.1124 -17.1114 -17.1031 -17.1006 -17.1001
   -17.0983 -17.0946 -17.0908 -17.0844 -17.0829 -17.0825 -17.0789 -17.0778
   -17.0734 -17.0700 -17.0671 -17.0651 -17.0616 -17.0588 -17.0570 -17.0557
   -17.0549 -17.0530 -17.0526 -17.0513 -17.0502 -17.0486 -17.0482 -17.0472
   -17.0469 -17.0459 -17.0440 -17.0439 -17.0427 -17.0421 -17.0410 -17.0397
   -17.0394 -17.0386 -17.0383 -17.0367 -17.0354 -17.0345 -17.0344 -17.0339
   -17.0327 -17.0324 -17.0309 -17.0303 -17.0290 -17.0283 -17.0255 -17.0251
   -17.0245 -17.0242 -17.0241 -17.0239 -17.0234 -17.0220 -17.0178 -17.0170
   -17.0165 -17.0162 -17.0152 -17.0140 -17.0099 -17.0089 -17.0074 -17.0066
   -17.0045 -17.0032 -17.0027 -17.0018 -16.9995 -16.9994 -16.9990 -16.9977
   -16.9963 -16.9960 -16.9932 -16.9920 -16.9918 -16.9915 -16.9877 -16.9873
   -16.9832 -16.9805 -16.9791 -16.9775 -16.9750 -16.9722 -16.9701 -16.9669
   -16.9635 -16.9580 -16.9554 -16.9500 -16.9487 -16.9459 -16.9444 -16.9323
   -16.9316 -16.9303 -16.9292 -16.9276 -16.9263 -16.9217 -16.9196 -16.9172
    -4.9930  -4.8621  -4.6459  -4.4132  -3.9856  -3.7282  -3.6700  -3.4860
    -3.4338  -3.1961  -3.1530  -3.1015  -3.0342  -2.9866  -2.9263  -2.8367
    -2.7724  -2.7261  -2.6590  -2.5285  -2.4885  -2.3253  -2.2536  -2.1458
    -1.9254  -1.8602  -1.8020  -1.6929  -1.6026  -1.4091  -1.0044  -0.9959
    -0.8991  -0.8843  -0.4561  -0.2107  -0.1889  -0.0824  -0.0519   0.0406
     0.1186   0.1660   0.2067   0.2685   0.3107   0.3505   0.5607   0.5967
     0.6267   0.6971   0.8321   0.8644   1.0022   1.0453   1.1279   1.1793
     1.6813   1.6953   1.9115   2.3390   2.9737   3.1955   3.1962   3.2260
     3.6770   3.7144   3.7433   3.8028   3.8046   3.8083   3.8286   3.8308
     3.8330   3.8349   3.8699   3.8756   3.8780   3.8829   4.2618   4.2928
     4.2949   4.4917   4.4940   4.5327   4.5353   4.5375   4.5559   4.6172
     4.6186   4.6889   4.6920   4.7006   4.7105   4.7999   4.8573   4.8620
     4.8729   4.8947   5.0338   5.0932   5.0948   5.2992   5.3052   5.3309
     5.3414   5.3526   5.4680   5.5987   5.6427   5.6630   5.6659   5.6777
     5.6940   5.6965   5.9514   5.9541   5.9823   5.9863   5.9930   6.0017
     6.1690   6.1720   6.4903   6.5113   6.5293   7.0205   7.0507   7.0611
     7.8537   8.1444   8.1628   8.1854   8.2895   8.4555   8.5854   8.8294
     8.9892   9.0264   9.0766   9.0805   9.1202   9.1323   9.1508   9.1684
     9.1955   9.2144   9.2298   9.2471   9.2625   9.2770   9.3013   9.3079
     9.3202   9.3468   9.3547   9.3732   9.4121   9.4397   9.5706   9.6648
     9.6735   9.7858   9.9095   9.9361  10.0406  10.0644  10.1071  10.1171
    10.1775  10.3166  10.3222  10.4542  10.4810  10.5373  10.5631  10.5943
    10.6452  10.7340  10.7576  10.7868  10.7995  10.8114  10.8238  10.8509
    10.9078  10.9252

     occupation numbers 
     1.0000   1.0000   1.0000   1.0000   1.0000   1.0000   1.0000   1.0000
     1.0000   1.0000   1.0000   1.0000   1.0000   1.0000   1.0000   1.0000
     1.0000   1.0000   1.0000   1.0000   1.0000   1.0000   1.0000   1.0000
     1.0000   1.0000   1.0000   1.0000   1.0000   1.0000   1.0000   1.0000
     1.0000   1.0000   1.0000   1.0000   1.0000   1.0000   1.0000   1.0000
     1.0000   1.0000   1.0000   1.0000   1.0000   1.0000   1.0000   1.0000
     1.0000   1.0000   1.0000   1.0000   1.0000   1.0000   1.0000   1.0000
     1.0000   1.0000   1.0000   1.0000   1.0000   1.0000   1.0000   1.0000
     1.0000   1.0000   1.0000   1.0000   1.0000   1.0000   1.0000   1.0000
     1.0000   1.0000   1.0000   1.0000   1.0000   1.0000   1.0000   1.0000
     1.0000   1.0000   1.0000   1.0000   1.0000   1.0000   1.0000   1.0000
     1.0000   1.0000   1.0000   1.0000   1.0000   1.0000   1.0000   1.0000
     1.0000   1.0000   1.0000   1.0000   1.0000   1.0000   1.0000   1.0000
     1.0000   1.0000   1.0000   1.0000   1.0000   1.0000   1.0000   1.0000
     1.0000   1.0000   1.0000   1.0000   1.0000   1.0000   1.0000   1.0000
     1.0000   1.0000   1.0000   1.0000   1.0000   1.0000   1.0000   1.0000
     1.0000   1.0000   1.0000   1.0000   1.0000   1.0000   1.0000   1.0000
     1.0000   1.0000   1.0000   1.0000   1.0000   1.0000   1.0000   1.0000
     1.0000   1.0000   1.0000   1.0000   1.0000   1.0000   1.0000   1.0000
     1.0000   1.0000   1.0000   1.0000   1.0000   1.0000   1.0000   1.0000
     1.0000   1.0000   1.0000   1.0000   1.0000   1.0000   1.0000   1.0000
     1.0000   1.0000   1.0000   1.0000   1.0000   1.0000   1.0000   1.0000
     1.0000   1.0000   1.0000   1.0000   1.0000   1.0000   1.0000   1.0000
     1.0000   1.0000   1.0000   1.0000   1.0000   1.0000   1.0000   1.0000
     1.0000   1.0000   1.0000   1.0000   1.0000   1.0000   1.0000   1.0000
     1.0000   1.0000   1.0000   1.0000   1.0000   1.0000   1.0000   1.0000
     1.0000   1.0000   1.0000   1.0000   1.0000   1.0000   1.0000   1.0000
     1.0000   1.0000   1.0000   1.0000   1.0000   1.0000   1.0000   1.0000
     1.0000   1.0000   1.0000   1.0000   1.0000   1.0000   1.0000   1.0000
     1.0000   1.0000   1.0000   1.0000   1.0000   1.0000   1.0000   1.0000
     1.0000   1.0000   1.0000   1.0000   1.0000   1.0000   1.0000   1.0000
     1.0000   1.0000   1.0000   1.0000   1.0000   1.0000   1.0000   1.0000
     1.0000   1.0000   1.0000   1.0000   1.0000   1.0000   1.0000   1.0000
     1.0000   1.0000   1.0000   1.0000   1.0000   1.0000   1.0000   1.0000
     1.0000   1.0000   1.0000   1.0000   1.0000   1.0000   1.0000   1.0000
     1.0000   1.0000   1.0000   1.0000   1.0000   1.0000   0.9999   0.9998
     0.0299   0.0000   0.0000   0.0000   0.0000   0.0000   0.0000   0.0000
     0.0000   0.0000   0.0000   0.0000   0.0000   0.0000   0.0000   0.0000
     0.0000   0.0000   0.0000   0.0000   0.0000   0.0000   0.0000   0.0000
     0.0000   0.0000   0.0000   0.0000   0.0000   0.0000   0.0000   0.0000
     0.0000   0.0000   0.0000   0.0000   0.0000   0.0000   0.0000   0.0000
     0.0000   0.0000   0.0000   0.0000   0.0000   0.0000   0.0000   0.0000
     0.0000   0.0000   0.0000   0.0000   0.0000   0.0000   0.0000   0.0000
     0.0000   0.0000

          k =-0.3536 0.3536-0.3536 ( 32056 PWs)   bands (ev):

   -17.3399 -17.3259 -17.3185 -17.3164 -17.3134 -17.3070 -17.3025 -17.3011
   -17.3009 -17.2845 -17.2830 -17.2648 -17.2549 -17.2519 -17.2420 -17.2353
   -17.2330 -17.2284 -17.2258 -17.2175 -17.2147 -17.2122 -17.2117 -17.2085
   -17.2048 -17.2013 -17.2009 -17.1955 -17.1943 -17.1876 -17.1769 -17.1763
   -17.1628 -17.1608 -17.1538 -17.1372 -17.1336 -17.1331 -17.1309 -17.1295
   -17.1282 -17.1281 -17.1262 -17.1232 -17.1219 -17.1203 -17.1191 -17.1180
   -17.1159 -17.1155 -17.1136 -17.1124 -17.1114 -17.1049 -17.1005 -17.1000
   -17.0977 -17.0933 -17.0923 -17.0863 -17.0830 -17.0818 -17.0791 -17.0778
   -17.0746 -17.0723 -17.0673 -17.0664 -17.0632 -17.0594 -17.0574 -17.0559
   -17.0551 -17.0531 -17.0525 -17.0517 -17.0501 -17.0489 -17.0483 -17.0468
   -17.0466 -17.0448 -17.0440 -17.0437 -17.0421 -17.0416 -17.0411 -17.0401
   -17.0393 -17.0391 -17.0379 -17.0368 -17.0355 -17.0347 -17.0341 -17.0337
   -17.0333 -17.0327 -17.0304 -17.0296 -17.0287 -17.0285 -17.0260 -17.0250
   -17.0245 -17.0243 -17.0240 -17.0236 -17.0233 -17.0223 -17.0189 -17.0169
   -17.0168 -17.0162 -17.0156 -17.0141 -17.0114 -17.0088 -17.0071 -17.0068
   -17.0051 -17.0032 -17.0029 -17.0007 -16.9997 -16.9993 -16.9991 -16.9979
   -16.9977 -16.9961 -16.9931 -16.9917 -16.9917 -16.9907 -16.9876 -16.9873
   -16.9825 -16.9798 -16.9792 -16.9765 -16.9747 -16.9728 -16.9698 -16.9661
   -16.9639 -16.9581 -16.9557 -16.9493 -16.9479 -16.9455 -16.9411 -16.9320
   -16.9314 -16.9293 -16.9277 -16.9271 -16.9269 -16.9223 -16.9182 -16.9181
    -4.5861  -4.4692  -4.3997  -4.2805  -4.1796  -4.0739  -3.9854  -3.7716
    -3.5218  -3.4517  -3.2815  -3.1950  -3.1356  -3.0803  -3.0115  -2.9440
    -2.9213  -2.8390  -2.6453  -2.5477  -2.4656  -2.4037  -2.3491  -2.3068
    -2.1568  -2.0722  -1.7845  -1.7526  -1.6394  -1.5335  -0.9495  -0.9366
    -0.8172  -0.7980  -0.2812  -0.1387  -0.1337  -0.0784   0.1923   0.2551
     0.3817   0.4363   0.5029   0.5331   0.5783   0.6176   1.0088   1.0308
     1.0665   1.1087   1.3267   1.3748   1.3887   1.4736   1.8404   2.0083
     2.2815   2.3678   3.0245   3.0891   3.1855   3.1899   3.1986   3.1999
     3.2139   3.2310   3.2944   3.3110   3.4159   3.4174   3.4257   3.4260
     3.4846   3.4877   3.4949   3.4950   3.6465   3.6560   3.6616   3.6759
     3.6805   3.6959   3.7128   3.7711   3.8741   3.8777   3.8851   3.8912
     4.2887   4.2925   4.2959   4.2980   4.5453   4.5644   4.8822   4.9030
     5.0125   5.0178   5.0216   5.0253   5.0262   5.0325   5.0462   5.0574
     5.3090   5.3151   5.3178   5.3229   5.3444   5.3564   5.3715   5.3755
     5.3798   5.3837   5.9134   5.9179   5.9291   5.9313   5.9553   5.9605
     5.9811   5.9838   6.4749   6.5102   6.5177   6.5367   6.5506   6.5584
     8.3290   8.3362   8.5329   8.5964   8.6549   8.6863   8.7169   8.7388
     8.7564   8.7865   8.7965   8.8243   9.0271   9.0923   9.3384   9.3624
     9.4622   9.5175   9.5268   9.5421   9.5742   9.5883   9.6564   9.6703
     9.6931   9.7326  10.0259  10.0457  10.0623  10.0735  10.1585  10.1706
    10.3075  10.3316  10.4801  10.5110  10.7558  10.7885  10.8014  10.8064
    10.8285  10.8698  10.9405  10.9480  11.0020  11.0990  11.1875  11.2676
    11.5510  11.5636  11.5870  11.5986  11.6605  11.6866  11.7024  11.7391
    11.7455  11.7542

     occupation numbers 
     1.0000   1.0000   1.0000   1.0000   1.0000   1.0000   1.0000   1.0000
     1.0000   1.0000   1.0000   1.0000   1.0000   1.0000   1.0000   1.0000
     1.0000   1.0000   1.0000   1.0000   1.0000   1.0000   1.0000   1.0000
     1.0000   1.0000   1.0000   1.0000   1.0000   1.0000   1.0000   1.0000
     1.0000   1.0000   1.0000   1.0000   1.0000   1.0000   1.0000   1.0000
     1.0000   1.0000   1.0000   1.0000   1.0000   1.0000   1.0000   1.0000
     1.0000   1.0000   1.0000   1.0000   1.0000   1.0000   1.0000   1.0000
     1.0000   1.0000   1.0000   1.0000   1.0000   1.0000   1.0000   1.0000
     1.0000   1.0000   1.0000   1.0000   1.0000   1.0000   1.0000   1.0000
     1.0000   1.0000   1.0000   1.0000   1.0000   1.0000   1.0000   1.0000
     1.0000   1.0000   1.0000   1.0000   1.0000   1.0000   1.0000   1.0000
     1.0000   1.0000   1.0000   1.0000   1.0000   1.0000   1.0000   1.0000
     1.0000   1.0000   1.0000   1.0000   1.0000   1.0000   1.0000   1.0000
     1.0000   1.0000   1.0000   1.0000   1.0000   1.0000   1.0000   1.0000
     1.0000   1.0000   1.0000   1.0000   1.0000   1.0000   1.0000   1.0000
     1.0000   1.0000   1.0000   1.0000   1.0000   1.0000   1.0000   1.0000
     1.0000   1.0000   1.0000   1.0000   1.0000   1.0000   1.0000   1.0000
     1.0000   1.0000   1.0000   1.0000   1.0000   1.0000   1.0000   1.0000
     1.0000   1.0000   1.0000   1.0000   1.0000   1.0000   1.0000   1.0000
     1.0000   1.0000   1.0000   1.0000   1.0000   1.0000   1.0000   1.0000
     1.0000   1.0000   1.0000   1.0000   1.0000   1.0000   1.0000   1.0000
     1.0000   1.0000   1.0000   1.0000   1.0000   1.0000   1.0000   1.0000
     1.0000   1.0000   1.0000   1.0000   1.0000   1.0000   1.0000   1.0000
     1.0000   1.0000   1.0000   1.0000   1.0000   1.0000   1.0000   1.0000
     1.0000   1.0000   1.0000   1.0000   1.0000   1.0000   1.0000   1.0000
     1.0000   1.0000   1.0000   1.0000   1.0000   1.0000   1.0000   1.0000
     1.0000   1.0000   1.0000   1.0000   1.0000   1.0000   1.0000   1.0000
     1.0000   1.0000   1.0000   1.0000   1.0000   1.0000   1.0000   1.0000
     1.0000   1.0000   1.0000   1.0000   1.0000   1.0000   1.0000   1.0000
     1.0000   1.0000   1.0000   1.0000   1.0000   1.0000   1.0000   1.0000
     1.0000   1.0000   1.0000   1.0000   1.0000   1.0000   1.0000   1.0000
     1.0000   1.0000   1.0000   1.0000   1.0000   1.0000   1.0000   1.0000
     1.0000   1.0000   1.0000   1.0000   1.0000   1.0000   1.0000   1.0000
     1.0000   1.0000   1.0000   1.0000   1.0000   1.0000   1.0000   1.0000
     1.0000   1.0000   1.0000   1.0000   1.0000   1.0000   1.0000   1.0000
     1.0000   1.0000   1.0000   1.0000   1.0000   1.0000   1.0000   1.0000
     0.0000   0.0000   0.0000   0.0000   0.0000   0.0000   0.0000   0.0000
     0.0000   0.0000   0.0000   0.0000   0.0000   0.0000   0.0000   0.0000
     0.0000   0.0000   0.0000   0.0000   0.0000   0.0000   0.0000   0.0000
     0.0000   0.0000   0.0000   0.0000   0.0000   0.0000   0.0000   0.0000
     0.0000   0.0000   0.0000   0.0000   0.0000   0.0000   0.0000   0.0000
     0.0000   0.0000   0.0000   0.0000   0.0000   0.0000   0.0000   0.0000
     0.0000   0.0000   0.0000   0.0000   0.0000   0.0000   0.0000   0.0000
     0.0000   0.0000

          k =-0.5303 0.5303-0.1768 ( 32066 PWs)   bands (ev):

   -17.3395 -17.3249 -17.3179 -17.3156 -17.3134 -17.3073 -17.3015 -17.3012
   -17.2989 -17.2843 -17.2829 -17.2645 -17.2542 -17.2516 -17.2418 -17.2365
   -17.2334 -17.2288 -17.2266 -17.2179 -17.2149 -17.2129 -17.2116 -17.2095
   -17.2089 -17.2015 -17.2010 -17.1982 -17.1955 -17.1875 -17.1767 -17.1761
   -17.1633 -17.1608 -17.1605 -17.1366 -17.1337 -17.1334 -17.1312 -17.1303
   -17.1274 -17.1266 -17.1255 -17.1232 -17.1222 -17.1213 -17.1190 -17.1183
   -17.1163 -17.1143 -17.1140 -17.1122 -17.1118 -17.1027 -17.1006 -17.1000
   -17.0981 -17.0940 -17.0910 -17.0866 -17.0833 -17.0825 -17.0785 -17.0772
   -17.0738 -17.0707 -17.0684 -17.0657 -17.0626 -17.0596 -17.0573 -17.0560
   -17.0553 -17.0530 -17.0524 -17.0516 -17.0496 -17.0494 -17.0479 -17.0469
   -17.0463 -17.0444 -17.0441 -17.0436 -17.0421 -17.0415 -17.0412 -17.0398
   -17.0391 -17.0386 -17.0370 -17.0367 -17.0360 -17.0344 -17.0338 -17.0336
   -17.0325 -17.0323 -17.0306 -17.0300 -17.0287 -17.0283 -17.0255 -17.0254
   -17.0246 -17.0242 -17.0241 -17.0240 -17.0237 -17.0219 -17.0173 -17.0169
   -17.0164 -17.0162 -17.0157 -17.0134 -17.0098 -17.0089 -17.0074 -17.0061
   -17.0044 -17.0026 -17.0023 -17.0015 -16.9995 -16.9994 -16.9989 -16.9979
   -16.9964 -16.9958 -16.9930 -16.9919 -16.9917 -16.9910 -16.9877 -16.9873
   -16.9834 -16.9801 -16.9785 -16.9763 -16.9748 -16.9719 -16.9700 -16.9665
   -16.9635 -16.9579 -16.9552 -16.9498 -16.9487 -16.9458 -16.9448 -16.9328
   -16.9313 -16.9308 -16.9292 -16.9277 -16.9263 -16.9216 -16.9199 -16.9178
    -4.6912  -4.4865  -4.4464  -4.0968  -3.9798  -3.9237  -3.8805  -3.7829
    -3.6967  -3.6445  -3.5476  -3.3877  -3.3321  -3.0498  -2.9992  -2.9802
    -2.8297  -2.6481  -2.5659  -2.4438  -2.3638  -2.2802  -2.2441  -2.1355
    -2.0224  -1.9774  -1.9119  -1.7864  -1.6928  -1.5868  -1.5345  -1.3248
    -0.5150  -0.2893  -0.2335  -0.1413  -0.0451   0.0800   0.1136   0.1937
     0.2438   0.2683   0.3185   0.3636   0.3788   0.7903   0.8789   1.0303
     1.0680   1.0885   1.1223   1.6264   1.7079   1.8472   1.9334   2.2537
     2.3550   2.5187   2.5613   2.6167   2.6766   2.9732   3.0264   3.0308
     3.0349   3.0448   3.1880   3.1919   3.2007   3.2050   3.2225   3.2334
     3.6860   3.7102   3.7307   3.7490   3.8535   3.8694   3.8745   3.8808
     3.8879   3.8969   4.2698   4.2874   4.2914   4.2945   4.2984   4.4910
     4.4928   4.5187   4.5217   4.5326   4.5422   4.5567   4.5690   4.6629
     4.6674   4.6691   4.6725   4.7994   4.8816   4.9063   5.0300   5.0354
     5.0925   5.0969   5.3020   5.3122   5.3203   5.3209   5.3283   5.3323
     5.3537   5.3580   5.6471   5.6581   5.6797   5.8004   5.8160   5.8233
     5.8346   5.9574   5.9658   5.9748   5.9769   6.4936   6.5177   7.0267
     8.4531   8.5797   8.5947   9.0111   9.0382   9.1660   9.1955   9.2703
     9.2920   9.3588   9.3638   9.4486   9.5362   9.5876   9.6214   9.6400
     9.6527   9.6838   9.6961   9.7373   9.7456   9.7884   9.8843   9.9458
     9.9916  10.0185  10.0328  10.0526  10.0781  10.0947  10.1052  10.1350
    10.1435  10.1902  10.2007  10.2203  10.4427  10.4690  10.4845  10.5405
    10.5521  10.6331  10.6890  10.7044  10.7272  10.7565  10.7832  10.8004
    10.8275  10.8379  10.8636  10.8859  11.0205  11.0845  11.1761  11.2703
    11.4287  11.5847

     occupation numbers 
     1.0000   1.0000   1.0000   1.0000   1.0000   1.0000   1.0000   1.0000
     1.0000   1.0000   1.0000   1.0000   1.0000   1.0000   1.0000   1.0000
     1.0000   1.0000   1.0000   1.0000   1.0000   1.0000   1.0000   1.0000
     1.0000   1.0000   1.0000   1.0000   1.0000   1.0000   1.0000   1.0000
     1.0000   1.0000   1.0000   1.0000   1.0000   1.0000   1.0000   1.0000
     1.0000   1.0000   1.0000   1.0000   1.0000   1.0000   1.0000   1.0000
     1.0000   1.0000   1.0000   1.0000   1.0000   1.0000   1.0000   1.0000
     1.0000   1.0000   1.0000   1.0000   1.0000   1.0000   1.0000   1.0000
     1.0000   1.0000   1.0000   1.0000   1.0000   1.0000   1.0000   1.0000
     1.0000   1.0000   1.0000   1.0000   1.0000   1.0000   1.0000   1.0000
     1.0000   1.0000   1.0000   1.0000   1.0000   1.0000   1.0000   1.0000
     1.0000   1.0000   1.0000   1.0000   1.0000   1.0000   1.0000   1.0000
     1.0000   1.0000   1.0000   1.0000   1.0000   1.0000   1.0000   1.0000
     1.0000   1.0000   1.0000   1.0000   1.0000   1.0000   1.0000   1.0000
     1.0000   1.0000   1.0000   1.0000   1.0000   1.0000   1.0000   1.0000
     1.0000   1.0000   1.0000   1.0000   1.0000   1.0000   1.0000   1.0000
     1.0000   1.0000   1.0000   1.0000   1.0000   1.0000   1.0000   1.0000
     1.0000   1.0000   1.0000   1.0000   1.0000   1.0000   1.0000   1.0000
     1.0000   1.0000   1.0000   1.0000   1.0000   1.0000   1.0000   1.0000
     1.0000   1.0000   1.0000   1.0000   1.0000   1.0000   1.0000   1.0000
     1.0000   1.0000   1.0000   1.0000   1.0000   1.0000   1.0000   1.0000
     1.0000   1.0000   1.0000   1.0000   1.0000   1.0000   1.0000   1.0000
     1.0000   1.0000   1.0000   1.0000   1.0000   1.0000   1.0000   1.0000
     1.0000   1.0000   1.0000   1.0000   1.0000   1.0000   1.0000   1.0000
     1.0000   1.0000   1.0000   1.0000   1.0000   1.0000   1.0000   1.0000
     1.0000   1.0000   1.0000   1.0000   1.0000   1.0000   1.0000   1.0000
     1.0000   1.0000   1.0000   1.0000   1.0000   1.0000   1.0000   1.0000
     1.0000   1.0000   1.0000   1.0000   1.0000   1.0000   1.0000   1.0000
     1.0000   1.0000   1.0000   1.0000   1.0000   1.0000   1.0000   1.0000
     1.0000   1.0000   1.0000   1.0000   1.0000   1.0000   1.0000   1.0000
     1.0000   1.0000   1.0000   1.0000   1.0000   1.0000   1.0000   1.0000
     1.0000   1.0000   1.0000   1.0000   1.0000   1.0000   1.0000   1.0000
     1.0000   1.0000   1.0000   1.0000   1.0000   1.0000   1.0000   1.0000
     1.0000   1.0000   1.0000   1.0000   1.0000   1.0000   1.0000   1.0000
     1.0000   1.0000   1.0000   1.0000   1.0000   1.0000   1.0000   1.0000
     1.0000   1.0000   1.0000   1.0000   1.0000   1.0000   1.0000   0.9999
     0.0000   0.0000   0.0000   0.0000   0.0000   0.0000   0.0000   0.0000
     0.0000   0.0000   0.0000   0.0000   0.0000   0.0000   0.0000   0.0000
     0.0000   0.0000   0.0000   0.0000   0.0000   0.0000   0.0000   0.0000
     0.0000   0.0000   0.0000   0.0000   0.0000   0.0000   0.0000   0.0000
     0.0000   0.0000   0.0000   0.0000   0.0000   0.0000   0.0000   0.0000
     0.0000   0.0000   0.0000   0.0000   0.0000   0.0000   0.0000   0.0000
     0.0000   0.0000   0.0000   0.0000   0.0000   0.0000   0.0000   0.0000
     0.0000   0.0000

          k = 0.1768-0.1768-0.1768 ( 32087 PWs)   bands (ev):

   -17.3396 -17.3249 -17.3177 -17.3153 -17.3133 -17.3069 -17.3012 -17.3012
   -17.2987 -17.2839 -17.2829 -17.2643 -17.2543 -17.2516 -17.2420 -17.2365
   -17.2338 -17.2288 -17.2270 -17.2182 -17.2154 -17.2128 -17.2117 -17.2097
   -17.2092 -17.2015 -17.2010 -17.1982 -17.1959 -17.1878 -17.1768 -17.1765
   -17.1633 -17.1614 -17.1607 -17.1368 -17.1339 -17.1335 -17.1311 -17.1303
   -17.1283 -17.1268 -17.1258 -17.1230 -17.1223 -17.1214 -17.1188 -17.1183
   -17.1159 -17.1152 -17.1139 -17.1124 -17.1113 -17.1032 -17.1006 -17.1001
   -17.0983 -17.0947 -17.0908 -17.0846 -17.0831 -17.0828 -17.0787 -17.0777
   -17.0732 -17.0706 -17.0670 -17.0655 -17.0624 -17.0592 -17.0570 -17.0561
   -17.0550 -17.0532 -17.0525 -17.0511 -17.0502 -17.0488 -17.0477 -17.0470
   -17.0466 -17.0458 -17.0441 -17.0438 -17.0428 -17.0419 -17.0408 -17.0395
   -17.0394 -17.0389 -17.0386 -17.0365 -17.0353 -17.0347 -17.0345 -17.0342
   -17.0327 -17.0324 -17.0309 -17.0303 -17.0287 -17.0283 -17.0255 -17.0251
   -17.0244 -17.0243 -17.0241 -17.0237 -17.0231 -17.0216 -17.0179 -17.0169
   -17.0165 -17.0162 -17.0153 -17.0134 -17.0098 -17.0088 -17.0072 -17.0068
   -17.0046 -17.0033 -17.0028 -17.0018 -16.9995 -16.9993 -16.9990 -16.9974
   -16.9967 -16.9962 -16.9931 -16.9921 -16.9918 -16.9916 -16.9876 -16.9872
   -16.9834 -16.9804 -16.9787 -16.9775 -16.9750 -16.9720 -16.9700 -16.9670
   -16.9635 -16.9580 -16.9553 -16.9501 -16.9487 -16.9459 -16.9440 -16.9325
   -16.9316 -16.9304 -16.9290 -16.9277 -16.9262 -16.9218 -16.9200 -16.9173
    -4.9930  -4.8626  -4.6431  -4.4152  -3.9718  -3.7461  -3.6192  -3.4943
    -3.4541  -3.2263  -3.1641  -3.0822  -3.0442  -2.9832  -2.9551  -2.8905
    -2.7750  -2.7311  -2.6269  -2.5361  -2.4288  -2.3602  -2.2052  -2.1302
    -1.9255  -1.8375  -1.7778  -1.6775  -1.6230  -1.4428  -1.0457  -0.9999
    -0.9525  -0.7840  -0.4407  -0.2218  -0.1384  -0.0973  -0.0765   0.0023
     0.1269   0.1687   0.2071   0.2642   0.2748   0.3666   0.5450   0.5858
     0.6237   0.6838   0.8420   0.8906   0.9903   1.0686   1.0971   1.2157
     1.6516   1.7327   1.9078   2.3366   2.9740   3.1892   3.2029   3.2267
     3.6735   3.7059   3.7557   3.8019   3.8068   3.8080   3.8247   3.8329
     3.8339   3.8365   3.8712   3.8728   3.8788   3.8836   4.2624   4.2933
     4.2939   4.4916   4.4951   4.5328   4.5344   4.5373   4.5555   4.6180
     4.6186   4.6876   4.6931   4.7016   4.7097   4.8000   4.8528   4.8647
     4.8729   4.8961   5.0335   5.0919   5.0960   5.2980   5.3128   5.3243
     5.3442   5.3520   5.4641   5.6013   5.6405   5.6553   5.6750   5.6828
     5.6857   5.7004   5.9502   5.9584   5.9776   5.9846   5.9964   6.0014
     6.1696   6.1730   6.4910   6.5112   6.5260   7.0187   7.0508   7.0607
     7.8524   8.1429   8.1684   8.1871   8.2958   8.4645   8.5839   8.8316
     8.9799   9.0408   9.0648   9.0698   9.1084   9.1221   9.1527   9.1699
     9.1970   9.2138   9.2337   9.2405   9.2646   9.2710   9.2862   9.3013
     9.3231   9.3485   9.3711   9.3877   9.4210   9.4369   9.5789   9.6501
     9.6800   9.7891   9.9095   9.9465  10.0201  10.0653  10.0938  10.1327
    10.2066  10.3101  10.3301  10.4523  10.4871  10.5232  10.5525  10.6065
    10.6292  10.7182  10.7495  10.7813  10.7944  10.8046  10.8410  10.8564
    10.9209  10.9271

     occupation numbers 
     1.0000   1.0000   1.0000   1.0000   1.0000   1.0000   1.0000   1.0000
     1.0000   1.0000   1.0000   1.0000   1.0000   1.0000   1.0000   1.0000
     1.0000   1.0000   1.0000   1.0000   1.0000   1.0000   1.0000   1.0000
     1.0000   1.0000   1.0000   1.0000   1.0000   1.0000   1.0000   1.0000
     1.0000   1.0000   1.0000   1.0000   1.0000   1.0000   1.0000   1.0000
     1.0000   1.0000   1.0000   1.0000   1.0000   1.0000   1.0000   1.0000
     1.0000   1.0000   1.0000   1.0000   1.0000   1.0000   1.0000   1.0000
     1.0000   1.0000   1.0000   1.0000   1.0000   1.0000   1.0000   1.0000
     1.0000   1.0000   1.0000   1.0000   1.0000   1.0000   1.0000   1.0000
     1.0000   1.0000   1.0000   1.0000   1.0000   1.0000   1.0000   1.0000
     1.0000   1.0000   1.0000   1.0000   1.0000   1.0000   1.0000   1.0000
     1.0000   1.0000   1.0000   1.0000   1.0000   1.0000   1.0000   1.0000
     1.0000   1.0000   1.0000   1.0000   1.0000   1.0000   1.0000   1.0000
     1.0000   1.0000   1.0000   1.0000   1.0000   1.0000   1.0000   1.0000
     1.0000   1.0000   1.0000   1.0000   1.0000   1.0000   1.0000   1.0000
     1.0000   1.0000   1.0000   1.0000   1.0000   1.0000   1.0000   1.0000
     1.0000   1.0000   1.0000   1.0000   1.0000   1.0000   1.0000   1.0000
     1.0000   1.0000   1.0000   1.0000   1.0000   1.0000   1.0000   1.0000
     1.0000   1.0000   1.0000   1.0000   1.0000   1.0000   1.0000   1.0000
     1.0000   1.0000   1.0000   1.0000   1.0000   1.0000   1.0000   1.0000
     1.0000   1.0000   1.0000   1.0000   1.0000   1.0000   1.0000   1.0000
     1.0000   1.0000   1.0000   1.0000   1.0000   1.0000   1.0000   1.0000
     1.0000   1.0000   1.0000   1.0000   1.0000   1.0000   1.0000   1.0000
     1.0000   1.0000   1.0000   1.0000   1.0000   1.0000   1.0000   1.0000
     1.0000   1.0000   1.0000   1.0000   1.0000   1.0000   1.0000   1.0000
     1.0000   1.0000   1.0000   1.0000   1.0000   1.0000   1.0000   1.0000
     1.0000   1.0000   1.0000   1.0000   1.0000   1.0000   1.0000   1.0000
     1.0000   1.0000   1.0000   1.0000   1.0000   1.0000   1.0000   1.0000
     1.0000   1.0000   1.0000   1.0000   1.0000   1.0000   1.0000   1.0000
     1.0000   1.0000   1.0000   1.0000   1.0000   1.0000   1.0000   1.0000
     1.0000   1.0000   1.0000   1.0000   1.0000   1.0000   1.0000   1.0000
     1.0000   1.0000   1.0000   1.0000   1.0000   1.0000   1.0000   1.0000
     1.0000   1.0000   1.0000   1.0000   1.0000   1.0000   1.0000   1.0000
     1.0000   1.0000   1.0000   1.0000   1.0000   1.0000   1.0000   1.0000
     1.0000   1.0000   1.0000   1.0000   1.0000   1.0000   1.0000   1.0000
     1.0000   1.0000   1.0000   1.0000   1.0000   1.0000   0.9999   0.9998
     0.0305   0.0001   0.0000   0.0000   0.0000   0.0000   0.0000   0.0000
     0.0000   0.0000   0.0000   0.0000   0.0000   0.0000   0.0000   0.0000
     0.0000   0.0000   0.0000   0.0000   0.0000   0.0000   0.0000   0.0000
     0.0000   0.0000   0.0000   0.0000   0.0000   0.0000   0.0000   0.0000
     0.0000   0.0000   0.0000   0.0000   0.0000   0.0000   0.0000   0.0000
     0.0000   0.0000   0.0000   0.0000   0.0000   0.0000   0.0000   0.0000
     0.0000   0.0000   0.0000   0.0000   0.0000   0.0000   0.0000   0.0000
     0.0000   0.0000

          k = 0.1768 0.1768 0.1768 ( 32087 PWs)   bands (ev):

   -17.3392 -17.3240 -17.3177 -17.3147 -17.3121 -17.3072 -17.3013 -17.3007
   -17.2957 -17.2837 -17.2826 -17.2640 -17.2525 -17.2511 -17.2418 -17.2383
   -17.2348 -17.2292 -17.2284 -17.2198 -17.2160 -17.2141 -17.2126 -17.2113
   -17.2096 -17.2028 -17.2011 -17.2008 -17.1958 -17.1876 -17.1771 -17.1758
   -17.1672 -17.1613 -17.1605 -17.1375 -17.1345 -17.1335 -17.1315 -17.1311
   -17.1275 -17.1268 -17.1254 -17.1231 -17.1225 -17.1224 -17.1187 -17.1187
   -17.1161 -17.1142 -17.1138 -17.1122 -17.1117 -17.1014 -17.1006 -17.1001
   -17.0987 -17.0948 -17.0896 -17.0845 -17.0837 -17.0833 -17.0786 -17.0763
   -17.0725 -17.0693 -17.0682 -17.0651 -17.0611 -17.0587 -17.0579 -17.0555
   -17.0541 -17.0530 -17.0525 -17.0505 -17.0503 -17.0494 -17.0478 -17.0467
   -17.0453 -17.0446 -17.0441 -17.0440 -17.0429 -17.0420 -17.0410 -17.0400
   -17.0393 -17.0382 -17.0377 -17.0366 -17.0353 -17.0349 -17.0343 -17.0338
   -17.0323 -17.0320 -17.0309 -17.0303 -17.0291 -17.0281 -17.0258 -17.0251
   -17.0246 -17.0243 -17.0241 -17.0238 -17.0236 -17.0218 -17.0177 -17.0166
   -17.0165 -17.0159 -17.0149 -17.0136 -17.0094 -17.0077 -17.0062 -17.0056
   -17.0030 -17.0028 -17.0026 -17.0023 -16.9995 -16.9992 -16.9987 -16.9978
   -16.9965 -16.9932 -16.9921 -16.9920 -16.9917 -16.9915 -16.9877 -16.9872
   -16.9840 -16.9823 -16.9784 -16.9773 -16.9749 -16.9719 -16.9700 -16.9670
   -16.9630 -16.9577 -16.9533 -16.9525 -16.9494 -16.9462 -16.9456 -16.9381
   -16.9313 -16.9309 -16.9292 -16.9281 -16.9258 -16.9211 -16.9209 -16.9169
    -4.9976  -4.8628  -4.6508  -4.4138  -3.9955  -3.7461  -3.5954  -3.5146
    -3.4023  -3.2038  -3.1288  -3.0611  -3.0471  -3.0328  -2.9121  -2.8677
    -2.8072  -2.7268  -2.5938  -2.5306  -2.4583  -2.3714  -2.3026  -2.1200
    -1.9700  -1.8532  -1.7609  -1.7237  -1.5986  -1.4176  -1.0700  -0.9684
    -0.9184  -0.8295  -0.4290  -0.2434  -0.1677  -0.0883  -0.0482   0.0002
     0.1229   0.1916   0.2216   0.2786   0.3145   0.3694   0.5395   0.5922
     0.6393   0.6788   0.8148   0.9196   0.9943   1.0414   1.1366   1.1696
     1.6520   1.6914   1.9182   2.3434   2.9749   3.1890   3.2022   3.2266
     3.6847   3.7103   3.7413   3.8034   3.8074   3.8097   3.8257   3.8312
     3.8332   3.8358   3.8676   3.8735   3.8821   3.8845   4.2654   4.2918
     4.2948   4.4936   4.4950   4.5307   4.5352   4.5374   4.5553   4.6171
     4.6178   4.6884   4.6938   4.7017   4.7082   4.7988   4.8552   4.8674
     4.8767   4.8960   5.0324   5.0911   5.0948   5.2989   5.3146   5.3325
     5.3393   5.3506   5.4723   5.5980   5.6440   5.6542   5.6627   5.6771
     5.6919   5.6967   5.9497   5.9600   5.9772   5.9837   5.9969   6.0018
     6.1695   6.1716   6.4886   6.5141   6.5267   7.0185   7.0496   7.0579
     7.8557   8.1355   8.1563   8.1884   8.2924   8.4479   8.5827   8.8282
     8.9926   9.0412   9.0640   9.0850   9.1198   9.1357   9.1584   9.1744
     9.2080   9.2153   9.2306   9.2413   9.2601   9.2810   9.2984   9.3053
     9.3241   9.3491   9.3568   9.3733   9.4068   9.4253   9.5681   9.6621
     9.6785   9.7885   9.9000   9.9530  10.0282  10.0646  10.0888  10.1491
    10.1708  10.3110  10.3147  10.4417  10.4954  10.5275  10.5490  10.6073
    10.6528  10.7309  10.7577  10.7793  10.8037  10.8169  10.8354  10.8682
    10.9112  10.9223

     occupation numbers 
     1.0000   1.0000   1.0000   1.0000   1.0000   1.0000   1.0000   1.0000
     1.0000   1.0000   1.0000   1.0000   1.0000   1.0000   1.0000   1.0000
     1.0000   1.0000   1.0000   1.0000   1.0000   1.0000   1.0000   1.0000
     1.0000   1.0000   1.0000   1.0000   1.0000   1.0000   1.0000   1.0000
     1.0000   1.0000   1.0000   1.0000   1.0000   1.0000   1.0000   1.0000
     1.0000   1.0000   1.0000   1.0000   1.0000   1.0000   1.0000   1.0000
     1.0000   1.0000   1.0000   1.0000   1.0000   1.0000   1.0000   1.0000
     1.0000   1.0000   1.0000   1.0000   1.0000   1.0000   1.0000   1.0000
     1.0000   1.0000   1.0000   1.0000   1.0000   1.0000   1.0000   1.0000
     1.0000   1.0000   1.0000   1.0000   1.0000   1.0000   1.0000   1.0000
     1.0000   1.0000   1.0000   1.0000   1.0000   1.0000   1.0000   1.0000
     1.0000   1.0000   1.0000   1.0000   1.0000   1.0000   1.0000   1.0000
     1.0000   1.0000   1.0000   1.0000   1.0000   1.0000   1.0000   1.0000
     1.0000   1.0000   1.0000   1.0000   1.0000   1.0000   1.0000   1.0000
     1.0000   1.0000   1.0000   1.0000   1.0000   1.0000   1.0000   1.0000
     1.0000   1.0000   1.0000   1.0000   1.0000   1.0000   1.0000   1.0000
     1.0000   1.0000   1.0000   1.0000   1.0000   1.0000   1.0000   1.0000
     1.0000   1.0000   1.0000   1.0000   1.0000   1.0000   1.0000   1.0000
     1.0000   1.0000   1.0000   1.0000   1.0000   1.0000   1.0000   1.0000
     1.0000   1.0000   1.0000   1.0000   1.0000   1.0000   1.0000   1.0000
     1.0000   1.0000   1.0000   1.0000   1.0000   1.0000   1.0000   1.0000
     1.0000   1.0000   1.0000   1.0000   1.0000   1.0000   1.0000   1.0000
     1.0000   1.0000   1.0000   1.0000   1.0000   1.0000   1.0000   1.0000
     1.0000   1.0000   1.0000   1.0000   1.0000   1.0000   1.0000   1.0000
     1.0000   1.0000   1.0000   1.0000   1.0000   1.0000   1.0000   1.0000
     1.0000   1.0000   1.0000   1.0000   1.0000   1.0000   1.0000   1.0000
     1.0000   1.0000   1.0000   1.0000   1.0000   1.0000   1.0000   1.0000
     1.0000   1.0000   1.0000   1.0000   1.0000   1.0000   1.0000   1.0000
     1.0000   1.0000   1.0000   1.0000   1.0000   1.0000   1.0000   1.0000
     1.0000   1.0000   1.0000   1.0000   1.0000   1.0000   1.0000   1.0000
     1.0000   1.0000   1.0000   1.0000   1.0000   1.0000   1.0000   1.0000
     1.0000   1.0000   1.0000   1.0000   1.0000   1.0000   1.0000   1.0000
     1.0000   1.0000   1.0000   1.0000   1.0000   1.0000   1.0000   1.0000
     1.0000   1.0000   1.0000   1.0000   1.0000   1.0000   1.0000   1.0000
     1.0000   1.0000   1.0000   1.0000   1.0000   1.0000   1.0000   1.0000
     1.0000   1.0000   1.0000   1.0000   1.0000   1.0000   0.9999   0.9999
     0.0290   0.0001   0.0000   0.0000   0.0000   0.0000   0.0000   0.0000
     0.0000   0.0000   0.0000   0.0000   0.0000   0.0000   0.0000   0.0000
     0.0000   0.0000   0.0000   0.0000   0.0000   0.0000   0.0000   0.0000
     0.0000   0.0000   0.0000   0.0000   0.0000   0.0000   0.0000   0.0000
     0.0000   0.0000   0.0000   0.0000   0.0000   0.0000   0.0000   0.0000
     0.0000   0.0000   0.0000   0.0000   0.0000   0.0000   0.0000   0.0000
     0.0000   0.0000   0.0000   0.0000   0.0000   0.0000   0.0000   0.0000
     0.0000   0.0000

          k =-0.3536 0.3536 0.3536 ( 32056 PWs)   bands (ev):

   -17.3399 -17.3259 -17.3182 -17.3164 -17.3137 -17.3070 -17.3023 -17.3011
   -17.3011 -17.2845 -17.2832 -17.2647 -17.2555 -17.2519 -17.2419 -17.2354
   -17.2332 -17.2284 -17.2259 -17.2176 -17.2146 -17.2118 -17.2115 -17.2084
   -17.2047 -17.2012 -17.2010 -17.1956 -17.1945 -17.1877 -17.1770 -17.1763
   -17.1626 -17.1608 -17.1540 -17.1368 -17.1333 -17.1324 -17.1302 -17.1294
   -17.1281 -17.1277 -17.1264 -17.1232 -17.1218 -17.1203 -17.1190 -17.1182
   -17.1160 -17.1152 -17.1136 -17.1125 -17.1112 -17.1050 -17.1005 -17.1000
   -17.0977 -17.0931 -17.0922 -17.0865 -17.0836 -17.0821 -17.0796 -17.0772
   -17.0740 -17.0738 -17.0671 -17.0665 -17.0650 -17.0601 -17.0575 -17.0560
   -17.0555 -17.0534 -17.0526 -17.0517 -17.0501 -17.0493 -17.0474 -17.0467
   -17.0463 -17.0447 -17.0439 -17.0437 -17.0425 -17.0413 -17.0403 -17.0402
   -17.0394 -17.0393 -17.0384 -17.0364 -17.0352 -17.0350 -17.0347 -17.0342
   -17.0332 -17.0328 -17.0303 -17.0297 -17.0288 -17.0280 -17.0261 -17.0250
   -17.0243 -17.0241 -17.0240 -17.0236 -17.0230 -17.0215 -17.0187 -17.0177
   -17.0164 -17.0162 -17.0155 -17.0128 -17.0106 -17.0089 -17.0076 -17.0065
   -17.0054 -17.0033 -17.0030 -17.0007 -16.9995 -16.9994 -16.9990 -16.9980
   -16.9970 -16.9970 -16.9929 -16.9919 -16.9918 -16.9907 -16.9874 -16.9871
   -16.9830 -16.9797 -16.9784 -16.9764 -16.9749 -16.9722 -16.9696 -16.9665
   -16.9639 -16.9581 -16.9556 -16.9495 -16.9479 -16.9454 -16.9407 -16.9320
   -16.9318 -16.9289 -16.9281 -16.9272 -16.9266 -16.9223 -16.9187 -16.9183
    -4.5913  -4.4701  -4.3813  -4.3188  -4.1213  -4.0406  -3.9553  -3.8625
    -3.5287  -3.4383  -3.2972  -3.2242  -3.1470  -3.0967  -3.0311  -2.9764
    -2.9282  -2.7731  -2.6468  -2.5426  -2.4836  -2.4366  -2.2930  -2.2574
    -2.1386  -2.0915  -1.8146  -1.6719  -1.6025  -1.5671  -0.9939  -0.9290
    -0.8765  -0.7166  -0.2419  -0.1876  -0.1551  -0.0521   0.1819   0.2580
     0.3829   0.4253   0.4695   0.5193   0.5727   0.5997   0.9509   1.0274
     1.0821   1.1454   1.3399   1.3766   1.4167   1.4800   1.8872   1.9550
     2.2968   2.3713   3.0073   3.0878   3.1783   3.1935   3.1966   3.2030
     3.2105   3.2327   3.2787   3.3647   3.4083   3.4245   3.4261   3.4266
     3.4856   3.4910   3.4922   3.4939   3.6341   3.6532   3.6624   3.6716
     3.6855   3.6892   3.7068   3.7890   3.8607   3.8769   3.8890   3.8983
     4.2859   4.2885   4.2960   4.3033   4.5451   4.5660   4.8797   4.9037
     5.0100   5.0152   5.0185   5.0264   5.0290   5.0345   5.0399   5.0644
     5.3045   5.3127   5.3162   5.3283   5.3431   5.3564   5.3659   5.3687
     5.3881   5.3928   5.9071   5.9152   5.9336   5.9359   5.9449   5.9599
     5.9853   5.9919   6.4862   6.5077   6.5162   6.5202   6.5509   6.5628
     8.3030   8.3669   8.5445   8.5777   8.6675   8.6883   8.7294   8.7367
     8.7622   8.7695   8.7943   8.8237   9.0334   9.0880   9.3206   9.3726
     9.4699   9.5069   9.5326   9.5462   9.5729   9.6103   9.6364   9.6454
     9.6904   9.7504  10.0145  10.0514  10.0653  10.0969  10.1412  10.1915
    10.3218  10.3275  10.4744  10.5070  10.7068  10.7846  10.7923  10.8511
    10.8573  10.8782  10.9237  10.9536  10.9828  11.0965  11.1837  11.2468
    11.5402  11.5626  11.6056  11.6296  11.6430  11.6870  11.6960  11.7071
    11.7107  11.7495

     occupation numbers 
     1.0000   1.0000   1.0000   1.0000   1.0000   1.0000   1.0000   1.0000
     1.0000   1.0000   1.0000   1.0000   1.0000   1.0000   1.0000   1.0000
     1.0000   1.0000   1.0000   1.0000   1.0000   1.0000   1.0000   1.0000
     1.0000   1.0000   1.0000   1.0000   1.0000   1.0000   1.0000   1.0000
     1.0000   1.0000   1.0000   1.0000   1.0000   1.0000   1.0000   1.0000
     1.0000   1.0000   1.0000   1.0000   1.0000   1.0000   1.0000   1.0000
     1.0000   1.0000   1.0000   1.0000   1.0000   1.0000   1.0000   1.0000
     1.0000   1.0000   1.0000   1.0000   1.0000   1.0000   1.0000   1.0000
     1.0000   1.0000   1.0000   1.0000   1.0000   1.0000   1.0000   1.0000
     1.0000   1.0000   1.0000   1.0000   1.0000   1.0000   1.0000   1.0000
     1.0000   1.0000   1.0000   1.0000   1.0000   1.0000   1.0000   1.0000
     1.0000   1.0000   1.0000   1.0000   1.0000   1.0000   1.0000   1.0000
     1.0000   1.0000   1.0000   1.0000   1.0000   1.0000   1.0000   1.0000
     1.0000   1.0000   1.0000   1.0000   1.0000   1.0000   1.0000   1.0000
     1.0000   1.0000   1.0000   1.0000   1.0000   1.0000   1.0000   1.0000
     1.0000   1.0000   1.0000   1.0000   1.0000   1.0000   1.0000   1.0000
     1.0000   1.0000   1.0000   1.0000   1.0000   1.0000   1.0000   1.0000
     1.0000   1.0000   1.0000   1.0000   1.0000   1.0000   1.0000   1.0000
     1.0000   1.0000   1.0000   1.0000   1.0000   1.0000   1.0000   1.0000
     1.0000   1.0000   1.0000   1.0000   1.0000   1.0000   1.0000   1.0000
     1.0000   1.0000   1.0000   1.0000   1.0000   1.0000   1.0000   1.0000
     1.0000   1.0000   1.0000   1.0000   1.0000   1.0000   1.0000   1.0000
     1.0000   1.0000   1.0000   1.0000   1.0000   1.0000   1.0000   1.0000
     1.0000   1.0000   1.0000   1.0000   1.0000   1.0000   1.0000   1.0000
     1.0000   1.0000   1.0000   1.0000   1.0000   1.0000   1.0000   1.0000
     1.0000   1.0000   1.0000   1.0000   1.0000   1.0000   1.0000   1.0000
     1.0000   1.0000   1.0000   1.0000   1.0000   1.0000   1.0000   1.0000
     1.0000   1.0000   1.0000   1.0000   1.0000   1.0000   1.0000   1.0000
     1.0000   1.0000   1.0000   1.0000   1.0000   1.0000   1.0000   1.0000
     1.0000   1.0000   1.0000   1.0000   1.0000   1.0000   1.0000   1.0000
     1.0000   1.0000   1.0000   1.0000   1.0000   1.0000   1.0000   1.0000
     1.0000   1.0000   1.0000   1.0000   1.0000   1.0000   1.0000   1.0000
     1.0000   1.0000   1.0000   1.0000   1.0000   1.0000   1.0000   1.0000
     1.0000   1.0000   1.0000   1.0000   1.0000   1.0000   1.0000   1.0000
     1.0000   1.0000   1.0000   1.0000   1.0000   1.0000   1.0000   1.0000
     1.0000   1.0000   1.0000   1.0000   1.0000   1.0000   1.0000   1.0000
     0.0000   0.0000   0.0000   0.0000   0.0000   0.0000   0.0000   0.0000
     0.0000   0.0000   0.0000   0.0000   0.0000   0.0000   0.0000   0.0000
     0.0000   0.0000   0.0000   0.0000   0.0000   0.0000   0.0000   0.0000
     0.0000   0.0000   0.0000   0.0000   0.0000   0.0000   0.0000   0.0000
     0.0000   0.0000   0.0000   0.0000   0.0000   0.0000   0.0000   0.0000
     0.0000   0.0000   0.0000   0.0000   0.0000   0.0000   0.0000   0.0000
     0.0000   0.0000   0.0000   0.0000   0.0000   0.0000   0.0000   0.0000
     0.0000   0.0000

          k =-0.3536-0.3536-0.3536 ( 32056 PWs)   bands (ev):

   -17.3391 -17.3240 -17.3177 -17.3150 -17.3122 -17.3076 -17.3012 -17.3007
   -17.2961 -17.2839 -17.2827 -17.2641 -17.2527 -17.2511 -17.2417 -17.2381
   -17.2344 -17.2292 -17.2280 -17.2194 -17.2156 -17.2138 -17.2124 -17.2113
   -17.2093 -17.2026 -17.2010 -17.2008 -17.1955 -17.1874 -17.1770 -17.1755
   -17.1672 -17.1608 -17.1602 -17.1370 -17.1340 -17.1331 -17.1314 -17.1310
   -17.1266 -17.1265 -17.1250 -17.1233 -17.1223 -17.1223 -17.1188 -17.1186
   -17.1164 -17.1141 -17.1132 -17.1121 -17.1118 -17.1010 -17.1005 -17.1000
   -17.0983 -17.0943 -17.0898 -17.0868 -17.0842 -17.0831 -17.0781 -17.0757
   -17.0728 -17.0703 -17.0695 -17.0661 -17.0616 -17.0592 -17.0585 -17.0553
   -17.0543 -17.0529 -17.0524 -17.0510 -17.0507 -17.0490 -17.0475 -17.0458
   -17.0447 -17.0441 -17.0440 -17.0436 -17.0424 -17.0415 -17.0404 -17.0397
   -17.0396 -17.0381 -17.0371 -17.0364 -17.0352 -17.0351 -17.0337 -17.0336
   -17.0320 -17.0318 -17.0308 -17.0300 -17.0286 -17.0279 -17.0261 -17.0249
   -17.0246 -17.0242 -17.0241 -17.0240 -17.0238 -17.0219 -17.0172 -17.0166
   -17.0164 -17.0161 -17.0150 -17.0130 -17.0094 -17.0077 -17.0061 -17.0050
   -17.0031 -17.0025 -17.0024 -17.0013 -16.9995 -16.9991 -16.9986 -16.9979
   -16.9966 -16.9929 -16.9920 -16.9917 -16.9913 -16.9912 -16.9878 -16.9871
   -16.9839 -16.9818 -16.9778 -16.9760 -16.9747 -16.9716 -16.9698 -16.9666
   -16.9629 -16.9575 -16.9530 -16.9523 -16.9494 -16.9462 -16.9459 -16.9382
   -16.9322 -16.9306 -16.9292 -16.9281 -16.9258 -16.9213 -16.9209 -16.9174
    -4.6366  -4.5021  -4.3560  -4.2771  -4.1669  -4.0785  -3.8600  -3.8503
    -3.5383  -3.3943  -3.2756  -3.1919  -3.1222  -3.1085  -3.0393  -2.9711
    -2.9105  -2.7804  -2.6252  -2.5316  -2.4881  -2.4383  -2.3639  -2.2833
    -2.2137  -2.0676  -1.8772  -1.6873  -1.6180  -1.5663  -1.0029  -0.9161
    -0.8538  -0.7530  -0.2849  -0.1628  -0.0654  -0.0611   0.1851   0.2575
     0.3976   0.4274   0.5007   0.5250   0.5968   0.6218   0.9550   1.0609
     1.0709   1.1336   1.3378   1.3831   1.3846   1.4494   1.8738   1.9578
     2.2882   2.3535   3.0267   3.0997   3.1822   3.1901   3.1988   3.2025
     3.2169   3.2264   3.2690   3.3397   3.4125   3.4207   3.4221   3.4305
     3.4835   3.4882   3.4931   3.4964   3.6326   3.6620   3.6665   3.6722
     3.6837   3.7004   3.7348   3.7682   3.8719   3.8777   3.8826   3.8999
     4.2874   4.2931   4.2950   4.2964   4.5544   4.5610   4.8894   4.8954
     5.0125   5.0130   5.0209   5.0250   5.0284   5.0342   5.0417   5.0515
     5.3119   5.3157   5.3170   5.3274   5.3427   5.3521   5.3695   5.3718
     5.3814   5.3877   5.9082   5.9177   5.9257   5.9370   5.9582   5.9680
     5.9720   5.9805   6.4775   6.4910   6.5172   6.5351   6.5515   6.5689
     8.3024   8.3510   8.5436   8.5775   8.6584   8.6928   8.7056   8.7275
     8.7652   8.7795   8.7931   8.8403   9.0454   9.0710   9.3229   9.3679
     9.4737   9.5123   9.5323   9.5572   9.5827   9.5955   9.6477   9.6747
     9.6867   9.7303  10.0185  10.0396  10.0630  10.0781  10.1564  10.1804
    10.3034  10.3283  10.5000  10.5077  10.7376  10.7848  10.8057  10.8373
    10.8535  10.8541  10.8635  10.9326  11.0451  11.0981  11.2167  11.2517
    11.5518  11.5644  11.5924  11.5962  11.6789  11.6842  11.6865  11.7086
    11.7303  11.7497

     occupation numbers 
     1.0000   1.0000   1.0000   1.0000   1.0000   1.0000   1.0000   1.0000
     1.0000   1.0000   1.0000   1.0000   1.0000   1.0000   1.0000   1.0000
     1.0000   1.0000   1.0000   1.0000   1.0000   1.0000   1.0000   1.0000
     1.0000   1.0000   1.0000   1.0000   1.0000   1.0000   1.0000   1.0000
     1.0000   1.0000   1.0000   1.0000   1.0000   1.0000   1.0000   1.0000
     1.0000   1.0000   1.0000   1.0000   1.0000   1.0000   1.0000   1.0000
     1.0000   1.0000   1.0000   1.0000   1.0000   1.0000   1.0000   1.0000
     1.0000   1.0000   1.0000   1.0000   1.0000   1.0000   1.0000   1.0000
     1.0000   1.0000   1.0000   1.0000   1.0000   1.0000   1.0000   1.0000
     1.0000   1.0000   1.0000   1.0000   1.0000   1.0000   1.0000   1.0000
     1.0000   1.0000   1.0000   1.0000   1.0000   1.0000   1.0000   1.0000
     1.0000   1.0000   1.0000   1.0000   1.0000   1.0000   1.0000   1.0000
     1.0000   1.0000   1.0000   1.0000   1.0000   1.0000   1.0000   1.0000
     1.0000   1.0000   1.0000   1.0000   1.0000   1.0000   1.0000   1.0000
     1.0000   1.0000   1.0000   1.0000   1.0000   1.0000   1.0000   1.0000
     1.0000   1.0000   1.0000   1.0000   1.0000   1.0000   1.0000   1.0000
     1.0000   1.0000   1.0000   1.0000   1.0000   1.0000   1.0000   1.0000
     1.0000   1.0000   1.0000   1.0000   1.0000   1.0000   1.0000   1.0000
     1.0000   1.0000   1.0000   1.0000   1.0000   1.0000   1.0000   1.0000
     1.0000   1.0000   1.0000   1.0000   1.0000   1.0000   1.0000   1.0000
     1.0000   1.0000   1.0000   1.0000   1.0000   1.0000   1.0000   1.0000
     1.0000   1.0000   1.0000   1.0000   1.0000   1.0000   1.0000   1.0000
     1.0000   1.0000   1.0000   1.0000   1.0000   1.0000   1.0000   1.0000
     1.0000   1.0000   1.0000   1.0000   1.0000   1.0000   1.0000   1.0000
     1.0000   1.0000   1.0000   1.0000   1.0000   1.0000   1.0000   1.0000
     1.0000   1.0000   1.0000   1.0000   1.0000   1.0000   1.0000   1.0000
     1.0000   1.0000   1.0000   1.0000   1.0000   1.0000   1.0000   1.0000
     1.0000   1.0000   1.0000   1.0000   1.0000   1.0000   1.0000   1.0000
     1.0000   1.0000   1.0000   1.0000   1.0000   1.0000   1.0000   1.0000
     1.0000   1.0000   1.0000   1.0000   1.0000   1.0000   1.0000   1.0000
     1.0000   1.0000   1.0000   1.0000   1.0000   1.0000   1.0000   1.0000
     1.0000   1.0000   1.0000   1.0000   1.0000   1.0000   1.0000   1.0000
     1.0000   1.0000   1.0000   1.0000   1.0000   1.0000   1.0000   1.0000
     1.0000   1.0000   1.0000   1.0000   1.0000   1.0000   1.0000   1.0000
     1.0000   1.0000   1.0000   1.0000   1.0000   1.0000   1.0000   1.0000
     1.0000   1.0000   1.0000   1.0000   1.0000   1.0000   1.0000   1.0000
     0.0000   0.0000   0.0000   0.0000   0.0000   0.0000   0.0000   0.0000
     0.0000   0.0000   0.0000   0.0000   0.0000   0.0000   0.0000   0.0000
     0.0000   0.0000   0.0000   0.0000   0.0000   0.0000   0.0000   0.0000
     0.0000   0.0000   0.0000   0.0000   0.0000   0.0000   0.0000   0.0000
     0.0000   0.0000   0.0000   0.0000   0.0000   0.0000   0.0000   0.0000
     0.0000   0.0000   0.0000   0.0000   0.0000   0.0000   0.0000   0.0000
[...]
     atom   13 type  2   force =  -0.46797302E-04  0.18195380E-05  0.41008436E-03
     atom   14 type  1   force =  -0.18302102E-04  0.13241734E-03  0.27642354E-03
     atom   15 type  2   force =  -0.15597502E-03  0.23204405E-03  0.30832973E-03
     atom   16 type  1   force =   0.19839265E-03 -0.22864451E-03  0.27585488E-03
     atom   17 type  2   force =   0.12413897E-04  0.79000668E-04 -0.10686652E-03
     atom   18 type  1   force =  -0.79769750E-06  0.50457868E-03  0.33606535E-04
     atom   19 type  1   force =  -0.26072751E-04  0.10711895E-03  0.43880344E-03
     atom   20 type  1   force =  -0.19004654E-04 -0.74894663E-04 -0.34094065E-03
     atom   21 type  1   force =  -0.13691941E-03 -0.12214933E-03  0.33275572E-03
     atom   22 type  1   force =   0.61847116E-04  0.12754560E-03 -0.86879751E-04
     atom   23 type  1   force =  -0.24575753E-03  0.62944392E-04  0.26659910E-04
     atom   24 type  2   force =  -0.59932646E-04  0.10618987E-03 -0.14501764E-03
     atom   25 type  1   force =   0.15359499E-03  0.10229176E-03 -0.76421786E-04
     atom   26 type  2   force =  -0.69113650E-03 -0.19767770E-03  0.20992387E-03
     atom   27 type  2   force =  -0.17526384E-04  0.53980663E-03 -0.31236465E-03
     atom   28 type  1   force =   0.30694173E-03  0.74287342E-04  0.62194477E-04
     atom   29 type  1   force =  -0.40321304E-03  0.75436439E-04  0.12932153E-03
     atom   30 type  2   force =  -0.13872537E-03  0.15152473E-04 -0.20946351E-03
     atom   31 type  1   force =   0.63008262E-06  0.30829820E-03 -0.13469030E-03
     atom   32 type  1   force =  -0.53868127E-03 -0.51916856E-04  0.41474258E-04
     atom   33 type  1   force =  -0.18645164E-03 -0.17212603E-03 -0.52902858E-03
     atom   34 type  2   force =   0.41261354E-03 -0.21023751E-04 -0.47294265E-03
     atom   35 type  1   force =   0.10535210E-03  0.14787593E-03  0.22395836E-03
     atom   36 type  2   force =  -0.28182022E-03 -0.43118306E-03 -0.50693786E-03
     atom   37 type  2   force =   0.26374089E-03  0.14828258E-03  0.48538610E-03
     atom   38 type  1   force =   0.66190611E-04 -0.15789874E-04  0.21028857E-03
     atom   39 type  2   force =  -0.11401535E-03 -0.27868486E-03  0.60078543E-03
     atom   40 type  1   force =   0.20855797E-03  0.37068548E-03  0.26838591E-03
     atom   41 type  1   force =  -0.23990003E-03 -0.61034108E-04  0.29631487E-03
     atom   42 type  2   force =  -0.16643722E-03 -0.54427979E-03  0.25505636E-03
     atom   43 type  2   force =   0.58637909E-03 -0.46961230E-05 -0.28953202E-03
     atom   44 type  1   force =   0.45955347E-04  0.21366261E-03  0.30627352E-04
     atom   45 type  1   force =   0.16840549E-03 -0.24464304E-03 -0.22005440E-04
     atom   46 type  2   force =  -0.21345873E-03 -0.39306411E-03 -0.13733635E-03
     atom   47 type  2   force =  -0.35753518E-04  0.23415283E-04 -0.54335096E-03
     atom   48 type  2   force =   0.55643171E-03  0.22906041E-04 -0.12573504E-03
     atom   49 type  1   force =   0.39202507E-03 -0.27311011E-03  0.13658474E-03
     atom   50 type  1   force =   0.24582817E-03 -0.40333729E-03  0.17242748E-05
     atom   51 type  2   force =  -0.18009570E-03 -0.49133257E-03 -0.26762584E-03
     atom   52 type  2   force =   0.49088309E-03  0.21077425E-03  0.41083069E-03
     atom   53 type  1   force =  -0.15888948E-03  0.16125564E-03 -0.35532910E-03
     atom   54 type  2   force =  -0.23669652E-03  0.23467428E-03 -0.28453385E-03
     atom   55 type  1   force =  -0.14357925E-03  0.19227111E-03  0.54330019E-05
     atom   56 type  2   force =  -0.21377069E-03  0.37144530E-03 -0.65673891E-03
     atom   57 type  1   force =  -0.31489292E-04 -0.84010196E-04 -0.15057889E-03
     atom   58 type  2   force =  -0.41328320E-03 -0.23630393E-03  0.43963874E-03
     atom   59 type  2   force =   0.16954304E-03  0.21887996E-03 -0.51206584E-03
     atom   60 type  2   force =   0.13257052E-03  0.97623168E-04 -0.16610183E-03
     atom   61 type  2   force =  -0.19618548E-03 -0.21599378E-03  0.29882446E-04
     atom   62 type  2   force =   0.34373159E-03  0.11526628E-03  0.38987698E-04
     atom   63 type  1   force =   0.22413326E-03 -0.14470728E-03 -0.27483055E-05
     atom   64 type  1   force =  -0.10623681E-03 -0.38669476E-04  0.97730614E-05
     The Hubbard contrib.    to forces
     atom    1 type  2   force =   0.00000000E+00  0.00000000E+00  0.00000000E+00
     atom    2 type  1   force =   0.00000000E+00  0.00000000E+00  0.00000000E+00
     atom    3 type  2   force =   0.00000000E+00  0.00000000E+00  0.00000000E+00
     atom    4 type  2   force =   0.00000000E+00  0.00000000E+00  0.00000000E+00
     atom    5 type  1   force =   0.00000000E+00  0.00000000E+00  0.00000000E+00
     atom    6 type  2   force =   0.00000000E+00  0.00000000E+00  0.00000000E+00
     atom    7 type  1   force =   0.00000000E+00  0.00000000E+00  0.00000000E+00
     atom    8 type  2   force =   0.00000000E+00  0.00000000E+00  0.00000000E+00
     atom    9 type  2   force =   0.00000000E+00  0.00000000E+00  0.00000000E+00
     atom   10 type  2   force =   0.00000000E+00  0.00000000E+00  0.00000000E+00
     atom   11 type  1   force =   0.00000000E+00  0.00000000E+00  0.00000000E+00
     atom   12 type  1   force =   0.00000000E+00  0.00000000E+00  0.00000000E+00
     atom   13 type  2   force =   0.00000000E+00  0.00000000E+00  0.00000000E+00
     atom   14 type  1   force =   0.00000000E+00  0.00000000E+00  0.00000000E+00
     atom   15 type  2   force =   0.00000000E+00  0.00000000E+00  0.00000000E+00
     atom   16 type  1   force =   0.00000000E+00  0.00000000E+00  0.00000000E+00
     atom   17 type  2   force =   0.00000000E+00  0.00000000E+00  0.00000000E+00
     atom   18 type  1   force =   0.00000000E+00  0.00000000E+00  0.00000000E+00
     atom   19 type  1   force =   0.00000000E+00  0.00000000E+00  0.00000000E+00
     atom   20 type  1   force =   0.00000000E+00  0.00000000E+00  0.00000000E+00
     atom   21 type  1   force =   0.00000000E+00  0.00000000E+00  0.00000000E+00
     atom   22 type  1   force =   0.00000000E+00  0.00000000E+00  0.00000000E+00
     atom   23 type  1   force =   0.00000000E+00  0.00000000E+00  0.00000000E+00
     atom   24 type  2   force =   0.00000000E+00  0.00000000E+00  0.00000000E+00
     atom   25 type  1   force =   0.00000000E+00  0.00000000E+00  0.00000000E+00
     atom   26 type  2   force =   0.00000000E+00  0.00000000E+00  0.00000000E+00
     atom   27 type  2   force =   0.00000000E+00  0.00000000E+00  0.00000000E+00
     atom   28 type  1   force =   0.00000000E+00  0.00000000E+00  0.00000000E+00
     atom   29 type  1   force =   0.00000000E+00  0.00000000E+00  0.00000000E+00
     atom   30 type  2   force =   0.00000000E+00  0.00000000E+00  0.00000000E+00
     atom   31 type  1   force =   0.00000000E+00  0.00000000E+00  0.00000000E+00
     atom   32 type  1   force =   0.00000000E+00  0.00000000E+00  0.00000000E+00
     atom   33 type  1   force =   0.00000000E+00  0.00000000E+00  0.00000000E+00
     atom   34 type  2   force =   0.00000000E+00  0.00000000E+00  0.00000000E+00
     atom   35 type  1   force =   0.00000000E+00  0.00000000E+00  0.00000000E+00
     atom   36 type  2   force =   0.00000000E+00  0.00000000E+00  0.00000000E+00
     atom   37 type  2   force =   0.00000000E+00  0.00000000E+00  0.00000000E+00
     atom   38 type  1   force =   0.00000000E+00  0.00000000E+00  0.00000000E+00
     atom   39 type  2   force =   0.00000000E+00  0.00000000E+00  0.00000000E+00
     atom   40 type  1   force =   0.00000000E+00  0.00000000E+00  0.00000000E+00
     atom   41 type  1   force =   0.00000000E+00  0.00000000E+00  0.00000000E+00
     atom   42 type  2   force =   0.00000000E+00  0.00000000E+00  0.00000000E+00
     atom   43 type  2   force =   0.00000000E+00  0.00000000E+00  0.00000000E+00
     atom   44 type  1   force =   0.00000000E+00  0.00000000E+00  0.00000000E+00
     atom   45 type  1   force =   0.00000000E+00  0.00000000E+00  0.00000000E+00
     atom   46 type  2   force =   0.00000000E+00  0.00000000E+00  0.00000000E+00
     atom   47 type  2   force =   0.00000000E+00  0.00000000E+00  0.00000000E+00
     atom   48 type  2   force =   0.00000000E+00  0.00000000E+00  0.00000000E+00
     atom   49 type  1   force =   0.00000000E+00  0.00000000E+00  0.00000000E+00
     atom   50 type  1   force =   0.00000000E+00  0.00000000E+00  0.00000000E+00
     atom   51 type  2   force =   0.00000000E+00  0.00000000E+00  0.00000000E+00
     atom   52 type  2   force =   0.00000000E+00  0.00000000E+00  0.00000000E+00
     atom   53 type  1   force =   0.00000000E+00  0.00000000E+00  0.00000000E+00
     atom   54 type  2   force =   0.00000000E+00  0.00000000E+00  0.00000000E+00
     atom   55 type  1   force =   0.00000000E+00  0.00000000E+00  0.00000000E+00
     atom   56 type  2   force =   0.00000000E+00  0.00000000E+00  0.00000000E+00
     atom   57 type  1   force =   0.00000000E+00  0.00000000E+00  0.00000000E+00
     atom   58 type  2   force =   0.00000000E+00  0.00000000E+00  0.00000000E+00
     atom   59 type  2   force =   0.00000000E+00  0.00000000E+00  0.00000000E+00
     atom   60 type  2   force =   0.00000000E+00  0.00000000E+00  0.00000000E+00
     atom   61 type  2   force =   0.00000000E+00  0.00000000E+00  0.00000000E+00
     atom   62 type  2   force =   0.00000000E+00  0.00000000E+00  0.00000000E+00
     atom   63 type  1   force =   0.00000000E+00  0.00000000E+00  0.00000000E+00
     atom   64 type  1   force =   0.00000000E+00  0.00000000E+00  0.00000000E+00
     The SCF correction term to forces
     atom    1 type  2   force =  -0.75885267E-05 -0.10561309E-04 -0.90902232E-05
     atom    2 type  1   force =  -0.85642698E-06 -0.14396533E-05  0.19352866E-05
     atom    3 type  2   force =   0.65291584E-05  0.16585027E-04  0.12645799E-04
     atom    4 type  2   force =   0.33972674E-05 -0.30489327E-05  0.58788695E-05
     atom    5 type  1   force =  -0.32414045E-05 -0.20642576E-05  0.16394031E-05
     atom    6 type  2   force =  -0.52811706E-05 -0.17548495E-04 -0.17659325E-05
     atom    7 type  1   force =   0.14929825E-05 -0.26341275E-06 -0.10823856E-05
     atom    8 type  2   force =   0.72380583E-05  0.13433567E-04  0.50908013E-07
     atom    9 type  2   force =   0.24922801E-04  0.10072429E-04 -0.49392047E-05
     atom   10 type  2   force =   0.11702610E-04  0.18145229E-04 -0.18004053E-04
     atom   11 type  1   force =   0.16371391E-05  0.15489671E-05 -0.28956431E-05
     atom   12 type  1   force =  -0.57070318E-06  0.17125193E-05 -0.35064191E-05
     atom   13 type  2   force =  -0.75942441E-05 -0.10040402E-06  0.11366695E-05
     atom   14 type  1   force =  -0.13907522E-05 -0.14329833E-05  0.88438826E-06
     atom   15 type  2   force =  -0.11577296E-04 -0.79247636E-05  0.24657872E-05
     atom   16 type  1   force =  -0.86121885E-06 -0.22698904E-05  0.24156103E-05
     atom   17 type  2   force =   0.90339298E-06 -0.12897227E-04  0.17341120E-04
     atom   18 type  1   force =  -0.14112111E-05  0.26600979E-06  0.19871914E-06
     atom   19 type  1   force =  -0.15382172E-05 -0.13616735E-05 -0.10041693E-05
     atom   20 type  1   force =  -0.24392022E-05 -0.10767323E-05  0.22065819E-07
     atom   21 type  1   force =  -0.16373407E-05 -0.64698484E-06  0.32990041E-05
     atom   22 type  1   force =  -0.15564183E-05 -0.18233005E-05  0.29434561E-05
     atom   23 type  1   force =  -0.72898853E-06 -0.72178384E-06  0.41644725E-06
     atom   24 type  2   force =   0.51556791E-05  0.38488101E-05 -0.11883393E-04
     atom   25 type  1   force =   0.20773291E-05  0.32893210E-05 -0.49576935E-05
     atom   26 type  2   force =   0.19748054E-04  0.86444771E-05 -0.13008076E-04
     atom   27 type  2   force =   0.23541109E-05  0.18876814E-04 -0.31532549E-05
     atom   28 type  1   force =   0.43170843E-05  0.41218146E-06 -0.28630404E-06
     atom   29 type  1   force =   0.20395994E-06 -0.56210411E-06 -0.18876886E-07
     atom   30 type  2   force =   0.97284957E-05 -0.14345986E-04 -0.52436788E-05
     atom   31 type  1   force =   0.72098406E-06 -0.31308467E-05  0.99832790E-06
     atom   32 type  1   force =  -0.19820922E-05 -0.22363382E-05  0.67400771E-06
     atom   33 type  1   force =  -0.22066028E-05  0.41572192E-07  0.18438673E-05
     atom   34 type  2   force =   0.66050682E-05 -0.36316501E-05  0.12356055E-04
     atom   35 type  1   force =  -0.21201951E-05 -0.23306688E-05 -0.19236676E-05
     atom   36 type  2   force =  -0.64296504E-05 -0.12626337E-04  0.11347333E-04
     atom   37 type  2   force =   0.36780058E-05 -0.28472821E-05 -0.98040273E-06
     atom   38 type  1   force =  -0.40194340E-06 -0.12189018E-06  0.33707476E-05
     atom   39 type  2   force =  -0.21580049E-05  0.13145375E-05 -0.42541405E-05
     atom   40 type  1   force =   0.14802830E-05  0.17918375E-05 -0.28351112E-05
     atom   41 type  1   force =   0.37203102E-05  0.26028648E-05 -0.33741160E-05
     atom   42 type  2   force =   0.86505813E-05  0.19905878E-04 -0.19229007E-04
     atom   43 type  2   force =   0.14604329E-04 -0.20523280E-05  0.43844674E-05
     atom   44 type  1   force =  -0.89714415E-06  0.30011074E-05 -0.12906518E-05
     atom   45 type  1   force =  -0.13802127E-05 -0.68235746E-06 -0.12633378E-06
     atom   46 type  2   force =  -0.11209029E-04  0.12400414E-04 -0.45628483E-05
     atom   47 type  2   force =  -0.12530980E-04  0.35941964E-05  0.24036548E-05
     atom   48 type  2   force =  -0.13845118E-04 -0.15605541E-04  0.10851155E-04
     atom   49 type  1   force =  -0.21663766E-05 -0.22089534E-05  0.22430769E-05
     atom   50 type  1   force =  -0.23811986E-05 -0.15887191E-05  0.10212308E-05
     atom   51 type  2   force =   0.92498795E-05 -0.81631597E-06  0.18967068E-04
     atom   52 type  2   force =  -0.75274697E-05 -0.10918908E-05  0.44129573E-05
     atom   53 type  1   force =  -0.26783701E-05 -0.38757034E-05  0.12430547E-05
     atom   54 type  2   force =  -0.16124594E-04 -0.44154630E-05 -0.22767509E-06
     atom   55 type  1   force =  -0.17349884E-07  0.16988907E-05 -0.12498118E-05
     atom   56 type  2   force =   0.75830432E-05  0.13150041E-05  0.65246691E-05
     atom   57 type  1   force =   0.20418249E-05  0.41116179E-05 -0.24029589E-05
     atom   58 type  2   force =   0.18359233E-04  0.11403429E-04 -0.74567282E-05
     atom   59 type  2   force =  -0.24577434E-05  0.25795094E-06 -0.15398328E-04
     atom   60 type  2   force =   0.55613509E-05 -0.71965818E-05  0.60306660E-05
     atom   61 type  2   force =   0.15931656E-04  0.85144762E-05 -0.25048441E-05
     atom   62 type  2   force =   0.61086847E-05  0.87435354E-05  0.10698869E-04
     atom   63 type  1   force =  -0.45744124E-06 -0.96762734E-06  0.30330437E-05
     atom   64 type  1   force =  -0.16019872E-05 -0.32381877E-06  0.19735037E-05

     Total force =     0.133087     Total SCF correction =     0.000103


     entering subroutine stress ...

          total   stress  (Ry/bohr**3)                   (kbar)     P=    1.93
   0.0000131386  -0.0000021793  -0.0000009950          1.93     -0.32     -0.15
  -0.0000021793   0.0000131439  -0.0000002465         -0.32      1.93     -0.04
  -0.0000009950  -0.0000002465   0.0000129793         -0.15     -0.04      1.91

     kinetic stress (kbar)   6412.42      0.15     -0.02
                                0.15   6412.43      0.07
                               -0.02      0.07   6412.40

     local   stress (kbar)  -5466.59   3812.98   -693.50
                             3812.98  -4798.24  -2197.66
                             -693.50  -2197.66  -4459.27

     nonloc. stress (kbar)   2496.47      0.16      0.33
                                0.16   2496.48     -0.17
                                0.33     -0.17   2496.45

     hartree stress (kbar)  17340.88  -1875.04    377.43
                            -1875.04  17013.15   1095.73
                              377.43   1095.73  16848.71

     exc-cor stress (kbar)  10937.27      0.00      0.01
                                0.00  10937.27     -0.00
                                0.01     -0.00  10937.27

     corecor stress (kbar) -16604.71      0.03      0.02
                                0.03 -16604.72     -0.00
                                0.02     -0.00 -16604.71

     ewald   stress (kbar) -15113.81  -1938.60    315.58
                            -1938.60 -15454.44   1102.00
                              315.58   1102.00 -15628.94

     hubbard stress (kbar)      0.00      0.00      0.00
                                0.00      0.00      0.00
                                0.00      0.00      0.00

     london  stress (kbar)      0.00      0.00      0.00
                                0.00      0.00      0.00
                                0.00      0.00      0.00

     XDM     stress (kbar)      0.00      0.00      0.00
                                0.00      0.00      0.00
                                0.00      0.00      0.00

     dft-nl  stress (kbar)      0.00      0.00      0.00
                                0.00      0.00      0.00
                                0.00      0.00      0.00



     Writing output data file SiGe_zns.scf.in.super.228.c.033.save

     init_run     :    275.73s CPU    242.86s WALL (       1 calls)
     electrons    :  14849.07s CPU  13428.72s WALL (       1 calls)
     forces       :    171.96s CPU    140.14s WALL (       1 calls)
     stress       :    957.20s CPU    954.94s WALL (       1 calls)

     Called by init_run:
     wfcinit      :    259.90s CPU    226.92s WALL (       1 calls)
     potinit      :      1.31s CPU      1.32s WALL (       1 calls)

     Called by electrons:
     c_bands      :  12900.35s CPU  11607.00s WALL (      18 calls)
     sum_band     :   1734.91s CPU   1605.07s WALL (      18 calls)
     v_of_rho     :      8.62s CPU      8.66s WALL (      18 calls)
     v_h          :      0.55s CPU      0.55s WALL (      18 calls)
     v_xc         :      8.95s CPU      8.99s WALL (      20 calls)
     newd         :    198.12s CPU    199.83s WALL (      18 calls)
     mix_rho      :     17.00s CPU     17.22s WALL (      18 calls)

     Called by c_bands:
     init_us_2    :     26.97s CPU     27.61s WALL (     390 calls)
     cegterg      :  12738.93s CPU  11432.91s WALL (     180 calls)

     Called by sum_band:
     sum_band:bec :      7.42s CPU      7.44s WALL (     180 calls)
     addusdens    :    155.32s CPU    156.21s WALL (      18 calls)

     Called by *egterg:
     h_psi        :   6145.40s CPU   5580.85s WALL (     695 calls)
     s_psi        :   1101.90s CPU    774.09s WALL (     695 calls)
     g_psi        :      3.68s CPU      4.39s WALL (     505 calls)
     cdiaghg      :   3153.75s CPU   3124.31s WALL (     675 calls)
     cegterg:over :   1134.68s CPU    932.30s WALL (     505 calls)
     cegterg:upda :    452.73s CPU    335.22s WALL (     505 calls)
     cegterg:last :    299.19s CPU    211.16s WALL (     180 calls)

     Called by h_psi:
     h_psi:vloc   :   3791.19s CPU   3832.32s WALL (     695 calls)
     h_psi:vnl    :   2344.99s CPU   1739.08s WALL (     695 calls)
     add_vuspsi   :   1079.91s CPU    761.41s WALL (     695 calls)

     General routines
     calbec       :   1941.80s CPU   1497.26s WALL (     895 calls)
     fft          :     59.29s CPU     59.64s WALL (     313 calls)
     ffts         :      9.01s CPU      9.05s WALL (     512 calls)
     fftw         :   4273.70s CPU   4319.63s WALL (  355236 calls)
     interpolate  :      2.16s CPU      2.19s WALL (      36 calls)

     Parallel routines
     fft_scatter  :   3146.13s CPU   3185.95s WALL (  356061 calls)

     PWSCF        :     4h31m CPU        4h 6m WALL


   This run was terminated on:  18: 6:25  13Feb2017            

=------------------------------------------------------------------------------=
   JOB DONE.
=------------------------------------------------------------------------------=
