
     Program PWSCF v.5.1 starts on 10Feb2017 at 11:44:31 

     This program is part of the open-source Quantum ESPRESSO suite
     for quantum simulation of materials; please cite
         "P. Giannozzi et al., J. Phys.:Condens. Matter 21 395502 (2009);
          URL http://www.quantum-espresso.org", 
     in publications or presentations arising from this work. More details at
     http://www.quantum-espresso.org/quote

     Parallel version (MPI), running on    16 processors
     R & G space division:  proc/nbgrp/npool/nimage =      16
     Reading input from /tmp/SiGe_zns.scf.in.super.228.b.01.16751/SiGe_zns.scf.in.super.228.b.01.t
Warning: card &IONS ignored
Warning: card   ION_DYNAMICS='BFGS', ignored
Warning: card / ignored
Warning: card &CELL ignored
Warning: card  CELL_DYNAMICS = 'BFGS' ignored
Warning: card / ignored
     Message from routine read_cards :
     DEPRECATED: no units specified in CELL_PARAMETERS card

     Current dimensions of program PWSCF are:
     Max number of different atomic species (ntypx) = 10
     Max number of k-points (npk) =  40000
     Max angular momentum in pseudopotentials (lmaxx) =  3

     Subspace diagonalization in iterative solution of the eigenvalue problem:
     a serial algorithm will be used

     warning: symmetry operation #  3 not compatible with FFT grid. 
  -1   1   0
   0   1   0
   0   4  -1
     warning: symmetry operation #  4 not compatible with FFT grid. 
   1   0   0
   1  -1   0
   4   0  -1
     warning: symmetry operation #  5 not compatible with FFT grid. 
  -1   1   0
  -1   0   0
  -4   0   1
     warning: symmetry operation #  6 not compatible with FFT grid. 
   0  -1   0
   1  -1   0
   0  -4   1
     warning: symmetry operation #  9 not compatible with FFT grid. 
   1  -1   0
   0  -1   0
   0  -4   1
     warning: symmetry operation # 10 not compatible with FFT grid. 
  -1   0   0
  -1   1   0
  -4   0   1
     warning: symmetry operation # 11 not compatible with FFT grid. 
   1  -1   0
   1   0   0
   4   0  -1
     warning: symmetry operation # 12 not compatible with FFT grid. 
   0   1   0
  -1   1   0
   0   4  -1

     Parallelization info
     --------------------
     sticks:   dense  smooth     PW     G-vecs:    dense   smooth      PW
     Min         189     131     36                27389    16001    2346
     Max         192     132     37                27391    16042    2363
     Sum        3037    2107    583               438235   256383   37657



     bravais-lattice index     =            0
     lattice parameter (alat)  =    14.799446477  a.u.
     unit-cell volume          =    9168.1437 (a.u.)^3
     number of atoms/cell      =           64
     number of atomic types    =            2
     number of electrons       =       626.00
     number of Kohn-Sham states=          376
     kinetic-energy cutoff     =      35.0000  Ry
     charge density cutoff     =     200.0000  Ry
     convergence threshold     =      1.0E-09
     mixing beta               =       0.3000
     number of iterations used =            8  local-TF  mixing
     Exchange-correlation      = SLA  PW   PSX  PSC ( 1  4 10  8 0)
     A smooth kinetic-energy cutoff is imposed at      34.5000 Ry
     height of the smooth step-function =             800.0000 Ry
     width of the smooth step-function  =               1.0000 Ry


     celldm(1)=  14.799446  celldm(2)=   0.000000  celldm(3)=   0.000000
     celldm(4)=   0.000000  celldm(5)=   0.000000  celldm(6)=   0.000000

     crystal axes: (cart. coord. in units of alat)
               a(1) = (  -0.000000000000   0.707106781187   0.707106781187 )  
               a(2) = (   0.707106781187  -0.000000000000   0.707106781187 )  
               a(3) = (   2.828427124746   2.828427124746  -0.000000000000 )  

     reciprocal axes: (cart. coord. in units 2 pi/alat)
               b(1) = ( -0.707107  0.707107  0.707107 )  
               b(2) = (  0.707107 -0.707107  0.707107 )  
               b(3) = (  0.176777  0.176777 -0.176777 )  


     PseudoPot. # 1 for Si read from file:
     /users/kfg/psuedo/gbrv_1.5/si.pbesol.UPF
     MD5 check sum: ef58ba74faed4df802eb8a9742fc00a8
     Pseudo is Ultrasoft + core correction, Zval =  4.0
     Generated by new atomic code, or converted to UPF format
     Using radial grid of  899 points,  6 beta functions with: 
                l(1) =   0
                l(2) =   0
                l(3) =   1
                l(4) =   1
                l(5) =   2
                l(6) =   2
     Q(r) pseudized with  8 coefficients,  rinner =    0.900   0.900   0.900
                                                       0.900   0.900

     PseudoPot. # 2 for Ge read from file:
     /users/kfg/psuedo/gbrv_1.5/ge.pbesol.UPF
     MD5 check sum: 7bed0412183f5e553a4d27ec7023354d
     Pseudo is Ultrasoft + core correction, Zval = 14.0
     Generated by new atomic code, or converted to UPF format
     Using radial grid of  873 points,  6 beta functions with: 
                l(1) =   0
                l(2) =   0
                l(3) =   1
                l(4) =   1
                l(5) =   2
                l(6) =   2
     Q(r) pseudized with  8 coefficients,  rinner =    1.400   1.400   1.400
                                                       1.400   1.400

     atomic species   valence    mass     pseudopotential
        Si             4.00    28.08550     Si( 1.00)
        Ge            14.00    72.64000     Ge( 1.00)

     No symmetry found


                                    s                        frac. trans.

      isym =  1     identity                                     

 cryst.   s( 1) = (     1          0          0      )
                  (     0          1          0      )
                  (     0          0          1      )

 cart.    s( 1) = (  1.0000000  0.0000000  0.0000000 )
                  (  0.0000000  1.0000000  0.0000000 )
                  (  0.0000000  0.0000000  1.0000000 )


     point group C_1 (1)    
     there are  1 classes
     the character table:

       E    
A      1.00

     the symmetry operations in each class:
     E        1

   Cartesian axes

     site n.     atom                  positions (alat units)
         1           Ge  tau(   1) = (    0.00098922550   -0.00071026300    0.00084575543  )
         2           Si  tau(   2) = (    0.17664839466    0.17619116289    0.17582727367  )
         3           Si  tau(   3) = (    0.35294241051    0.35384754902    0.00061228312  )
         4           Ge  tau(   4) = (    0.53094791422    0.53095503216    0.17571417356  )
         5           Si  tau(   5) = (    0.70663051650    0.70798583304    0.00083247085  )
         6           Si  tau(   6) = (    0.88407674214    0.88377214312    0.17741887747  )
         7           Si  tau(   7) = (    1.06104702319    1.06192994687    0.00066869466  )
         8           Ge  tau(   8) = (    1.23733769993    1.23837643873    0.17651123896  )
         9           Ge  tau(   9) = (    1.41347345841    1.41401008603   -0.00071838400  )
        10           Ge  tau(  10) = (    1.59072841337    1.59143857157    0.17579080545  )
        11           Si  tau(  11) = (    1.76711443351    1.76854638432    0.00083897538  )
        12           Ge  tau(  12) = (    1.94359865645    1.94365170093    0.17809975630  )
        13           Si  tau(  13) = (    2.12225101391    2.12219152609   -0.00023374842  )
        14           Ge  tau(  14) = (    2.29810795751    2.29703583873    0.17562402194  )
        15           Ge  tau(  15) = (    2.47520342704    2.47477797523    0.00021961014  )
        16           Si  tau(  16) = (    2.65136455941    2.65250393479    0.17605206007  )
        17           Ge  tau(  17) = (    0.35471570847   -0.00108357841    0.35411623872  )
        18           Ge  tau(  18) = (    0.52919926550    0.17542660189    0.53108809411  )
        19           Ge  tau(  19) = (    0.70831244278    0.35322633702    0.35408906133  )
        20           Si  tau(  20) = (    0.88281486476    0.52991340684    0.53120151294  )
        21           Ge  tau(  21) = (    1.06060852863    0.70596198999    0.35282934806  )
        22           Ge  tau(  22) = (    1.23751201680    0.88505320454    0.52919243645  )
        23           Ge  tau(  23) = (    1.41375778501    1.06139522389    0.35395405051  )
        24           Si  tau(  24) = (    1.58989722331    1.23665004791    0.52977852943  )
        25           Ge  tau(  25) = (    1.76761341755    1.41423249527    0.35222738072  )
        26           Ge  tau(  26) = (    1.94477655387    1.59157192072    0.53080177321  )
        27           Si  tau(  27) = (    2.12243171330    1.76902281584    0.35247456583  )
        28           Ge  tau(  28) = (    2.29727106723    1.94580085200    0.52950774238  )
        29           Si  tau(  29) = (    2.47548125878    2.12213772407    0.35330658570  )
        30           Si  tau(  30) = (    2.65201853797    2.29833746496    0.53033421664  )
        31           Si  tau(  31) = (    2.82769531036    2.47622088564    0.35364900614  )
        32           Si  tau(  32) = (    3.00633368252    2.65155011074    0.53070322939  )
        33           Ge  tau(  33) = (    0.00046977384    0.35239175315    0.35476176463  )
        34           Ge  tau(  34) = (    0.17643633913    0.52945300903    0.53141006088  )
        35           Ge  tau(  35) = (    0.35269116247    0.70739647076    0.35347457681  )
        36           Ge  tau(  36) = (    0.52991808873    0.88284529273    0.52973627252  )
        37           Ge  tau(  37) = (    0.70608751429    1.06034951826    0.35484331302  )
        38           Si  tau(  38) = (    0.88461228675    1.23842891877    0.53075794500  )
        39           Si  tau(  39) = (    1.06125464714    1.41510872016    0.35277723693  )
        40           Ge  tau(  40) = (    1.23836789068    1.59205359886    0.53159213536  )
        41           Si  tau(  41) = (    1.41347111358    1.76751350218    0.35283250598  )
        42           Si  tau(  42) = (    1.59136953368    1.94477409481    0.53043266564  )
        43           Ge  tau(  43) = (    1.76888766875    2.12119053384    0.35476952447  )
        44           Ge  tau(  44) = (    1.94436182994    2.29870995858    0.52920403550  )
        45           Si  tau(  45) = (    2.12219015561    2.47615396818    0.35382865501  )
        46           Si  tau(  46) = (    2.29750868446    2.65198469712    0.53126405742  )
        47           Ge  tau(  47) = (    2.47580172237    2.82710437959    0.35309331763  )
        48           Ge  tau(  48) = (    2.65154122610    3.00655287377    0.52968622077  )
        49           Ge  tau(  49) = (    0.35480611947    0.35409942300    0.70608403027  )
        50           Si  tau(  50) = (    0.53114620652    0.52918497373    0.88467793282  )
        51           Ge  tau(  51) = (    0.70690963406    0.70627490379    0.70613741940  )
        52           Ge  tau(  52) = (    0.88505477295    0.88359775814    0.88426921142  )
        53           Si  tau(  53) = (    1.06027325897    1.06117220862    0.70844365888  )
        54           Ge  tau(  54) = (    1.23777543653    1.23673575516    0.88370267281  )
        55           Ge  tau(  55) = (    1.41407581414    1.41340645220    0.70786191853  )
        56           Si  tau(  56) = (    1.59163992219    1.58974258954    0.88285020948  )
        57           Si  tau(  57) = (    1.76706509215    1.76692197209    0.70680257485  )
        58           Si  tau(  58) = (    1.94384006768    1.94324500114    0.88256766453  )
        59           Ge  tau(  59) = (    2.12118127680    2.12251314857    0.70686322829  )
        60           Ge  tau(  60) = (    2.29786568175    2.29838816960    0.88336679734  )
        61           Ge  tau(  61) = (    2.47543801985    2.47437329791    0.70757808816  )
        62           Si  tau(  62) = (    2.65062261215    2.65278519262    0.88256949389  )
        63           Ge  tau(  63) = (    2.82880422884    2.82739648961    0.70723507378  )
        64           Ge  tau(  64) = (    3.00390914800    3.00492201340    0.88328132805  )

   Crystallographic axes

     site n.     atom                  positions (cryst. coord.)
         1           Ge  tau(   1) = (   -0.00060368044    0.00179975924   -0.00010019578  )
         2           Si  tau(   2) = (    0.12400534584    0.12465196921    0.03129164657  )
         3           Si  tau(   3) = (    0.00107297912   -0.00020708003    0.12483575593  )
         4           Ge  tau(   4) = (    0.12425371681    0.12424365053    0.15665752267  )
         5           Si  tau(   5) = (    0.00154699930   -0.00036970774    0.24992404194  )
         6           Si  tau(   6) = (    0.12523870734    0.12566947540    0.28115096088  )
         7           Si  tau(   7) = (    0.00109715985   -0.00015148279    0.37517464333  )
         8           Ge  tau(   8) = (    0.12554679327    0.12407779477    0.40644549043  )
         9           Ge  tau(   9) = (   -0.00012852117   -0.00088742723    0.49996019054  )
        10           Ge  tau(  10) = (    0.12480502827    0.12380071293    0.53145724583  )
        11           Si  tau(  11) = (    0.00160578731   -0.00041929695    0.62487412377  )
        12           Ge  tau(  12) = (    0.12597305352    0.12589803730    0.65569138562  )
        13           Si  tau(  13) = (   -0.00020734933   -0.00012322085    0.75035984687  )
        14           Ge  tau(  14) = (    0.12342683438    0.12494303932    0.78126810050  )
        15           Ge  tau(  15) = (   -0.00014555204    0.00045612768    0.87500253212  )
        16           Si  tau(  16) = (    0.12529326558    0.12368194546    0.90647844331  )
        17           Ge  tau(  17) = (   -0.00119009476    0.50198608222   -0.00008557913  )
        18           Ge  tau(  18) = (    0.12538094331    0.62569104220    0.03067743407  )
        19           Ge  tau(  19) = (   -0.00070501688    0.50146256969    0.12506062332  )
        20           Si  tau(  20) = (    0.12607717799    0.62515520596    0.15583338721  )
        21           Ge  tau(  21) = (   -0.00128494778    0.50026099701    0.24991649214  )
        22           Ge  tau(  22) = (    0.12496954413    0.62342157661    0.28167117529  )
        23           Ge  tau(  23) = (    0.00112535294    0.49944126575    0.37497854193  )
        24           Si  tau(  24) = (    0.12482651753    0.62439346385    0.40601518803  )
        25           Ge  tau(  25) = (   -0.00081567706    0.49894041591    0.50021061305  )
        26           Ge  tau(  26) = (    0.12558014205    0.62508692455    0.53131061343  )
        27           Si  tau(  27) = (   -0.00066067223    0.49913498362    0.62560918263  )
        28           Ge  tau(  28) = (    0.12589154276    0.62294548790    0.65647160295  )
        29           Si  tau(  29) = (   -0.00002612690    0.49967709206    0.75029551938  )
        30           Si  tau(  30) = (    0.12491263578    0.62509320598    0.78135684452  )
        31           Si  tau(  31) = (    0.00153766128    0.49859755953    0.87509187466  )
        32           Si  tau(  32) = (    0.12439398284    0.62613372177    0.90636603627  )
        33           Ge  tau(  33) = (    0.49970086749    0.00200803145   -0.00033591773  )
        34           Ge  tau(  34) = (    0.62538413880    0.12614317648    0.03084387180  )
        35           Ge  tau(  35) = (    0.50075879905   -0.00087025858    0.12491272097  )
        36           Ge  tau(  36) = (    0.62413732976    0.12502289132    0.15609861418  )
        37           Ge  tau(  37) = (    0.50141317822    0.00041104757    0.24953687284  )
        38           Si  tau(  38) = (    0.62548868188    0.12511640228    0.28147857277  )
        39           Si  tau(  39) = (    0.49966379106   -0.00076143810    0.37540053830  )
        40           Ge  tau(  40) = (    0.62598596640    0.12579884107    0.40637945629  )
        41           Si  tau(  41) = (    0.49983603141   -0.00085551621    0.49995138376  )
        42           Si  tau(  42) = (    0.62496729652    0.12517777316    0.53133965103  )
        43           Ge  tau(  43) = (    0.49997568145    0.00174419158    0.62496018497  )
        44           Ge  tau(  44) = (    0.62476572680    0.12364179747    0.65652526815  )
        45           Si  tau(  45) = (    0.50048485350   -0.00009557083    0.75033141771  )
        46           Si  tau(  46) = (    0.62631280992    0.12500802529    0.78103997899  )
        47           Ge  tau(  47) = (    0.49808317046    0.00126618812    0.87501154635  )
        48           Ge  tau(  48) = (    0.62557586208    0.12351357513    0.90658299700  )
        49           Ge  tau(  49) = (    0.49877709602    0.49977651576    0.00049877760  )
        50           Si  tau(  50) = (    0.62417496446    0.62694856647    0.03105140060  )
        51           Ge  tau(  51) = (    0.49886573563    0.49976337979    0.12498945302  )
        52           Ge  tau(  52) = (    0.62424249074    0.62630302084    0.15633836063  )
        53           Si  tau(  53) = (    0.50158096868    0.50030966189    0.24978579019  )
        54           Ge  tau(  54) = (    0.62413698674    0.62560731825    0.28121787282  )
        55           Ge  tau(  55) = (    0.50006065237    0.50100727311    0.37469948037  )
        56           Si  tau(  56) = (    0.62292775312    0.62561098668    0.40632694442  )
        57           Si  tau(  57) = (    0.49968369247    0.49988609480    0.49978033103  )
        58           Si  tau(  58) = (    0.62364880486    0.62449035604    0.53112865769  )
        59           Ge  tau(  59) = (    0.50076955765    0.49888600654    0.62522933084  )
        60           Ge  tau(  60) = (    0.62500410738    0.62426519797    0.65635190342  )
        61           Ge  tau(  61) = (    0.49958039226    0.50108613646    0.74992797100  )
        62           Si  tau(  62) = (    0.62560004931    0.62254169869    0.78150118704  )
        63           Ge  tau(  63) = (    0.49909529461    0.50108613852    0.87486179180  )
        64           Ge  tau(  64) = (    0.62529042075    0.62385801277    0.90607776112  )

     number of k points=    10  gaussian smearing, width (Ry)=  0.0150
                       cart. coord. in units 2pi/alat
        k(    1) = (   0.0000000   0.0000000   0.0000000), wk =   0.1250000
        k(    2) = (   0.1767767  -0.1767767   0.1767767), wk =   0.2500000
        k(    3) = (  -0.3535534   0.3535534  -0.3535534), wk =   0.1250000
        k(    4) = (  -0.5303301   0.5303301  -0.1767767), wk =   0.2500000
        k(    5) = (   0.1767767  -0.1767767  -0.1767767), wk =   0.2500000
        k(    6) = (   0.1767767   0.1767767   0.1767767), wk =   0.2500000
        k(    7) = (  -0.3535534   0.3535534   0.3535534), wk =   0.1250000
        k(    8) = (  -0.3535534  -0.3535534  -0.3535534), wk =   0.1250000
        k(    9) = (  -0.5303301   0.5303301   0.1767767), wk =   0.2500000
        k(   10) = (   0.5303301  -0.1767767   0.5303301), wk =   0.2500000

                       cryst. coord.
        k(    1) = (   0.0000000   0.0000000   0.0000000), wk =   0.1250000
        k(    2) = (   0.0000000   0.2500000   0.0000000), wk =   0.2500000
        k(    3) = (   0.0000000  -0.5000000   0.0000000), wk =   0.1250000
        k(    4) = (   0.2500000  -0.5000000   0.0000000), wk =   0.2500000
        k(    5) = (  -0.2500000   0.0000000   0.0000000), wk =   0.2500000
        k(    6) = (   0.2500000   0.2500000   1.0000000), wk =   0.2500000
        k(    7) = (   0.5000000   0.0000000   0.0000000), wk =   0.1250000
        k(    8) = (  -0.5000000  -0.5000000  -2.0000000), wk =   0.1250000
        k(    9) = (   0.5000000  -0.2500000   0.0000000), wk =   0.2500000
        k(   10) = (   0.2500000   0.7500000   1.0000000), wk =   0.2500000

     Dense  grid:   438235 G-vectors     FFT dimensions: (  72,  72, 270)

     Smooth grid:   256383 G-vectors     FFT dimensions: (  60,  60, 225)

     Largest allocated arrays     est. size (Mb)     dimensions
        Kohn-Sham Wavefunctions        11.56 Mb     (    2015,  376)
        NL pseudopotentials            35.42 Mb     (    2015, 1152)
        Each V/rho on FFT grid          1.34 Mb     (   88128)
        Each G-vector array             0.21 Mb     (   27391)
        G-vector shells                 0.04 Mb     (    5735)
     Largest temporary arrays     est. size (Mb)     dimensions
        Auxiliary wavefunctions        46.24 Mb     (    2015, 1504)
        Each subspace H/S matrix       34.52 Mb     (    1504, 1504)
        Each <psi_i|beta_j> matrix      6.61 Mb     (    1152,  376)
        Arrays for rho mixing          10.76 Mb     (   88128,    8)

     Check: negative/imaginary core charge=   -0.000001    0.000000

     Initial potential from superposition of free atoms

     starting charge  625.95260, renormalised to  626.00000
     Starting wfc are  441 randomized atomic wfcs

     total cpu time spent up to now is      124.1 secs

     Self-consistent Calculation

     iteration #  1     ecut=    35.00 Ry     beta=0.30
     Davidson diagonalization with overlap
     ethr =  1.00E-02,  avg # of iterations =  3.0

     Threshold (ethr) on eigenvalues was too large:
     Diagonalizing with lowered threshold

     Davidson diagonalization with overlap
     ethr =  2.17E-04,  avg # of iterations =  7.5

     total cpu time spent up to now is     1133.3 secs

     total energy              =   -8146.15749612 Ry
     Harris-Foulkes estimate   =   -8146.30170866 Ry
     estimated scf accuracy    <       1.37777298 Ry

     iteration #  2     ecut=    35.00 Ry     beta=0.30
     Davidson diagonalization with overlap
     ethr =  2.20E-04,  avg # of iterations =  1.0

     total cpu time spent up to now is     1511.5 secs

     total energy              =   -8145.88546396 Ry
     Harris-Foulkes estimate   =   -8146.16379772 Ry
     estimated scf accuracy    <       0.84751393 Ry

     iteration #  3     ecut=    35.00 Ry     beta=0.30
     Davidson diagonalization with overlap
     ethr =  1.35E-04,  avg # of iterations =  2.0

     total cpu time spent up to now is     1921.9 secs

     total energy              =   -8145.93701060 Ry
     Harris-Foulkes estimate   =   -8145.93674299 Ry
     estimated scf accuracy    <       0.01253194 Ry

     iteration #  4     ecut=    35.00 Ry     beta=0.30
     Davidson diagonalization with overlap
     ethr =  2.00E-06,  avg # of iterations = 10.2

     total cpu time spent up to now is     3281.9 secs

     total energy              =   -8145.93872184 Ry
     Harris-Foulkes estimate   =   -8145.93903457 Ry
     estimated scf accuracy    <       0.00508569 Ry

     iteration #  5     ecut=    35.00 Ry     beta=0.30
     Davidson diagonalization with overlap
     ethr =  8.12E-07,  avg # of iterations =  2.0

     total cpu time spent up to now is     3767.1 secs

     total energy              =   -8145.93910539 Ry
     Harris-Foulkes estimate   =   -8145.93920133 Ry
     estimated scf accuracy    <       0.00051854 Ry

     iteration #  6     ecut=    35.00 Ry     beta=0.30
     Davidson diagonalization with overlap
     ethr =  8.28E-08,  avg # of iterations =  1.7

     total cpu time spent up to now is     4204.7 secs

     total energy              =   -8145.93909527 Ry
     Harris-Foulkes estimate   =   -8145.93912553 Ry
     estimated scf accuracy    <       0.00019678 Ry

     iteration #  7     ecut=    35.00 Ry     beta=0.30
     Davidson diagonalization with overlap
     ethr =  3.14E-08,  avg # of iterations =  2.0

     total cpu time spent up to now is     4712.4 secs

     total energy              =   -8145.93911001 Ry
     Harris-Foulkes estimate   =   -8145.93910759 Ry
     estimated scf accuracy    <       0.00010445 Ry

     iteration #  8     ecut=    35.00 Ry     beta=0.30
     Davidson diagonalization with overlap
     ethr =  1.67E-08,  avg # of iterations =  1.0

     total cpu time spent up to now is     5142.3 secs

     total energy              =   -8145.93910777 Ry
     Harris-Foulkes estimate   =   -8145.93911214 Ry
     estimated scf accuracy    <       0.00007613 Ry

     iteration #  9     ecut=    35.00 Ry     beta=0.30
     Davidson diagonalization with overlap
     ethr =  1.22E-08,  avg # of iterations =  2.7

     total cpu time spent up to now is     5872.9 secs

     total energy              =   -8145.93910798 Ry
     Harris-Foulkes estimate   =   -8145.93913184 Ry
     estimated scf accuracy    <       0.00008079 Ry

     iteration # 10     ecut=    35.00 Ry     beta=0.30
     Davidson diagonalization with overlap
     ethr =  1.22E-08,  avg # of iterations =  1.0

     total cpu time spent up to now is     6294.8 secs

     total energy              =   -8145.93910138 Ry
     Harris-Foulkes estimate   =   -8145.93911120 Ry
     estimated scf accuracy    <       0.00002199 Ry

     iteration # 11     ecut=    35.00 Ry     beta=0.30
     Davidson diagonalization with overlap
     ethr =  3.51E-09,  avg # of iterations =  2.0

     total cpu time spent up to now is     6935.6 secs

     total energy              =   -8145.93910494 Ry
     Harris-Foulkes estimate   =   -8145.93910524 Ry
     estimated scf accuracy    <       0.00000232 Ry

     iteration # 12     ecut=    35.00 Ry     beta=0.30
     Davidson diagonalization with overlap
     ethr =  3.70E-10,  avg # of iterations =  2.0

     total cpu time spent up to now is     7411.8 secs

     total energy              =   -8145.93910496 Ry
     Harris-Foulkes estimate   =   -8145.93910513 Ry
     estimated scf accuracy    <       0.00000078 Ry

     iteration # 13     ecut=    35.00 Ry     beta=0.30
     Davidson diagonalization with overlap
     ethr =  1.24E-10,  avg # of iterations =  2.4

     total cpu time spent up to now is     7943.7 secs

     total energy              =   -8145.93910503 Ry
     Harris-Foulkes estimate   =   -8145.93910503 Ry
     estimated scf accuracy    <       0.00000024 Ry

     iteration # 14     ecut=    35.00 Ry     beta=0.30
     Davidson diagonalization with overlap
     ethr =  3.80E-11,  avg # of iterations =  2.0

     total cpu time spent up to now is     8436.7 secs

     total energy              =   -8145.93910504 Ry
     Harris-Foulkes estimate   =   -8145.93910505 Ry
     estimated scf accuracy    <       0.00000008 Ry

     iteration # 15     ecut=    35.00 Ry     beta=0.30
     Davidson diagonalization with overlap
     ethr =  1.25E-11,  avg # of iterations =  2.1

     total cpu time spent up to now is     9058.3 secs

     total energy              =   -8145.93910506 Ry
     Harris-Foulkes estimate   =   -8145.93910505 Ry
     estimated scf accuracy    <       0.00000001 Ry

     iteration # 16     ecut=    35.00 Ry     beta=0.30
     Davidson diagonalization with overlap
     ethr =  2.15E-12,  avg # of iterations =  2.0

     total cpu time spent up to now is     9553.7 secs

     total energy              =   -8145.93910506 Ry
     Harris-Foulkes estimate   =   -8145.93910506 Ry
     estimated scf accuracy    <          1.8E-09 Ry

     iteration # 17     ecut=    35.00 Ry     beta=0.30
     Davidson diagonalization with overlap
     ethr =  2.87E-13,  avg # of iterations =  2.4

     total cpu time spent up to now is    10122.7 secs

     End of self-consistent calculation

          k = 0.0000 0.0000 0.0000 ( 32017 PWs)   bands (ev):

   -17.1058 -17.0951 -17.0891 -17.0826 -17.0762 -17.0658 -17.0643 -17.0607
   -17.0582 -17.0576 -17.0487 -17.0475 -17.0467 -17.0441 -17.0430 -17.0424
   -17.0417 -17.0344 -17.0321 -17.0246 -17.0137 -17.0120 -17.0107 -17.0039
   -16.9994 -16.9920 -16.9899 -16.9869 -16.9850 -16.9826 -16.9806 -16.9777
   -16.9766 -16.9748 -16.9684 -16.9647 -16.9628 -16.9601 -16.9566 -16.9558
   -16.9527 -16.9500 -16.9477 -16.9431 -16.9426 -16.9394 -16.9382 -16.9348
   -16.9287 -16.9255 -16.9241 -16.9187 -16.9163 -16.9152 -16.9051 -16.9021
   -16.9016 -16.8959 -16.8949 -16.8907 -16.8886 -16.8879 -16.8807 -16.8801
   -16.8752 -16.8748 -16.8747 -16.8719 -16.8717 -16.8713 -16.8628 -16.8620
   -16.8608 -16.8605 -16.8577 -16.8564 -16.8536 -16.8484 -16.8461 -16.8441
   -16.8436 -16.8428 -16.8398 -16.8391 -16.8371 -16.8329 -16.8303 -16.8303
   -16.8284 -16.8265 -16.8259 -16.8237 -16.8217 -16.8193 -16.8182 -16.8179
   -16.8168 -16.8156 -16.8150 -16.8143 -16.8126 -16.8116 -16.8109 -16.8098
   -16.8069 -16.8066 -16.8047 -16.8024 -16.8016 -16.8014 -16.8008 -16.8001
   -16.7989 -16.7983 -16.7965 -16.7948 -16.7924 -16.7915 -16.7903 -16.7893
   -16.7889 -16.7868 -16.7854 -16.7834 -16.7829 -16.7809 -16.7800 -16.7796
   -16.7777 -16.7775 -16.7756 -16.7742 -16.7728 -16.7697 -16.7685 -16.7676
   -16.7669 -16.7655 -16.7645 -16.7633 -16.7627 -16.7602 -16.7572 -16.7562
   -16.7542 -16.7528 -16.7518 -16.7516 -16.7513 -16.7477 -16.7475 -16.7460
   -16.7449 -16.7439 -16.7413 -16.7407 -16.7392 -16.7347 -16.7330 -16.7302
   -16.7245 -16.7223 -16.7200 -16.7169 -16.7160 -16.7147 -16.7128 -16.7085
   -16.7071 -16.7060 -16.7014 -16.7009 -16.6995 -16.6948 -16.6942 -16.6923
   -16.6898 -16.6865 -16.6844 -16.6815 -16.6807 -16.6776 -16.6767 -16.6732
   -16.6636  -5.0345  -4.8274  -4.7338  -4.2875  -4.1430  -3.5110  -3.2732
    -3.0098  -2.9303  -2.9118  -2.8374  -2.7428  -2.7141  -2.6390  -2.5963
    -2.4818  -2.4529  -2.3814  -2.3732  -2.2595  -2.1850  -2.1686  -2.0545
    -1.8701  -1.8024  -1.6690  -1.6317  -1.5170  -1.4895  -1.0174  -0.9823
    -0.8778  -0.8344  -0.6940  -0.6337  -0.0675   0.0054   0.0399   0.1049
     0.1198   0.1582   0.1800   0.2394   0.2812   0.3132   0.3450   0.4408
     0.4612   0.4824   0.5151   0.5365   0.6201   0.7051   0.7749   0.7945
     0.8145   0.8761   1.2330   1.3326   3.2277   3.3149   3.8766   3.8974
     3.9115   3.9169   3.9229   3.9269   4.0331   4.0387   4.0411   4.0558
     4.0616   4.0665   4.5875   4.5936   4.5977   4.5998   4.6013   4.6075
     4.7645   4.7698   4.7715   4.7749   4.7859   4.7919   5.0672   5.0780
     5.1000   5.1051   5.1148   5.1439   5.2576   5.2659   5.2711   5.2756
     5.2872   5.2949   5.6489   5.7386   5.9156   5.9202   5.9312   5.9357
     5.9433   5.9608   6.2572   6.2794   6.2840   6.2974   6.3112   6.3174
     6.3277   6.3429   6.4081   6.4271   6.4423   6.4571   6.7747   6.7882
     6.8132   6.8347   7.3027   7.3238   7.3368   7.3524   7.6395   7.6585
     7.6673   8.1373   8.1783   8.1932   8.2367   8.2501   8.2623   8.2910
     8.3449   8.3626   8.4067   8.4332   8.4374   8.4442   8.4728   8.4972
     8.5512   8.5844   8.6029   8.8370   8.8846   8.9606   8.9831   9.0056
     9.0305   9.0773   9.1149   9.1572   9.3443   9.3512   9.4017   9.4110
     9.4373   9.4608   9.4904   9.5196   9.5406   9.5651   9.5907   9.5949
     9.6175   9.6702  10.1609  10.1748  10.1856  10.5591  10.5798  10.6318
    10.6559  10.9410  10.9830  11.0083  11.0554  11.0691  11.0957  11.0983
    11.1183  11.1448  11.1530  11.1655  11.1698  11.1837  11.1943  11.2310

     occupation numbers 
     1.0000   1.0000   1.0000   1.0000   1.0000   1.0000   1.0000   1.0000
     1.0000   1.0000   1.0000   1.0000   1.0000   1.0000   1.0000   1.0000
     1.0000   1.0000   1.0000   1.0000   1.0000   1.0000   1.0000   1.0000
     1.0000   1.0000   1.0000   1.0000   1.0000   1.0000   1.0000   1.0000
     1.0000   1.0000   1.0000   1.0000   1.0000   1.0000   1.0000   1.0000
     1.0000   1.0000   1.0000   1.0000   1.0000   1.0000   1.0000   1.0000
     1.0000   1.0000   1.0000   1.0000   1.0000   1.0000   1.0000   1.0000
     1.0000   1.0000   1.0000   1.0000   1.0000   1.0000   1.0000   1.0000
     1.0000   1.0000   1.0000   1.0000   1.0000   1.0000   1.0000   1.0000
     1.0000   1.0000   1.0000   1.0000   1.0000   1.0000   1.0000   1.0000
     1.0000   1.0000   1.0000   1.0000   1.0000   1.0000   1.0000   1.0000
     1.0000   1.0000   1.0000   1.0000   1.0000   1.0000   1.0000   1.0000
     1.0000   1.0000   1.0000   1.0000   1.0000   1.0000   1.0000   1.0000
     1.0000   1.0000   1.0000   1.0000   1.0000   1.0000   1.0000   1.0000
     1.0000   1.0000   1.0000   1.0000   1.0000   1.0000   1.0000   1.0000
     1.0000   1.0000   1.0000   1.0000   1.0000   1.0000   1.0000   1.0000
     1.0000   1.0000   1.0000   1.0000   1.0000   1.0000   1.0000   1.0000
     1.0000   1.0000   1.0000   1.0000   1.0000   1.0000   1.0000   1.0000
     1.0000   1.0000   1.0000   1.0000   1.0000   1.0000   1.0000   1.0000
     1.0000   1.0000   1.0000   1.0000   1.0000   1.0000   1.0000   1.0000
     1.0000   1.0000   1.0000   1.0000   1.0000   1.0000   1.0000   1.0000
     1.0000   1.0000   1.0000   1.0000   1.0000   1.0000   1.0000   1.0000
     1.0000   1.0000   1.0000   1.0000   1.0000   1.0000   1.0000   1.0000
     1.0000   1.0000   1.0000   1.0000   1.0000   1.0000   1.0000   1.0000
     1.0000   1.0000   1.0000   1.0000   1.0000   1.0000   1.0000   1.0000
     1.0000   1.0000   1.0000   1.0000   1.0000   1.0000   1.0000   1.0000
     1.0000   1.0000   1.0000   1.0000   1.0000   1.0000   1.0000   1.0000
     1.0000   1.0000   1.0000   1.0000   1.0000   1.0000   1.0000   1.0000
     1.0000   1.0000   1.0000   1.0000   1.0000   1.0000   1.0000   1.0000
     1.0000   1.0000   1.0000   1.0000   1.0000   1.0000   1.0000   1.0000
     1.0000   1.0000   1.0000   1.0000   1.0000   1.0000   1.0000   1.0000
     1.0000   1.0000   1.0000   1.0000   1.0000   1.0000   1.0000   1.0000
     1.0000   1.0000   1.0000   1.0000   1.0000   1.0000   1.0000   1.0000
     1.0000   1.0000   1.0000   1.0000   1.0000   1.0000   1.0000   1.0000
     1.0000   1.0000   1.0000   1.0000   1.0000   1.0000   1.0000   1.0000
     1.0000   1.0000   1.0000   1.0000   1.0000   1.0000   1.0000   1.0000
     1.0000   1.0000   1.0000   1.0000   1.0000   1.0000   1.0000   1.0000
     1.0000   1.0000   1.0000   1.0000   1.0000   1.0000   1.0000   1.0000
     1.0000   1.0000   0.9999   0.9999   0.9998   0.9998   0.9330   0.9141
     0.9042   0.0255   0.0127   0.0097   0.0042   0.0031   0.0024   0.0013
     0.0003   0.0002   0.0001   0.0000   0.0000   0.0000   0.0000   0.0000
     0.0000   0.0000   0.0000   0.0000   0.0000   0.0000   0.0000   0.0000
     0.0000   0.0000   0.0000   0.0000   0.0000   0.0000   0.0000   0.0000
     0.0000   0.0000   0.0000   0.0000   0.0000   0.0000   0.0000   0.0000
     0.0000   0.0000   0.0000   0.0000   0.0000   0.0000   0.0000   0.0000
     0.0000   0.0000   0.0000   0.0000   0.0000   0.0000   0.0000   0.0000
     0.0000   0.0000   0.0000   0.0000   0.0000   0.0000   0.0000   0.0000

          k = 0.1768-0.1768 0.1768 ( 32087 PWs)   bands (ev):

   -17.1076 -17.0988 -17.0924 -17.0867 -17.0772 -17.0680 -17.0637 -17.0627
   -17.0621 -17.0587 -17.0555 -17.0517 -17.0480 -17.0451 -17.0431 -17.0421
   -17.0375 -17.0353 -17.0334 -17.0247 -17.0130 -17.0120 -17.0119 -17.0054
   -17.0005 -16.9933 -16.9883 -16.9850 -16.9828 -16.9811 -16.9741 -16.9729
   -16.9710 -16.9690 -16.9661 -16.9637 -16.9590 -16.9556 -16.9552 -16.9534
   -16.9493 -16.9457 -16.9432 -16.9376 -16.9366 -16.9354 -16.9349 -16.9325
   -16.9266 -16.9250 -16.9221 -16.9189 -16.9129 -16.9086 -16.9040 -16.9028
   -16.8994 -16.8953 -16.8941 -16.8901 -16.8884 -16.8877 -16.8813 -16.8805
   -16.8748 -16.8745 -16.8739 -16.8725 -16.8715 -16.8676 -16.8660 -16.8626
   -16.8607 -16.8601 -16.8596 -16.8558 -16.8550 -16.8503 -16.8470 -16.8445
   -16.8441 -16.8421 -16.8403 -16.8391 -16.8371 -16.8348 -16.8326 -16.8318
   -16.8293 -16.8279 -16.8271 -16.8263 -16.8230 -16.8225 -16.8221 -16.8205
   -16.8182 -16.8174 -16.8158 -16.8147 -16.8139 -16.8128 -16.8122 -16.8118
   -16.8109 -16.8084 -16.8050 -16.8043 -16.8018 -16.8015 -16.8000 -16.7993
   -16.7974 -16.7957 -16.7950 -16.7940 -16.7936 -16.7924 -16.7913 -16.7901
   -16.7890 -16.7878 -16.7853 -16.7851 -16.7838 -16.7827 -16.7810 -16.7804
   -16.7784 -16.7775 -16.7770 -16.7741 -16.7721 -16.7704 -16.7693 -16.7685
   -16.7679 -16.7661 -16.7653 -16.7643 -16.7635 -16.7611 -16.7586 -16.7585
   -16.7577 -16.7550 -16.7543 -16.7538 -16.7532 -16.7515 -16.7492 -16.7473
   -16.7464 -16.7457 -16.7445 -16.7411 -16.7386 -16.7355 -16.7316 -16.7311
   -16.7295 -16.7230 -16.7218 -16.7184 -16.7144 -16.7124 -16.7095 -16.7082
   -16.7069 -16.7018 -16.7011 -16.6970 -16.6959 -16.6949 -16.6930 -16.6892
   -16.6855 -16.6840 -16.6802 -16.6787 -16.6782 -16.6757 -16.6730 -16.6677
   -16.6630  -4.8535  -4.7041  -4.4684  -4.2768  -3.8039  -3.5857  -3.5321
    -3.3702  -3.2058  -3.0554  -3.0310  -2.9785  -2.8768  -2.8359  -2.7557
    -2.7045  -2.5972  -2.5513  -2.4612  -2.3810  -2.2622  -2.1443  -2.0490
    -2.0089  -1.8036  -1.7201  -1.5641  -1.5447  -1.4463  -1.1972  -0.9137
    -0.7721  -0.7426  -0.6671  -0.2584  -0.0965  -0.0505   0.0429   0.1160
     0.2465   0.2899   0.3171   0.3701   0.4383   0.4944   0.5521   0.6962
     0.7648   0.8219   0.8807   0.9542   1.0472   1.2171   1.2500   1.3168
     1.4381   1.8344   1.9244   2.1241   2.5299   3.2136   3.4230   3.4411
     3.4590   3.8937   3.9502   3.9767   4.0426   4.0438   4.0539   4.0633
     4.0677   4.0706   4.0813   4.1032   4.1079   4.1220   4.1271   4.4766
     4.5320   4.5399   4.7386   4.7412   4.7646   4.7754   4.7806   4.8029
     4.8585   4.8641   4.9170   4.9343   4.9400   4.9545   5.0407   5.0881
     5.1136   5.1304   5.1400   5.2774   5.3357   5.3451   5.5443   5.5632
     5.5796   5.5993   5.6023   5.7059   5.8218   5.8931   5.9020   5.9111
     5.9322   5.9400   5.9673   6.2051   6.2179   6.2285   6.2505   6.2561
     6.2682   6.4248   6.4388   6.7530   6.7871   6.7909   7.2853   7.3248
     7.3382   8.1220   8.3770   8.4360   8.4976   8.5037   8.7304   8.8524
     9.1066   9.2303   9.2656   9.2926   9.3513   9.3718   9.3961   9.4163
     9.4214   9.4511   9.4715   9.4802   9.5109   9.5253   9.5325   9.5509
     9.5660   9.5924   9.6112   9.6396   9.6709   9.6972   9.7242   9.7942
     9.9143   9.9331  10.0460  10.1768  10.2046  10.2883  10.3321  10.3708
    10.4248  10.4968  10.6098  10.6192  10.7289  10.7490  10.7969  10.8245
    10.8636  10.9095  10.9861  11.0062  11.0396  11.0505  11.1053  11.1212
    11.1421  11.2135  11.2381  11.2631  11.3009  11.3241  11.3441  11.3834

     occupation numbers 
     1.0000   1.0000   1.0000   1.0000   1.0000   1.0000   1.0000   1.0000
     1.0000   1.0000   1.0000   1.0000   1.0000   1.0000   1.0000   1.0000
     1.0000   1.0000   1.0000   1.0000   1.0000   1.0000   1.0000   1.0000
     1.0000   1.0000   1.0000   1.0000   1.0000   1.0000   1.0000   1.0000
     1.0000   1.0000   1.0000   1.0000   1.0000   1.0000   1.0000   1.0000
     1.0000   1.0000   1.0000   1.0000   1.0000   1.0000   1.0000   1.0000
     1.0000   1.0000   1.0000   1.0000   1.0000   1.0000   1.0000   1.0000
     1.0000   1.0000   1.0000   1.0000   1.0000   1.0000   1.0000   1.0000
     1.0000   1.0000   1.0000   1.0000   1.0000   1.0000   1.0000   1.0000
     1.0000   1.0000   1.0000   1.0000   1.0000   1.0000   1.0000   1.0000
     1.0000   1.0000   1.0000   1.0000   1.0000   1.0000   1.0000   1.0000
     1.0000   1.0000   1.0000   1.0000   1.0000   1.0000   1.0000   1.0000
     1.0000   1.0000   1.0000   1.0000   1.0000   1.0000   1.0000   1.0000
     1.0000   1.0000   1.0000   1.0000   1.0000   1.0000   1.0000   1.0000
     1.0000   1.0000   1.0000   1.0000   1.0000   1.0000   1.0000   1.0000
     1.0000   1.0000   1.0000   1.0000   1.0000   1.0000   1.0000   1.0000
     1.0000   1.0000   1.0000   1.0000   1.0000   1.0000   1.0000   1.0000
     1.0000   1.0000   1.0000   1.0000   1.0000   1.0000   1.0000   1.0000
     1.0000   1.0000   1.0000   1.0000   1.0000   1.0000   1.0000   1.0000
     1.0000   1.0000   1.0000   1.0000   1.0000   1.0000   1.0000   1.0000
     1.0000   1.0000   1.0000   1.0000   1.0000   1.0000   1.0000   1.0000
     1.0000   1.0000   1.0000   1.0000   1.0000   1.0000   1.0000   1.0000
     1.0000   1.0000   1.0000   1.0000   1.0000   1.0000   1.0000   1.0000
     1.0000   1.0000   1.0000   1.0000   1.0000   1.0000   1.0000   1.0000
     1.0000   1.0000   1.0000   1.0000   1.0000   1.0000   1.0000   1.0000
     1.0000   1.0000   1.0000   1.0000   1.0000   1.0000   1.0000   1.0000
     1.0000   1.0000   1.0000   1.0000   1.0000   1.0000   1.0000   1.0000
     1.0000   1.0000   1.0000   1.0000   1.0000   1.0000   1.0000   1.0000
     1.0000   1.0000   1.0000   1.0000   1.0000   1.0000   1.0000   1.0000
     1.0000   1.0000   1.0000   1.0000   1.0000   1.0000   1.0000   1.0000
     1.0000   1.0000   1.0000   1.0000   1.0000   1.0000   1.0000   1.0000
     1.0000   1.0000   1.0000   1.0000   1.0000   1.0000   1.0000   1.0000
     1.0000   1.0000   1.0000   1.0000   1.0000   1.0000   1.0000   1.0000
     1.0000   1.0000   1.0000   1.0000   1.0000   1.0000   1.0000   1.0000
     1.0000   1.0000   1.0000   1.0000   1.0000   1.0000   1.0000   1.0000
     1.0000   1.0000   1.0000   1.0000   1.0000   1.0000   1.0000   1.0000
     1.0000   1.0000   1.0000   1.0000   1.0000   1.0000   1.0000   1.0000
     1.0000   1.0000   1.0000   1.0000   1.0000   1.0000   1.0000   1.0000
     1.0000   1.0000   1.0000   1.0000   1.0000   1.0000   1.0000   0.9999
     0.9998   0.0325   0.0002   0.0000   0.0000   0.0000   0.0000   0.0000
     0.0000   0.0000   0.0000   0.0000   0.0000   0.0000   0.0000   0.0000
     0.0000   0.0000   0.0000   0.0000   0.0000   0.0000   0.0000   0.0000
     0.0000   0.0000   0.0000   0.0000   0.0000   0.0000   0.0000   0.0000
     0.0000   0.0000   0.0000   0.0000   0.0000   0.0000   0.0000   0.0000
     0.0000   0.0000   0.0000   0.0000   0.0000   0.0000   0.0000   0.0000
     0.0000   0.0000   0.0000   0.0000   0.0000   0.0000   0.0000   0.0000
     0.0000   0.0000   0.0000   0.0000   0.0000   0.0000   0.0000   0.0000

          k =-0.3536 0.3536-0.3536 ( 32056 PWs)   bands (ev):

   -17.1090 -17.1033 -17.0941 -17.0896 -17.0790 -17.0695 -17.0664 -17.0660
   -17.0627 -17.0606 -17.0596 -17.0523 -17.0484 -17.0463 -17.0430 -17.0424
   -17.0378 -17.0357 -17.0334 -17.0258 -17.0154 -17.0140 -17.0110 -17.0041
   -17.0015 -16.9972 -16.9837 -16.9816 -16.9797 -16.9752 -16.9719 -16.9716
   -16.9679 -16.9651 -16.9635 -16.9630 -16.9588 -16.9564 -16.9510 -16.9490
   -16.9458 -16.9416 -16.9390 -16.9332 -16.9308 -16.9305 -16.9276 -16.9247
   -16.9231 -16.9221 -16.9188 -16.9173 -16.9095 -16.9056 -16.9021 -16.9020
   -16.9007 -16.8961 -16.8910 -16.8890 -16.8874 -16.8869 -16.8820 -16.8801
   -16.8786 -16.8745 -16.8733 -16.8722 -16.8707 -16.8697 -16.8630 -16.8610
   -16.8601 -16.8597 -16.8583 -16.8550 -16.8533 -16.8514 -16.8493 -16.8476
   -16.8447 -16.8438 -16.8409 -16.8408 -16.8380 -16.8365 -16.8358 -16.8356
   -16.8345 -16.8314 -16.8301 -16.8297 -16.8277 -16.8256 -16.8247 -16.8237
   -16.8188 -16.8182 -16.8168 -16.8157 -16.8156 -16.8146 -16.8122 -16.8120
   -16.8115 -16.8105 -16.8054 -16.8032 -16.8030 -16.8029 -16.8005 -16.7996
   -16.7970 -16.7951 -16.7944 -16.7933 -16.7925 -16.7918 -16.7895 -16.7891
   -16.7885 -16.7864 -16.7861 -16.7849 -16.7837 -16.7835 -16.7812 -16.7800
   -16.7788 -16.7760 -16.7745 -16.7744 -16.7740 -16.7736 -16.7725 -16.7713
   -16.7697 -16.7692 -16.7679 -16.7666 -16.7659 -16.7642 -16.7623 -16.7605
   -16.7600 -16.7567 -16.7556 -16.7550 -16.7541 -16.7530 -16.7520 -16.7476
   -16.7472 -16.7453 -16.7447 -16.7402 -16.7387 -16.7372 -16.7358 -16.7295
   -16.7291 -16.7240 -16.7225 -16.7179 -16.7117 -16.7086 -16.7080 -16.7073
   -16.7057 -16.7021 -16.7005 -16.6958 -16.6950 -16.6948 -16.6901 -16.6852
   -16.6844 -16.6817 -16.6758 -16.6748 -16.6743 -16.6739 -16.6691 -16.6651
   -16.6610  -4.3782  -4.3222  -4.2583  -4.1772  -4.0056  -3.8773  -3.7965
    -3.7446  -3.3222  -3.2508  -3.1386  -3.1084  -3.0140  -2.9416  -2.9104
    -2.8106  -2.6474  -2.5899  -2.5288  -2.4451  -2.3147  -2.2176  -2.1157
    -2.0758  -2.0235  -1.8854  -1.6576  -1.4801  -1.4715  -1.3731  -0.8694
    -0.6953  -0.6817  -0.5829  -0.1132  -0.0145   0.0101   0.1774   0.3676
     0.4216   0.4452   0.5669   0.6489   0.6603   0.7336   0.8576   1.1056
     1.2175   1.2488   1.2538   1.4714   1.5731   1.6740   1.7444   2.0822
     2.0955   2.5164   2.5696   3.2592   3.2784   3.4021   3.4316   3.4329
     3.4399   3.4492   3.4607   3.4711   3.5614   3.6529   3.6600   3.6642
     3.6686   3.7146   3.7228   3.7298   3.7394   3.8803   3.8921   3.9068
     3.9162   3.9312   3.9357   3.9616   4.0020   4.0950   4.1088   4.1308
     4.1350   4.5243   4.5294   4.5404   4.5450   4.7992   4.8147   5.1282
     5.1370   5.2436   5.2544   5.2638   5.2672   5.2797   5.2833   5.2922
     5.3028   5.5589   5.5636   5.5705   5.5867   5.5905   5.6002   5.6215
     5.6330   5.6399   5.6453   6.1632   6.1809   6.1850   6.2024   6.2117
     6.2251   6.2258   6.2422   6.7504   6.7685   6.7836   6.7957   6.8113
     6.8222   8.5674   8.6300   8.8040   8.8176   8.8970   8.9286   8.9582
     8.9815   9.0065   9.0685   9.1061   9.1217   9.2960   9.3345   9.6250
     9.6337   9.6846   9.7360   9.7520   9.7983   9.8756   9.8927   9.9296
     9.9443   9.9686  10.0051  10.2769  10.3201  10.3389  10.3597  10.4177
    10.4545  10.5816  10.6030  10.7259  10.7401  11.0231  11.0572  11.0885
    11.1239  11.1733  11.1967  11.2108  11.2170  11.3238  11.3841  11.4908
    11.5565  11.8182  11.8297  11.8680  11.8923  11.9543  11.9848  11.9887
    11.9998  12.0293  12.0433  12.0916  12.0931  12.1115  12.1236  12.1697

     occupation numbers 
     1.0000   1.0000   1.0000   1.0000   1.0000   1.0000   1.0000   1.0000
     1.0000   1.0000   1.0000   1.0000   1.0000   1.0000   1.0000   1.0000
     1.0000   1.0000   1.0000   1.0000   1.0000   1.0000   1.0000   1.0000
     1.0000   1.0000   1.0000   1.0000   1.0000   1.0000   1.0000   1.0000
     1.0000   1.0000   1.0000   1.0000   1.0000   1.0000   1.0000   1.0000
     1.0000   1.0000   1.0000   1.0000   1.0000   1.0000   1.0000   1.0000
     1.0000   1.0000   1.0000   1.0000   1.0000   1.0000   1.0000   1.0000
     1.0000   1.0000   1.0000   1.0000   1.0000   1.0000   1.0000   1.0000
     1.0000   1.0000   1.0000   1.0000   1.0000   1.0000   1.0000   1.0000
     1.0000   1.0000   1.0000   1.0000   1.0000   1.0000   1.0000   1.0000
     1.0000   1.0000   1.0000   1.0000   1.0000   1.0000   1.0000   1.0000
     1.0000   1.0000   1.0000   1.0000   1.0000   1.0000   1.0000   1.0000
     1.0000   1.0000   1.0000   1.0000   1.0000   1.0000   1.0000   1.0000
     1.0000   1.0000   1.0000   1.0000   1.0000   1.0000   1.0000   1.0000
     1.0000   1.0000   1.0000   1.0000   1.0000   1.0000   1.0000   1.0000
     1.0000   1.0000   1.0000   1.0000   1.0000   1.0000   1.0000   1.0000
     1.0000   1.0000   1.0000   1.0000   1.0000   1.0000   1.0000   1.0000
     1.0000   1.0000   1.0000   1.0000   1.0000   1.0000   1.0000   1.0000
     1.0000   1.0000   1.0000   1.0000   1.0000   1.0000   1.0000   1.0000
     1.0000   1.0000   1.0000   1.0000   1.0000   1.0000   1.0000   1.0000
     1.0000   1.0000   1.0000   1.0000   1.0000   1.0000   1.0000   1.0000
     1.0000   1.0000   1.0000   1.0000   1.0000   1.0000   1.0000   1.0000
     1.0000   1.0000   1.0000   1.0000   1.0000   1.0000   1.0000   1.0000
     1.0000   1.0000   1.0000   1.0000   1.0000   1.0000   1.0000   1.0000
     1.0000   1.0000   1.0000   1.0000   1.0000   1.0000   1.0000   1.0000
     1.0000   1.0000   1.0000   1.0000   1.0000   1.0000   1.0000   1.0000
     1.0000   1.0000   1.0000   1.0000   1.0000   1.0000   1.0000   1.0000
     1.0000   1.0000   1.0000   1.0000   1.0000   1.0000   1.0000   1.0000
     1.0000   1.0000   1.0000   1.0000   1.0000   1.0000   1.0000   1.0000
     1.0000   1.0000   1.0000   1.0000   1.0000   1.0000   1.0000   1.0000
     1.0000   1.0000   1.0000   1.0000   1.0000   1.0000   1.0000   1.0000
     1.0000   1.0000   1.0000   1.0000   1.0000   1.0000   1.0000   1.0000
     1.0000   1.0000   1.0000   1.0000   1.0000   1.0000   1.0000   1.0000
     1.0000   1.0000   1.0000   1.0000   1.0000   1.0000   1.0000   1.0000
     1.0000   1.0000   1.0000   1.0000   1.0000   1.0000   1.0000   1.0000
     1.0000   1.0000   1.0000   1.0000   1.0000   1.0000   1.0000   1.0000
     1.0000   1.0000   1.0000   1.0000   1.0000   1.0000   1.0000   1.0000
     1.0000   1.0000   1.0000   1.0000   1.0000   1.0000   1.0000   1.0000
     1.0000   1.0000   1.0000   1.0000   1.0000   1.0000   1.0000   1.0000
     1.0000   0.0000   0.0000   0.0000   0.0000   0.0000   0.0000   0.0000
     0.0000   0.0000   0.0000   0.0000   0.0000   0.0000   0.0000   0.0000
     0.0000   0.0000   0.0000   0.0000   0.0000   0.0000   0.0000   0.0000
     0.0000   0.0000   0.0000   0.0000   0.0000   0.0000   0.0000   0.0000
     0.0000   0.0000   0.0000   0.0000   0.0000   0.0000   0.0000   0.0000
     0.0000   0.0000   0.0000   0.0000   0.0000   0.0000   0.0000   0.0000
     0.0000   0.0000   0.0000   0.0000   0.0000   0.0000   0.0000   0.0000
     0.0000   0.0000   0.0000   0.0000   0.0000   0.0000   0.0000   0.0000

          k =-0.5303 0.5303-0.1768 ( 32066 PWs)   bands (ev):

   -17.1076 -17.0993 -17.0929 -17.0887 -17.0777 -17.0694 -17.0664 -17.0645
   -17.0627 -17.0607 -17.0606 -17.0519 -17.0494 -17.0463 -17.0432 -17.0429
   -17.0379 -17.0357 -17.0348 -17.0242 -17.0159 -17.0135 -17.0110 -17.0055
   -16.9999 -16.9970 -16.9874 -16.9837 -16.9808 -16.9788 -16.9749 -16.9703
   -16.9674 -16.9643 -16.9634 -16.9624 -16.9588 -16.9570 -16.9534 -16.9495
   -16.9469 -16.9455 -16.9411 -16.9332 -16.9319 -16.9307 -16.9283 -16.9256
   -16.9251 -16.9222 -16.9205 -16.9187 -16.9103 -16.9056 -16.9048 -16.9019
   -16.9007 -16.8995 -16.8909 -16.8893 -16.8877 -16.8872 -16.8807 -16.8799
   -16.8747 -16.8731 -16.8721 -16.8705 -16.8700 -16.8666 -16.8630 -16.8602
   -16.8600 -16.8589 -16.8578 -16.8547 -16.8533 -16.8525 -16.8486 -16.8468
   -16.8449 -16.8432 -16.8414 -16.8410 -16.8395 -16.8365 -16.8359 -16.8358
   -16.8334 -16.8304 -16.8299 -16.8290 -16.8269 -16.8249 -16.8245 -16.8216
   -16.8184 -16.8183 -16.8168 -16.8156 -16.8155 -16.8148 -16.8124 -16.8120
   -16.8117 -16.8085 -16.8064 -16.8033 -16.8025 -16.8019 -16.7997 -16.7992
   -16.7972 -16.7950 -16.7944 -16.7940 -16.7922 -16.7916 -16.7891 -16.7891
   -16.7882 -16.7869 -16.7856 -16.7851 -16.7837 -16.7817 -16.7810 -16.7796
   -16.7778 -16.7750 -16.7744 -16.7742 -16.7733 -16.7731 -16.7724 -16.7702
   -16.7693 -16.7676 -16.7663 -16.7656 -16.7647 -16.7634 -16.7621 -16.7608
   -16.7596 -16.7572 -16.7558 -16.7546 -16.7539 -16.7531 -16.7512 -16.7475
   -16.7472 -16.7455 -16.7449 -16.7421 -16.7398 -16.7368 -16.7356 -16.7312
   -16.7295 -16.7232 -16.7224 -16.7186 -16.7128 -16.7101 -16.7080 -16.7075
   -16.7060 -16.7026 -16.7007 -16.6959 -16.6953 -16.6947 -16.6931 -16.6857
   -16.6845 -16.6826 -16.6780 -16.6757 -16.6747 -16.6742 -16.6691 -16.6654
   -16.6611  -4.5339  -4.3167  -4.2492  -3.9262  -3.8529  -3.8091  -3.7098
    -3.6762  -3.6096  -3.4875  -3.3526  -3.2580  -3.0774  -2.9867  -2.8873
    -2.7882  -2.6712  -2.5296  -2.3531  -2.2717  -2.1659  -2.1145  -2.0136
    -1.9600  -1.8392  -1.7581  -1.7195  -1.5797  -1.5259  -1.4374  -1.4101
    -1.2545  -0.2381  -0.0554  -0.0215  -0.0050   0.0858   0.1883   0.2764
     0.3454   0.3764   0.4105   0.4891   0.5071   0.5625   0.8728   1.1306
     1.1667   1.2231   1.3219   1.3517   1.7848   1.9246   2.0244   2.1329
     2.4957   2.5126   2.7266   2.7839   2.7986   2.8790   3.2055   3.2630
     3.2680   3.2744   3.2784   3.4190   3.4267   3.4340   3.4412   3.4575
     3.4798   3.8574   3.9225   3.9651   3.9949   4.0965   4.1075   4.1102
     4.1167   4.1216   4.1350   4.4769   4.5274   4.5335   4.5400   4.5469
     4.7298   4.7427   4.7617   4.7660   4.7716   4.7891   4.8049   4.8181
     4.9057   4.9126   4.9191   4.9228   5.0448   5.1291   5.1476   5.2763
     5.2861   5.3405   5.3490   5.5366   5.5638   5.5686   5.5715   5.5803
     5.5985   5.6012   5.6118   5.9015   5.9100   5.9490   6.0567   6.0700
     6.0872   6.0967   6.2088   6.2193   6.2298   6.2467   6.7651   6.7783
     7.3072   8.7250   8.8534   8.8779   9.2674   9.2880   9.4315   9.4698
     9.5428   9.6000   9.6061   9.6564   9.7228   9.7707   9.8769   9.8926
     9.9300   9.9414   9.9516   9.9815   9.9922  10.0206  10.0498  10.1524
    10.2099  10.2294  10.2462  10.2888  10.3152  10.3457  10.3625  10.3801
    10.4084  10.4390  10.4595  10.4914  10.5202  10.7087  10.7519  10.7697
    10.8280  10.8531  10.9086  10.9356  10.9618  10.9894  11.0067  11.0188
    11.0582  11.0896  11.1281  11.1405  11.2010  11.3452  11.3737  11.5192
    11.5723  11.7027  11.8271  11.8892  11.9241  11.9442  11.9721  11.9921

     occupation numbers 
     1.0000   1.0000   1.0000   1.0000   1.0000   1.0000   1.0000   1.0000
     1.0000   1.0000   1.0000   1.0000   1.0000   1.0000   1.0000   1.0000
     1.0000   1.0000   1.0000   1.0000   1.0000   1.0000   1.0000   1.0000
     1.0000   1.0000   1.0000   1.0000   1.0000   1.0000   1.0000   1.0000
     1.0000   1.0000   1.0000   1.0000   1.0000   1.0000   1.0000   1.0000
     1.0000   1.0000   1.0000   1.0000   1.0000   1.0000   1.0000   1.0000
     1.0000   1.0000   1.0000   1.0000   1.0000   1.0000   1.0000   1.0000
     1.0000   1.0000   1.0000   1.0000   1.0000   1.0000   1.0000   1.0000
     1.0000   1.0000   1.0000   1.0000   1.0000   1.0000   1.0000   1.0000
     1.0000   1.0000   1.0000   1.0000   1.0000   1.0000   1.0000   1.0000
     1.0000   1.0000   1.0000   1.0000   1.0000   1.0000   1.0000   1.0000
     1.0000   1.0000   1.0000   1.0000   1.0000   1.0000   1.0000   1.0000
     1.0000   1.0000   1.0000   1.0000   1.0000   1.0000   1.0000   1.0000
     1.0000   1.0000   1.0000   1.0000   1.0000   1.0000   1.0000   1.0000
     1.0000   1.0000   1.0000   1.0000   1.0000   1.0000   1.0000   1.0000
     1.0000   1.0000   1.0000   1.0000   1.0000   1.0000   1.0000   1.0000
     1.0000   1.0000   1.0000   1.0000   1.0000   1.0000   1.0000   1.0000
     1.0000   1.0000   1.0000   1.0000   1.0000   1.0000   1.0000   1.0000
     1.0000   1.0000   1.0000   1.0000   1.0000   1.0000   1.0000   1.0000
     1.0000   1.0000   1.0000   1.0000   1.0000   1.0000   1.0000   1.0000
     1.0000   1.0000   1.0000   1.0000   1.0000   1.0000   1.0000   1.0000
     1.0000   1.0000   1.0000   1.0000   1.0000   1.0000   1.0000   1.0000
     1.0000   1.0000   1.0000   1.0000   1.0000   1.0000   1.0000   1.0000
     1.0000   1.0000   1.0000   1.0000   1.0000   1.0000   1.0000   1.0000
     1.0000   1.0000   1.0000   1.0000   1.0000   1.0000   1.0000   1.0000
     1.0000   1.0000   1.0000   1.0000   1.0000   1.0000   1.0000   1.0000
     1.0000   1.0000   1.0000   1.0000   1.0000   1.0000   1.0000   1.0000
     1.0000   1.0000   1.0000   1.0000   1.0000   1.0000   1.0000   1.0000
     1.0000   1.0000   1.0000   1.0000   1.0000   1.0000   1.0000   1.0000
     1.0000   1.0000   1.0000   1.0000   1.0000   1.0000   1.0000   1.0000
     1.0000   1.0000   1.0000   1.0000   1.0000   1.0000   1.0000   1.0000
     1.0000   1.0000   1.0000   1.0000   1.0000   1.0000   1.0000   1.0000
     1.0000   1.0000   1.0000   1.0000   1.0000   1.0000   1.0000   1.0000
     1.0000   1.0000   1.0000   1.0000   1.0000   1.0000   1.0000   1.0000
     1.0000   1.0000   1.0000   1.0000   1.0000   1.0000   1.0000   1.0000
     1.0000   1.0000   1.0000   1.0000   1.0000   1.0000   1.0000   1.0000
     1.0000   1.0000   1.0000   1.0000   1.0000   1.0000   1.0000   1.0000
     1.0000   1.0000   1.0000   1.0000   1.0000   1.0000   1.0000   1.0000
     1.0000   1.0000   1.0000   1.0000   1.0000   1.0000   1.0000   1.0000
     0.9999   0.0000   0.0000   0.0000   0.0000   0.0000   0.0000   0.0000
     0.0000   0.0000   0.0000   0.0000   0.0000   0.0000   0.0000   0.0000
     0.0000   0.0000   0.0000   0.0000   0.0000   0.0000   0.0000   0.0000
     0.0000   0.0000   0.0000   0.0000   0.0000   0.0000   0.0000   0.0000
     0.0000   0.0000   0.0000   0.0000   0.0000   0.0000   0.0000   0.0000
     0.0000   0.0000   0.0000   0.0000   0.0000   0.0000   0.0000   0.0000
     0.0000   0.0000   0.0000   0.0000   0.0000   0.0000   0.0000   0.0000
     0.0000   0.0000   0.0000   0.0000   0.0000   0.0000   0.0000   0.0000

          k = 0.1768-0.1768-0.1768 ( 32087 PWs)   bands (ev):

   -17.1073 -17.0985 -17.0924 -17.0851 -17.0763 -17.0677 -17.0626 -17.0613
   -17.0585 -17.0570 -17.0486 -17.0467 -17.0459 -17.0442 -17.0432 -17.0428
   -17.0415 -17.0379 -17.0323 -17.0265 -17.0137 -17.0117 -17.0087 -17.0030
   -16.9952 -16.9900 -16.9887 -16.9865 -16.9844 -16.9819 -16.9777 -16.9765
   -16.9755 -16.9730 -16.9665 -16.9641 -16.9621 -16.9590 -16.9554 -16.9553
   -16.9515 -16.9489 -16.9471 -16.9429 -16.9397 -16.9382 -16.9368 -16.9343
   -16.9278 -16.9252 -16.9225 -16.9186 -16.9162 -16.9139 -16.9038 -16.9016
   -16.8996 -16.8962 -16.8946 -16.8905 -16.8885 -16.8878 -16.8806 -16.8803
   -16.8759 -16.8751 -16.8745 -16.8732 -16.8717 -16.8712 -16.8651 -16.8620
   -16.8608 -16.8601 -16.8597 -16.8563 -16.8551 -16.8498 -16.8476 -16.8446
   -16.8441 -16.8421 -16.8404 -16.8386 -16.8364 -16.8340 -16.8316 -16.8305
   -16.8284 -16.8280 -16.8270 -16.8246 -16.8217 -16.8196 -16.8191 -16.8183
   -16.8177 -16.8174 -16.8155 -16.8150 -16.8125 -16.8123 -16.8109 -16.8095
   -16.8070 -16.8064 -16.8051 -16.8031 -16.8018 -16.8015 -16.8011 -16.7995
   -16.7990 -16.7986 -16.7968 -16.7948 -16.7940 -16.7916 -16.7904 -16.7895
   -16.7888 -16.7867 -16.7851 -16.7833 -16.7828 -16.7813 -16.7809 -16.7793
   -16.7786 -16.7775 -16.7760 -16.7750 -16.7712 -16.7696 -16.7679 -16.7675
   -16.7667 -16.7662 -16.7651 -16.7644 -16.7633 -16.7602 -16.7589 -16.7562
   -16.7549 -16.7541 -16.7533 -16.7514 -16.7506 -16.7484 -16.7465 -16.7446
   -16.7445 -16.7440 -16.7407 -16.7405 -16.7387 -16.7338 -16.7307 -16.7297
   -16.7241 -16.7219 -16.7194 -16.7162 -16.7153 -16.7136 -16.7102 -16.7083
   -16.7070 -16.7031 -16.7016 -16.7000 -16.6997 -16.6948 -16.6927 -16.6926
   -16.6889 -16.6859 -16.6837 -16.6815 -16.6803 -16.6778 -16.6776 -16.6732
   -16.6640  -4.8562  -4.7061  -4.4756  -4.2743  -3.8387  -3.6203  -3.4807
    -3.3136  -3.2561  -3.0834  -2.9618  -2.9023  -2.8681  -2.8272  -2.7368
    -2.6766  -2.6243  -2.4834  -2.4616  -2.4292  -2.3586  -2.1694  -2.0973
    -1.9612  -1.7998  -1.7329  -1.6768  -1.5236  -1.4262  -1.2193  -0.9397
    -0.9009  -0.6766  -0.5938  -0.2938  -0.0507   0.0039   0.1004   0.1288
     0.1839   0.3060   0.3725   0.3835   0.4443   0.4875   0.5190   0.6727
     0.7753   0.8223   0.8831   1.0177   1.0824   1.2290   1.2633   1.2993
     1.3361   1.8312   1.9288   2.0916   2.5399   3.2111   3.4299   3.4345
     3.4605   3.8968   3.9494   3.9647   4.0351   4.0421   4.0470   4.0613
     4.0680   4.0754   4.0825   4.1036   4.1117   4.1205   4.1254   4.4738
     4.5307   4.5420   4.7331   4.7413   4.7706   4.7761   4.7803   4.8034
     4.8604   4.8612   4.9138   4.9281   4.9437   4.9587   5.0424   5.0953
     5.1064   5.1178   5.1373   5.2784   5.3372   5.3523   5.5329   5.5638
     5.5849   5.5902   5.6033   5.7015   5.8235   5.8930   5.9016   5.9292
     5.9345   5.9452   5.9555   6.2044   6.2132   6.2259   6.2397   6.2549
     6.2831   6.4245   6.4424   6.7576   6.7853   6.7986   7.2935   7.3253
     7.3462   8.1230   8.4127   8.4323   8.4493   8.4887   8.7235   8.8520
     9.1084   9.2474   9.2806   9.3249   9.3488   9.3805   9.4082   9.4171
     9.4345   9.4523   9.4678   9.4906   9.5053   9.5324   9.5416   9.5510
     9.5628   9.5805   9.6056   9.6194   9.6427   9.6673   9.6995   9.8062
     9.9441   9.9596  10.0172  10.1989  10.2200  10.2837  10.3300  10.3582
    10.3718  10.4724  10.6091  10.6368  10.7325  10.7500  10.7989  10.8436
    10.8661  10.9098  11.0000  11.0430  11.0500  11.0850  11.1056  11.1155
    11.1624  11.1997  11.2422  11.2818  11.2995  11.3086  11.3561  11.3816

     occupation numbers 
     1.0000   1.0000   1.0000   1.0000   1.0000   1.0000   1.0000   1.0000
     1.0000   1.0000   1.0000   1.0000   1.0000   1.0000   1.0000   1.0000
     1.0000   1.0000   1.0000   1.0000   1.0000   1.0000   1.0000   1.0000
     1.0000   1.0000   1.0000   1.0000   1.0000   1.0000   1.0000   1.0000
     1.0000   1.0000   1.0000   1.0000   1.0000   1.0000   1.0000   1.0000
     1.0000   1.0000   1.0000   1.0000   1.0000   1.0000   1.0000   1.0000
     1.0000   1.0000   1.0000   1.0000   1.0000   1.0000   1.0000   1.0000
     1.0000   1.0000   1.0000   1.0000   1.0000   1.0000   1.0000   1.0000
     1.0000   1.0000   1.0000   1.0000   1.0000   1.0000   1.0000   1.0000
     1.0000   1.0000   1.0000   1.0000   1.0000   1.0000   1.0000   1.0000
     1.0000   1.0000   1.0000   1.0000   1.0000   1.0000   1.0000   1.0000
     1.0000   1.0000   1.0000   1.0000   1.0000   1.0000   1.0000   1.0000
     1.0000   1.0000   1.0000   1.0000   1.0000   1.0000   1.0000   1.0000
     1.0000   1.0000   1.0000   1.0000   1.0000   1.0000   1.0000   1.0000
     1.0000   1.0000   1.0000   1.0000   1.0000   1.0000   1.0000   1.0000
     1.0000   1.0000   1.0000   1.0000   1.0000   1.0000   1.0000   1.0000
     1.0000   1.0000   1.0000   1.0000   1.0000   1.0000   1.0000   1.0000
     1.0000   1.0000   1.0000   1.0000   1.0000   1.0000   1.0000   1.0000
     1.0000   1.0000   1.0000   1.0000   1.0000   1.0000   1.0000   1.0000
     1.0000   1.0000   1.0000   1.0000   1.0000   1.0000   1.0000   1.0000
     1.0000   1.0000   1.0000   1.0000   1.0000   1.0000   1.0000   1.0000
     1.0000   1.0000   1.0000   1.0000   1.0000   1.0000   1.0000   1.0000
     1.0000   1.0000   1.0000   1.0000   1.0000   1.0000   1.0000   1.0000
     1.0000   1.0000   1.0000   1.0000   1.0000   1.0000   1.0000   1.0000
     1.0000   1.0000   1.0000   1.0000   1.0000   1.0000   1.0000   1.0000
     1.0000   1.0000   1.0000   1.0000   1.0000   1.0000   1.0000   1.0000
     1.0000   1.0000   1.0000   1.0000   1.0000   1.0000   1.0000   1.0000
     1.0000   1.0000   1.0000   1.0000   1.0000   1.0000   1.0000   1.0000
     1.0000   1.0000   1.0000   1.0000   1.0000   1.0000   1.0000   1.0000
     1.0000   1.0000   1.0000   1.0000   1.0000   1.0000   1.0000   1.0000
     1.0000   1.0000   1.0000   1.0000   1.0000   1.0000   1.0000   1.0000
     1.0000   1.0000   1.0000   1.0000   1.0000   1.0000   1.0000   1.0000
     1.0000   1.0000   1.0000   1.0000   1.0000   1.0000   1.0000   1.0000
     1.0000   1.0000   1.0000   1.0000   1.0000   1.0000   1.0000   1.0000
     1.0000   1.0000   1.0000   1.0000   1.0000   1.0000   1.0000   1.0000
     1.0000   1.0000   1.0000   1.0000   1.0000   1.0000   1.0000   1.0000
     1.0000   1.0000   1.0000   1.0000   1.0000   1.0000   1.0000   1.0000
     1.0000   1.0000   1.0000   1.0000   1.0000   1.0000   1.0000   1.0000
     1.0000   1.0000   1.0000   1.0000   1.0000   1.0000   1.0000   0.9999
     0.9998   0.0320   0.0001   0.0000   0.0000   0.0000   0.0000   0.0000
     0.0000   0.0000   0.0000   0.0000   0.0000   0.0000   0.0000   0.0000
     0.0000   0.0000   0.0000   0.0000   0.0000   0.0000   0.0000   0.0000
     0.0000   0.0000   0.0000   0.0000   0.0000   0.0000   0.0000   0.0000
     0.0000   0.0000   0.0000   0.0000   0.0000   0.0000   0.0000   0.0000
     0.0000   0.0000   0.0000   0.0000   0.0000   0.0000   0.0000   0.0000
     0.0000   0.0000   0.0000   0.0000   0.0000   0.0000   0.0000   0.0000
     0.0000   0.0000   0.0000   0.0000   0.0000   0.0000   0.0000   0.0000

          k = 0.1768 0.1768 0.1768 ( 32087 PWs)   bands (ev):

   -17.1060 -17.0956 -17.0894 -17.0845 -17.0770 -17.0677 -17.0644 -17.0627
   -17.0610 -17.0591 -17.0555 -17.0506 -17.0492 -17.0451 -17.0432 -17.0428
   -17.0375 -17.0359 -17.0347 -17.0232 -17.0134 -17.0121 -17.0119 -17.0076
   -16.9988 -16.9936 -16.9912 -16.9850 -16.9841 -16.9815 -16.9792 -16.9744
   -16.9710 -16.9685 -16.9655 -16.9636 -16.9615 -16.9561 -16.9553 -16.9539
   -16.9514 -16.9479 -16.9443 -16.9390 -16.9369 -16.9367 -16.9353 -16.9323
   -16.9273 -16.9253 -16.9239 -16.9189 -16.9132 -16.9087 -16.9046 -16.9040
   -16.9005 -16.8952 -16.8940 -16.8897 -16.8881 -16.8877 -16.8805 -16.8793
   -16.8749 -16.8741 -16.8735 -16.8720 -16.8715 -16.8676 -16.8640 -16.8626
   -16.8604 -16.8600 -16.8579 -16.8559 -16.8533 -16.8495 -16.8475 -16.8448
   -16.8444 -16.8427 -16.8400 -16.8392 -16.8372 -16.8347 -16.8325 -16.8306
   -16.8284 -16.8278 -16.8269 -16.8265 -16.8231 -16.8223 -16.8217 -16.8194
   -16.8180 -16.8167 -16.8152 -16.8144 -16.8136 -16.8127 -16.8122 -16.8117
   -16.8094 -16.8085 -16.8054 -16.8049 -16.8015 -16.8011 -16.7993 -16.7989
   -16.7976 -16.7956 -16.7943 -16.7936 -16.7928 -16.7920 -16.7911 -16.7899
   -16.7888 -16.7866 -16.7852 -16.7841 -16.7829 -16.7827 -16.7811 -16.7799
   -16.7782 -16.7769 -16.7752 -16.7740 -16.7724 -16.7699 -16.7687 -16.7677
   -16.7672 -16.7660 -16.7643 -16.7636 -16.7602 -16.7589 -16.7580 -16.7579
   -16.7564 -16.7552 -16.7541 -16.7534 -16.7528 -16.7515 -16.7509 -16.7480
   -16.7460 -16.7457 -16.7445 -16.7435 -16.7381 -16.7358 -16.7328 -16.7315
   -16.7294 -16.7241 -16.7220 -16.7188 -16.7160 -16.7112 -16.7097 -16.7083
   -16.7067 -16.7030 -16.7021 -16.6987 -16.6955 -16.6953 -16.6937 -16.6896
   -16.6882 -16.6843 -16.6823 -16.6790 -16.6787 -16.6757 -16.6729 -16.6678
   -16.6632  -4.8585  -4.7028  -4.4692  -4.2737  -3.8229  -3.5529  -3.4946
    -3.3536  -3.2747  -3.1213  -3.0291  -2.9078  -2.8821  -2.8586  -2.7400
    -2.6534  -2.6023  -2.5301  -2.4667  -2.3612  -2.2749  -2.1762  -2.1063
    -1.9886  -1.8180  -1.7235  -1.5733  -1.5468  -1.4502  -1.2074  -0.8237
    -0.7822  -0.7549  -0.7225  -0.2890  -0.0943  -0.0114   0.0119   0.1655
     0.2571   0.2880   0.3217   0.3716   0.4500   0.5066   0.5494   0.6955
     0.7566   0.8352   0.8795   1.0247   1.0734   1.1888   1.2395   1.3034
     1.3984   1.8673   1.8945   2.1089   2.5281   3.2077   3.4284   3.4312
     3.4618   3.9040   3.9440   3.9566   4.0313   4.0374   4.0469   4.0685
     4.0693   4.0727   4.0746   4.1076   4.1096   4.1152   4.1306   4.4635
     4.5348   4.5396   4.7240   4.7432   4.7712   4.7777   4.7874   4.8021
     4.8569   4.8652   4.9159   4.9324   4.9393   4.9553   5.0481   5.0797
     5.0952   5.1163   5.1337   5.2830   5.3436   5.3510   5.5321   5.5614
     5.5694   5.5853   5.6084   5.6893   5.8263   5.8982   5.9153   5.9264
     5.9376   5.9508   5.9710   6.1929   6.2199   6.2308   6.2513   6.2573
     6.2632   6.4329   6.4390   6.7683   6.7768   6.8026   7.3025   7.3332
     7.3484   8.1248   8.3790   8.4487   8.4910   8.5106   8.7318   8.8637
     9.1017   9.2358   9.2495   9.2902   9.3530   9.3811   9.3926   9.4199
     9.4389   9.4577   9.4721   9.5000   9.5159   9.5237   9.5353   9.5513
     9.5653   9.5898   9.6109   9.6440   9.6496   9.6741   9.7329   9.7928
     9.9085   9.9591  10.0264  10.1803  10.2139  10.3099  10.3215  10.3579
    10.3843  10.4900  10.6090  10.6324  10.7302  10.7380  10.7918  10.8248
    10.8734  10.9262  10.9804  11.0343  11.0521  11.0757  11.1022  11.1175
    11.1604  11.2098  11.2437  11.2729  11.2833  11.3089  11.3452  11.3575

     occupation numbers 
     1.0000   1.0000   1.0000   1.0000   1.0000   1.0000   1.0000   1.0000
     1.0000   1.0000   1.0000   1.0000   1.0000   1.0000   1.0000   1.0000
     1.0000   1.0000   1.0000   1.0000   1.0000   1.0000   1.0000   1.0000
     1.0000   1.0000   1.0000   1.0000   1.0000   1.0000   1.0000   1.0000
     1.0000   1.0000   1.0000   1.0000   1.0000   1.0000   1.0000   1.0000
     1.0000   1.0000   1.0000   1.0000   1.0000   1.0000   1.0000   1.0000
     1.0000   1.0000   1.0000   1.0000   1.0000   1.0000   1.0000   1.0000
     1.0000   1.0000   1.0000   1.0000   1.0000   1.0000   1.0000   1.0000
     1.0000   1.0000   1.0000   1.0000   1.0000   1.0000   1.0000   1.0000
     1.0000   1.0000   1.0000   1.0000   1.0000   1.0000   1.0000   1.0000
     1.0000   1.0000   1.0000   1.0000   1.0000   1.0000   1.0000   1.0000
     1.0000   1.0000   1.0000   1.0000   1.0000   1.0000   1.0000   1.0000
     1.0000   1.0000   1.0000   1.0000   1.0000   1.0000   1.0000   1.0000
     1.0000   1.0000   1.0000   1.0000   1.0000   1.0000   1.0000   1.0000
     1.0000   1.0000   1.0000   1.0000   1.0000   1.0000   1.0000   1.0000
     1.0000   1.0000   1.0000   1.0000   1.0000   1.0000   1.0000   1.0000
     1.0000   1.0000   1.0000   1.0000   1.0000   1.0000   1.0000   1.0000
     1.0000   1.0000   1.0000   1.0000   1.0000   1.0000   1.0000   1.0000
     1.0000   1.0000   1.0000   1.0000   1.0000   1.0000   1.0000   1.0000
     1.0000   1.0000   1.0000   1.0000   1.0000   1.0000   1.0000   1.0000
     1.0000   1.0000   1.0000   1.0000   1.0000   1.0000   1.0000   1.0000
     1.0000   1.0000   1.0000   1.0000   1.0000   1.0000   1.0000   1.0000
     1.0000   1.0000   1.0000   1.0000   1.0000   1.0000   1.0000   1.0000
     1.0000   1.0000   1.0000   1.0000   1.0000   1.0000   1.0000   1.0000
     1.0000   1.0000   1.0000   1.0000   1.0000   1.0000   1.0000   1.0000
     1.0000   1.0000   1.0000   1.0000   1.0000   1.0000   1.0000   1.0000
     1.0000   1.0000   1.0000   1.0000   1.0000   1.0000   1.0000   1.0000
     1.0000   1.0000   1.0000   1.0000   1.0000   1.0000   1.0000   1.0000
     1.0000   1.0000   1.0000   1.0000   1.0000   1.0000   1.0000   1.0000
     1.0000   1.0000   1.0000   1.0000   1.0000   1.0000   1.0000   1.0000
     1.0000   1.0000   1.0000   1.0000   1.0000   1.0000   1.0000   1.0000
     1.0000   1.0000   1.0000   1.0000   1.0000   1.0000   1.0000   1.0000
     1.0000   1.0000   1.0000   1.0000   1.0000   1.0000   1.0000   1.0000
     1.0000   1.0000   1.0000   1.0000   1.0000   1.0000   1.0000   1.0000
     1.0000   1.0000   1.0000   1.0000   1.0000   1.0000   1.0000   1.0000
     1.0000   1.0000   1.0000   1.0000   1.0000   1.0000   1.0000   1.0000
     1.0000   1.0000   1.0000   1.0000   1.0000   1.0000   1.0000   1.0000
     1.0000   1.0000   1.0000   1.0000   1.0000   1.0000   1.0000   1.0000
     1.0000   1.0000   1.0000   1.0000   1.0000   1.0000   0.9999   0.9999
     0.9998   0.0311   0.0001   0.0000   0.0000   0.0000   0.0000   0.0000
     0.0000   0.0000   0.0000   0.0000   0.0000   0.0000   0.0000   0.0000
     0.0000   0.0000   0.0000   0.0000   0.0000   0.0000   0.0000   0.0000
     0.0000   0.0000   0.0000   0.0000   0.0000   0.0000   0.0000   0.0000
     0.0000   0.0000   0.0000   0.0000   0.0000   0.0000   0.0000   0.0000
     0.0000   0.0000   0.0000   0.0000   0.0000   0.0000   0.0000   0.0000
     0.0000   0.0000   0.0000   0.0000   0.0000   0.0000   0.0000   0.0000
     0.0000   0.0000   0.0000   0.0000   0.0000   0.0000   0.0000   0.0000

          k =-0.3536 0.3536 0.3536 ( 32056 PWs)   bands (ev):

   -17.1088 -17.1028 -17.0938 -17.0861 -17.0777 -17.0691 -17.0622 -17.0621
   -17.0587 -17.0558 -17.0485 -17.0467 -17.0452 -17.0441 -17.0436 -17.0430
   -17.0419 -17.0398 -17.0322 -17.0272 -17.0138 -17.0114 -17.0073 -17.0027
   -16.9945 -16.9894 -16.9862 -16.9861 -16.9819 -16.9776 -16.9765 -16.9757
   -16.9741 -16.9705 -16.9673 -16.9635 -16.9626 -16.9579 -16.9549 -16.9530
   -16.9508 -16.9476 -16.9463 -16.9427 -16.9381 -16.9374 -16.9337 -16.9315
   -16.9290 -16.9249 -16.9188 -16.9182 -16.9160 -16.9112 -16.9010 -16.8998
   -16.8966 -16.8943 -16.8925 -16.8903 -16.8883 -16.8877 -16.8856 -16.8805
   -16.8794 -16.8752 -16.8746 -16.8741 -16.8717 -16.8710 -16.8704 -16.8639
   -16.8618 -16.8606 -16.8598 -16.8566 -16.8563 -16.8499 -16.8474 -16.8460
   -16.8439 -16.8428 -16.8403 -16.8379 -16.8362 -16.8341 -16.8328 -16.8313
   -16.8293 -16.8285 -16.8276 -16.8245 -16.8220 -16.8210 -16.8201 -16.8192
   -16.8183 -16.8182 -16.8160 -16.8147 -16.8126 -16.8124 -16.8108 -16.8097
   -16.8074 -16.8070 -16.8050 -16.8030 -16.8019 -16.8014 -16.8011 -16.8000
   -16.7988 -16.7982 -16.7977 -16.7954 -16.7944 -16.7917 -16.7910 -16.7893
   -16.7887 -16.7873 -16.7848 -16.7833 -16.7832 -16.7823 -16.7815 -16.7798
   -16.7789 -16.7775 -16.7762 -16.7752 -16.7725 -16.7699 -16.7683 -16.7675
   -16.7665 -16.7657 -16.7651 -16.7647 -16.7632 -16.7600 -16.7600 -16.7579
   -16.7546 -16.7536 -16.7532 -16.7516 -16.7499 -16.7484 -16.7463 -16.7442
   -16.7439 -16.7433 -16.7406 -16.7403 -16.7382 -16.7329 -16.7300 -16.7274
   -16.7233 -16.7220 -16.7199 -16.7155 -16.7149 -16.7118 -16.7082 -16.7069
   -16.7047 -16.7041 -16.7020 -16.7003 -16.6979 -16.6952 -16.6928 -16.6904
   -16.6880 -16.6855 -16.6827 -16.6814 -16.6794 -16.6784 -16.6779 -16.6730
   -16.6645  -4.4281  -4.3256  -4.2398  -4.1927  -4.0213  -3.8943  -3.8164
    -3.6461  -3.2975  -3.2256  -3.1761  -3.0203  -2.9990  -2.9250  -2.8741
    -2.7967  -2.7223  -2.5352  -2.4843  -2.3779  -2.3116  -2.2855  -2.2196
    -2.1275  -1.9892  -1.9466  -1.6845  -1.6343  -1.4653  -1.3515  -0.8730
    -0.8531  -0.5996  -0.5303  -0.0819   0.0012   0.0763   0.1206   0.3446
     0.4382   0.5966   0.6576   0.6658   0.6816   0.7271   0.8073   1.1552
     1.1824   1.2064   1.3392   1.4346   1.5865   1.6136   1.7464   2.0111
     2.1472   2.4835   2.5635   3.2267   3.2679   3.3931   3.4122   3.4229
     3.4398   3.4530   3.4561   3.4820   3.5992   3.6451   3.6537   3.6678
     3.6764   3.7198   3.7246   3.7303   3.7357   3.8593   3.8870   3.9007
     3.9065   3.9143   3.9362   3.9560   4.0121   4.0967   4.1011   4.1320
     4.1362   4.5256   4.5309   4.5421   4.5489   4.7962   4.8109   5.1282
     5.1428   5.2464   5.2624   5.2658   5.2730   5.2791   5.2877   5.2943
     5.3002   5.5541   5.5752   5.5786   5.5788   5.5889   5.5958   5.6027
     5.6123   5.6568   5.6609   6.1556   6.1720   6.1819   6.1937   6.2069
     6.2279   6.2404   6.2617   6.7203   6.7653   6.7986   6.8028   6.8198
     6.8455   8.5419   8.6584   8.7937   8.8557   8.8840   8.9056   8.9710
     9.0176   9.0306   9.0510   9.0614   9.0972   9.2994   9.3415   9.6151
     9.6333   9.6758   9.7464   9.7658   9.8205   9.8587   9.8907   9.9310
     9.9500   9.9596   9.9845  10.2824  10.3162  10.3288  10.3538  10.4119
    10.4433  10.5811  10.6062  10.7456  10.7476  11.0380  11.0767  11.0931
    11.1070  11.1546  11.1752  11.1981  11.2459  11.3759  11.3849  11.5213
    11.5773  11.8341  11.8410  11.8907  11.9143  11.9359  11.9628  11.9821
    12.0043  12.0327  12.0450  12.0699  12.0723  12.0802  12.1010  12.1462

     occupation numbers 
     1.0000   1.0000   1.0000   1.0000   1.0000   1.0000   1.0000   1.0000
     1.0000   1.0000   1.0000   1.0000   1.0000   1.0000   1.0000   1.0000
     1.0000   1.0000   1.0000   1.0000   1.0000   1.0000   1.0000   1.0000
     1.0000   1.0000   1.0000   1.0000   1.0000   1.0000   1.0000   1.0000
     1.0000   1.0000   1.0000   1.0000   1.0000   1.0000   1.0000   1.0000
     1.0000   1.0000   1.0000   1.0000   1.0000   1.0000   1.0000   1.0000
     1.0000   1.0000   1.0000   1.0000   1.0000   1.0000   1.0000   1.0000
     1.0000   1.0000   1.0000   1.0000   1.0000   1.0000   1.0000   1.0000
     1.0000   1.0000   1.0000   1.0000   1.0000   1.0000   1.0000   1.0000
     1.0000   1.0000   1.0000   1.0000   1.0000   1.0000   1.0000   1.0000
     1.0000   1.0000   1.0000   1.0000   1.0000   1.0000   1.0000   1.0000
     1.0000   1.0000   1.0000   1.0000   1.0000   1.0000   1.0000   1.0000
     1.0000   1.0000   1.0000   1.0000   1.0000   1.0000   1.0000   1.0000
     1.0000   1.0000   1.0000   1.0000   1.0000   1.0000   1.0000   1.0000
     1.0000   1.0000   1.0000   1.0000   1.0000   1.0000   1.0000   1.0000
     1.0000   1.0000   1.0000   1.0000   1.0000   1.0000   1.0000   1.0000
     1.0000   1.0000   1.0000   1.0000   1.0000   1.0000   1.0000   1.0000
     1.0000   1.0000   1.0000   1.0000   1.0000   1.0000   1.0000   1.0000
     1.0000   1.0000   1.0000   1.0000   1.0000   1.0000   1.0000   1.0000
     1.0000   1.0000   1.0000   1.0000   1.0000   1.0000   1.0000   1.0000
     1.0000   1.0000   1.0000   1.0000   1.0000   1.0000   1.0000   1.0000
     1.0000   1.0000   1.0000   1.0000   1.0000   1.0000   1.0000   1.0000
     1.0000   1.0000   1.0000   1.0000   1.0000   1.0000   1.0000   1.0000
     1.0000   1.0000   1.0000   1.0000   1.0000   1.0000   1.0000   1.0000
     1.0000   1.0000   1.0000   1.0000   1.0000   1.0000   1.0000   1.0000
     1.0000   1.0000   1.0000   1.0000   1.0000   1.0000   1.0000   1.0000
     1.0000   1.0000   1.0000   1.0000   1.0000   1.0000   1.0000   1.0000
     1.0000   1.0000   1.0000   1.0000   1.0000   1.0000   1.0000   1.0000
     1.0000   1.0000   1.0000   1.0000   1.0000   1.0000   1.0000   1.0000
     1.0000   1.0000   1.0000   1.0000   1.0000   1.0000   1.0000   1.0000
     1.0000   1.0000   1.0000   1.0000   1.0000   1.0000   1.0000   1.0000
     1.0000   1.0000   1.0000   1.0000   1.0000   1.0000   1.0000   1.0000
     1.0000   1.0000   1.0000   1.0000   1.0000   1.0000   1.0000   1.0000
     1.0000   1.0000   1.0000   1.0000   1.0000   1.0000   1.0000   1.0000
     1.0000   1.0000   1.0000   1.0000   1.0000   1.0000   1.0000   1.0000
     1.0000   1.0000   1.0000   1.0000   1.0000   1.0000   1.0000   1.0000
     1.0000   1.0000   1.0000   1.0000   1.0000   1.0000   1.0000   1.0000
     1.0000   1.0000   1.0000   1.0000   1.0000   1.0000   1.0000   1.0000
     1.0000   1.0000   1.0000   1.0000   1.0000   1.0000   1.0000   1.0000
     1.0000   0.0000   0.0000   0.0000   0.0000   0.0000   0.0000   0.0000
     0.0000   0.0000   0.0000   0.0000   0.0000   0.0000   0.0000   0.0000
     0.0000   0.0000   0.0000   0.0000   0.0000   0.0000   0.0000   0.0000
     0.0000   0.0000   0.0000   0.0000   0.0000   0.0000   0.0000   0.0000
     0.0000   0.0000   0.0000   0.0000   0.0000   0.0000   0.0000   0.0000
     0.0000   0.0000   0.0000   0.0000   0.0000   0.0000   0.0000   0.0000
     0.0000   0.0000   0.0000   0.0000   0.0000   0.0000   0.0000   0.0000
     0.0000   0.0000   0.0000   0.0000   0.0000   0.0000   0.0000   0.0000

          k =-0.3536-0.3536-0.3536 ( 32056 PWs)   bands (ev):

   -17.1061 -17.0963 -17.0896 -17.0866 -17.0773 -17.0696 -17.0664 -17.0646
   -17.0618 -17.0606 -17.0602 -17.0517 -17.0507 -17.0463 -17.0438 -17.0432
   -17.0380 -17.0360 -17.0356 -17.0222 -17.0169 -17.0131 -17.0109 -17.0076
   -16.9988 -16.9964 -16.9919 -16.9837 -16.9813 -16.9797 -16.9782 -16.9718
   -16.9671 -16.9642 -16.9634 -16.9625 -16.9589 -16.9588 -16.9549 -16.9524
   -16.9484 -16.9463 -16.9420 -16.9338 -16.9332 -16.9305 -16.9286 -16.9260
   -16.9248 -16.9240 -16.9223 -16.9187 -16.9102 -16.9056 -16.9053 -16.9019
   -16.9009 -16.9007 -16.8910 -16.8892 -16.8876 -16.8872 -16.8805 -16.8791
   -16.8748 -16.8728 -16.8720 -16.8701 -16.8679 -16.8657 -16.8629 -16.8602
   -16.8601 -16.8587 -16.8579 -16.8533 -16.8518 -16.8502 -16.8501 -16.8468
   -16.8447 -16.8429 -16.8414 -16.8403 -16.8397 -16.8369 -16.8360 -16.8359
   -16.8327 -16.8306 -16.8297 -16.8286 -16.8263 -16.8244 -16.8236 -16.8193
   -16.8183 -16.8177 -16.8163 -16.8155 -16.8144 -16.8133 -16.8123 -16.8118
   -16.8106 -16.8090 -16.8067 -16.8043 -16.8017 -16.8006 -16.7995 -16.7987
   -16.7974 -16.7949 -16.7945 -16.7936 -16.7919 -16.7907 -16.7891 -16.7885
   -16.7877 -16.7869 -16.7855 -16.7838 -16.7828 -16.7814 -16.7809 -16.7795
   -16.7770 -16.7751 -16.7743 -16.7737 -16.7731 -16.7725 -16.7712 -16.7703
   -16.7692 -16.7666 -16.7653 -16.7643 -16.7637 -16.7617 -16.7612 -16.7580
   -16.7576 -16.7570 -16.7557 -16.7545 -16.7538 -16.7532 -16.7511 -16.7490
   -16.7468 -16.7457 -16.7452 -16.7443 -16.7400 -16.7365 -16.7352 -16.7326
   -16.7293 -16.7245 -16.7227 -16.7187 -16.7153 -16.7096 -16.7078 -16.7077
   -16.7051 -16.7032 -16.7016 -16.6977 -16.6958 -16.6944 -16.6935 -16.6869
   -16.6860 -16.6837 -16.6800 -16.6762 -16.6745 -16.6743 -16.6690 -16.6656
   -16.6611  -4.4803  -4.2361  -4.2238  -4.1716  -3.9531  -3.9148  -3.8388
    -3.7297  -3.3334  -3.2549  -3.1755  -3.0924  -3.0290  -2.9389  -2.8379
    -2.7508  -2.7093  -2.6343  -2.4497  -2.3696  -2.3342  -2.2873  -2.1595
    -2.0967  -1.9946  -1.9101  -1.6424  -1.5542  -1.5133  -1.3618  -0.7495
    -0.7187  -0.6942  -0.6539  -0.0601  -0.0253   0.0512   0.1458   0.3228
     0.4196   0.4637   0.5536   0.6695   0.7417   0.8002   0.8464   1.1181
     1.2187   1.2500   1.3157   1.4925   1.5683   1.6232   1.7107   2.0780
     2.1150   2.4734   2.5790   3.2103   3.2749   3.4083   3.4167   3.4200
     3.4327   3.4440   3.4679   3.5124   3.5219   3.6560   3.6585   3.6627
     3.6666   3.7187   3.7246   3.7321   3.7369   3.8491   3.8799   3.8880
     3.8954   3.9117   3.9132   3.9525   4.0168   4.0965   4.1065   4.1113
[...]
     atom   13 type  1   force =   0.83035299E-03  0.40191608E-03 -0.61455925E-03
     atom   14 type  2   force =  -0.23420860E-03 -0.90172992E-03 -0.16658084E-03
     atom   15 type  2   force =   0.15083068E-03  0.71520624E-03 -0.44874496E-03
     atom   16 type  1   force =   0.30938986E-04  0.24935973E-03  0.19604578E-03
     atom   17 type  2   force =   0.20657146E-03 -0.57322016E-03  0.40816514E-03
     atom   18 type  2   force =  -0.58732851E-03  0.15477200E-03  0.12575952E-03
     atom   19 type  2   force =   0.10113408E-02  0.37353287E-03  0.65068711E-03
     atom   20 type  1   force =  -0.42794568E-03 -0.33367866E-03  0.30584800E-03
     atom   21 type  2   force =  -0.54636982E-03  0.33302626E-04 -0.53014240E-03
     atom   22 type  2   force =   0.36562827E-03  0.36480908E-03  0.41081830E-03
     atom   23 type  2   force =   0.32817813E-03  0.46834885E-03  0.10495444E-02
     atom   24 type  1   force =  -0.36171503E-03 -0.49267375E-03 -0.52542162E-05
     atom   25 type  2   force =  -0.15089758E-03 -0.61150558E-03 -0.35325741E-03
     atom   26 type  2   force =   0.13346239E-03  0.45390285E-03  0.63692672E-03
     atom   27 type  1   force =   0.21583803E-03  0.27368458E-03 -0.44600814E-03
     atom   28 type  2   force =  -0.19220475E-03 -0.38573923E-03 -0.45074035E-03
     atom   29 type  1   force =   0.34062412E-03 -0.97606612E-04 -0.18942787E-03
     atom   30 type  1   force =   0.22235912E-03 -0.20138418E-03 -0.20400882E-03
     atom   31 type  1   force =  -0.28267952E-03  0.32758739E-03  0.56821870E-04
     atom   32 type  1   force =   0.12007247E-03 -0.78390644E-04  0.10529460E-03
     atom   33 type  2   force =  -0.65886173E-03 -0.16266071E-03  0.18054877E-04
     atom   34 type  2   force =   0.18721348E-03 -0.22533653E-03  0.30246653E-03
     atom   35 type  2   force =  -0.17632847E-03  0.71903401E-03  0.99514885E-05
     atom   36 type  2   force =  -0.20068201E-03 -0.15972251E-04 -0.40969172E-03
     atom   37 type  2   force =  -0.11334091E-04 -0.29218862E-03 -0.12727159E-03
     atom   38 type  1   force =   0.30942255E-03  0.12211979E-03  0.43560412E-03
     atom   39 type  1   force =  -0.43264662E-03 -0.65230942E-04 -0.70839960E-03
     atom   40 type  2   force =  -0.34227188E-04  0.61285316E-03 -0.31025254E-03
     atom   41 type  1   force =  -0.27031766E-03  0.61369029E-04 -0.22717836E-03
     atom   42 type  1   force =   0.20699184E-03  0.10427276E-03  0.67513842E-04
     atom   43 type  2   force =   0.10664017E-03 -0.37511247E-03  0.74067328E-03
     atom   44 type  2   force =  -0.29706022E-04  0.48939823E-04 -0.25681664E-03
     atom   45 type  1   force =   0.80927209E-04  0.54539812E-03  0.61046269E-03
     atom   46 type  1   force =  -0.80442956E-03  0.14049828E-03 -0.19294758E-04
     atom   47 type  2   force =   0.57417580E-03 -0.81120091E-03 -0.32372111E-03
     atom   48 type  2   force =   0.20660505E-03  0.66710323E-03 -0.30327257E-03
     atom   49 type  2   force =   0.51777829E-03  0.45255501E-03 -0.33050182E-03
     atom   50 type  1   force =  -0.38411933E-04 -0.17852234E-03 -0.21089493E-04
     atom   51 type  2   force =   0.33817196E-04 -0.12215425E-02 -0.63905107E-03
     atom   52 type  2   force =   0.11222882E-02  0.46155578E-03  0.42466593E-03
     atom   53 type  1   force =  -0.13450870E-03  0.24515554E-03  0.49500029E-03
     atom   54 type  2   force =  -0.63759726E-03 -0.46291774E-03 -0.48533814E-03
     atom   55 type  2   force =   0.72246746E-03 -0.21543264E-03  0.32124609E-03
     atom   56 type  1   force =   0.79835880E-03 -0.56701259E-03 -0.39539179E-03
     atom   57 type  1   force =  -0.66595490E-04  0.67393592E-04  0.29959793E-03
     atom   58 type  1   force =  -0.97194331E-04 -0.53762582E-03  0.16909955E-04
     atom   59 type  2   force =  -0.32601328E-04  0.83534885E-04  0.14171690E-03
     atom   60 type  2   force =  -0.75064692E-03  0.70764281E-03  0.36023639E-04
     atom   61 type  2   force =   0.30900814E-03  0.29066709E-03  0.10814282E-03
     atom   62 type  1   force =  -0.17560270E-03  0.47955044E-03 -0.10036082E-03
     atom   63 type  2   force =   0.23562141E-03 -0.61546075E-03  0.48104811E-03
     atom   64 type  2   force =  -0.58897090E-03 -0.10919354E-03 -0.17209853E-03
     The Hubbard contrib.    to forces
     atom    1 type  2   force =   0.00000000E+00  0.00000000E+00  0.00000000E+00
     atom    2 type  1   force =   0.00000000E+00  0.00000000E+00  0.00000000E+00
     atom    3 type  1   force =   0.00000000E+00  0.00000000E+00  0.00000000E+00
     atom    4 type  2   force =   0.00000000E+00  0.00000000E+00  0.00000000E+00
     atom    5 type  1   force =   0.00000000E+00  0.00000000E+00  0.00000000E+00
     atom    6 type  1   force =   0.00000000E+00  0.00000000E+00  0.00000000E+00
     atom    7 type  1   force =   0.00000000E+00  0.00000000E+00  0.00000000E+00
     atom    8 type  2   force =   0.00000000E+00  0.00000000E+00  0.00000000E+00
     atom    9 type  2   force =   0.00000000E+00  0.00000000E+00  0.00000000E+00
     atom   10 type  2   force =   0.00000000E+00  0.00000000E+00  0.00000000E+00
     atom   11 type  1   force =   0.00000000E+00  0.00000000E+00  0.00000000E+00
     atom   12 type  2   force =   0.00000000E+00  0.00000000E+00  0.00000000E+00
     atom   13 type  1   force =   0.00000000E+00  0.00000000E+00  0.00000000E+00
     atom   14 type  2   force =   0.00000000E+00  0.00000000E+00  0.00000000E+00
     atom   15 type  2   force =   0.00000000E+00  0.00000000E+00  0.00000000E+00
     atom   16 type  1   force =   0.00000000E+00  0.00000000E+00  0.00000000E+00
     atom   17 type  2   force =   0.00000000E+00  0.00000000E+00  0.00000000E+00
     atom   18 type  2   force =   0.00000000E+00  0.00000000E+00  0.00000000E+00
     atom   19 type  2   force =   0.00000000E+00  0.00000000E+00  0.00000000E+00
     atom   20 type  1   force =   0.00000000E+00  0.00000000E+00  0.00000000E+00
     atom   21 type  2   force =   0.00000000E+00  0.00000000E+00  0.00000000E+00
     atom   22 type  2   force =   0.00000000E+00  0.00000000E+00  0.00000000E+00
     atom   23 type  2   force =   0.00000000E+00  0.00000000E+00  0.00000000E+00
     atom   24 type  1   force =   0.00000000E+00  0.00000000E+00  0.00000000E+00
     atom   25 type  2   force =   0.00000000E+00  0.00000000E+00  0.00000000E+00
     atom   26 type  2   force =   0.00000000E+00  0.00000000E+00  0.00000000E+00
     atom   27 type  1   force =   0.00000000E+00  0.00000000E+00  0.00000000E+00
     atom   28 type  2   force =   0.00000000E+00  0.00000000E+00  0.00000000E+00
     atom   29 type  1   force =   0.00000000E+00  0.00000000E+00  0.00000000E+00
     atom   30 type  1   force =   0.00000000E+00  0.00000000E+00  0.00000000E+00
     atom   31 type  1   force =   0.00000000E+00  0.00000000E+00  0.00000000E+00
     atom   32 type  1   force =   0.00000000E+00  0.00000000E+00  0.00000000E+00
     atom   33 type  2   force =   0.00000000E+00  0.00000000E+00  0.00000000E+00
     atom   34 type  2   force =   0.00000000E+00  0.00000000E+00  0.00000000E+00
     atom   35 type  2   force =   0.00000000E+00  0.00000000E+00  0.00000000E+00
     atom   36 type  2   force =   0.00000000E+00  0.00000000E+00  0.00000000E+00
     atom   37 type  2   force =   0.00000000E+00  0.00000000E+00  0.00000000E+00
     atom   38 type  1   force =   0.00000000E+00  0.00000000E+00  0.00000000E+00
     atom   39 type  1   force =   0.00000000E+00  0.00000000E+00  0.00000000E+00
     atom   40 type  2   force =   0.00000000E+00  0.00000000E+00  0.00000000E+00
     atom   41 type  1   force =   0.00000000E+00  0.00000000E+00  0.00000000E+00
     atom   42 type  1   force =   0.00000000E+00  0.00000000E+00  0.00000000E+00
     atom   43 type  2   force =   0.00000000E+00  0.00000000E+00  0.00000000E+00
     atom   44 type  2   force =   0.00000000E+00  0.00000000E+00  0.00000000E+00
     atom   45 type  1   force =   0.00000000E+00  0.00000000E+00  0.00000000E+00
     atom   46 type  1   force =   0.00000000E+00  0.00000000E+00  0.00000000E+00
     atom   47 type  2   force =   0.00000000E+00  0.00000000E+00  0.00000000E+00
     atom   48 type  2   force =   0.00000000E+00  0.00000000E+00  0.00000000E+00
     atom   49 type  2   force =   0.00000000E+00  0.00000000E+00  0.00000000E+00
     atom   50 type  1   force =   0.00000000E+00  0.00000000E+00  0.00000000E+00
     atom   51 type  2   force =   0.00000000E+00  0.00000000E+00  0.00000000E+00
     atom   52 type  2   force =   0.00000000E+00  0.00000000E+00  0.00000000E+00
     atom   53 type  1   force =   0.00000000E+00  0.00000000E+00  0.00000000E+00
     atom   54 type  2   force =   0.00000000E+00  0.00000000E+00  0.00000000E+00
     atom   55 type  2   force =   0.00000000E+00  0.00000000E+00  0.00000000E+00
     atom   56 type  1   force =   0.00000000E+00  0.00000000E+00  0.00000000E+00
     atom   57 type  1   force =   0.00000000E+00  0.00000000E+00  0.00000000E+00
     atom   58 type  1   force =   0.00000000E+00  0.00000000E+00  0.00000000E+00
     atom   59 type  2   force =   0.00000000E+00  0.00000000E+00  0.00000000E+00
     atom   60 type  2   force =   0.00000000E+00  0.00000000E+00  0.00000000E+00
     atom   61 type  2   force =   0.00000000E+00  0.00000000E+00  0.00000000E+00
     atom   62 type  1   force =   0.00000000E+00  0.00000000E+00  0.00000000E+00
     atom   63 type  2   force =   0.00000000E+00  0.00000000E+00  0.00000000E+00
     atom   64 type  2   force =   0.00000000E+00  0.00000000E+00  0.00000000E+00
     The SCF correction term to forces
     atom    1 type  2   force =   0.19602033E-04  0.13171756E-04 -0.86777704E-05
     atom    2 type  1   force =   0.34247599E-05  0.22894226E-05 -0.24255430E-05
     atom    3 type  1   force =   0.27056849E-05  0.12723173E-05 -0.11334160E-05
     atom    4 type  2   force =   0.10569296E-04  0.96467500E-05 -0.14174803E-04
     atom    5 type  1   force =   0.28835413E-05  0.50559589E-06 -0.32564929E-05
     atom    6 type  1   force =  -0.75922941E-07  0.12360417E-05 -0.23483484E-05
     atom    7 type  1   force =  -0.79483894E-06 -0.47406162E-05  0.14005921E-05
     atom    8 type  2   force =  -0.17715882E-04 -0.78804023E-05  0.25119158E-04
     atom    9 type  2   force =  -0.18647173E-04 -0.25519038E-04  0.11827657E-04
     atom   10 type  2   force =  -0.21593511E-04 -0.89215617E-05  0.23722787E-04
     atom   11 type  1   force =  -0.19129656E-05 -0.82422829E-06  0.23325384E-05
     atom   12 type  2   force =  -0.12093456E-04  0.51406157E-05  0.77580026E-05
     atom   13 type  1   force =  -0.15277389E-05  0.38174341E-06 -0.71841343E-06
     atom   14 type  2   force =   0.48269833E-05 -0.77691563E-06 -0.70691846E-05
     atom   15 type  2   force =   0.22512917E-05  0.89514507E-05 -0.15995253E-05
     atom   16 type  1   force =   0.51136593E-05  0.31586007E-05 -0.22039303E-05
     atom   17 type  2   force =   0.69505934E-05  0.14592215E-04 -0.18924344E-04
     atom   18 type  2   force =   0.61694910E-05 -0.34233635E-05 -0.11924593E-04
     atom   19 type  2   force =  -0.14928805E-05  0.85557153E-05 -0.15254677E-04
     atom   20 type  1   force =   0.25248911E-05  0.12703666E-05 -0.67868619E-06
     atom   21 type  2   force =   0.11707280E-04  0.12411942E-04 -0.27667882E-05
     atom   22 type  2   force =   0.13963483E-04 -0.32433528E-06 -0.23551727E-05
     atom   23 type  2   force =  -0.12684776E-04 -0.22837546E-04 -0.51727476E-06
     atom   24 type  1   force =  -0.36799099E-05 -0.41368192E-05  0.41117411E-05
     atom   25 type  2   force =  -0.22554865E-05 -0.18455426E-04  0.10016427E-04
     atom   26 type  2   force =  -0.25631105E-04 -0.78915380E-05  0.22246784E-04
     atom   27 type  1   force =  -0.26553258E-05 -0.16250511E-05  0.22403356E-05
     atom   28 type  2   force =  -0.68004334E-05  0.23698152E-05  0.10870733E-04
     atom   29 type  1   force =   0.66264704E-06  0.61340207E-06  0.15990129E-05
     atom   30 type  1   force =   0.90799587E-06  0.11806271E-05 -0.54561572E-06
     atom   31 type  1   force =   0.24492438E-05  0.19928365E-05 -0.24362519E-05
     atom   32 type  1   force =   0.27348086E-05  0.32582524E-05 -0.55869307E-05
     atom   33 type  2   force =   0.23390356E-04  0.15212449E-04 -0.20438545E-04
     atom   34 type  2   force =   0.39272545E-07  0.95609179E-05 -0.89985007E-05
     atom   35 type  2   force =   0.13302743E-04  0.18511768E-05 -0.66285120E-05
     atom   36 type  2   force =   0.15252004E-04  0.11925196E-04 -0.84390604E-05
     atom   37 type  2   force =   0.10996200E-04  0.96079278E-05  0.51983997E-05
     atom   38 type  1   force =   0.55553341E-06  0.28115298E-05 -0.17249441E-05
     atom   39 type  1   force =  -0.29691051E-05 -0.73347278E-06  0.41157899E-05
     atom   40 type  2   force =  -0.12526707E-04 -0.19501406E-04  0.19435844E-05
     atom   41 type  1   force =  -0.64939970E-05 -0.42454372E-05  0.65788168E-05
     atom   42 type  1   force =  -0.30948336E-05 -0.61313108E-05  0.37531885E-05
     atom   43 type  2   force =  -0.81682231E-05 -0.18682406E-04  0.10297455E-04
     atom   44 type  2   force =  -0.10514915E-04 -0.19598131E-04  0.66693145E-05
     atom   45 type  1   force =  -0.25123939E-06 -0.11236780E-06  0.56165197E-06
     atom   46 type  1   force =   0.44433945E-06  0.40787822E-06 -0.14421669E-06
     atom   47 type  2   force =   0.14570190E-05  0.87964404E-05 -0.16456487E-04
     atom   48 type  2   force =   0.15776533E-04  0.13386775E-04 -0.20029842E-04
     atom   49 type  2   force =   0.47600265E-05  0.10415696E-04 -0.69102176E-05
     atom   50 type  1   force =   0.21182680E-05  0.33491382E-05 -0.16643375E-05
     atom   51 type  2   force =   0.59041191E-06  0.11365354E-04 -0.56716902E-05
     atom   52 type  2   force =   0.19986047E-05  0.32686075E-05 -0.10536993E-04
     atom   53 type  1   force =   0.78221278E-06  0.32415839E-05 -0.37532041E-05
     atom   54 type  2   force =   0.15791351E-04  0.44789480E-05 -0.85730175E-06
     atom   55 type  2   force =  -0.16752912E-04  0.15602654E-04  0.58727513E-05
     atom   56 type  1   force =  -0.17946258E-05 -0.34127428E-05  0.34952715E-05
     atom   57 type  1   force =  -0.55461904E-05 -0.41321767E-05  0.54750152E-05
     atom   58 type  1   force =  -0.38748807E-05 -0.65192878E-05  0.31997419E-05
     atom   59 type  2   force =  -0.10613888E-04 -0.17172181E-04  0.88138138E-05
     atom   60 type  2   force =   0.52656290E-05 -0.14111575E-04 -0.15956071E-05
     atom   61 type  2   force =   0.16488583E-05 -0.87327579E-05 -0.45791650E-05
     atom   62 type  1   force =   0.85881325E-07 -0.33946769E-07 -0.43012923E-06
     atom   63 type  2   force =   0.18460771E-04  0.10291774E-04 -0.36209921E-05
     atom   64 type  2   force =   0.94621178E-05  0.13105205E-04 -0.51305324E-05

     Total force =     0.143893     Total SCF correction =     0.000132


     entering subroutine stress ...

          total   stress  (Ry/bohr**3)                   (kbar)     P=   10.50
   0.0000713108   0.0000051266   0.0000025209         10.49      0.75      0.37
   0.0000051266   0.0000716210   0.0000035644          0.75     10.54      0.52
   0.0000025209   0.0000035644   0.0000711606          0.37      0.52     10.47

     kinetic stress (kbar)   7099.09     -0.73     -0.10
                               -0.73   7099.00     -0.68
                               -0.10     -0.68   7099.14

     local   stress (kbar)  -4832.34   4191.16  -6808.12
                             4191.16  -5630.65  -2265.47
                            -6808.12  -2265.47  -5599.98

     nonloc. stress (kbar)   2604.69      0.76     -0.59
                                0.76   2604.70      1.11
                               -0.59      1.11   2604.69

     hartree stress (kbar)  19331.21  -2092.43   3338.93
                            -2092.43  19718.89   1162.12
                             3338.93   1162.12  19706.72

     exc-cor stress (kbar)  12498.28      0.03     -0.02
                                0.03  12498.29      0.03
                               -0.02      0.03  12498.28

     corecor stress (kbar) -18906.74     -0.05     -0.06
                               -0.05 -18906.73     -0.02
                               -0.06     -0.02 -18906.75

     ewald   stress (kbar) -17783.69  -2097.98   3470.32
                            -2097.98 -17372.96   1103.42
                             3470.32   1103.42 -17391.64

     hubbard stress (kbar)      0.00      0.00      0.00
                                0.00      0.00      0.00
                                0.00      0.00      0.00

     london  stress (kbar)      0.00      0.00      0.00
                                0.00      0.00      0.00
                                0.00      0.00      0.00

     XDM     stress (kbar)      0.00      0.00      0.00
                                0.00      0.00      0.00
                                0.00      0.00      0.00

     dft-nl  stress (kbar)      0.00      0.00      0.00
                                0.00      0.00      0.00
                                0.00      0.00      0.00



     Writing output data file SiGe_zns.scf.in.super.228.b.011.save

     init_run     :    141.17s CPU    123.83s WALL (       1 calls)
     electrons    :  10049.62s CPU   9998.98s WALL (       1 calls)
     forces       :    135.17s CPU    114.28s WALL (       1 calls)
     stress       :    416.53s CPU    413.12s WALL (       1 calls)

     Called by init_run:
     wfcinit      :    135.47s CPU    117.91s WALL (       1 calls)
     potinit      :      0.56s CPU      0.57s WALL (       1 calls)

     Called by electrons:
     c_bands      :   8865.98s CPU   8791.71s WALL (      18 calls)
     sum_band     :   1078.57s CPU   1093.51s WALL (      18 calls)
     v_of_rho     :      5.34s CPU      6.10s WALL (      18 calls)
     v_h          :      0.19s CPU      0.26s WALL (      18 calls)
     v_xc         :      5.63s CPU      6.36s WALL (      20 calls)
     newd         :     93.01s CPU     99.52s WALL (      18 calls)
     mix_rho      :      9.84s CPU     11.04s WALL (      18 calls)

     Called by c_bands:
     init_us_2    :     12.86s CPU     13.82s WALL (     390 calls)
     cegterg      :   8773.98s CPU   8688.13s WALL (     180 calls)

     Called by sum_band:
     sum_band:bec :      6.01s CPU      6.20s WALL (     180 calls)
     addusdens    :     88.92s CPU     96.09s WALL (      18 calls)

     Called by *egterg:
     h_psi        :   3965.98s CPU   3952.39s WALL (     680 calls)
     s_psi        :    753.81s CPU    554.02s WALL (     680 calls)
     g_psi        :      2.31s CPU      2.29s WALL (     490 calls)
     cdiaghg      :   2390.75s CPU   2768.52s WALL (     660 calls)
     cegterg:over :    786.83s CPU    659.66s WALL (     490 calls)
     cegterg:upda :    338.82s CPU    256.25s WALL (     490 calls)
     cegterg:last :    233.27s CPU    170.14s WALL (     180 calls)

     Called by h_psi:
     h_psi:vloc   :   2335.57s CPU   2703.54s WALL (     680 calls)
     h_psi:vnl    :   1625.08s CPU   1243.02s WALL (     680 calls)
     add_vuspsi   :    744.27s CPU    544.01s WALL (     680 calls)

     General routines
     calbec       :   1396.31s CPU   1121.71s WALL (     880 calls)
     fft          :     41.20s CPU     42.97s WALL (     313 calls)
     ffts         :      5.85s CPU      6.64s WALL (     518 calls)
     fftw         :   2757.34s CPU   3193.25s WALL (  386794 calls)
     interpolate  :      0.82s CPU      1.00s WALL (      36 calls)

     Parallel routines
     fft_scatter  :   2035.12s CPU   2383.11s WALL (  387625 calls)

     PWSCF        :     2h59m CPU        2h57m WALL


   This run was terminated on:  14:42:21  10Feb2017            

=------------------------------------------------------------------------------=
   JOB DONE.
=------------------------------------------------------------------------------=
