
     Program PWSCF v.5.1 starts on 13Feb2017 at  6:58:29 

     This program is part of the open-source Quantum ESPRESSO suite
     for quantum simulation of materials; please cite
         "P. Giannozzi et al., J. Phys.:Condens. Matter 21 395502 (2009);
          URL http://www.quantum-espresso.org", 
     in publications or presentations arising from this work. More details at
     http://www.quantum-espresso.org/quote

     Parallel version (MPI), running on    16 processors
     R & G space division:  proc/nbgrp/npool/nimage =      16
     Reading input from /tmp/SiGe_zns.scf.in.super.228.c.04.24172/SiGe_zns.scf.in.super.228.c.04.t
Warning: card &IONS ignored
Warning: card   ION_DYNAMICS='BFGS', ignored
Warning: card / ignored
Warning: card &CELL ignored
Warning: card  CELL_DYNAMICS = 'BFGS' ignored
Warning: card / ignored
     Message from routine read_cards :
     DEPRECATED: no units specified in CELL_PARAMETERS card

     Current dimensions of program PWSCF are:
     Max number of different atomic species (ntypx) = 10
     Max number of k-points (npk) =  40000
     Max angular momentum in pseudopotentials (lmaxx) =  3

     Subspace diagonalization in iterative solution of the eigenvalue problem:
     a serial algorithm will be used

     warning: symmetry operation #  3 not compatible with FFT grid. 
  -1   1   0
   0   1   0
   0   4  -1
     warning: symmetry operation #  4 not compatible with FFT grid. 
   1   0   0
   1  -1   0
   4   0  -1
     warning: symmetry operation #  5 not compatible with FFT grid. 
  -1   1   0
  -1   0   0
  -4   0   1
     warning: symmetry operation #  6 not compatible with FFT grid. 
   0  -1   0
   1  -1   0
   0  -4   1
     warning: symmetry operation #  9 not compatible with FFT grid. 
   1  -1   0
   0  -1   0
   0  -4   1
     warning: symmetry operation # 10 not compatible with FFT grid. 
  -1   0   0
  -1   1   0
  -4   0   1
     warning: symmetry operation # 11 not compatible with FFT grid. 
   1  -1   0
   1   0   0
   4   0  -1
     warning: symmetry operation # 12 not compatible with FFT grid. 
   0   1   0
  -1   1   0
   0   4  -1

     Parallelization info
     --------------------
     sticks:   dense  smooth     PW     G-vecs:    dense   smooth      PW
     Min         189     131     36                27389    16001    2346
     Max         192     132     37                27391    16042    2363
     Sum        3037    2107    583               438235   256383   37657



     bravais-lattice index     =            0
     lattice parameter (alat)  =    14.799446477  a.u.
     unit-cell volume          =    9168.1437 (a.u.)^3
     number of atoms/cell      =           64
     number of atomic types    =            2
     number of electrons       =       556.00
     number of Kohn-Sham states=          334
     kinetic-energy cutoff     =      35.0000  Ry
     charge density cutoff     =     200.0000  Ry
     convergence threshold     =      1.0E-09
     mixing beta               =       0.3000
     number of iterations used =            8  local-TF  mixing
     Exchange-correlation      = SLA  PW   PSX  PSC ( 1  4 10  8 0)
     A smooth kinetic-energy cutoff is imposed at      34.5000 Ry
     height of the smooth step-function =             800.0000 Ry
     width of the smooth step-function  =               1.0000 Ry


     celldm(1)=  14.799446  celldm(2)=   0.000000  celldm(3)=   0.000000
     celldm(4)=   0.000000  celldm(5)=   0.000000  celldm(6)=   0.000000

     crystal axes: (cart. coord. in units of alat)
               a(1) = (   0.000000000000   0.707106781187   0.707106781187 )  
               a(2) = (   0.707106781187   0.000000000000   0.707106781187 )  
               a(3) = (   2.828427124746   2.828427124746  -0.000000000000 )  

     reciprocal axes: (cart. coord. in units 2 pi/alat)
               b(1) = ( -0.707107  0.707107  0.707107 )  
               b(2) = (  0.707107 -0.707107  0.707107 )  
               b(3) = (  0.176777  0.176777 -0.176777 )  


     PseudoPot. # 1 for Si read from file:
     /users/kfg/psuedo/gbrv_1.5/si.pbesol.UPF
     MD5 check sum: ef58ba74faed4df802eb8a9742fc00a8
     Pseudo is Ultrasoft + core correction, Zval =  4.0
     Generated by new atomic code, or converted to UPF format
     Using radial grid of  899 points,  6 beta functions with: 
                l(1) =   0
                l(2) =   0
                l(3) =   1
                l(4) =   1
                l(5) =   2
                l(6) =   2
     Q(r) pseudized with  8 coefficients,  rinner =    0.900   0.900   0.900
                                                       0.900   0.900

     PseudoPot. # 2 for Ge read from file:
     /users/kfg/psuedo/gbrv_1.5/ge.pbesol.UPF
     MD5 check sum: 7bed0412183f5e553a4d27ec7023354d
     Pseudo is Ultrasoft + core correction, Zval = 14.0
     Generated by new atomic code, or converted to UPF format
     Using radial grid of  873 points,  6 beta functions with: 
                l(1) =   0
                l(2) =   0
                l(3) =   1
                l(4) =   1
                l(5) =   2
                l(6) =   2
     Q(r) pseudized with  8 coefficients,  rinner =    1.400   1.400   1.400
                                                       1.400   1.400

     atomic species   valence    mass     pseudopotential
        Si             4.00    28.08550     Si( 1.00)
        Ge            14.00    72.64000     Ge( 1.00)

     No symmetry found


                                    s                        frac. trans.

      isym =  1     identity                                     

 cryst.   s( 1) = (     1          0          0      )
                  (     0          1          0      )
                  (     0          0          1      )

 cart.    s( 1) = (  1.0000000  0.0000000  0.0000000 )
                  (  0.0000000  1.0000000  0.0000000 )
                  (  0.0000000  0.0000000  1.0000000 )


     point group C_1 (1)    
     there are  1 classes
     the character table:

       E    
A      1.00

     the symmetry operations in each class:
     E        1

   Cartesian axes

     site n.     atom                  positions (alat units)
         1           Si  tau(   1) = (    0.00019694792    0.00016349864   -0.00019605496  )
         2           Si  tau(   2) = (    0.17702515489    0.17653475291    0.17694061980  )
         3           Ge  tau(   3) = (    0.35358647591    0.35367189533   -0.00031649310  )
         4           Si  tau(   4) = (    0.53040690437    0.53063648867    0.17664231538  )
         5           Si  tau(   5) = (    0.70740502933    0.70680056390    0.00015540005  )
         6           Ge  tau(   6) = (    0.88371691441    0.88401671112    0.17651482912  )
         7           Ge  tau(   7) = (    1.06094234937    1.06045684213    0.00031274492  )
         8           Ge  tau(   8) = (    1.23774877305    1.23759364303    0.17652588029  )
         9           Si  tau(   9) = (    1.41423247682    1.41422542899    0.00013710475  )
        10           Ge  tau(  10) = (    1.59117982103    1.59098249091    0.17690883799  )
        11           Si  tau(  11) = (    1.76769734405    1.76790212701   -0.00016407778  )
        12           Ge  tau(  12) = (    1.94461297172    1.94459144528    0.17669619088  )
        13           Si  tau(  13) = (    2.12161353721    2.12105504298   -0.00027656272  )
        14           Ge  tau(  14) = (    2.29835666353    2.29824063534    0.17679214165  )
        15           Ge  tau(  15) = (    2.47471085021    2.47498128592    0.00003842797  )
        16           Si  tau(  16) = (    2.65166263824    2.65146967647    0.17660336189  )
        17           Si  tau(  17) = (    0.35379863192    0.00015543097    0.35350863562  )
        18           Ge  tau(  18) = (    0.53008443054    0.17686359189    0.53031415337  )
        19           Ge  tau(  19) = (    0.70708225964    0.35350473563    0.35331580826  )
        20           Ge  tau(  20) = (    0.88391151798    0.53042014894    0.53057233965  )
        21           Si  tau(  21) = (    1.06074792458    0.70733236715    0.35364200309  )
        22           Ge  tau(  22) = (    1.23775401880    0.88408496706    0.53014071728  )
        23           Si  tau(  23) = (    1.41408129782    1.06070590772    0.35363115931  )
        24           Ge  tau(  24) = (    1.59071340368    1.23748105115    0.53010637070  )
        25           Si  tau(  25) = (    1.76791614669    1.41397486982    0.35350709115  )
        26           Si  tau(  26) = (    1.94442187135    1.59124450050    0.53044349439  )
        27           Ge  tau(  27) = (    2.12155658999    1.76780369890    0.35328668062  )
        28           Ge  tau(  28) = (    2.29795001880    1.94429208630    0.53020573454  )
        29           Si  tau(  29) = (    2.47461001210    2.12148256606    0.35341943655  )
        30           Ge  tau(  30) = (    2.65159454406    2.29842194428    0.53009916329  )
        31           Si  tau(  31) = (    2.82852115043    2.47509043707    0.35372360739  )
        32           Si  tau(  32) = (    3.00551869711    2.65177748910    0.53026826952  )
        33           Ge  tau(  33) = (    0.00018346842    0.35321989592    0.35325187167  )
        34           Ge  tau(  34) = (    0.17692116720    0.53019441745    0.53048826584  )
        35           Ge  tau(  35) = (    0.35341597959    0.70711685963    0.35357858314  )
        36           Ge  tau(  36) = (    0.53019712475    0.88359308808    0.53057149316  )
        37           Si  tau(  37) = (    0.70712961676    1.06075335195    0.35357479994  )
        38           Si  tau(  38) = (    0.88366698049    1.23760839445    0.53014399691  )
        39           Si  tau(  39) = (    1.06099551732    1.41449603975    0.35364433246  )
        40           Si  tau(  40) = (    1.23735844875    1.59074235582    0.53039423901  )
        41           Ge  tau(  41) = (    1.41410047398    1.76768663944    0.35362221590  )
        42           Si  tau(  42) = (    1.59070692987    1.94444949956    0.53021571413  )
        43           Si  tau(  43) = (    1.76779377396    2.12161131494    0.35334836599  )
        44           Ge  tau(  44) = (    1.94449546731    2.29784901400    0.53030670468  )
        45           Ge  tau(  45) = (    2.12108864941    2.47512804171    0.35341931125  )
        46           Si  tau(  46) = (    2.29806866806    2.65190887669    0.53041582018  )
        47           Ge  tau(  47) = (    2.47480196035    2.82821719633    0.35359048598  )
        48           Si  tau(  48) = (    2.65191800544    3.00523006754    0.53040138286  )
        49           Ge  tau(  49) = (    0.35372518960    0.35334182194    0.70704775768  )
        50           Ge  tau(  50) = (    0.53024644048    0.53028417850    0.88371155038  )
        51           Si  tau(  51) = (    0.70725466427    0.70679807054    0.70738638851  )
        52           Si  tau(  52) = (    0.88373039441    0.88368664698    0.88397364532  )
        53           Si  tau(  53) = (    1.06050501894    1.06037928949    0.70719127666  )
        54           Ge  tau(  54) = (    1.23721366918    1.23776353050    0.88373315417  )
        55           Ge  tau(  55) = (    1.41432714437    1.41451387758    0.70717714851  )
        56           Si  tau(  56) = (    1.59132455720    1.59079926241    0.88419437403  )
        57           Si  tau(  57) = (    1.76761960248    1.76794370232    0.70739518009  )
        58           Ge  tau(  58) = (    1.94477117148    1.94424855576    0.88410662467  )
        59           Si  tau(  59) = (    2.12136446391    2.12115368939    0.70696991444  )
        60           Si  tau(  60) = (    2.29837251762    2.29820934367    0.88362200019  )
        61           Si  tau(  61) = (    2.47512881864    2.47497937947    0.70698088154  )
        62           Si  tau(  62) = (    2.65182435426    2.65147323646    0.88394954299  )
        63           Si  tau(  63) = (    2.82875747021    2.82838583058    0.70738628543  )
        64           Ge  tau(  64) = (    3.00487508603    3.00538650963    0.88398838956  )

   Crystallographic axes

     site n.     atom                  positions (cryst. coord.)
         1           Si  tau(   1) = (   -0.00016228400   -0.00011497958    0.00009837650  )
         2           Si  tau(   2) = (    0.12476914556    0.12546267869    0.03122217406  )
         3           Ge  tau(   3) = (   -0.00016339377   -0.00028419506    0.12508274619  )
         4           Si  tau(   4) = (    0.12506731966    0.12474263843    0.15634149983  )
         5           Si  tau(   5) = (   -0.00031753717    0.00053730603    0.24997112014  )
         6           Ge  tau(   6) = (    0.12502682094    0.12460284436    0.28129040032  )
         7           Ge  tau(   7) = (   -0.00012216141    0.00056444952    0.37495865246  )
         8           Ge  tau(   8) = (    0.12471295352    0.12493234050    0.40637719029  )
         9           Si  tau(   9) = (    0.00009196413    0.00010193127    0.49998120445  )
        10           Ge  tau(  10) = (    0.12495390553    0.12523297246    0.53125877765  )
        11           Si  tau(  11) = (    0.00002878290   -0.00026082393    0.62504059552  )
        12           Ge  tau(  12) = (    0.12492785329    0.12495829627    0.65628493548  )
        13           Si  tau(  13) = (   -0.00059047443    0.00019935568    0.75005382069  )
        14           Ge  tau(  14) = (    0.12492887790    0.12509296654    0.78131854955  )
        15           Ge  tau(  15) = (    0.00021839961   -0.00016405425    0.87498342539  )
        16           Si  tau(  16) = (    0.12474099019    0.12501387935    0.90625084662  )
        17           Si  tau(  17) = (   -0.00009515205    0.50003185897    0.00007874116  )
        18           Ge  tau(  18) = (    0.12522388374    0.62475358428    0.03122475165  )
        19           Ge  tau(  19) = (   -0.00018506099    0.49984906882    0.12502906312  )
        20           Ge  tau(  20) = (    0.12521515514    0.62512744342    0.15622805331  )
        21           Si  tau(  21) = (    0.00016012126    0.49996519574    0.25003972637  )
        22           Ge  tau(  22) = (    0.12478431139    0.62494788095    0.28137515983  )
        23           Si  tau(  23) = (    0.00018085615    0.49992912543    0.37497095606  )
        24           Ge  tau(  24) = (    0.12506881767    0.62461480128    0.40624841701  )
        25           Si  tau(  25) = (   -0.00030701567    0.50024153837    0.49999236336  )
        26           Si  tau(  26) = (    0.12534607803    0.62481430581    0.53125336891  )
        27           Ge  tau(  27) = (   -0.00032966058    0.49995247572    0.62509540680  )
        28           Ge  tau(  28) = (    0.12483814802    0.62498599261    0.65620152241  )
        29           Si  tau(  29) = (    0.00020646847    0.49960409191    0.75000573720  )
        30           Ge  tau(  30) = (    0.12510597283    0.62456745329    0.78133837821  )
        31           Si  tau(  31) = (    0.00020710736    0.50003361554    0.87502483921  )
        32           Si  tau(  32) = (    0.12482348226    0.62508909620    0.90633905181  )
        33           Ge  tau(  33) = (    0.49942124581    0.00015234203    0.00002678037  )
        34           Ge  tau(  34) = (    0.62491376098    0.12530993924    0.03122359372  )
        35           Ge  tau(  35) = (    0.50012210461   -0.00008647696    0.12497303712  )
        36           Ge  tau(  36) = (    0.62505938284    0.12528201860    0.15613248649  )
        37           Si  tau(  37) = (    0.50006487984   -0.00003460244    0.25001672420  )
        38           Si  tau(  38) = (    0.62514278917    0.12459404126    0.28127494679  )
        39           Si  tau(  39) = (    0.50002692217    0.00010168905    0.37509314029  )
        40           Si  tau(  40) = (    0.62492552016    0.12516520605    0.40618097342  )
        41           Ge  tau(  41) = (    0.50007184218    0.00002549151    0.49995364434  )
        42           Si  tau(  42) = (    0.62505289678    0.12478535713    0.53120348921  )
        43           Si  tau(  43) = (    0.50004180824   -0.00033175681    0.62509242186  )
        44           Ge  tau(  44) = (    0.62484215600    0.12512477797    0.65620177097  )
        45           Ge  tau(  45) = (    0.50024884669   -0.00043846352    0.75002769963  )
        46           Si  tau(  46) = (    0.62526343428    0.12485781231    0.78127551633  )
        47           Ge  tau(  47) = (    0.49992854033    0.00012392046    0.87494364401  )
        48           Si  tau(  48) = (    0.62487976956    0.12522105958    0.90628933750  )
        49           Ge  tau(  49) = (    0.49968718221    0.50022934595    0.00000340364  )
        50           Ge  tau(  50) = (    0.62490511469    0.62485174508    0.03125749061  )
        51           Si  tau(  51) = (    0.49987485171    0.50052057275    0.12492214138  )
        52           Si  tau(  52) = (    0.62503282489    0.62509469310    0.15617220404  )
        53           Si  tau(  53) = (    0.49997084317    0.50014865147    0.24990798232  )
        54           Ge  tau(  54) = (    0.62528251674    0.62450489540    0.28129486378  )
        55           Ge  tau(  55) = (    0.50018179753    0.49991771689    0.37506072808  )
        56           Si  tau(  56) = (    0.62484839825    0.62559127727    0.40622037342  )
        57           Si  tau(  57) = (    0.50043310202    0.49997475563    0.49995421483  )
        58           Ge  tau(  58) = (    0.62478824448    0.62552733472    0.53119860793  )
        59           Si  tau(  59) = (    0.49975418050    0.50005226069    0.62500253373  )
        60           Si  tau(  60) = (    0.62469972693    0.62493048975    0.65636477401  )
        61           Si  tau(  61) = (    0.49980530605    0.50001664496    0.75008602475  )
        62           Si  tau(  62) = (    0.62479843830    0.62529499385    0.78123774324  )
        63           Si  tau(  63) = (    0.49993485044    0.50046042826    0.87500168770  )
        64           Ge  tau(  64) = (    0.62543581584    0.62471255366    0.90620563656  )

     number of k points=    10  gaussian smearing, width (Ry)=  0.0150
                       cart. coord. in units 2pi/alat
        k(    1) = (   0.0000000   0.0000000   0.0000000), wk =   0.1250000
        k(    2) = (   0.1767767  -0.1767767   0.1767767), wk =   0.2500000
        k(    3) = (  -0.3535534   0.3535534  -0.3535534), wk =   0.1250000
        k(    4) = (  -0.5303301   0.5303301  -0.1767767), wk =   0.2500000
        k(    5) = (   0.1767767  -0.1767767  -0.1767767), wk =   0.2500000
        k(    6) = (   0.1767767   0.1767767   0.1767767), wk =   0.2500000
        k(    7) = (  -0.3535534   0.3535534   0.3535534), wk =   0.1250000
        k(    8) = (  -0.3535534  -0.3535534  -0.3535534), wk =   0.1250000
        k(    9) = (  -0.5303301   0.5303301   0.1767767), wk =   0.2500000
        k(   10) = (   0.5303301  -0.1767767   0.5303301), wk =   0.2500000

                       cryst. coord.
        k(    1) = (   0.0000000   0.0000000   0.0000000), wk =   0.1250000
        k(    2) = (   0.0000000   0.2500000   0.0000000), wk =   0.2500000
        k(    3) = (   0.0000000  -0.5000000   0.0000000), wk =   0.1250000
        k(    4) = (   0.2500000  -0.5000000   0.0000000), wk =   0.2500000
        k(    5) = (  -0.2500000   0.0000000   0.0000000), wk =   0.2500000
        k(    6) = (   0.2500000   0.2500000   1.0000000), wk =   0.2500000
        k(    7) = (   0.5000000   0.0000000   0.0000000), wk =   0.1250000
        k(    8) = (  -0.5000000  -0.5000000  -2.0000000), wk =   0.1250000
        k(    9) = (   0.5000000  -0.2500000   0.0000000), wk =   0.2500000
        k(   10) = (   0.2500000   0.7500000   1.0000000), wk =   0.2500000

     Dense  grid:   438235 G-vectors     FFT dimensions: (  72,  72, 270)

     Smooth grid:   256383 G-vectors     FFT dimensions: (  60,  60, 225)

     Largest allocated arrays     est. size (Mb)     dimensions
        Kohn-Sham Wavefunctions        10.27 Mb     (    2015,  334)
        NL pseudopotentials            35.42 Mb     (    2015, 1152)
        Each V/rho on FFT grid          1.34 Mb     (   88128)
        Each G-vector array             0.21 Mb     (   27391)
        G-vector shells                 0.04 Mb     (    5735)
     Largest temporary arrays     est. size (Mb)     dimensions
        Auxiliary wavefunctions        41.08 Mb     (    2015, 1336)
        Each subspace H/S matrix       27.24 Mb     (    1336, 1336)
        Each <psi_i|beta_j> matrix      5.87 Mb     (    1152,  334)
        Arrays for rho mixing          10.76 Mb     (   88128,    8)

     Check: negative/imaginary core charge=   -0.000001    0.000000

     Initial potential from superposition of free atoms

     starting charge  555.95372, renormalised to  556.00000
     Starting wfc are  406 randomized atomic wfcs

     total cpu time spent up to now is      166.8 secs

     Self-consistent Calculation

     iteration #  1     ecut=    35.00 Ry     beta=0.30
     Davidson diagonalization with overlap
     ethr =  1.00E-02,  avg # of iterations =  3.0

     Threshold (ethr) on eigenvalues was too large:
     Diagonalizing with lowered threshold

     Davidson diagonalization with overlap
     ethr =  2.53E-04,  avg # of iterations =  5.0

     total cpu time spent up to now is     1145.2 secs

     total energy              =   -6720.78071567 Ry
     Harris-Foulkes estimate   =   -6720.92782860 Ry
     estimated scf accuracy    <       1.41655425 Ry

     iteration #  2     ecut=    35.00 Ry     beta=0.30
     Davidson diagonalization with overlap
     ethr =  2.55E-04,  avg # of iterations =  1.0

     total cpu time spent up to now is     1429.8 secs

     total energy              =   -6720.50130849 Ry
     Harris-Foulkes estimate   =   -6720.78794882 Ry
     estimated scf accuracy    <       0.87317661 Ry

     iteration #  3     ecut=    35.00 Ry     beta=0.30
     Davidson diagonalization with overlap
     ethr =  1.57E-04,  avg # of iterations =  2.0

     total cpu time spent up to now is     1745.4 secs

     total energy              =   -6720.55481813 Ry
     Harris-Foulkes estimate   =   -6720.55411088 Ry
     estimated scf accuracy    <       0.01210470 Ry

     iteration #  4     ecut=    35.00 Ry     beta=0.30
     Davidson diagonalization with overlap
     ethr =  2.18E-06,  avg # of iterations = 10.1

     total cpu time spent up to now is     2810.2 secs

     total energy              =   -6720.55714841 Ry
     Harris-Foulkes estimate   =   -6720.55749201 Ry
     estimated scf accuracy    <       0.00539046 Ry

     iteration #  5     ecut=    35.00 Ry     beta=0.30
     Davidson diagonalization with overlap
     ethr =  9.70E-07,  avg # of iterations =  2.0

     total cpu time spent up to now is     3277.1 secs

     total energy              =   -6720.55756385 Ry
     Harris-Foulkes estimate   =   -6720.55764022 Ry
     estimated scf accuracy    <       0.00043863 Ry

     iteration #  6     ecut=    35.00 Ry     beta=0.30
     Davidson diagonalization with overlap
     ethr =  7.89E-08,  avg # of iterations =  1.9

     total cpu time spent up to now is     3639.2 secs

     total energy              =   -6720.55753846 Ry
     Harris-Foulkes estimate   =   -6720.55758067 Ry
     estimated scf accuracy    <       0.00017314 Ry

     iteration #  7     ecut=    35.00 Ry     beta=0.30
     Davidson diagonalization with overlap
     ethr =  3.11E-08,  avg # of iterations =  2.0

     total cpu time spent up to now is     4044.0 secs

     total energy              =   -6720.55755708 Ry
     Harris-Foulkes estimate   =   -6720.55755483 Ry
     estimated scf accuracy    <       0.00006348 Ry

     iteration #  8     ecut=    35.00 Ry     beta=0.30
     Davidson diagonalization with overlap
     ethr =  1.14E-08,  avg # of iterations =  1.0

     total cpu time spent up to now is     4325.2 secs

     total energy              =   -6720.55755387 Ry
     Harris-Foulkes estimate   =   -6720.55755881 Ry
     estimated scf accuracy    <       0.00004860 Ry

     iteration #  9     ecut=    35.00 Ry     beta=0.30
     Davidson diagonalization with overlap
     ethr =  8.74E-09,  avg # of iterations =  2.4

     total cpu time spent up to now is     4796.4 secs

     total energy              =   -6720.55755508 Ry
     Harris-Foulkes estimate   =   -6720.55756736 Ry
     estimated scf accuracy    <       0.00004404 Ry

     iteration # 10     ecut=    35.00 Ry     beta=0.30
     Davidson diagonalization with overlap
     ethr =  7.92E-09,  avg # of iterations =  1.0

     total cpu time spent up to now is     5074.7 secs

     total energy              =   -6720.55755173 Ry
     Harris-Foulkes estimate   =   -6720.55755702 Ry
     estimated scf accuracy    <       0.00001286 Ry

     iteration # 11     ecut=    35.00 Ry     beta=0.30
     Davidson diagonalization with overlap
     ethr =  2.31E-09,  avg # of iterations =  2.0

     total cpu time spent up to now is     5503.6 secs

     total energy              =   -6720.55755421 Ry
     Harris-Foulkes estimate   =   -6720.55755490 Ry
     estimated scf accuracy    <       0.00000260 Ry

     iteration # 12     ecut=    35.00 Ry     beta=0.30
     Davidson diagonalization with overlap
     ethr =  4.68E-10,  avg # of iterations =  2.0

     total cpu time spent up to now is     5845.4 secs

     total energy              =   -6720.55755431 Ry
     Harris-Foulkes estimate   =   -6720.55755443 Ry
     estimated scf accuracy    <       0.00000060 Ry

     iteration # 13     ecut=    35.00 Ry     beta=0.30
     Davidson diagonalization with overlap
     ethr =  1.07E-10,  avg # of iterations =  2.3

     total cpu time spent up to now is     6270.0 secs

     total energy              =   -6720.55755439 Ry
     Harris-Foulkes estimate   =   -6720.55755438 Ry
     estimated scf accuracy    <       0.00000011 Ry

     iteration # 14     ecut=    35.00 Ry     beta=0.30
     Davidson diagonalization with overlap
     ethr =  2.02E-11,  avg # of iterations =  1.4

     total cpu time spent up to now is     6639.9 secs

     total energy              =   -6720.55755439 Ry
     Harris-Foulkes estimate   =   -6720.55755439 Ry
     estimated scf accuracy    <       0.00000006 Ry

     iteration # 15     ecut=    35.00 Ry     beta=0.30
     Davidson diagonalization with overlap
     ethr =  1.15E-11,  avg # of iterations =  2.4

     total cpu time spent up to now is     7080.3 secs

     total energy              =   -6720.55755440 Ry
     Harris-Foulkes estimate   =   -6720.55755440 Ry
     estimated scf accuracy    <       0.00000001 Ry

     iteration # 16     ecut=    35.00 Ry     beta=0.30
     Davidson diagonalization with overlap
     ethr =  1.85E-12,  avg # of iterations =  2.0

     total cpu time spent up to now is     7453.1 secs

     total energy              =   -6720.55755440 Ry
     Harris-Foulkes estimate   =   -6720.55755440 Ry
     estimated scf accuracy    <          5.0E-09 Ry

     iteration # 17     ecut=    35.00 Ry     beta=0.30
     Davidson diagonalization with overlap
     ethr =  8.99E-13,  avg # of iterations =  2.4

     total cpu time spent up to now is     7817.5 secs

     total energy              =   -6720.55755440 Ry
     Harris-Foulkes estimate   =   -6720.55755440 Ry
     estimated scf accuracy    <          1.5E-09 Ry

     iteration # 18     ecut=    35.00 Ry     beta=0.30
     Davidson diagonalization with overlap
     ethr =  2.75E-13,  avg # of iterations =  2.0

     total cpu time spent up to now is     8149.7 secs

     End of self-consistent calculation

          k = 0.0000 0.0000 0.0000 ( 32017 PWs)   bands (ev):

   -17.4253 -17.4153 -17.4121 -17.3861 -17.3769 -17.3698 -17.3642 -17.3620
   -17.3564 -17.3442 -17.3423 -17.3406 -17.3394 -17.3322 -17.3290 -17.3255
   -17.3229 -17.3140 -17.3099 -17.3066 -17.3037 -17.3003 -17.2986 -17.2968
   -17.2913 -17.2886 -17.2620 -17.2539 -17.2517 -17.2434 -17.2418 -17.2393
   -17.2372 -17.2355 -17.2337 -17.2312 -17.2277 -17.2275 -17.2272 -17.2261
   -17.2254 -17.2248 -17.2229 -17.2228 -17.2207 -17.2203 -17.2196 -17.2185
   -17.2161 -17.2156 -17.2120 -17.2081 -17.2029 -17.1969 -17.1912 -17.1879
   -17.1861 -17.1811 -17.1743 -17.1677 -17.1651 -17.1640 -17.1593 -17.1580
   -17.1556 -17.1546 -17.1533 -17.1515 -17.1477 -17.1463 -17.1462 -17.1453
   -17.1452 -17.1451 -17.1441 -17.1437 -17.1433 -17.1403 -17.1390 -17.1386
   -17.1376 -17.1368 -17.1361 -17.1353 -17.1348 -17.1343 -17.1337 -17.1314
   -17.1301 -17.1288 -17.1281 -17.1279 -17.1250 -17.1249 -17.1239 -17.1231
   -17.1226 -17.1220 -17.1206 -17.1206 -17.1203 -17.1144 -17.1135 -17.1126
   -17.1121 -17.1112 -17.1107 -17.1089 -17.1085 -17.1073 -17.1073 -17.1037
   -17.1028 -17.1018 -17.1004 -17.0996 -17.0981 -17.0981 -17.0969 -17.0963
   -17.0960 -17.0959 -17.0947 -17.0915 -17.0911 -17.0883 -17.0880 -17.0877
   -17.0871 -17.0843 -17.0822 -17.0754 -17.0729 -17.0669 -17.0665 -17.0615
   -17.0601 -17.0566 -17.0473 -17.0453 -17.0415 -17.0371 -17.0343 -17.0318
   -17.0315 -17.0249 -17.0223 -17.0191 -17.0165 -17.0128  -5.2300  -5.0319
    -4.9643  -4.4613  -4.3965  -3.7044  -3.5334  -3.2471  -3.2074  -3.1132
    -3.0960  -3.0152  -2.9498  -2.8518  -2.7908  -2.6998  -2.6702  -2.6231
    -2.5429  -2.5027  -2.4060  -2.3559  -2.3161  -2.0988  -1.9302  -1.8706
    -1.8400  -1.8282  -1.7079  -1.2072  -1.1520  -1.1248  -1.0871  -0.9858
    -0.8381  -0.3571  -0.2889  -0.2398  -0.1902  -0.1000  -0.0903  -0.0190
     0.0187   0.0708   0.0969   0.1256   0.1689   0.1931   0.2117   0.2719
     0.2839   0.3220   0.4219   0.4612   0.5164   0.5890   0.6090   0.9838
     1.0351   2.9527   3.0103   3.5592   3.5647   3.5751   3.5824   3.5845
     3.6083   3.7050   3.7067   3.7119   3.7171   3.7197   3.7264   4.2586
     4.2626   4.2634   4.2640   4.2652   4.2686   4.4271   4.4353   4.4381
     4.4406   4.4428   4.4461   4.7117   4.7415   4.7660   4.7825   4.8002
     4.8056   4.9083   4.9212   4.9268   4.9302   4.9383   4.9495   5.3459
     5.3967   5.5526   5.5642   5.5807   5.5853   5.5945   5.5960   5.9175
     5.9240   5.9293   5.9327   5.9502   5.9539   5.9565   5.9639   6.0529
     6.0575   6.0800   6.0822   6.4097   6.4150   6.4367   6.4391   6.9261
     6.9320   6.9465   6.9480   7.2511   7.2529   7.2564   7.7899   7.8117
     7.8240   7.8547   7.8597   7.9240   7.9527   7.9904   8.0002   8.0298
     8.0589   8.0825   8.1033   8.1237   8.1909   8.2031   8.2365   8.2667
     8.5373   8.5709   8.6210   8.6396   8.6597   8.6969   8.7080   8.7363
     8.8868   8.9159   8.9611   9.0017   9.0576   9.1193   9.1357   9.1719
     9.1741   9.1961   9.1993   9.2277   9.2415   9.2543   9.2981   9.7541
     9.7596   9.7715  10.1757  10.1851  10.2056  10.2145  10.5823  10.5976
    10.6230  10.6382  10.6633  10.6727  10.6808  10.6850

     occupation numbers 
     1.0000   1.0000   1.0000   1.0000   1.0000   1.0000   1.0000   1.0000
     1.0000   1.0000   1.0000   1.0000   1.0000   1.0000   1.0000   1.0000
     1.0000   1.0000   1.0000   1.0000   1.0000   1.0000   1.0000   1.0000
     1.0000   1.0000   1.0000   1.0000   1.0000   1.0000   1.0000   1.0000
     1.0000   1.0000   1.0000   1.0000   1.0000   1.0000   1.0000   1.0000
     1.0000   1.0000   1.0000   1.0000   1.0000   1.0000   1.0000   1.0000
     1.0000   1.0000   1.0000   1.0000   1.0000   1.0000   1.0000   1.0000
     1.0000   1.0000   1.0000   1.0000   1.0000   1.0000   1.0000   1.0000
     1.0000   1.0000   1.0000   1.0000   1.0000   1.0000   1.0000   1.0000
     1.0000   1.0000   1.0000   1.0000   1.0000   1.0000   1.0000   1.0000
     1.0000   1.0000   1.0000   1.0000   1.0000   1.0000   1.0000   1.0000
     1.0000   1.0000   1.0000   1.0000   1.0000   1.0000   1.0000   1.0000
     1.0000   1.0000   1.0000   1.0000   1.0000   1.0000   1.0000   1.0000
     1.0000   1.0000   1.0000   1.0000   1.0000   1.0000   1.0000   1.0000
     1.0000   1.0000   1.0000   1.0000   1.0000   1.0000   1.0000   1.0000
     1.0000   1.0000   1.0000   1.0000   1.0000   1.0000   1.0000   1.0000
     1.0000   1.0000   1.0000   1.0000   1.0000   1.0000   1.0000   1.0000
     1.0000   1.0000   1.0000   1.0000   1.0000   1.0000   1.0000   1.0000
     1.0000   1.0000   1.0000   1.0000   1.0000   1.0000   1.0000   1.0000
     1.0000   1.0000   1.0000   1.0000   1.0000   1.0000   1.0000   1.0000
     1.0000   1.0000   1.0000   1.0000   1.0000   1.0000   1.0000   1.0000
     1.0000   1.0000   1.0000   1.0000   1.0000   1.0000   1.0000   1.0000
     1.0000   1.0000   1.0000   1.0000   1.0000   1.0000   1.0000   1.0000
     1.0000   1.0000   1.0000   1.0000   1.0000   1.0000   1.0000   1.0000
     1.0000   1.0000   1.0000   1.0000   1.0000   1.0000   1.0000   1.0000
     1.0000   1.0000   1.0000   1.0000   1.0000   1.0000   1.0000   1.0000
     1.0000   1.0000   1.0000   1.0000   1.0000   1.0000   1.0000   1.0000
     1.0000   1.0000   1.0000   1.0000   1.0000   1.0000   1.0000   1.0000
     1.0000   1.0000   1.0000   1.0000   1.0000   1.0000   1.0000   1.0000
     1.0000   1.0000   1.0000   1.0000   1.0000   1.0000   1.0000   1.0000
     1.0000   1.0000   1.0000   1.0000   1.0000   1.0000   1.0000   1.0000
     1.0000   1.0000   1.0000   1.0000   1.0000   1.0000   1.0000   1.0000
     1.0000   1.0000   1.0000   1.0000   1.0000   1.0000   1.0000   1.0000
     1.0000   1.0000   1.0000   1.0000   1.0000   1.0000   1.0000   0.9999
     0.9999   0.9999   0.9999   0.9352   0.9336   0.9304   0.0133   0.0089
     0.0071   0.0038   0.0035   0.0008   0.0004   0.0002   0.0001   0.0001
     0.0000   0.0000   0.0000   0.0000   0.0000   0.0000   0.0000   0.0000
     0.0000   0.0000   0.0000   0.0000   0.0000   0.0000   0.0000   0.0000
     0.0000   0.0000   0.0000   0.0000   0.0000   0.0000   0.0000   0.0000
     0.0000   0.0000   0.0000   0.0000   0.0000   0.0000   0.0000   0.0000
     0.0000   0.0000   0.0000   0.0000   0.0000   0.0000   0.0000   0.0000
     0.0000   0.0000   0.0000   0.0000   0.0000   0.0000

          k = 0.1768-0.1768 0.1768 ( 32087 PWs)   bands (ev):

   -17.4274 -17.4162 -17.4145 -17.3869 -17.3777 -17.3724 -17.3642 -17.3620
   -17.3536 -17.3445 -17.3442 -17.3404 -17.3395 -17.3313 -17.3289 -17.3238
   -17.3184 -17.3130 -17.3094 -17.3059 -17.3034 -17.2983 -17.2967 -17.2953
   -17.2913 -17.2863 -17.2616 -17.2535 -17.2498 -17.2444 -17.2413 -17.2392
   -17.2360 -17.2341 -17.2335 -17.2311 -17.2276 -17.2275 -17.2272 -17.2262
   -17.2244 -17.2244 -17.2229 -17.2228 -17.2206 -17.2194 -17.2193 -17.2183
   -17.2160 -17.2156 -17.2126 -17.2087 -17.2026 -17.1984 -17.1921 -17.1877
   -17.1861 -17.1831 -17.1747 -17.1720 -17.1668 -17.1661 -17.1583 -17.1572
   -17.1555 -17.1551 -17.1528 -17.1499 -17.1483 -17.1477 -17.1471 -17.1457
   -17.1450 -17.1446 -17.1437 -17.1431 -17.1427 -17.1395 -17.1391 -17.1385
   -17.1376 -17.1362 -17.1361 -17.1350 -17.1347 -17.1342 -17.1335 -17.1315
   -17.1307 -17.1289 -17.1283 -17.1275 -17.1252 -17.1250 -17.1239 -17.1233
   -17.1232 -17.1220 -17.1210 -17.1202 -17.1198 -17.1161 -17.1146 -17.1135
   -17.1126 -17.1121 -17.1107 -17.1093 -17.1082 -17.1076 -17.1068 -17.1042
   -17.1033 -17.1027 -17.1003 -17.1001 -17.0980 -17.0968 -17.0965 -17.0963
   -17.0961 -17.0960 -17.0946 -17.0926 -17.0914 -17.0881 -17.0879 -17.0877
   -17.0871 -17.0843 -17.0791 -17.0753 -17.0708 -17.0668 -17.0662 -17.0600
   -17.0596 -17.0561 -17.0466 -17.0449 -17.0414 -17.0368 -17.0338 -17.0315
   -17.0272 -17.0248 -17.0228 -17.0194 -17.0174 -17.0136  -5.0488  -4.9223
    -4.6924  -4.4791  -4.0252  -3.8102  -3.7385  -3.5828  -3.5118  -3.3217
    -3.2441  -3.1403  -3.1010  -3.0672  -3.0025  -2.9329  -2.8364  -2.7472
    -2.6470  -2.5595  -2.4705  -2.3602  -2.3126  -2.2549  -2.0055  -1.9389
    -1.8418  -1.7426  -1.6720  -1.5258  -1.1388  -1.0218  -0.9417  -0.9176
    -0.4671  -0.3054  -0.2577  -0.1754  -0.1269  -0.0248   0.0282   0.0820
     0.1072   0.1807   0.2400   0.2897   0.4567   0.5079   0.5749   0.6158
     0.7441   0.7944   0.9509   0.9883   1.0294   1.1127   1.5931   1.6358
     1.8435   2.2517   2.8801   3.0981   3.1037   3.1338   3.6053   3.6184
     3.6449   3.7109   3.7120   3.7165   3.7317   3.7327   3.7350   3.7404
     3.7724   3.7741   3.7876   3.7892   4.1799   4.1941   4.1963   4.3955
     4.3969   4.4337   4.4388   4.4421   4.4583   4.5194   4.5219   4.5891
     4.5948   4.6088   4.6178   4.7015   4.7563   4.7700   4.7783   4.8024
     4.9330   4.9925   4.9936   5.2010   5.2156   5.2277   5.2417   5.2513
     5.3756   5.5107   5.5403   5.5568   5.5667   5.5777   5.5863   5.5936
     5.8490   5.8562   5.8773   5.8853   5.8895   5.8956   6.0655   6.0676
     6.3838   6.4046   6.4159   6.9095   6.9392   6.9431   7.7468   8.0214
     8.0611   8.0801   8.2010   8.3500   8.4713   8.7143   8.8562   8.9437
     8.9611   8.9797   8.9940   9.0262   9.0460   9.0711   9.0870   9.1093
     9.1177   9.1347   9.1535   9.1758   9.1879   9.2008   9.2156   9.2521
     9.2666   9.2967   9.3169   9.3450   9.4626   9.5512   9.5597   9.6963
     9.8053   9.8186   9.9117   9.9624  10.0134  10.0277  10.0801  10.1913
    10.2208  10.3325  10.3817  10.4113  10.4264  10.5041  10.5338  10.6164
    10.6342  10.6555  10.6772  10.6970  10.7100  10.7278

     occupation numbers 
     1.0000   1.0000   1.0000   1.0000   1.0000   1.0000   1.0000   1.0000
     1.0000   1.0000   1.0000   1.0000   1.0000   1.0000   1.0000   1.0000
     1.0000   1.0000   1.0000   1.0000   1.0000   1.0000   1.0000   1.0000
     1.0000   1.0000   1.0000   1.0000   1.0000   1.0000   1.0000   1.0000
     1.0000   1.0000   1.0000   1.0000   1.0000   1.0000   1.0000   1.0000
     1.0000   1.0000   1.0000   1.0000   1.0000   1.0000   1.0000   1.0000
     1.0000   1.0000   1.0000   1.0000   1.0000   1.0000   1.0000   1.0000
     1.0000   1.0000   1.0000   1.0000   1.0000   1.0000   1.0000   1.0000
     1.0000   1.0000   1.0000   1.0000   1.0000   1.0000   1.0000   1.0000
     1.0000   1.0000   1.0000   1.0000   1.0000   1.0000   1.0000   1.0000
     1.0000   1.0000   1.0000   1.0000   1.0000   1.0000   1.0000   1.0000
     1.0000   1.0000   1.0000   1.0000   1.0000   1.0000   1.0000   1.0000
     1.0000   1.0000   1.0000   1.0000   1.0000   1.0000   1.0000   1.0000
     1.0000   1.0000   1.0000   1.0000   1.0000   1.0000   1.0000   1.0000
     1.0000   1.0000   1.0000   1.0000   1.0000   1.0000   1.0000   1.0000
     1.0000   1.0000   1.0000   1.0000   1.0000   1.0000   1.0000   1.0000
     1.0000   1.0000   1.0000   1.0000   1.0000   1.0000   1.0000   1.0000
     1.0000   1.0000   1.0000   1.0000   1.0000   1.0000   1.0000   1.0000
     1.0000   1.0000   1.0000   1.0000   1.0000   1.0000   1.0000   1.0000
     1.0000   1.0000   1.0000   1.0000   1.0000   1.0000   1.0000   1.0000
     1.0000   1.0000   1.0000   1.0000   1.0000   1.0000   1.0000   1.0000
     1.0000   1.0000   1.0000   1.0000   1.0000   1.0000   1.0000   1.0000
     1.0000   1.0000   1.0000   1.0000   1.0000   1.0000   1.0000   1.0000
     1.0000   1.0000   1.0000   1.0000   1.0000   1.0000   1.0000   1.0000
     1.0000   1.0000   1.0000   1.0000   1.0000   1.0000   1.0000   1.0000
     1.0000   1.0000   1.0000   1.0000   1.0000   1.0000   1.0000   1.0000
     1.0000   1.0000   1.0000   1.0000   1.0000   1.0000   1.0000   1.0000
     1.0000   1.0000   1.0000   1.0000   1.0000   1.0000   1.0000   1.0000
     1.0000   1.0000   1.0000   1.0000   1.0000   1.0000   1.0000   1.0000
     1.0000   1.0000   1.0000   1.0000   1.0000   1.0000   1.0000   1.0000
     1.0000   1.0000   1.0000   1.0000   1.0000   1.0000   1.0000   1.0000
     1.0000   1.0000   1.0000   1.0000   1.0000   1.0000   1.0000   1.0000
     1.0000   1.0000   1.0000   1.0000   1.0000   1.0000   1.0000   1.0000
     1.0000   1.0000   1.0000   1.0000   1.0000   1.0000   1.0000   1.0000
     1.0000   1.0000   1.0000   0.9999   0.9999   0.9999   0.0275   0.0001
     0.0000   0.0000   0.0000   0.0000   0.0000   0.0000   0.0000   0.0000
     0.0000   0.0000   0.0000   0.0000   0.0000   0.0000   0.0000   0.0000
     0.0000   0.0000   0.0000   0.0000   0.0000   0.0000   0.0000   0.0000
     0.0000   0.0000   0.0000   0.0000   0.0000   0.0000   0.0000   0.0000
     0.0000   0.0000   0.0000   0.0000   0.0000   0.0000   0.0000   0.0000
     0.0000   0.0000   0.0000   0.0000   0.0000   0.0000   0.0000   0.0000
     0.0000   0.0000   0.0000   0.0000   0.0000   0.0000

          k =-0.3536 0.3536-0.3536 ( 32056 PWs)   bands (ev):

   -17.4295 -17.4185 -17.4150 -17.3875 -17.3785 -17.3742 -17.3642 -17.3619
   -17.3492 -17.3483 -17.3449 -17.3406 -17.3392 -17.3311 -17.3288 -17.3220
   -17.3147 -17.3123 -17.3088 -17.3056 -17.3032 -17.2981 -17.2964 -17.2912
   -17.2903 -17.2816 -17.2611 -17.2530 -17.2482 -17.2459 -17.2411 -17.2392
   -17.2349 -17.2335 -17.2316 -17.2312 -17.2276 -17.2275 -17.2271 -17.2263
   -17.2233 -17.2229 -17.2227 -17.2220 -17.2205 -17.2190 -17.2181 -17.2174
   -17.2160 -17.2157 -17.2131 -17.2109 -17.2027 -17.1985 -17.1969 -17.1865
   -17.1860 -17.1850 -17.1771 -17.1745 -17.1670 -17.1666 -17.1591 -17.1566
   -17.1556 -17.1555 -17.1524 -17.1501 -17.1494 -17.1482 -17.1471 -17.1455
   -17.1448 -17.1447 -17.1435 -17.1423 -17.1420 -17.1397 -17.1394 -17.1380
   -17.1363 -17.1359 -17.1355 -17.1354 -17.1346 -17.1332 -17.1330 -17.1316
   -17.1305 -17.1290 -17.1285 -17.1278 -17.1269 -17.1254 -17.1254 -17.1239
   -17.1233 -17.1226 -17.1219 -17.1208 -17.1202 -17.1179 -17.1140 -17.1134
   -17.1127 -17.1121 -17.1105 -17.1095 -17.1078 -17.1076 -17.1062 -17.1055
   -17.1030 -17.1027 -17.1003 -17.0989 -17.0978 -17.0965 -17.0963 -17.0961
   -17.0961 -17.0953 -17.0944 -17.0932 -17.0918 -17.0880 -17.0879 -17.0878
   -17.0870 -17.0843 -17.0782 -17.0747 -17.0695 -17.0661 -17.0658 -17.0592
   -17.0591 -17.0556 -17.0454 -17.0444 -17.0413 -17.0369 -17.0319 -17.0315
   -17.0248 -17.0240 -17.0231 -17.0194 -17.0184 -17.0142  -4.5916  -4.5340
    -4.4515  -4.4032  -4.2135  -4.1273  -4.0131  -3.9457  -3.5892  -3.4921
    -3.3980  -3.2975  -3.1958  -3.1807  -3.1134  -3.0354  -2.8588  -2.8279
    -2.6839  -2.6188  -2.4868  -2.4623  -2.3967  -2.2917  -2.2811  -2.2194
    -1.8614  -1.7485  -1.6945  -1.6357  -1.0785  -0.9586  -0.8858  -0.8608
    -0.2988  -0.2318  -0.1623  -0.1406   0.1108   0.1571   0.2750   0.3589
     0.3781   0.4599   0.4929   0.5356   0.9169   0.9590   1.0070   1.0360
     1.2699   1.2845   1.3389   1.4244   1.8179   1.8740   2.2411   2.2595
     2.9456   2.9995   3.0884   3.1004   3.1025   3.1061   3.1339   3.1393
     3.1914   3.2366   3.3185   3.3188   3.3279   3.3370   3.3902   3.3930
     3.4033   3.4058   3.5518   3.5658   3.5702   3.5783   3.5976   3.6092
     3.6338   3.6723   3.7792   3.7828   3.7968   3.7986   4.1886   4.1933
     4.1995   4.2005   4.4586   4.4599   4.7920   4.7959   4.9099   4.9167
     4.9180   4.9228   4.9317   4.9400   4.9460   4.9529   5.2089   5.2093
     5.2155   5.2286   5.2515   5.2549   5.2691   5.2738   5.2756   5.2803
     5.8127   5.8167   5.8278   5.8303   5.8536   5.8613   5.8719   5.8727
     6.3893   6.3975   6.4111   6.4167   6.4409   6.4423   8.2035   8.2493
     8.4539   8.4814   8.5599   8.5845   8.6075   8.6159   8.6404   8.6617
     8.7016   8.7359   8.9238   8.9516   9.2252   9.2561   9.3566   9.3956
     9.4192   9.4433   9.4831   9.4970   9.5287   9.5629   9.5818   9.6006
     9.9189   9.9418   9.9534   9.9611  10.0552  10.0672  10.2054  10.2231
    10.3868  10.4086  10.6461  10.6619  10.6796  10.7076  10.7460  10.7667
    10.7974  10.8019  10.9064  10.9411  11.0925  11.1041  11.4308  11.4527
    11.4776  11.4834  11.5516  11.5663  11.5893  11.5950

     occupation numbers 
     1.0000   1.0000   1.0000   1.0000   1.0000   1.0000   1.0000   1.0000
     1.0000   1.0000   1.0000   1.0000   1.0000   1.0000   1.0000   1.0000
     1.0000   1.0000   1.0000   1.0000   1.0000   1.0000   1.0000   1.0000
     1.0000   1.0000   1.0000   1.0000   1.0000   1.0000   1.0000   1.0000
     1.0000   1.0000   1.0000   1.0000   1.0000   1.0000   1.0000   1.0000
     1.0000   1.0000   1.0000   1.0000   1.0000   1.0000   1.0000   1.0000
     1.0000   1.0000   1.0000   1.0000   1.0000   1.0000   1.0000   1.0000
     1.0000   1.0000   1.0000   1.0000   1.0000   1.0000   1.0000   1.0000
     1.0000   1.0000   1.0000   1.0000   1.0000   1.0000   1.0000   1.0000
     1.0000   1.0000   1.0000   1.0000   1.0000   1.0000   1.0000   1.0000
     1.0000   1.0000   1.0000   1.0000   1.0000   1.0000   1.0000   1.0000
     1.0000   1.0000   1.0000   1.0000   1.0000   1.0000   1.0000   1.0000
     1.0000   1.0000   1.0000   1.0000   1.0000   1.0000   1.0000   1.0000
     1.0000   1.0000   1.0000   1.0000   1.0000   1.0000   1.0000   1.0000
     1.0000   1.0000   1.0000   1.0000   1.0000   1.0000   1.0000   1.0000
     1.0000   1.0000   1.0000   1.0000   1.0000   1.0000   1.0000   1.0000
     1.0000   1.0000   1.0000   1.0000   1.0000   1.0000   1.0000   1.0000
     1.0000   1.0000   1.0000   1.0000   1.0000   1.0000   1.0000   1.0000
     1.0000   1.0000   1.0000   1.0000   1.0000   1.0000   1.0000   1.0000
     1.0000   1.0000   1.0000   1.0000   1.0000   1.0000   1.0000   1.0000
     1.0000   1.0000   1.0000   1.0000   1.0000   1.0000   1.0000   1.0000
     1.0000   1.0000   1.0000   1.0000   1.0000   1.0000   1.0000   1.0000
     1.0000   1.0000   1.0000   1.0000   1.0000   1.0000   1.0000   1.0000
     1.0000   1.0000   1.0000   1.0000   1.0000   1.0000   1.0000   1.0000
     1.0000   1.0000   1.0000   1.0000   1.0000   1.0000   1.0000   1.0000
     1.0000   1.0000   1.0000   1.0000   1.0000   1.0000   1.0000   1.0000
     1.0000   1.0000   1.0000   1.0000   1.0000   1.0000   1.0000   1.0000
     1.0000   1.0000   1.0000   1.0000   1.0000   1.0000   1.0000   1.0000
     1.0000   1.0000   1.0000   1.0000   1.0000   1.0000   1.0000   1.0000
     1.0000   1.0000   1.0000   1.0000   1.0000   1.0000   1.0000   1.0000
     1.0000   1.0000   1.0000   1.0000   1.0000   1.0000   1.0000   1.0000
     1.0000   1.0000   1.0000   1.0000   1.0000   1.0000   1.0000   1.0000
     1.0000   1.0000   1.0000   1.0000   1.0000   1.0000   1.0000   1.0000
     1.0000   1.0000   1.0000   1.0000   1.0000   1.0000   1.0000   1.0000
     1.0000   1.0000   1.0000   1.0000   1.0000   1.0000   0.0000   0.0000
     0.0000   0.0000   0.0000   0.0000   0.0000   0.0000   0.0000   0.0000
     0.0000   0.0000   0.0000   0.0000   0.0000   0.0000   0.0000   0.0000
     0.0000   0.0000   0.0000   0.0000   0.0000   0.0000   0.0000   0.0000
     0.0000   0.0000   0.0000   0.0000   0.0000   0.0000   0.0000   0.0000
     0.0000   0.0000   0.0000   0.0000   0.0000   0.0000   0.0000   0.0000
     0.0000   0.0000   0.0000   0.0000   0.0000   0.0000   0.0000   0.0000
     0.0000   0.0000   0.0000   0.0000   0.0000   0.0000

          k =-0.5303 0.5303-0.1768 ( 32066 PWs)   bands (ev):

   -17.4292 -17.4188 -17.4150 -17.3880 -17.3780 -17.3723 -17.3642 -17.3620
   -17.3570 -17.3449 -17.3409 -17.3404 -17.3394 -17.3311 -17.3288 -17.3242
   -17.3137 -17.3127 -17.3093 -17.3054 -17.3032 -17.2984 -17.2965 -17.2912
   -17.2907 -17.2814 -17.2611 -17.2534 -17.2484 -17.2459 -17.2411 -17.2392
   -17.2348 -17.2335 -17.2311 -17.2309 -17.2276 -17.2275 -17.2271 -17.2263
   -17.2233 -17.2229 -17.2227 -17.2226 -17.2205 -17.2192 -17.2191 -17.2168
   -17.2160 -17.2156 -17.2126 -17.2113 -17.2020 -17.1986 -17.1969 -17.1882
   -17.1861 -17.1850 -17.1772 -17.1743 -17.1679 -17.1670 -17.1572 -17.1560
   -17.1555 -17.1554 -17.1526 -17.1501 -17.1497 -17.1479 -17.1467 -17.1457
   -17.1446 -17.1444 -17.1434 -17.1427 -17.1422 -17.1398 -17.1390 -17.1377
   -17.1369 -17.1359 -17.1356 -17.1353 -17.1346 -17.1333 -17.1331 -17.1315
   -17.1310 -17.1292 -17.1291 -17.1281 -17.1269 -17.1255 -17.1238 -17.1234
   -17.1233 -17.1221 -17.1219 -17.1208 -17.1202 -17.1181 -17.1147 -17.1136
   -17.1127 -17.1122 -17.1106 -17.1098 -17.1079 -17.1076 -17.1067 -17.1043
   -17.1033 -17.1027 -17.1004 -17.0989 -17.0978 -17.0968 -17.0964 -17.0963
   -17.0961 -17.0961 -17.0944 -17.0927 -17.0918 -17.0881 -17.0879 -17.0877
   -17.0871 -17.0843 -17.0793 -17.0750 -17.0702 -17.0685 -17.0660 -17.0591
   -17.0560 -17.0551 -17.0452 -17.0450 -17.0414 -17.0384 -17.0327 -17.0315
   -17.0248 -17.0233 -17.0232 -17.0192 -17.0175 -17.0141  -4.7322  -4.5396
    -4.4920  -4.1641  -4.0471  -4.0039  -3.9431  -3.8923  -3.7783  -3.7099
    -3.6162  -3.4614  -3.3755  -3.1376  -3.0669  -2.9918  -2.8965  -2.8032
    -2.6077  -2.4760  -2.4127  -2.3303  -2.2632  -2.1437  -2.0822  -2.0223
    -1.9827  -1.8391  -1.7849  -1.6531  -1.5787  -1.4587  -0.5153  -0.3717
    -0.2953  -0.2220  -0.1136  -0.0083   0.0470   0.0782   0.1147   0.1862
     0.2334   0.3066   0.3549   0.7030   0.8120   0.9181   0.9665   1.0460
     1.1030   1.5240   1.6444   1.7470   1.8944   2.1864   2.2793   2.4498
     2.4805   2.5068   2.6117   2.8787   2.9336   2.9385   2.9406   2.9503
     3.0925   3.0984   3.1051   3.1080   3.1253   3.1455   3.5882   3.6215
     3.6433   3.6680   3.7600   3.7734   3.7825   3.7858   3.7917   3.8023
     4.1807   4.1894   4.1936   4.1989   4.2019   4.3935   4.3961   4.4178
     4.4245   4.4349   4.4478   4.4596   4.4664   4.5646   4.5672   4.5702
     4.5757   4.7017   4.7889   4.8010   4.9279   4.9394   4.9918   4.9973
     5.2042   5.2086   5.2148   5.2203   5.2283   5.2415   5.2536   5.2588
     5.5444   5.5510   5.5838   5.6914   5.7138   5.7251   5.7353   5.8553
     5.8628   5.8663   5.8726   6.3955   6.4027   6.9169   8.3426   8.4638
     8.4939   8.9096   8.9217   9.0516   9.0679   9.1717   9.1998   9.2346
     9.2733   9.3926   9.4243   9.4911   9.5186   9.5347   9.5398   9.5594
     9.5900   9.6174   9.6238   9.6924   9.7640   9.8135   9.8648   9.8895
     9.9213   9.9502   9.9646   9.9713   9.9933  10.0300  10.0461  10.0849
    10.1026  10.1299  10.3222  10.3922  10.4005  10.4307  10.4396  10.5046
    10.5754  10.5854  10.6097  10.6339  10.6617  10.6908  10.7171  10.7382
    10.7627  10.7897  10.9193  10.9309  11.0711  11.1396

     occupation numbers 
     1.0000   1.0000   1.0000   1.0000   1.0000   1.0000   1.0000   1.0000
     1.0000   1.0000   1.0000   1.0000   1.0000   1.0000   1.0000   1.0000
     1.0000   1.0000   1.0000   1.0000   1.0000   1.0000   1.0000   1.0000
     1.0000   1.0000   1.0000   1.0000   1.0000   1.0000   1.0000   1.0000
     1.0000   1.0000   1.0000   1.0000   1.0000   1.0000   1.0000   1.0000
     1.0000   1.0000   1.0000   1.0000   1.0000   1.0000   1.0000   1.0000
     1.0000   1.0000   1.0000   1.0000   1.0000   1.0000   1.0000   1.0000
     1.0000   1.0000   1.0000   1.0000   1.0000   1.0000   1.0000   1.0000
     1.0000   1.0000   1.0000   1.0000   1.0000   1.0000   1.0000   1.0000
     1.0000   1.0000   1.0000   1.0000   1.0000   1.0000   1.0000   1.0000
     1.0000   1.0000   1.0000   1.0000   1.0000   1.0000   1.0000   1.0000
     1.0000   1.0000   1.0000   1.0000   1.0000   1.0000   1.0000   1.0000
     1.0000   1.0000   1.0000   1.0000   1.0000   1.0000   1.0000   1.0000
     1.0000   1.0000   1.0000   1.0000   1.0000   1.0000   1.0000   1.0000
     1.0000   1.0000   1.0000   1.0000   1.0000   1.0000   1.0000   1.0000
     1.0000   1.0000   1.0000   1.0000   1.0000   1.0000   1.0000   1.0000
     1.0000   1.0000   1.0000   1.0000   1.0000   1.0000   1.0000   1.0000
     1.0000   1.0000   1.0000   1.0000   1.0000   1.0000   1.0000   1.0000
     1.0000   1.0000   1.0000   1.0000   1.0000   1.0000   1.0000   1.0000
     1.0000   1.0000   1.0000   1.0000   1.0000   1.0000   1.0000   1.0000
     1.0000   1.0000   1.0000   1.0000   1.0000   1.0000   1.0000   1.0000
     1.0000   1.0000   1.0000   1.0000   1.0000   1.0000   1.0000   1.0000
     1.0000   1.0000   1.0000   1.0000   1.0000   1.0000   1.0000   1.0000
     1.0000   1.0000   1.0000   1.0000   1.0000   1.0000   1.0000   1.0000
     1.0000   1.0000   1.0000   1.0000   1.0000   1.0000   1.0000   1.0000
     1.0000   1.0000   1.0000   1.0000   1.0000   1.0000   1.0000   1.0000
     1.0000   1.0000   1.0000   1.0000   1.0000   1.0000   1.0000   1.0000
     1.0000   1.0000   1.0000   1.0000   1.0000   1.0000   1.0000   1.0000
     1.0000   1.0000   1.0000   1.0000   1.0000   1.0000   1.0000   1.0000
     1.0000   1.0000   1.0000   1.0000   1.0000   1.0000   1.0000   1.0000
     1.0000   1.0000   1.0000   1.0000   1.0000   1.0000   1.0000   1.0000
     1.0000   1.0000   1.0000   1.0000   1.0000   1.0000   1.0000   1.0000
     1.0000   1.0000   1.0000   1.0000   1.0000   1.0000   1.0000   1.0000
     1.0000   1.0000   1.0000   1.0000   1.0000   1.0000   1.0000   1.0000
     1.0000   1.0000   1.0000   1.0000   1.0000   0.9999   0.0000   0.0000
     0.0000   0.0000   0.0000   0.0000   0.0000   0.0000   0.0000   0.0000
     0.0000   0.0000   0.0000   0.0000   0.0000   0.0000   0.0000   0.0000
     0.0000   0.0000   0.0000   0.0000   0.0000   0.0000   0.0000   0.0000
     0.0000   0.0000   0.0000   0.0000   0.0000   0.0000   0.0000   0.0000
     0.0000   0.0000   0.0000   0.0000   0.0000   0.0000   0.0000   0.0000
     0.0000   0.0000   0.0000   0.0000   0.0000   0.0000   0.0000   0.0000
     0.0000   0.0000   0.0000   0.0000   0.0000   0.0000

          k = 0.1768-0.1768-0.1768 ( 32087 PWs)   bands (ev):

   -17.4255 -17.4154 -17.4122 -17.3864 -17.3775 -17.3707 -17.3642 -17.3619
   -17.3551 -17.3442 -17.3415 -17.3404 -17.3395 -17.3336 -17.3290 -17.3259
   -17.3218 -17.3131 -17.3094 -17.3067 -17.3037 -17.3000 -17.2984 -17.2968
   -17.2913 -17.2886 -17.2620 -17.2535 -17.2512 -17.2430 -17.2419 -17.2393
   -17.2369 -17.2349 -17.2336 -17.2314 -17.2276 -17.2272 -17.2271 -17.2262
   -17.2253 -17.2240 -17.2229 -17.2228 -17.2207 -17.2198 -17.2192 -17.2188
   -17.2161 -17.2156 -17.2126 -17.2074 -17.2028 -17.1985 -17.1907 -17.1887
   -17.1860 -17.1826 -17.1746 -17.1682 -17.1649 -17.1635 -17.1590 -17.1580
   -17.1553 -17.1546 -17.1530 -17.1516 -17.1480 -17.1471 -17.1462 -17.1453
   -17.1446 -17.1442 -17.1437 -17.1432 -17.1426 -17.1397 -17.1392 -17.1388
   -17.1374 -17.1365 -17.1364 -17.1354 -17.1348 -17.1343 -17.1335 -17.1315
   -17.1296 -17.1292 -17.1285 -17.1279 -17.1256 -17.1252 -17.1237 -17.1234
   -17.1231 -17.1219 -17.1208 -17.1201 -17.1190 -17.1138 -17.1135 -17.1127
   -17.1121 -17.1112 -17.1105 -17.1087 -17.1084 -17.1071 -17.1068 -17.1034
   -17.1028 -17.1017 -17.1001 -17.0999 -17.0980 -17.0968 -17.0965 -17.0963
   -17.0961 -17.0958 -17.0947 -17.0911 -17.0898 -17.0880 -17.0879 -17.0878
   -17.0872 -17.0843 -17.0823 -17.0756 -17.0712 -17.0678 -17.0664 -17.0604
   -17.0600 -17.0561 -17.0482 -17.0448 -17.0414 -17.0396 -17.0320 -17.0315
   -17.0310 -17.0248 -17.0222 -17.0193 -17.0173 -17.0139  -5.0524  -4.9234
    -4.6969  -4.4791  -4.0589  -3.8134  -3.6715  -3.6089  -3.5244  -3.2667
    -3.2144  -3.1719  -3.0531  -3.0204  -2.9331  -2.9211  -2.8599  -2.7798
    -2.7026  -2.6442  -2.4747  -2.4164  -2.3226  -2.2455  -2.0201  -1.9540
    -1.8715  -1.7251  -1.6204  -1.5004  -1.1047  -1.0703  -1.0507  -0.7686
    -0.5009  -0.4145  -0.2050  -0.1617  -0.0840  -0.0403   0.0182   0.1060
     0.1296   0.1932   0.2736   0.2931   0.4685   0.4977   0.5749   0.6049
     0.7184   0.8357   0.9145   1.0008   1.0213   1.1085   1.5646   1.6493
     1.8335   2.2563   2.8795   3.0925   3.1095   3.1342   3.5871   3.6362
     3.6434   3.7073   3.7121   3.7156   3.7248   3.7359   3.7381   3.7392
     3.7747   3.7761   3.7865   3.7909   4.1780   4.1942   4.1970   4.3946
     4.3953   4.4356   4.4386   4.4421   4.4587   4.5203   4.5206   4.5894
     4.5961   4.6100   4.6159   4.7015   4.7554   4.7686   4.7820   4.7980
     4.9331   4.9909   4.9974   5.2042   5.2101   5.2221   5.2418   5.2514
     5.3751   5.5125   5.5406   5.5475   5.5719   5.5807   5.5866   5.5973
     5.8520   5.8550   5.8723   5.8757   5.8966   5.9002   6.0648   6.0681
     6.3861   6.4040   6.4184   6.9108   6.9384   6.9477   7.7464   8.0220
     8.0473   8.0917   8.1983   8.3473   8.4662   8.7150   8.8610   8.9383
     8.9652   8.9921   9.0117   9.0244   9.0495   9.0659   9.0792   9.1055
     9.1238   9.1460   9.1537   9.1806   9.1999   9.2108   9.2318   9.2438
     9.2606   9.2854   9.3017   9.3442   9.4653   9.5287   9.5721   9.6935
     9.7833   9.8391   9.9298   9.9650   9.9780  10.0244  10.0709  10.1957
    10.2164  10.3285  10.3870  10.4246  10.4509  10.4941  10.5312  10.6029
    10.6364  10.6543  10.6882  10.6906  10.7199  10.7355

     occupation numbers 
     1.0000   1.0000   1.0000   1.0000   1.0000   1.0000   1.0000   1.0000
     1.0000   1.0000   1.0000   1.0000   1.0000   1.0000   1.0000   1.0000
     1.0000   1.0000   1.0000   1.0000   1.0000   1.0000   1.0000   1.0000
     1.0000   1.0000   1.0000   1.0000   1.0000   1.0000   1.0000   1.0000
     1.0000   1.0000   1.0000   1.0000   1.0000   1.0000   1.0000   1.0000
     1.0000   1.0000   1.0000   1.0000   1.0000   1.0000   1.0000   1.0000
     1.0000   1.0000   1.0000   1.0000   1.0000   1.0000   1.0000   1.0000
     1.0000   1.0000   1.0000   1.0000   1.0000   1.0000   1.0000   1.0000
     1.0000   1.0000   1.0000   1.0000   1.0000   1.0000   1.0000   1.0000
     1.0000   1.0000   1.0000   1.0000   1.0000   1.0000   1.0000   1.0000
     1.0000   1.0000   1.0000   1.0000   1.0000   1.0000   1.0000   1.0000
     1.0000   1.0000   1.0000   1.0000   1.0000   1.0000   1.0000   1.0000
     1.0000   1.0000   1.0000   1.0000   1.0000   1.0000   1.0000   1.0000
     1.0000   1.0000   1.0000   1.0000   1.0000   1.0000   1.0000   1.0000
     1.0000   1.0000   1.0000   1.0000   1.0000   1.0000   1.0000   1.0000
     1.0000   1.0000   1.0000   1.0000   1.0000   1.0000   1.0000   1.0000
     1.0000   1.0000   1.0000   1.0000   1.0000   1.0000   1.0000   1.0000
     1.0000   1.0000   1.0000   1.0000   1.0000   1.0000   1.0000   1.0000
     1.0000   1.0000   1.0000   1.0000   1.0000   1.0000   1.0000   1.0000
     1.0000   1.0000   1.0000   1.0000   1.0000   1.0000   1.0000   1.0000
     1.0000   1.0000   1.0000   1.0000   1.0000   1.0000   1.0000   1.0000
     1.0000   1.0000   1.0000   1.0000   1.0000   1.0000   1.0000   1.0000
     1.0000   1.0000   1.0000   1.0000   1.0000   1.0000   1.0000   1.0000
     1.0000   1.0000   1.0000   1.0000   1.0000   1.0000   1.0000   1.0000
     1.0000   1.0000   1.0000   1.0000   1.0000   1.0000   1.0000   1.0000
     1.0000   1.0000   1.0000   1.0000   1.0000   1.0000   1.0000   1.0000
     1.0000   1.0000   1.0000   1.0000   1.0000   1.0000   1.0000   1.0000
     1.0000   1.0000   1.0000   1.0000   1.0000   1.0000   1.0000   1.0000
     1.0000   1.0000   1.0000   1.0000   1.0000   1.0000   1.0000   1.0000
     1.0000   1.0000   1.0000   1.0000   1.0000   1.0000   1.0000   1.0000
     1.0000   1.0000   1.0000   1.0000   1.0000   1.0000   1.0000   1.0000
     1.0000   1.0000   1.0000   1.0000   1.0000   1.0000   1.0000   1.0000
     1.0000   1.0000   1.0000   1.0000   1.0000   1.0000   1.0000   1.0000
     1.0000   1.0000   1.0000   1.0000   1.0000   1.0000   1.0000   1.0000
     1.0000   1.0000   1.0000   0.9999   0.9999   0.9999   0.0276   0.0001
     0.0000   0.0000   0.0000   0.0000   0.0000   0.0000   0.0000   0.0000
     0.0000   0.0000   0.0000   0.0000   0.0000   0.0000   0.0000   0.0000
     0.0000   0.0000   0.0000   0.0000   0.0000   0.0000   0.0000   0.0000
     0.0000   0.0000   0.0000   0.0000   0.0000   0.0000   0.0000   0.0000
     0.0000   0.0000   0.0000   0.0000   0.0000   0.0000   0.0000   0.0000
     0.0000   0.0000   0.0000   0.0000   0.0000   0.0000   0.0000   0.0000
     0.0000   0.0000   0.0000   0.0000   0.0000   0.0000

          k = 0.1768 0.1768 0.1768 ( 32087 PWs)   bands (ev):

   -17.4271 -17.4165 -17.4144 -17.3873 -17.3772 -17.3695 -17.3642 -17.3620
   -17.3598 -17.3445 -17.3406 -17.3394 -17.3382 -17.3321 -17.3289 -17.3264
   -17.3172 -17.3135 -17.3098 -17.3054 -17.3034 -17.2985 -17.2966 -17.2960
   -17.2913 -17.2860 -17.2616 -17.2538 -17.2500 -17.2443 -17.2413 -17.2392
   -17.2359 -17.2340 -17.2335 -17.2306 -17.2276 -17.2274 -17.2272 -17.2262
   -17.2247 -17.2244 -17.2229 -17.2228 -17.2206 -17.2203 -17.2194 -17.2182
   -17.2161 -17.2155 -17.2119 -17.2086 -17.2023 -17.1977 -17.1936 -17.1886
   -17.1861 -17.1826 -17.1757 -17.1710 -17.1673 -17.1661 -17.1580 -17.1562
   -17.1554 -17.1550 -17.1531 -17.1505 -17.1481 -17.1469 -17.1461 -17.1458
   -17.1448 -17.1442 -17.1439 -17.1432 -17.1431 -17.1392 -17.1388 -17.1385
   -17.1375 -17.1363 -17.1360 -17.1352 -17.1345 -17.1342 -17.1336 -17.1314
   -17.1311 -17.1289 -17.1278 -17.1275 -17.1258 -17.1253 -17.1238 -17.1232
   -17.1220 -17.1213 -17.1208 -17.1204 -17.1202 -17.1167 -17.1141 -17.1136
   -17.1126 -17.1122 -17.1108 -17.1103 -17.1083 -17.1075 -17.1072 -17.1036
   -17.1031 -17.1027 -17.1003 -17.1000 -17.0980 -17.0979 -17.0968 -17.0963
   -17.0961 -17.0960 -17.0945 -17.0917 -17.0914 -17.0882 -17.0879 -17.0877
   -17.0870 -17.0843 -17.0810 -17.0750 -17.0720 -17.0687 -17.0663 -17.0596
   -17.0564 -17.0559 -17.0454 -17.0451 -17.0414 -17.0404 -17.0334 -17.0315
   -17.0266 -17.0248 -17.0228 -17.0190 -17.0165 -17.0134  -5.0515  -4.9245
    -4.7000  -4.4757  -4.0456  -3.7897  -3.7225  -3.5608  -3.4620  -3.3227
    -3.2721  -3.1853  -3.1546  -3.0568  -2.9349  -2.8805  -2.8046  -2.7490
    -2.6668  -2.5911  -2.5500  -2.3928  -2.3490  -2.2123  -1.9895  -1.9394
    -1.8349  -1.7464  -1.6912  -1.4800  -1.1009  -1.0491  -0.9844  -0.8834
    -0.5084  -0.3266  -0.2508  -0.1814  -0.1014  -0.0381   0.0583   0.0927
     0.1225   0.1653   0.2470   0.2840   0.4743   0.4950   0.5810   0.6049
     0.7495   0.8342   0.9425   0.9979   1.0316   1.0976   1.5896   1.6140
     1.8344   2.2599   2.8797   3.0969   3.1041   3.1330   3.6021   3.6186
     3.6472   3.7100   3.7123   3.7159   3.7292   3.7334   3.7374   3.7377
     3.7738   3.7762   3.7868   3.7895   4.1778   4.1938   4.1971   4.3941
     4.3973   4.4355   4.4379   4.4438   4.4576   4.5202   4.5209   4.5884
     4.5953   4.6096   4.6165   4.7021   4.7583   4.7672   4.7812   4.7982
     4.9334   4.9925   4.9950   5.2008   5.2185   5.2260   5.2350   5.2518
     5.3766   5.5111   5.5410   5.5546   5.5667   5.5799   5.5820   5.6005
     5.8500   5.8539   5.8750   5.8833   5.8889   5.8972   6.0651   6.0676
     6.3868   6.4032   6.4177   6.9119   6.9393   6.9463   7.7474   8.0285
     8.0415   8.0887   8.1946   8.3489   8.4711   8.7191   8.8907   8.9498
     8.9791   8.9926   9.0133   9.0423   9.0510   9.0702   9.0829   9.0963
     9.1143   9.1362   9.1510   9.1594   9.1705   9.1836   9.2141   9.2503
     9.2598   9.2803   9.3050   9.3307   9.4775   9.5527   9.5698   9.6975
     9.8078   9.8367   9.9289   9.9581   9.9938  10.0046  10.0967  10.2000
    10.2039  10.3188  10.3875  10.4242  10.4497  10.5042  10.5154  10.6175
    10.6412  10.6493  10.6765  10.6942  10.7047  10.7434

     occupation numbers 
     1.0000   1.0000   1.0000   1.0000   1.0000   1.0000   1.0000   1.0000
     1.0000   1.0000   1.0000   1.0000   1.0000   1.0000   1.0000   1.0000
     1.0000   1.0000   1.0000   1.0000   1.0000   1.0000   1.0000   1.0000
     1.0000   1.0000   1.0000   1.0000   1.0000   1.0000   1.0000   1.0000
     1.0000   1.0000   1.0000   1.0000   1.0000   1.0000   1.0000   1.0000
     1.0000   1.0000   1.0000   1.0000   1.0000   1.0000   1.0000   1.0000
     1.0000   1.0000   1.0000   1.0000   1.0000   1.0000   1.0000   1.0000
     1.0000   1.0000   1.0000   1.0000   1.0000   1.0000   1.0000   1.0000
     1.0000   1.0000   1.0000   1.0000   1.0000   1.0000   1.0000   1.0000
     1.0000   1.0000   1.0000   1.0000   1.0000   1.0000   1.0000   1.0000
     1.0000   1.0000   1.0000   1.0000   1.0000   1.0000   1.0000   1.0000
     1.0000   1.0000   1.0000   1.0000   1.0000   1.0000   1.0000   1.0000
     1.0000   1.0000   1.0000   1.0000   1.0000   1.0000   1.0000   1.0000
     1.0000   1.0000   1.0000   1.0000   1.0000   1.0000   1.0000   1.0000
     1.0000   1.0000   1.0000   1.0000   1.0000   1.0000   1.0000   1.0000
     1.0000   1.0000   1.0000   1.0000   1.0000   1.0000   1.0000   1.0000
     1.0000   1.0000   1.0000   1.0000   1.0000   1.0000   1.0000   1.0000
     1.0000   1.0000   1.0000   1.0000   1.0000   1.0000   1.0000   1.0000
     1.0000   1.0000   1.0000   1.0000   1.0000   1.0000   1.0000   1.0000
     1.0000   1.0000   1.0000   1.0000   1.0000   1.0000   1.0000   1.0000
     1.0000   1.0000   1.0000   1.0000   1.0000   1.0000   1.0000   1.0000
     1.0000   1.0000   1.0000   1.0000   1.0000   1.0000   1.0000   1.0000
     1.0000   1.0000   1.0000   1.0000   1.0000   1.0000   1.0000   1.0000
     1.0000   1.0000   1.0000   1.0000   1.0000   1.0000   1.0000   1.0000
     1.0000   1.0000   1.0000   1.0000   1.0000   1.0000   1.0000   1.0000
     1.0000   1.0000   1.0000   1.0000   1.0000   1.0000   1.0000   1.0000
     1.0000   1.0000   1.0000   1.0000   1.0000   1.0000   1.0000   1.0000
     1.0000   1.0000   1.0000   1.0000   1.0000   1.0000   1.0000   1.0000
     1.0000   1.0000   1.0000   1.0000   1.0000   1.0000   1.0000   1.0000
     1.0000   1.0000   1.0000   1.0000   1.0000   1.0000   1.0000   1.0000
     1.0000   1.0000   1.0000   1.0000   1.0000   1.0000   1.0000   1.0000
     1.0000   1.0000   1.0000   1.0000   1.0000   1.0000   1.0000   1.0000
     1.0000   1.0000   1.0000   1.0000   1.0000   1.0000   1.0000   1.0000
     1.0000   1.0000   1.0000   1.0000   1.0000   1.0000   1.0000   1.0000
     1.0000   1.0000   1.0000   0.9999   0.9999   0.9999   0.0272   0.0001
     0.0000   0.0000   0.0000   0.0000   0.0000   0.0000   0.0000   0.0000
     0.0000   0.0000   0.0000   0.0000   0.0000   0.0000   0.0000   0.0000
     0.0000   0.0000   0.0000   0.0000   0.0000   0.0000   0.0000   0.0000
     0.0000   0.0000   0.0000   0.0000   0.0000   0.0000   0.0000   0.0000
     0.0000   0.0000   0.0000   0.0000   0.0000   0.0000   0.0000   0.0000
     0.0000   0.0000   0.0000   0.0000   0.0000   0.0000   0.0000   0.0000
     0.0000   0.0000   0.0000   0.0000   0.0000   0.0000

          k =-0.3536 0.3536 0.3536 ( 32056 PWs)   bands (ev):

   -17.4258 -17.4156 -17.4121 -17.3865 -17.3780 -17.3714 -17.3641 -17.3620
   -17.3540 -17.3440 -17.3406 -17.3404 -17.3393 -17.3355 -17.3289 -17.3259
   -17.3208 -17.3124 -17.3089 -17.3067 -17.3036 -17.2996 -17.2982 -17.2966
   -17.2912 -17.2887 -17.2619 -17.2530 -17.2507 -17.2425 -17.2420 -17.2392
   -17.2366 -17.2341 -17.2335 -17.2315 -17.2275 -17.2269 -17.2268 -17.2264
   -17.2252 -17.2230 -17.2229 -17.2228 -17.2207 -17.2201 -17.2189 -17.2181
   -17.2160 -17.2157 -17.2130 -17.2065 -17.2029 -17.1999 -17.1913 -17.1877
   -17.1860 -17.1848 -17.1749 -17.1685 -17.1647 -17.1631 -17.1588 -17.1583
   -17.1550 -17.1545 -17.1528 -17.1514 -17.1495 -17.1468 -17.1461 -17.1454
   -17.1441 -17.1435 -17.1433 -17.1423 -17.1415 -17.1396 -17.1392 -17.1391
   -17.1373 -17.1364 -17.1362 -17.1359 -17.1345 -17.1343 -17.1332 -17.1314
   -17.1295 -17.1289 -17.1289 -17.1278 -17.1261 -17.1253 -17.1246 -17.1233
   -17.1231 -17.1218 -17.1207 -17.1199 -17.1168 -17.1137 -17.1135 -17.1127
   -17.1121 -17.1109 -17.1104 -17.1087 -17.1086 -17.1068 -17.1063 -17.1032
   -17.1028 -17.1016 -17.1002 -17.0998 -17.0979 -17.0964 -17.0963 -17.0961
   -17.0960 -17.0953 -17.0947 -17.0910 -17.0882 -17.0879 -17.0878 -17.0876
   -17.0874 -17.0843 -17.0826 -17.0754 -17.0696 -17.0687 -17.0663 -17.0599
   -17.0594 -17.0556 -17.0492 -17.0441 -17.0413 -17.0409 -17.0317 -17.0312
   -17.0293 -17.0246 -17.0220 -17.0194 -17.0181 -17.0152  -4.6601  -4.4930
    -4.4512  -4.4189  -4.2328  -4.1228  -4.0062  -3.9015  -3.5505  -3.4472
    -3.3742  -3.3207  -3.1719  -3.1121  -3.0813  -3.0023  -2.9452  -2.8558
    -2.7038  -2.6804  -2.5135  -2.4336  -2.4264  -2.3413  -2.2522  -2.2191
    -1.9682  -1.7736  -1.6737  -1.5741  -1.0516  -1.0111  -0.9853  -0.6919
    -0.3949  -0.2251  -0.1806  -0.0456   0.0786   0.1860   0.3215   0.3429
     0.4059   0.4328   0.5088   0.6146   0.8819   0.9193   1.0202   1.0690
     1.2427   1.2600   1.3733   1.4316   1.7632   1.8980   2.1632   2.3196
     2.9366   3.0024   3.0832   3.0986   3.1007   3.1068   3.1208   3.1301
     3.1689   3.2912   3.3068   3.3296   3.3322   3.3326   3.3948   3.3952
     3.3995   3.4036   3.5397   3.5578   3.5792   3.5888   3.5948   3.5953
     3.6237   3.6818   3.7750   3.7826   3.7974   3.8026   4.1901   4.1910
     4.1980   4.2054   4.4444   4.4723   4.7814   4.8082   4.9090   4.9163
     4.9179   4.9277   4.9357   4.9389   4.9451   4.9527   5.2034   5.2110
     5.2202   5.2261   5.2417   5.2531   5.2617   5.2681   5.2885   5.2904
     5.8038   5.8127   5.8207   5.8317   5.8538   5.8578   5.8823   5.8862
     6.3689   6.3848   6.4129   6.4398   6.4458   6.4515   8.1811   8.2723
     8.4244   8.4916   8.5544   8.5868   8.6054   8.6186   8.6321   8.6879
     8.6901   8.7475   8.9073   8.9794   9.2114   9.2683   9.3725   9.3981
     9.4132   9.4641   9.4715   9.4982   9.5238   9.5573   9.5808   9.6163
     9.9117   9.9300   9.9395   9.9981  10.0410  10.0660  10.2043  10.2206
    10.3921  10.4089  10.6078  10.6395  10.7082  10.7434  10.7554  10.7693
    10.7766  10.8051  10.8708  10.9876  11.0486  11.1708  11.4273  11.4584
    11.4778  11.5027  11.5430  11.5619  11.5737  11.5808

     occupation numbers 
     1.0000   1.0000   1.0000   1.0000   1.0000   1.0000   1.0000   1.0000
     1.0000   1.0000   1.0000   1.0000   1.0000   1.0000   1.0000   1.0000
     1.0000   1.0000   1.0000   1.0000   1.0000   1.0000   1.0000   1.0000
     1.0000   1.0000   1.0000   1.0000   1.0000   1.0000   1.0000   1.0000
     1.0000   1.0000   1.0000   1.0000   1.0000   1.0000   1.0000   1.0000
     1.0000   1.0000   1.0000   1.0000   1.0000   1.0000   1.0000   1.0000
     1.0000   1.0000   1.0000   1.0000   1.0000   1.0000   1.0000   1.0000
     1.0000   1.0000   1.0000   1.0000   1.0000   1.0000   1.0000   1.0000
     1.0000   1.0000   1.0000   1.0000   1.0000   1.0000   1.0000   1.0000
     1.0000   1.0000   1.0000   1.0000   1.0000   1.0000   1.0000   1.0000
     1.0000   1.0000   1.0000   1.0000   1.0000   1.0000   1.0000   1.0000
     1.0000   1.0000   1.0000   1.0000   1.0000   1.0000   1.0000   1.0000
     1.0000   1.0000   1.0000   1.0000   1.0000   1.0000   1.0000   1.0000
     1.0000   1.0000   1.0000   1.0000   1.0000   1.0000   1.0000   1.0000
     1.0000   1.0000   1.0000   1.0000   1.0000   1.0000   1.0000   1.0000
     1.0000   1.0000   1.0000   1.0000   1.0000   1.0000   1.0000   1.0000
     1.0000   1.0000   1.0000   1.0000   1.0000   1.0000   1.0000   1.0000
     1.0000   1.0000   1.0000   1.0000   1.0000   1.0000   1.0000   1.0000
     1.0000   1.0000   1.0000   1.0000   1.0000   1.0000   1.0000   1.0000
     1.0000   1.0000   1.0000   1.0000   1.0000   1.0000   1.0000   1.0000
     1.0000   1.0000   1.0000   1.0000   1.0000   1.0000   1.0000   1.0000
     1.0000   1.0000   1.0000   1.0000   1.0000   1.0000   1.0000   1.0000
     1.0000   1.0000   1.0000   1.0000   1.0000   1.0000   1.0000   1.0000
     1.0000   1.0000   1.0000   1.0000   1.0000   1.0000   1.0000   1.0000
     1.0000   1.0000   1.0000   1.0000   1.0000   1.0000   1.0000   1.0000
     1.0000   1.0000   1.0000   1.0000   1.0000   1.0000   1.0000   1.0000
     1.0000   1.0000   1.0000   1.0000   1.0000   1.0000   1.0000   1.0000
     1.0000   1.0000   1.0000   1.0000   1.0000   1.0000   1.0000   1.0000
     1.0000   1.0000   1.0000   1.0000   1.0000   1.0000   1.0000   1.0000
     1.0000   1.0000   1.0000   1.0000   1.0000   1.0000   1.0000   1.0000
     1.0000   1.0000   1.0000   1.0000   1.0000   1.0000   1.0000   1.0000
     1.0000   1.0000   1.0000   1.0000   1.0000   1.0000   1.0000   1.0000
     1.0000   1.0000   1.0000   1.0000   1.0000   1.0000   1.0000   1.0000
     1.0000   1.0000   1.0000   1.0000   1.0000   1.0000   1.0000   1.0000
     1.0000   1.0000   1.0000   1.0000   1.0000   1.0000   0.0000   0.0000
     0.0000   0.0000   0.0000   0.0000   0.0000   0.0000   0.0000   0.0000
     0.0000   0.0000   0.0000   0.0000   0.0000   0.0000   0.0000   0.0000
     0.0000   0.0000   0.0000   0.0000   0.0000   0.0000   0.0000   0.0000
     0.0000   0.0000   0.0000   0.0000   0.0000   0.0000   0.0000   0.0000
     0.0000   0.0000   0.0000   0.0000   0.0000   0.0000   0.0000   0.0000
     0.0000   0.0000   0.0000   0.0000   0.0000   0.0000   0.0000   0.0000
     0.0000   0.0000   0.0000   0.0000   0.0000   0.0000

          k =-0.3536-0.3536-0.3536 ( 32056 PWs)   bands (ev):

   -17.4288 -17.4191 -17.4149 -17.3884 -17.3773 -17.3692 -17.3643 -17.3621
   -17.3618 -17.3449 -17.3404 -17.3393 -17.3367 -17.3309 -17.3288 -17.3267
   -17.3131 -17.3128 -17.3097 -17.3051 -17.3032 -17.2985 -17.2964 -17.2912
   -17.2911 -17.2811 -17.2611 -17.2537 -17.2486 -17.2458 -17.2411 -17.2392
   -17.2349 -17.2335 -17.2308 -17.2301 -17.2275 -17.2272 -17.2271 -17.2263
   -17.2232 -17.2232 -17.2227 -17.2226 -17.2205 -17.2202 -17.2192 -17.2162
   -17.2160 -17.2155 -17.2119 -17.2115 -17.2019 -17.1984 -17.1967 -17.1896
   -17.1860 -17.1852 -17.1769 -17.1741 -17.1683 -17.1670 -17.1570 -17.1556
   -17.1553 -17.1541 -17.1528 -17.1509 -17.1500 -17.1465 -17.1460 -17.1457
   -17.1444 -17.1441 -17.1432 -17.1428 -17.1423 -17.1399 -17.1386 -17.1376
   -17.1365 -17.1360 -17.1358 -17.1351 -17.1345 -17.1335 -17.1333 -17.1313
   -17.1308 -17.1302 -17.1291 -17.1275 -17.1269 -17.1254 -17.1237 -17.1232
   -17.1223 -17.1219 -17.1209 -17.1202 -17.1201 -17.1194 -17.1151 -17.1137
   -17.1127 -17.1124 -17.1106 -17.1102 -17.1076 -17.1076 -17.1071 -17.1037
   -17.1036 -17.1027 -17.1003 -17.0989 -17.0980 -17.0978 -17.0967 -17.0963
   -17.0961 -17.0961 -17.0942 -17.0920 -17.0918 -17.0881 -17.0879 -17.0877
   -17.0869 -17.0842 -17.0811 -17.0748 -17.0714 -17.0689 -17.0661 -17.0591
   -17.0564 -17.0517 -17.0455 -17.0448 -17.0413 -17.0403 -17.0333 -17.0314
   -17.0248 -17.0231 -17.0226 -17.0189 -17.0165 -17.0139  -4.6636  -4.5422
    -4.4196  -4.3827  -4.1996  -4.1550  -3.9526  -3.9158  -3.5946  -3.4378
    -3.4028  -3.3362  -3.2290  -3.1831  -3.0981  -2.9664  -2.9011  -2.8229
    -2.6891  -2.6219  -2.5871  -2.4157  -2.4026  -2.3512  -2.2763  -2.1959
    -1.8231  -1.7475  -1.6945  -1.6782  -1.0431  -0.9963  -0.9190  -0.8062
    -0.3444  -0.2493  -0.1687  -0.1057   0.1035   0.1841   0.2956   0.3527
     0.3847   0.4575   0.4972   0.5733   0.8974   0.9238   1.0367   1.0857
     1.2554   1.2755   1.3716   1.4132   1.7443   1.9158   2.2307   2.2583
     2.9159   2.9967   3.0911   3.0980   3.1015   3.1083   3.1285   3.1434
     3.2029   3.2651   3.3140   3.3225   3.3319   3.3323   3.3897   3.3944
     3.3998   3.4083   3.5338   3.5466   3.5697   3.5806   3.5906   3.6066
     3.6452   3.6917   3.7725   3.7801   3.7923   3.8026   4.1877   4.1930
     4.2010   4.2029   4.4564   4.4596   4.7922   4.7968   4.9102   4.9151
     4.9226   4.9266   4.9289   4.9395   4.9435   4.9560   5.2040   5.2089
     5.2204   5.2347   5.2489   5.2549   5.2645   5.2685   5.2790   5.2830
     5.8084   5.8177   5.8217   5.8336   5.8440   5.8607   5.8697   5.8890
     6.3709   6.3979   6.4008   6.4248   6.4528   6.4579   8.2005   8.2367
     8.4422   8.4868   8.5516   8.5787   8.5959   8.6303   8.6348   8.6773
     8.6981   8.7788   8.9411   8.9527   9.2064   9.2717   9.3452   9.3955
     9.4258   9.4377   9.4626   9.4989   9.5361   9.5606   9.5949   9.6093
     9.9098   9.9437   9.9628   9.9817  10.0442  10.0781  10.2103  10.2196
    10.3873  10.4108  10.6266  10.6483  10.6808  10.6943  10.7275  10.7389
    10.8009  10.8362  10.9011  10.9758  11.0885  11.1197  11.4437  11.4513
    11.4628  11.4756  11.5348  11.5424  11.5785  11.5813

     occupation numbers 
     1.0000   1.0000   1.0000   1.0000   1.0000   1.0000   1.0000   1.0000
     1.0000   1.0000   1.0000   1.0000   1.0000   1.0000   1.0000   1.0000
     1.0000   1.0000   1.0000   1.0000   1.0000   1.0000   1.0000   1.0000
     1.0000   1.0000   1.0000   1.0000   1.0000   1.0000   1.0000   1.0000
     1.0000   1.0000   1.0000   1.0000   1.0000   1.0000   1.0000   1.0000
     1.0000   1.0000   1.0000   1.0000   1.0000   1.0000   1.0000   1.0000
     1.0000   1.0000   1.0000   1.0000   1.0000   1.0000   1.0000   1.0000
     1.0000   1.0000   1.0000   1.0000   1.0000   1.0000   1.0000   1.0000
     1.0000   1.0000   1.0000   1.0000   1.0000   1.0000   1.0000   1.0000
     1.0000   1.0000   1.0000   1.0000   1.0000   1.0000   1.0000   1.0000
     1.0000   1.0000   1.0000   1.0000   1.0000   1.0000   1.0000   1.0000
     1.0000   1.0000   1.0000   1.0000   1.0000   1.0000   1.0000   1.0000
     1.0000   1.0000   1.0000   1.0000   1.0000   1.0000   1.0000   1.0000
     1.0000   1.0000   1.0000   1.0000   1.0000   1.0000   1.0000   1.0000
     1.0000   1.0000   1.0000   1.0000   1.0000   1.0000   1.0000   1.0000
     1.0000   1.0000   1.0000   1.0000   1.0000   1.0000   1.0000   1.0000
     1.0000   1.0000   1.0000   1.0000   1.0000   1.0000   1.0000   1.0000
     1.0000   1.0000   1.0000   1.0000   1.0000   1.0000   1.0000   1.0000
     1.0000   1.0000   1.0000   1.0000   1.0000   1.0000   1.0000   1.0000
     1.0000   1.0000   1.0000   1.0000   1.0000   1.0000   1.0000   1.0000
     1.0000   1.0000   1.0000   1.0000   1.0000   1.0000   1.0000   1.0000
     1.0000   1.0000   1.0000   1.0000   1.0000   1.0000   1.0000   1.0000
     1.0000   1.0000   1.0000   1.0000   1.0000   1.0000   1.0000   1.0000
     1.0000   1.0000   1.0000   1.0000   1.0000   1.0000   1.0000   1.0000
     1.0000   1.0000   1.0000   1.0000   1.0000   1.0000   1.0000   1.0000
     1.0000   1.0000   1.0000   1.0000   1.0000   1.0000   1.0000   1.0000
     1.0000   1.0000   1.0000   1.0000   1.0000   1.0000   1.0000   1.0000
     1.0000   1.0000   1.0000   1.0000   1.0000   1.0000   1.0000   1.0000
     1.0000   1.0000   1.0000   1.0000   1.0000   1.0000   1.0000   1.0000
     1.0000   1.0000   1.0000   1.0000   1.0000   1.0000   1.0000   1.0000
     1.0000   1.0000   1.0000   1.0000   1.0000   1.0000   1.0000   1.0000
     1.0000   1.0000   1.0000   1.0000   1.0000   1.0000   1.0000   1.0000
     1.0000   1.0000   1.0000   1.0000   1.0000   1.0000   1.0000   1.0000
     1.0000   1.0000   1.0000   1.0000   1.0000   1.0000   1.0000   1.0000
     1.0000   1.0000   1.0000   1.0000   1.0000   1.0000   0.0000   0.0000
     0.0000   0.0000   0.0000   0.0000   0.0000   0.0000   0.0000   0.0000
     0.0000   0.0000   0.0000   0.0000   0.0000   0.0000   0.0000   0.0000
     0.0000   0.0000   0.0000   0.0000   0.0000   0.0000   0.0000   0.0000
     0.0000   0.0000   0.0000   0.0000   0.0000   0.0000   0.0000   0.0000
     0.0000   0.0000   0.0000   0.0000   0.0000   0.0000   0.0000   0.0000
     0.0000   0.0000   0.0000   0.0000   0.0000   0.0000   0.0000   0.0000
     0.0000   0.0000   0.0000   0.0000   0.0000   0.0000

          k =-0.5303 0.5303 0.1768 ( 32066 PWs)   bands (ev):

   -17.4274 -17.4168 -17.4143 -17.3876 -17.3777 -17.3706 -17.3642 -17.3619
   -17.3584 -17.3445 -17.3404 -17.3395 -17.3379 -17.3332 -17.3289 -17.3262
   -17.3163 -17.3127 -17.3093 -17.3057 -17.3034 -17.2984 -17.2966 -17.2957
   -17.2913 -17.2861 -17.2615 -17.2534 -17.2494 -17.2437 -17.2415 -17.2392
   -17.2350 -17.2340 -17.2335 -17.2308 -17.2275 -17.2271 -17.2270 -17.2263
   -17.2243 -17.2232 -17.2228 -17.2227 -17.2207 -17.2200 -17.2192 -17.2188
   -17.2160 -17.2155 -17.2125 -17.2072 -17.2029 -17.1992 -17.1929 -17.1891
   -17.1860 -17.1841 -17.1770 -17.1701 -17.1667 -17.1659 -17.1583 -17.1571
   -17.1552 -17.1549 -17.1528 -17.1497 -17.1483 -17.1477 -17.1466 -17.1455
   -17.1448 -17.1440 -17.1437 -17.1426 -17.1424 -17.1393 -17.1390 -17.1379
   -17.1370 -17.1364 -17.1360 -17.1358 -17.1344 -17.1338 -17.1332 -17.1314
   -17.1304 -17.1294 -17.1282 -17.1274 -17.1261 -17.1254 -17.1235 -17.1232
   -17.1228 -17.1219 -17.1209 -17.1201 -17.1195 -17.1174 -17.1137 -17.1128
   -17.1126 -17.1123 -17.1106 -17.1099 -17.1082 -17.1077 -17.1067 -17.1034
   -17.1029 -17.1027 -17.1003 -17.0999 -17.0979 -17.0968 -17.0965 -17.0963
   -17.0961 -17.0959 -17.0946 -17.0914 -17.0905 -17.0880 -17.0879 -17.0877
   -17.0872 -17.0843 -17.0813 -17.0751 -17.0706 -17.0690 -17.0663 -17.0596
[...]
     atom   13 type  1   force =   0.51154744E-03 -0.43106454E-03 -0.16740789E-03
     atom   14 type  2   force =   0.81442273E-04 -0.81135052E-03  0.13978997E-03
     atom   15 type  2   force =   0.31295694E-03  0.21590771E-03 -0.16603887E-03
     atom   16 type  1   force =   0.35357101E-03 -0.13336895E-03 -0.24982924E-04
     atom   17 type  1   force =  -0.27604752E-03  0.16579908E-03 -0.37401044E-04
     atom   18 type  2   force =  -0.24464456E-03 -0.41193521E-03  0.14517977E-03
     atom   19 type  2   force =  -0.74956274E-04  0.61419422E-05 -0.69826445E-03
     atom   20 type  2   force =   0.11625929E-03  0.77827327E-03  0.89895641E-04
     atom   21 type  1   force =  -0.23207144E-05 -0.11580508E-03 -0.87743984E-04
     atom   22 type  2   force =  -0.75679530E-04  0.57635226E-04 -0.33814580E-03
     atom   23 type  1   force =   0.21320373E-03 -0.16634868E-04 -0.25328579E-04
     atom   24 type  2   force =  -0.71711682E-04 -0.40021508E-04 -0.77481729E-03
     atom   25 type  1   force =   0.55314218E-04  0.32587814E-04  0.24166188E-03
     atom   26 type  1   force =  -0.15336393E-03 -0.21964659E-03  0.68258613E-04
     atom   27 type  2   force =   0.10584652E-03 -0.48753173E-03 -0.59952757E-05
     atom   28 type  2   force =   0.32100041E-03  0.22806332E-03  0.45364295E-03
     atom   29 type  1   force =  -0.10030323E-03 -0.65851530E-04 -0.34627214E-03
     atom   30 type  2   force =  -0.10190879E-04 -0.43615135E-04 -0.92554307E-04
     atom   31 type  1   force =   0.50879611E-04  0.30223221E-03 -0.16025675E-03
     atom   32 type  1   force =  -0.84955910E-04  0.11831614E-03 -0.25115276E-03
     atom   33 type  2   force =   0.46760318E-04 -0.70488564E-03  0.86957074E-04
     atom   34 type  2   force =  -0.10483545E-03  0.17495699E-03  0.51361609E-03
     atom   35 type  2   force =  -0.73786178E-04 -0.14888011E-03 -0.50766917E-03
     atom   36 type  2   force =   0.52368616E-03 -0.23070744E-04  0.23678871E-04
     atom   37 type  1   force =   0.11229574E-03  0.90833132E-04  0.19099776E-03
     atom   38 type  1   force =  -0.27261863E-03 -0.90257760E-04 -0.26781060E-05
     atom   39 type  1   force =   0.77824641E-05  0.51521042E-03  0.23376732E-03
     atom   40 type  1   force =  -0.20784920E-03 -0.12249149E-03 -0.43377377E-04
     atom   41 type  2   force =  -0.12347720E-03  0.34762762E-05  0.71575483E-03
     atom   42 type  1   force =  -0.95129324E-05  0.16235320E-03  0.12936027E-03
     atom   43 type  1   force =  -0.25381673E-03  0.17993120E-03 -0.57522924E-04
     atom   44 type  2   force =  -0.39083917E-03 -0.32228955E-03  0.41658997E-03
     atom   45 type  2   force =   0.22612987E-04  0.72207452E-03 -0.13704008E-03
     atom   46 type  1   force =  -0.20710419E-03  0.27399065E-03  0.37731620E-03
     atom   47 type  2   force =   0.28683829E-03 -0.30833047E-03  0.37713863E-03
     atom   48 type  1   force =   0.27379111E-03 -0.21002867E-04  0.78037953E-04
     atom   49 type  2   force =   0.16649358E-04  0.90680800E-04 -0.17565260E-03
     atom   50 type  2   force =  -0.47681230E-04  0.55077958E-03 -0.33249894E-03
     atom   51 type  1   force =   0.19171293E-03  0.44500173E-04  0.20506517E-03
     atom   52 type  1   force =  -0.77166602E-04 -0.10475088E-03 -0.30819996E-03
     atom   53 type  1   force =  -0.38851872E-03 -0.89902847E-04  0.26225326E-03
     atom   54 type  2   force =  -0.35461644E-03 -0.15564483E-03  0.48430770E-03
     atom   55 type  2   force =  -0.11034518E-03  0.68126983E-03 -0.24518178E-03
     atom   56 type  1   force =   0.10597873E-03  0.14360814E-03  0.23521459E-03
     atom   57 type  1   force =  -0.14899541E-03 -0.22112089E-03 -0.10931600E-03
     atom   58 type  2   force =  -0.29637282E-03  0.36919447E-03 -0.15700484E-03
     atom   59 type  1   force =   0.13820525E-03  0.11461169E-03  0.10517997E-03
     atom   60 type  1   force =   0.15883112E-03 -0.22035254E-03 -0.13073567E-03
     atom   61 type  1   force =  -0.21488433E-03  0.26592686E-03  0.17158812E-03
     atom   62 type  1   force =  -0.65454463E-04  0.53725438E-04  0.51586184E-04
     atom   63 type  1   force =  -0.11805612E-03  0.65221322E-04 -0.12248138E-03
     atom   64 type  2   force =  -0.58214688E-03  0.23831229E-03 -0.20879850E-03
     The Hubbard contrib.    to forces
     atom    1 type  1   force =   0.00000000E+00  0.00000000E+00  0.00000000E+00
     atom    2 type  1   force =   0.00000000E+00  0.00000000E+00  0.00000000E+00
     atom    3 type  2   force =   0.00000000E+00  0.00000000E+00  0.00000000E+00
     atom    4 type  1   force =   0.00000000E+00  0.00000000E+00  0.00000000E+00
     atom    5 type  1   force =   0.00000000E+00  0.00000000E+00  0.00000000E+00
     atom    6 type  2   force =   0.00000000E+00  0.00000000E+00  0.00000000E+00
     atom    7 type  2   force =   0.00000000E+00  0.00000000E+00  0.00000000E+00
     atom    8 type  2   force =   0.00000000E+00  0.00000000E+00  0.00000000E+00
     atom    9 type  1   force =   0.00000000E+00  0.00000000E+00  0.00000000E+00
     atom   10 type  2   force =   0.00000000E+00  0.00000000E+00  0.00000000E+00
     atom   11 type  1   force =   0.00000000E+00  0.00000000E+00  0.00000000E+00
     atom   12 type  2   force =   0.00000000E+00  0.00000000E+00  0.00000000E+00
     atom   13 type  1   force =   0.00000000E+00  0.00000000E+00  0.00000000E+00
     atom   14 type  2   force =   0.00000000E+00  0.00000000E+00  0.00000000E+00
     atom   15 type  2   force =   0.00000000E+00  0.00000000E+00  0.00000000E+00
     atom   16 type  1   force =   0.00000000E+00  0.00000000E+00  0.00000000E+00
     atom   17 type  1   force =   0.00000000E+00  0.00000000E+00  0.00000000E+00
     atom   18 type  2   force =   0.00000000E+00  0.00000000E+00  0.00000000E+00
     atom   19 type  2   force =   0.00000000E+00  0.00000000E+00  0.00000000E+00
     atom   20 type  2   force =   0.00000000E+00  0.00000000E+00  0.00000000E+00
     atom   21 type  1   force =   0.00000000E+00  0.00000000E+00  0.00000000E+00
     atom   22 type  2   force =   0.00000000E+00  0.00000000E+00  0.00000000E+00
     atom   23 type  1   force =   0.00000000E+00  0.00000000E+00  0.00000000E+00
     atom   24 type  2   force =   0.00000000E+00  0.00000000E+00  0.00000000E+00
     atom   25 type  1   force =   0.00000000E+00  0.00000000E+00  0.00000000E+00
     atom   26 type  1   force =   0.00000000E+00  0.00000000E+00  0.00000000E+00
     atom   27 type  2   force =   0.00000000E+00  0.00000000E+00  0.00000000E+00
     atom   28 type  2   force =   0.00000000E+00  0.00000000E+00  0.00000000E+00
     atom   29 type  1   force =   0.00000000E+00  0.00000000E+00  0.00000000E+00
     atom   30 type  2   force =   0.00000000E+00  0.00000000E+00  0.00000000E+00
     atom   31 type  1   force =   0.00000000E+00  0.00000000E+00  0.00000000E+00
     atom   32 type  1   force =   0.00000000E+00  0.00000000E+00  0.00000000E+00
     atom   33 type  2   force =   0.00000000E+00  0.00000000E+00  0.00000000E+00
     atom   34 type  2   force =   0.00000000E+00  0.00000000E+00  0.00000000E+00
     atom   35 type  2   force =   0.00000000E+00  0.00000000E+00  0.00000000E+00
     atom   36 type  2   force =   0.00000000E+00  0.00000000E+00  0.00000000E+00
     atom   37 type  1   force =   0.00000000E+00  0.00000000E+00  0.00000000E+00
     atom   38 type  1   force =   0.00000000E+00  0.00000000E+00  0.00000000E+00
     atom   39 type  1   force =   0.00000000E+00  0.00000000E+00  0.00000000E+00
     atom   40 type  1   force =   0.00000000E+00  0.00000000E+00  0.00000000E+00
     atom   41 type  2   force =   0.00000000E+00  0.00000000E+00  0.00000000E+00
     atom   42 type  1   force =   0.00000000E+00  0.00000000E+00  0.00000000E+00
     atom   43 type  1   force =   0.00000000E+00  0.00000000E+00  0.00000000E+00
     atom   44 type  2   force =   0.00000000E+00  0.00000000E+00  0.00000000E+00
     atom   45 type  2   force =   0.00000000E+00  0.00000000E+00  0.00000000E+00
     atom   46 type  1   force =   0.00000000E+00  0.00000000E+00  0.00000000E+00
     atom   47 type  2   force =   0.00000000E+00  0.00000000E+00  0.00000000E+00
     atom   48 type  1   force =   0.00000000E+00  0.00000000E+00  0.00000000E+00
     atom   49 type  2   force =   0.00000000E+00  0.00000000E+00  0.00000000E+00
     atom   50 type  2   force =   0.00000000E+00  0.00000000E+00  0.00000000E+00
     atom   51 type  1   force =   0.00000000E+00  0.00000000E+00  0.00000000E+00
     atom   52 type  1   force =   0.00000000E+00  0.00000000E+00  0.00000000E+00
     atom   53 type  1   force =   0.00000000E+00  0.00000000E+00  0.00000000E+00
     atom   54 type  2   force =   0.00000000E+00  0.00000000E+00  0.00000000E+00
     atom   55 type  2   force =   0.00000000E+00  0.00000000E+00  0.00000000E+00
     atom   56 type  1   force =   0.00000000E+00  0.00000000E+00  0.00000000E+00
     atom   57 type  1   force =   0.00000000E+00  0.00000000E+00  0.00000000E+00
     atom   58 type  2   force =   0.00000000E+00  0.00000000E+00  0.00000000E+00
     atom   59 type  1   force =   0.00000000E+00  0.00000000E+00  0.00000000E+00
     atom   60 type  1   force =   0.00000000E+00  0.00000000E+00  0.00000000E+00
     atom   61 type  1   force =   0.00000000E+00  0.00000000E+00  0.00000000E+00
     atom   62 type  1   force =   0.00000000E+00  0.00000000E+00  0.00000000E+00
     atom   63 type  1   force =   0.00000000E+00  0.00000000E+00  0.00000000E+00
     atom   64 type  2   force =   0.00000000E+00  0.00000000E+00  0.00000000E+00
     The SCF correction term to forces
     atom    1 type  1   force =   0.47475005E-06  0.98311445E-06  0.15545613E-05
     atom    2 type  1   force =   0.32142850E-07 -0.17618283E-05  0.16132587E-05
     atom    3 type  2   force =  -0.25182106E-05 -0.12613623E-04  0.11114058E-04
     atom    4 type  1   force =  -0.71386363E-06 -0.13746162E-05 -0.25533996E-06
     atom    5 type  1   force =   0.15629234E-06 -0.22802512E-05 -0.13637656E-05
     atom    6 type  2   force =  -0.99960525E-05  0.81540760E-06 -0.24828206E-05
     atom    7 type  2   force =   0.10542231E-04  0.44760266E-05  0.91150435E-05
     atom    8 type  2   force =  -0.19044023E-05  0.10892061E-04  0.12192478E-04
     atom    9 type  1   force =  -0.24742688E-05 -0.25407972E-05 -0.52213413E-06
     atom   10 type  2   force =  -0.86614244E-05 -0.86774410E-05 -0.64976044E-05
     atom   11 type  1   force =   0.23245534E-05  0.10693220E-05 -0.27123259E-05
     atom   12 type  2   force =   0.38335873E-05  0.11352847E-04  0.67712737E-05
     atom   13 type  1   force =   0.39225781E-06  0.12996587E-05 -0.19262657E-05
     atom   14 type  2   force =   0.54105734E-05  0.73692303E-05 -0.29951470E-08
     atom   15 type  2   force =  -0.17519491E-05  0.80380245E-05 -0.10103134E-04
     atom   16 type  1   force =   0.20956149E-05  0.39569834E-07 -0.42781375E-06
     atom   17 type  1   force =  -0.17224675E-05  0.26390848E-06 -0.24268023E-06
     atom   18 type  2   force =  -0.16067556E-05 -0.15647532E-04 -0.11053645E-04
     atom   19 type  2   force =  -0.96444432E-05 -0.92488081E-05  0.74980219E-06
     atom   20 type  2   force =  -0.54623350E-05 -0.10798318E-04  0.10177513E-04
     atom   21 type  1   force =   0.77390080E-06 -0.13861050E-06  0.47906369E-06
     atom   22 type  2   force =   0.69970182E-05  0.59224561E-05  0.55289786E-05
     atom   23 type  1   force =  -0.24086917E-06 -0.11136171E-05 -0.26953338E-05
     atom   24 type  2   force =  -0.11520452E-04 -0.19930733E-05  0.21105885E-05
     atom   25 type  1   force =   0.14116184E-05 -0.54747140E-06  0.16818301E-05
     atom   26 type  1   force =   0.13996890E-06  0.42599692E-06  0.19213974E-05
     atom   27 type  2   force =   0.73602215E-05 -0.88812985E-05 -0.64704901E-05
     atom   28 type  2   force =   0.72811371E-06  0.11748556E-04 -0.10834587E-04
     atom   29 type  1   force =   0.28983819E-05  0.63632818E-06 -0.13291056E-05
     atom   30 type  2   force =  -0.82224741E-05  0.12587749E-04  0.22846220E-05
     atom   31 type  1   force =  -0.85697959E-06  0.20033020E-05  0.21236898E-05
     atom   32 type  1   force =  -0.38717383E-06  0.16907299E-05 -0.11702980E-05
     atom   33 type  2   force =   0.26364898E-05 -0.56896970E-05 -0.95220236E-05
     atom   34 type  2   force =  -0.10257781E-04  0.44903471E-05 -0.87890326E-05
     atom   35 type  2   force =   0.42256754E-06 -0.26363979E-06  0.11358165E-05
     atom   36 type  2   force =  -0.52380763E-05  0.46245171E-06  0.50675884E-05
     atom   37 type  1   force =   0.48272244E-06  0.13927892E-05  0.22799969E-05
     atom   38 type  1   force =   0.79949584E-06  0.11361007E-05 -0.10042091E-05
     atom   39 type  1   force =  -0.13193425E-05 -0.53495676E-06 -0.80370520E-06
     atom   40 type  1   force =  -0.19146319E-05 -0.28049747E-05 -0.43742057E-06
     atom   41 type  2   force =  -0.22647970E-05  0.80025413E-05  0.11573238E-04
     atom   42 type  1   force =   0.89248745E-06  0.65638475E-06  0.14257789E-05
     atom   43 type  1   force =  -0.38950251E-06  0.23725829E-05 -0.74620832E-06
     atom   44 type  2   force =   0.79398359E-05 -0.29086950E-05 -0.15062025E-04
     atom   45 type  2   force =  -0.90211234E-05  0.81499706E-05 -0.22135586E-05
     atom   46 type  1   force =   0.85288230E-06 -0.17393337E-05  0.14915970E-05
     atom   47 type  2   force =   0.52735330E-05 -0.53243850E-05  0.72005786E-05
     atom   48 type  1   force =   0.21369139E-05 -0.36276489E-07  0.41641706E-06
     atom   49 type  2   force =   0.85369738E-05  0.61206491E-06 -0.13109573E-05
     atom   50 type  2   force =  -0.76729420E-06  0.81563566E-05  0.19246458E-04
     atom   51 type  1   force =  -0.16092216E-05  0.44085147E-06  0.22530800E-05
     atom   52 type  1   force =  -0.12570173E-05 -0.58519913E-06 -0.10107409E-06
     atom   53 type  1   force =  -0.17454084E-05  0.64393573E-06 -0.97112688E-06
     atom   54 type  2   force =   0.63833390E-05 -0.44557811E-05 -0.69531314E-05
     atom   55 type  2   force =   0.52765866E-05  0.11483221E-04  0.12215580E-04
     atom   56 type  1   force =   0.87535964E-06 -0.86628865E-06  0.13060387E-05
     atom   57 type  1   force =  -0.18661454E-05 -0.18516573E-05  0.82710242E-06
     atom   58 type  2   force =  -0.46190160E-05 -0.54961406E-05 -0.14277230E-04
     atom   59 type  1   force =   0.16768884E-05  0.29187068E-05 -0.47322359E-06
     atom   60 type  1   force =   0.26622826E-05  0.16866715E-05 -0.15306949E-05
     atom   61 type  1   force =   0.15190165E-05  0.43923995E-06  0.17885388E-06
     atom   62 type  1   force =  -0.37597063E-06 -0.55114578E-06 -0.19171515E-05
     atom   63 type  1   force =  -0.11964213E-05 -0.24088906E-05 -0.17001913E-05
     atom   64 type  2   force =  -0.12184205E-04 -0.25504436E-05 -0.50324729E-06

     Total force =     0.134862     Total SCF correction =     0.000077


     entering subroutine stress ...

          total   stress  (Ry/bohr**3)                   (kbar)     P=   -1.37
  -0.0000092202   0.0000002921   0.0000000901         -1.36      0.04      0.01
   0.0000002921  -0.0000093951  -0.0000001196          0.04     -1.38     -0.02
   0.0000000901  -0.0000001196  -0.0000094228          0.01     -0.02     -1.39

     kinetic stress (kbar)   6137.80     -0.00      0.03
                               -0.00   6137.76     -0.14
                                0.03     -0.14   6137.77

     local   stress (kbar)  -4951.65   2326.47  -1873.99
                             2326.47  -4509.25    274.04
                            -1873.99    274.04  -4638.58

     nonloc. stress (kbar)   2453.19     -0.12     -0.13
                               -0.12   2453.17      0.41
                               -0.13      0.41   2453.18

     hartree stress (kbar)  16169.51  -1163.64    931.45
                            -1163.64  15953.66   -102.70
                              931.45   -102.70  16016.88

     exc-cor stress (kbar)  10312.87     -0.00     -0.00
                               -0.00  10312.87      0.01
                               -0.00      0.01  10312.87

     corecor stress (kbar) -15683.92     -0.01     -0.01
                               -0.01 -15683.92      0.01
                               -0.01      0.01 -15683.92

     ewald   stress (kbar) -14439.15  -1162.65    942.66
                            -1162.65 -14665.67   -171.65
                              942.66   -171.65 -14599.58

     hubbard stress (kbar)      0.00      0.00      0.00
                                0.00      0.00      0.00
                                0.00      0.00      0.00

     london  stress (kbar)      0.00      0.00      0.00
                                0.00      0.00      0.00
                                0.00      0.00      0.00

     XDM     stress (kbar)      0.00      0.00      0.00
                                0.00      0.00      0.00
                                0.00      0.00      0.00

     dft-nl  stress (kbar)      0.00      0.00      0.00
                                0.00      0.00      0.00
                                0.00      0.00      0.00



     Writing output data file SiGe_zns.scf.in.super.228.c.044.save

     init_run     :    181.91s CPU    166.44s WALL (       1 calls)
     electrons    :   8515.64s CPU   7982.99s WALL (       1 calls)
     forces       :     92.43s CPU     73.14s WALL (       1 calls)
     stress       :    343.30s CPU    342.97s WALL (       1 calls)

     Called by init_run:
     wfcinit      :    174.08s CPU    158.45s WALL (       1 calls)
     potinit      :      0.67s CPU      0.70s WALL (       1 calls)

     Called by electrons:
     c_bands      :   7433.15s CPU   6924.32s WALL (      19 calls)
     sum_band     :    967.46s CPU    939.72s WALL (      19 calls)
     v_of_rho     :      4.28s CPU      4.65s WALL (      19 calls)
     v_h          :      0.26s CPU      0.31s WALL (      19 calls)
     v_xc         :      4.42s CPU      4.79s WALL (      21 calls)
     newd         :    108.85s CPU    111.67s WALL (      19 calls)
     mix_rho      :      7.02s CPU      7.73s WALL (      19 calls)

     Called by c_bands:
     init_us_2    :     16.71s CPU     17.20s WALL (     410 calls)
     cegterg      :   7336.65s CPU   6821.47s WALL (     190 calls)

     Called by sum_band:
     sum_band:bec :      5.85s CPU      5.86s WALL (     190 calls)
     addusdens    :    104.28s CPU    104.98s WALL (      19 calls)

     Called by *egterg:
     h_psi        :   3407.57s CPU   3266.87s WALL (     679 calls)
     s_psi        :    764.82s CPU    575.15s WALL (     679 calls)
     g_psi        :      2.35s CPU      2.38s WALL (     479 calls)
     cdiaghg      :   1786.99s CPU   1835.32s WALL (     659 calls)
     cegterg:over :    663.72s CPU    545.03s WALL (     479 calls)
     cegterg:upda :    299.83s CPU    231.05s WALL (     479 calls)
     cegterg:last :    207.74s CPU    154.62s WALL (     190 calls)

     Called by h_psi:
     h_psi:vloc   :   1791.18s CPU   2021.11s WALL (     679 calls)
     h_psi:vnl    :   1610.43s CPU   1239.72s WALL (     679 calls)
     add_vuspsi   :    758.48s CPU    568.28s WALL (     679 calls)

     General routines
     calbec       :   1336.59s CPU   1066.96s WALL (     889 calls)
     fft          :     25.15s CPU     25.66s WALL (     329 calls)
     ffts         :      4.33s CPU      4.80s WALL (     545 calls)
     fftw         :   2049.44s CPU   2315.68s WALL (  360544 calls)
     interpolate  :      0.93s CPU      1.08s WALL (      38 calls)

     Parallel routines
     fft_scatter  :   1280.86s CPU   1483.93s WALL (  361418 calls)

     PWSCF        :     2h32m CPU        2h23m WALL


   This run was terminated on:   9:21:32  13Feb2017            

=------------------------------------------------------------------------------=
   JOB DONE.
=------------------------------------------------------------------------------=
