
     Program PWSCF v.5.1 starts on 18Jan2017 at 22:28:40 

     This program is part of the open-source Quantum ESPRESSO suite
     for quantum simulation of materials; please cite
         "P. Giannozzi et al., J. Phys.:Condens. Matter 21 395502 (2009);
          URL http://www.quantum-espresso.org", 
     in publications or presentations arising from this work. More details at
     http://www.quantum-espresso.org/quote

     Parallel version (MPI), running on    16 processors
     R & G space division:  proc/nbgrp/npool/nimage =      16
     Reading input from /tmp/SiGe_zns.scf.in.super.444.mix.27490/SiGe_zns.scf.in.super.444.mix.t
Warning: card &IONS ignored
Warning: card   ION_DYNAMICS='BFGS', ignored
Warning: card / ignored
Warning: card &CELL ignored
Warning: card  CELL_DYNAMICS = 'BFGS' ignored
Warning: card / ignored
     Message from routine read_cards :
     DEPRECATED: no units specified in CELL_PARAMETERS card

     Current dimensions of program PWSCF are:
     Max number of different atomic species (ntypx) = 10
     Max number of k-points (npk) =  40000
     Max angular momentum in pseudopotentials (lmaxx) =  3

     Subspace diagonalization in iterative solution of the eigenvalue problem:
     a serial algorithm will be used


     Parallelization info
     --------------------
     sticks:   dense  smooth     PW     G-vecs:    dense   smooth      PW
     Min         756     527    138                54768    32060    4315
     Max         757     528    139                54770    32083    4319
     Sum       12097    8443   2221               876295   513103   69089



     bravais-lattice index     =            0
     lattice parameter (alat)  =    29.598892955  a.u.
     unit-cell volume          =   18336.2874 (a.u.)^3
     number of atoms/cell      =          128
     number of atomic types    =            2
     number of electrons       =      1152.00
     number of Kohn-Sham states=          691
     kinetic-energy cutoff     =      35.0000  Ry
     charge density cutoff     =     200.0000  Ry
     convergence threshold     =      1.0E-09
     mixing beta               =       0.3000
     number of iterations used =            8  local-TF  mixing
     Exchange-correlation      = SLA  PW   PSX  PSC ( 1  4 10  8 0)
     A smooth kinetic-energy cutoff is imposed at      34.5000 Ry
     height of the smooth step-function =             800.0000 Ry
     width of the smooth step-function  =               1.0000 Ry


     celldm(1)=  29.598893  celldm(2)=   0.000000  celldm(3)=   0.000000
     celldm(4)=   0.000000  celldm(5)=   0.000000  celldm(6)=   0.000000

     crystal axes: (cart. coord. in units of alat)
               a(1) = (  -0.000000000000   0.707106781187   0.707106781187 )  
               a(2) = (   0.707106781187  -0.000000000000   0.707106781187 )  
               a(3) = (   0.707106781187   0.707106781187  -0.000000000000 )  

     reciprocal axes: (cart. coord. in units 2 pi/alat)
               b(1) = ( -0.707107  0.707107  0.707107 )  
               b(2) = (  0.707107 -0.707107  0.707107 )  
               b(3) = (  0.707107  0.707107 -0.707107 )  


     PseudoPot. # 1 for Si read from file:
     /users/kfg/psuedo/gbrv_1.5/si.pbesol.UPF
     MD5 check sum: ef58ba74faed4df802eb8a9742fc00a8
     Pseudo is Ultrasoft + core correction, Zval =  4.0
     Generated by new atomic code, or converted to UPF format
     Using radial grid of  899 points,  6 beta functions with: 
                l(1) =   0
                l(2) =   0
                l(3) =   1
                l(4) =   1
                l(5) =   2
                l(6) =   2
     Q(r) pseudized with  8 coefficients,  rinner =    0.900   0.900   0.900
                                                       0.900   0.900

     PseudoPot. # 2 for Ge read from file:
     /users/kfg/psuedo/gbrv_1.5/ge.pbesol.UPF
     MD5 check sum: 7bed0412183f5e553a4d27ec7023354d
     Pseudo is Ultrasoft + core correction, Zval = 14.0
     Generated by new atomic code, or converted to UPF format
     Using radial grid of  873 points,  6 beta functions with: 
                l(1) =   0
                l(2) =   0
                l(3) =   1
                l(4) =   1
                l(5) =   2
                l(6) =   2
     Q(r) pseudized with  8 coefficients,  rinner =    1.400   1.400   1.400
                                                       1.400   1.400

     atomic species   valence    mass     pseudopotential
        Si             4.00    28.08550     Si( 1.00)
        Ge            14.00    72.64000     Ge( 1.00)

     No symmetry found


                                    s                        frac. trans.

      isym =  1     identity                                     

 cryst.   s( 1) = (     1          0          0      )
                  (     0          1          0      )
                  (     0          0          1      )

 cart.    s( 1) = (  1.0000000  0.0000000  0.0000000 )
                  (  0.0000000  1.0000000  0.0000000 )
                  (  0.0000000  0.0000000  1.0000000 )


     point group C_1 (1)    
     there are  1 classes
     the character table:

       E    
A      1.00

     the symmetry operations in each class:
     E        1

   Cartesian axes

     site n.     atom                  positions (alat units)
         1           Si  tau(   1) = (    0.00000000000    0.00000000000    0.00000000000  )
         2           Si  tau(   2) = (    0.08838834765    0.08838834765    0.08838834765  )
         3           Ge  tau(   3) = (    0.17677669530    0.17677669530    0.00000000000  )
         4           Ge  tau(   4) = (    0.26516504294    0.26516504294    0.08838834765  )
         5           Ge  tau(   5) = (    0.35355339059    0.35355339059    0.00000000000  )
         6           Ge  tau(   6) = (    0.44194173824    0.44194173824    0.08838834765  )
         7           Si  tau(   7) = (    0.53033008589    0.53033008589    0.00000000000  )
         8           Si  tau(   8) = (    0.61871843354    0.61871843354    0.08838834765  )
         9           Si  tau(   9) = (    0.17677669530    0.00000000000    0.17677669530  )
        10           Ge  tau(  10) = (    0.26516504294    0.08838834765    0.26516504294  )
        11           Si  tau(  11) = (    0.35355339059    0.17677669530    0.17677669530  )
        12           Ge  tau(  12) = (    0.44194173824    0.26516504294    0.26516504294  )
        13           Si  tau(  13) = (    0.53033008589    0.35355339059    0.17677669530  )
        14           Si  tau(  14) = (    0.61871843354    0.44194173824    0.26516504294  )
        15           Si  tau(  15) = (    0.70710678119    0.53033008589    0.17677669530  )
        16           Ge  tau(  16) = (    0.79549512883    0.61871843354    0.26516504294  )
        17           Si  tau(  17) = (    0.35355339059    0.00000000000    0.35355339059  )
        18           Ge  tau(  18) = (    0.44194173824    0.08838834765    0.44194173824  )
        19           Ge  tau(  19) = (    0.53033008589    0.17677669530    0.35355339059  )
        20           Ge  tau(  20) = (    0.61871843354    0.26516504294    0.44194173824  )
        21           Si  tau(  21) = (    0.70710678119    0.35355339059    0.35355339059  )
        22           Ge  tau(  22) = (    0.79549512883    0.44194173824    0.44194173824  )
        23           Si  tau(  23) = (    0.88388347648    0.53033008589    0.35355339059  )
        24           Ge  tau(  24) = (    0.97227182413    0.61871843354    0.44194173824  )
        25           Ge  tau(  25) = (    0.53033008589    0.00000000000    0.53033008589  )
        26           Ge  tau(  26) = (    0.61871843354    0.08838834765    0.61871843354  )
        27           Si  tau(  27) = (    0.70710678119    0.17677669530    0.53033008589  )
        28           Ge  tau(  28) = (    0.79549512883    0.26516504294    0.61871843354  )
        29           Si  tau(  29) = (    0.88388347648    0.35355339059    0.53033008589  )
        30           Si  tau(  30) = (    0.97227182413    0.44194173824    0.61871843354  )
        31           Si  tau(  31) = (    1.06066017178    0.53033008589    0.53033008589  )
        32           Ge  tau(  32) = (    1.14904851943    0.61871843354    0.61871843354  )
        33           Si  tau(  33) = (    0.00000000000    0.17677669530    0.17677669530  )
        34           Si  tau(  34) = (    0.08838834765    0.26516504294    0.26516504294  )
        35           Si  tau(  35) = (    0.17677669530    0.35355339059    0.17677669530  )
        36           Ge  tau(  36) = (    0.26516504294    0.44194173824    0.26516504294  )
        37           Si  tau(  37) = (    0.35355339059    0.53033008589    0.17677669530  )
        38           Ge  tau(  38) = (    0.44194173824    0.61871843354    0.26516504294  )
        39           Si  tau(  39) = (    0.53033008589    0.70710678119    0.17677669530  )
        40           Ge  tau(  40) = (    0.61871843354    0.79549512883    0.26516504294  )
        41           Si  tau(  41) = (    0.17677669530    0.17677669530    0.35355339059  )
        42           Ge  tau(  42) = (    0.26516504294    0.26516504294    0.44194173824  )
        43           Ge  tau(  43) = (    0.35355339059    0.35355339059    0.35355339059  )
        44           Ge  tau(  44) = (    0.44194173824    0.44194173824    0.44194173824  )
        45           Si  tau(  45) = (    0.53033008589    0.53033008589    0.35355339059  )
        46           Ge  tau(  46) = (    0.61871843354    0.61871843354    0.44194173824  )
        47           Si  tau(  47) = (    0.70710678119    0.70710678119    0.35355339059  )
        48           Ge  tau(  48) = (    0.79549512883    0.79549512883    0.44194173824  )
        49           Si  tau(  49) = (    0.35355339059    0.17677669530    0.53033008589  )
        50           Ge  tau(  50) = (    0.44194173824    0.26516504294    0.61871843354  )
        51           Ge  tau(  51) = (    0.53033008589    0.35355339059    0.53033008589  )
        52           Ge  tau(  52) = (    0.61871843354    0.44194173824    0.61871843354  )
        53           Si  tau(  53) = (    0.70710678119    0.53033008589    0.53033008589  )
        54           Ge  tau(  54) = (    0.79549512883    0.61871843354    0.61871843354  )
        55           Si  tau(  55) = (    0.88388347648    0.70710678119    0.53033008589  )
        56           Si  tau(  56) = (    0.97227182413    0.79549512883    0.61871843354  )
        57           Si  tau(  57) = (    0.53033008589    0.17677669530    0.70710678119  )
        58           Ge  tau(  58) = (    0.61871843354    0.26516504294    0.79549512883  )
        59           Si  tau(  59) = (    0.70710678119    0.35355339059    0.70710678119  )
        60           Ge  tau(  60) = (    0.79549512883    0.44194173824    0.79549512883  )
        61           Si  tau(  61) = (    0.88388347648    0.53033008589    0.70710678119  )
        62           Ge  tau(  62) = (    0.97227182413    0.61871843354    0.79549512883  )
        63           Si  tau(  63) = (    1.06066017178    0.70710678119    0.70710678119  )
        64           Ge  tau(  64) = (    1.14904851943    0.79549512883    0.79549512883  )
        65           Si  tau(  65) = (    0.00000000000    0.35355339059    0.35355339059  )
        66           Ge  tau(  66) = (    0.08838834765    0.44194173824    0.44194173824  )
        67           Si  tau(  67) = (    0.17677669530    0.53033008589    0.35355339059  )
        68           Ge  tau(  68) = (    0.26516504294    0.61871843354    0.44194173824  )
        69           Si  tau(  69) = (    0.35355339059    0.70710678119    0.35355339059  )
        70           Ge  tau(  70) = (    0.44194173824    0.79549512883    0.44194173824  )
        71           Si  tau(  71) = (    0.53033008589    0.88388347648    0.35355339059  )
        72           Ge  tau(  72) = (    0.61871843354    0.97227182413    0.44194173824  )
        73           Si  tau(  73) = (    0.17677669530    0.35355339059    0.53033008589  )
        74           Ge  tau(  74) = (    0.26516504294    0.44194173824    0.61871843354  )
        75           Si  tau(  75) = (    0.35355339059    0.53033008589    0.53033008589  )
        76           Ge  tau(  76) = (    0.44194173824    0.61871843354    0.61871843354  )
        77           Ge  tau(  77) = (    0.53033008589    0.70710678119    0.53033008589  )
        78           Ge  tau(  78) = (    0.61871843354    0.79549512883    0.61871843354  )
        79           Si  tau(  79) = (    0.70710678119    0.88388347648    0.53033008589  )
        80           Ge  tau(  80) = (    0.79549512883    0.97227182413    0.61871843354  )
        81           Si  tau(  81) = (    0.35355339059    0.35355339059    0.70710678119  )
        82           Si  tau(  82) = (    0.44194173824    0.44194173824    0.79549512883  )
        83           Si  tau(  83) = (    0.53033008589    0.53033008589    0.70710678119  )
        84           Ge  tau(  84) = (    0.61871843354    0.61871843354    0.79549512883  )
        85           Si  tau(  85) = (    0.70710678119    0.70710678119    0.70710678119  )
        86           Ge  tau(  86) = (    0.79549512883    0.79549512883    0.79549512883  )
        87           Si  tau(  87) = (    0.88388347648    0.88388347648    0.70710678119  )
        88           Ge  tau(  88) = (    0.97227182413    0.97227182413    0.79549512883  )
        89           Ge  tau(  89) = (    0.53033008589    0.35355339059    0.88388347648  )
        90           Ge  tau(  90) = (    0.61871843354    0.44194173824    0.97227182413  )
        91           Si  tau(  91) = (    0.70710678119    0.53033008589    0.88388347648  )
        92           Ge  tau(  92) = (    0.79549512883    0.61871843354    0.97227182413  )
        93           Si  tau(  93) = (    0.88388347648    0.70710678119    0.88388347648  )
        94           Ge  tau(  94) = (    0.97227182413    0.79549512883    0.97227182413  )
        95           Si  tau(  95) = (    1.06066017178    0.88388347648    0.88388347648  )
        96           Ge  tau(  96) = (    1.14904851943    0.97227182413    0.97227182413  )
        97           Si  tau(  97) = (    0.00000000000    0.53033008589    0.53033008589  )
        98           Si  tau(  98) = (    0.08838834765    0.61871843354    0.61871843354  )
        99           Si  tau(  99) = (    0.17677669530    0.70710678119    0.53033008589  )
       100           Ge  tau( 100) = (    0.26516504294    0.79549512883    0.61871843354  )
       101           Si  tau( 101) = (    0.35355339059    0.88388347648    0.53033008589  )
       102           Ge  tau( 102) = (    0.44194173824    0.97227182413    0.61871843354  )
       103           Si  tau( 103) = (    0.53033008589    1.06066017178    0.53033008589  )
       104           Ge  tau( 104) = (    0.61871843354    1.14904851943    0.61871843354  )
       105           Si  tau( 105) = (    0.17677669530    0.53033008589    0.70710678119  )
       106           Ge  tau( 106) = (    0.26516504294    0.61871843354    0.79549512883  )
       107           Si  tau( 107) = (    0.35355339059    0.70710678119    0.70710678119  )
       108           Si  tau( 108) = (    0.44194173824    0.79549512883    0.79549512883  )
       109           Si  tau( 109) = (    0.53033008589    0.88388347648    0.70710678119  )
       110           Ge  tau( 110) = (    0.61871843354    0.97227182413    0.79549512883  )
       111           Si  tau( 111) = (    0.70710678119    1.06066017178    0.70710678119  )
       112           Ge  tau( 112) = (    0.79549512883    1.14904851943    0.79549512883  )
       113           Si  tau( 113) = (    0.35355339059    0.53033008589    0.88388347648  )
       114           Ge  tau( 114) = (    0.44194173824    0.61871843354    0.97227182413  )
       115           Si  tau( 115) = (    0.53033008589    0.70710678119    0.88388347648  )
       116           Ge  tau( 116) = (    0.61871843354    0.79549512883    0.97227182413  )
       117           Ge  tau( 117) = (    0.70710678119    0.88388347648    0.88388347648  )
       118           Ge  tau( 118) = (    0.79549512883    0.97227182413    0.97227182413  )
       119           Si  tau( 119) = (    0.88388347648    1.06066017178    0.88388347648  )
       120           Ge  tau( 120) = (    0.97227182413    1.14904851943    0.97227182413  )
       121           Si  tau( 121) = (    0.53033008589    0.53033008589    1.06066017178  )
       122           Ge  tau( 122) = (    0.61871843354    0.61871843354    1.14904851943  )
       123           Si  tau( 123) = (    0.70710678119    0.70710678119    1.06066017178  )
       124           Ge  tau( 124) = (    0.79549512883    0.79549512883    1.14904851943  )
       125           Si  tau( 125) = (    0.88388347648    0.88388347648    1.06066017178  )
       126           Si  tau( 126) = (    0.97227182413    0.97227182413    1.14904851943  )
       127           Ge  tau( 127) = (    1.06066017178    1.06066017178    1.06066017178  )
       128           Ge  tau( 128) = (    1.14904851943    1.14904851943    1.14904851943  )

   Crystallographic axes

     site n.     atom                  positions (cryst. coord.)
         1           Si  tau(   1) = (    0.00000000000    0.00000000000    0.00000000000  )
         2           Si  tau(   2) = (    0.06250000000    0.06250000000    0.06250000000  )
         3           Ge  tau(   3) = (    0.00000000000    0.00000000000    0.25000000000  )
         4           Ge  tau(   4) = (    0.06250000000    0.06250000000    0.31250000000  )
         5           Ge  tau(   5) = (    0.00000000000    0.00000000000    0.50000000000  )
         6           Ge  tau(   6) = (    0.06250000000    0.06250000000    0.56250000000  )
         7           Si  tau(   7) = (    0.00000000000    0.00000000000    0.75000000000  )
         8           Si  tau(   8) = (    0.06250000000    0.06250000000    0.81250000000  )
         9           Si  tau(   9) = (    0.00000000000    0.25000000000    0.00000000000  )
        10           Ge  tau(  10) = (    0.06250000000    0.31250000000    0.06250000000  )
        11           Si  tau(  11) = (    0.00000000000    0.25000000000    0.25000000000  )
        12           Ge  tau(  12) = (    0.06250000000    0.31250000000    0.31250000000  )
        13           Si  tau(  13) = (    0.00000000000    0.25000000000    0.50000000000  )
        14           Si  tau(  14) = (    0.06250000000    0.31250000000    0.56250000000  )
        15           Si  tau(  15) = (   -0.00000000000    0.25000000000    0.75000000000  )
        16           Ge  tau(  16) = (    0.06250000000    0.31250000000    0.81250000000  )
        17           Si  tau(  17) = (    0.00000000000    0.50000000000    0.00000000000  )
        18           Ge  tau(  18) = (    0.06250000000    0.56250000000    0.06250000000  )
        19           Ge  tau(  19) = (    0.00000000000    0.50000000000    0.25000000000  )
        20           Ge  tau(  20) = (    0.06250000000    0.56250000000    0.31250000000  )
        21           Si  tau(  21) = (    0.00000000000    0.50000000000    0.50000000000  )
        22           Ge  tau(  22) = (    0.06250000000    0.56250000000    0.56250000000  )
        23           Si  tau(  23) = (    0.00000000000    0.50000000000    0.75000000000  )
        24           Ge  tau(  24) = (    0.06250000000    0.56250000000    0.81250000000  )
        25           Ge  tau(  25) = (    0.00000000000    0.75000000000    0.00000000000  )
        26           Ge  tau(  26) = (    0.06250000000    0.81250000000    0.06250000000  )
        27           Si  tau(  27) = (   -0.00000000000    0.75000000000    0.25000000000  )
        28           Ge  tau(  28) = (    0.06250000000    0.81250000000    0.31250000000  )
        29           Si  tau(  29) = (    0.00000000000    0.75000000000    0.50000000000  )
        30           Si  tau(  30) = (    0.06250000000    0.81250000000    0.56250000000  )
        31           Si  tau(  31) = (    0.00000000000    0.75000000000    0.75000000000  )
        32           Ge  tau(  32) = (    0.06250000000    0.81250000000    0.81250000000  )
        33           Si  tau(  33) = (    0.25000000000    0.00000000000    0.00000000000  )
        34           Si  tau(  34) = (    0.31250000000    0.06250000000    0.06250000000  )
        35           Si  tau(  35) = (    0.25000000000    0.00000000000    0.25000000000  )
        36           Ge  tau(  36) = (    0.31250000000    0.06250000000    0.31250000000  )
        37           Si  tau(  37) = (    0.25000000000    0.00000000000    0.50000000000  )
        38           Ge  tau(  38) = (    0.31250000000    0.06250000000    0.56250000000  )
        39           Si  tau(  39) = (    0.25000000000   -0.00000000000    0.75000000000  )
        40           Ge  tau(  40) = (    0.31250000000    0.06250000000    0.81250000000  )
        41           Si  tau(  41) = (    0.25000000000    0.25000000000    0.00000000000  )
        42           Ge  tau(  42) = (    0.31250000000    0.31250000000    0.06250000000  )
        43           Ge  tau(  43) = (    0.25000000000    0.25000000000    0.25000000000  )
        44           Ge  tau(  44) = (    0.31250000000    0.31250000000    0.31250000000  )
        45           Si  tau(  45) = (    0.25000000000    0.25000000000    0.50000000000  )
        46           Ge  tau(  46) = (    0.31250000000    0.31250000000    0.56250000000  )
        47           Si  tau(  47) = (    0.25000000000    0.25000000000    0.75000000000  )
        48           Ge  tau(  48) = (    0.31250000000    0.31250000000    0.81250000000  )
        49           Si  tau(  49) = (    0.25000000000    0.50000000000    0.00000000000  )
        50           Ge  tau(  50) = (    0.31250000000    0.56250000000    0.06250000000  )
        51           Ge  tau(  51) = (    0.25000000000    0.50000000000    0.25000000000  )
        52           Ge  tau(  52) = (    0.31250000000    0.56250000000    0.31250000000  )
        53           Si  tau(  53) = (    0.25000000000    0.50000000000    0.50000000000  )
        54           Ge  tau(  54) = (    0.31250000000    0.56250000000    0.56250000000  )
        55           Si  tau(  55) = (    0.25000000000    0.50000000000    0.75000000000  )
        56           Si  tau(  56) = (    0.31250000000    0.56250000000    0.81250000000  )
        57           Si  tau(  57) = (    0.25000000000    0.75000000000    0.00000000000  )
        58           Ge  tau(  58) = (    0.31250000000    0.81250000000    0.06250000000  )
        59           Si  tau(  59) = (    0.25000000000    0.75000000000    0.25000000000  )
        60           Ge  tau(  60) = (    0.31250000000    0.81250000000    0.31250000000  )
        61           Si  tau(  61) = (    0.25000000000    0.75000000000    0.50000000000  )
        62           Ge  tau(  62) = (    0.31250000000    0.81250000000    0.56250000000  )
        63           Si  tau(  63) = (    0.25000000000    0.75000000000    0.75000000000  )
        64           Ge  tau(  64) = (    0.31250000000    0.81250000000    0.81250000000  )
        65           Si  tau(  65) = (    0.50000000000    0.00000000000    0.00000000000  )
        66           Ge  tau(  66) = (    0.56250000000    0.06250000000    0.06250000000  )
        67           Si  tau(  67) = (    0.50000000000    0.00000000000    0.25000000000  )
        68           Ge  tau(  68) = (    0.56250000000    0.06250000000    0.31250000000  )
        69           Si  tau(  69) = (    0.50000000000    0.00000000000    0.50000000000  )
        70           Ge  tau(  70) = (    0.56250000000    0.06250000000    0.56250000000  )
        71           Si  tau(  71) = (    0.50000000000    0.00000000000    0.75000000000  )
        72           Ge  tau(  72) = (    0.56250000000    0.06250000000    0.81250000000  )
        73           Si  tau(  73) = (    0.50000000000    0.25000000000    0.00000000000  )
        74           Ge  tau(  74) = (    0.56250000000    0.31250000000    0.06250000000  )
        75           Si  tau(  75) = (    0.50000000000    0.25000000000    0.25000000000  )
        76           Ge  tau(  76) = (    0.56250000000    0.31250000000    0.31250000000  )
        77           Ge  tau(  77) = (    0.50000000000    0.25000000000    0.50000000000  )
        78           Ge  tau(  78) = (    0.56250000000    0.31250000000    0.56250000000  )
        79           Si  tau(  79) = (    0.50000000000    0.25000000000    0.75000000000  )
        80           Ge  tau(  80) = (    0.56250000000    0.31250000000    0.81250000000  )
        81           Si  tau(  81) = (    0.50000000000    0.50000000000    0.00000000000  )
        82           Si  tau(  82) = (    0.56250000000    0.56250000000    0.06250000000  )
        83           Si  tau(  83) = (    0.50000000000    0.50000000000    0.25000000000  )
        84           Ge  tau(  84) = (    0.56250000000    0.56250000000    0.31250000000  )
        85           Si  tau(  85) = (    0.50000000000    0.50000000000    0.50000000000  )
        86           Ge  tau(  86) = (    0.56250000000    0.56250000000    0.56250000000  )
        87           Si  tau(  87) = (    0.50000000000    0.50000000000    0.75000000000  )
        88           Ge  tau(  88) = (    0.56250000000    0.56250000000    0.81250000000  )
        89           Ge  tau(  89) = (    0.50000000000    0.75000000000    0.00000000000  )
        90           Ge  tau(  90) = (    0.56250000000    0.81250000000    0.06250000000  )
        91           Si  tau(  91) = (    0.50000000000    0.75000000000    0.25000000000  )
        92           Ge  tau(  92) = (    0.56250000000    0.81250000000    0.31250000000  )
        93           Si  tau(  93) = (    0.50000000000    0.75000000000    0.50000000000  )
        94           Ge  tau(  94) = (    0.56250000000    0.81250000000    0.56250000000  )
        95           Si  tau(  95) = (    0.50000000000    0.75000000000    0.75000000000  )
        96           Ge  tau(  96) = (    0.56250000000    0.81250000000    0.81250000000  )
        97           Si  tau(  97) = (    0.75000000000    0.00000000000    0.00000000000  )
        98           Si  tau(  98) = (    0.81250000000    0.06250000000    0.06250000000  )
        99           Si  tau(  99) = (    0.75000000000   -0.00000000000    0.25000000000  )
       100           Ge  tau( 100) = (    0.81250000000    0.06250000000    0.31250000000  )
       101           Si  tau( 101) = (    0.75000000000    0.00000000000    0.50000000000  )
       102           Ge  tau( 102) = (    0.81250000000    0.06250000000    0.56250000000  )
       103           Si  tau( 103) = (    0.75000000000    0.00000000000    0.75000000000  )
       104           Ge  tau( 104) = (    0.81250000000    0.06250000000    0.81250000000  )
       105           Si  tau( 105) = (    0.75000000000    0.25000000000    0.00000000000  )
       106           Ge  tau( 106) = (    0.81250000000    0.31250000000    0.06250000000  )
       107           Si  tau( 107) = (    0.75000000000    0.25000000000    0.25000000000  )
       108           Si  tau( 108) = (    0.81250000000    0.31250000000    0.31250000000  )
       109           Si  tau( 109) = (    0.75000000000    0.25000000000    0.50000000000  )
       110           Ge  tau( 110) = (    0.81250000000    0.31250000000    0.56250000000  )
       111           Si  tau( 111) = (    0.75000000000    0.25000000000    0.75000000000  )
       112           Ge  tau( 112) = (    0.81250000000    0.31250000000    0.81250000000  )
       113           Si  tau( 113) = (    0.75000000000    0.50000000000    0.00000000000  )
       114           Ge  tau( 114) = (    0.81250000000    0.56250000000    0.06250000000  )
       115           Si  tau( 115) = (    0.75000000000    0.50000000000    0.25000000000  )
       116           Ge  tau( 116) = (    0.81250000000    0.56250000000    0.31250000000  )
       117           Ge  tau( 117) = (    0.75000000000    0.50000000000    0.50000000000  )
       118           Ge  tau( 118) = (    0.81250000000    0.56250000000    0.56250000000  )
       119           Si  tau( 119) = (    0.75000000000    0.50000000000    0.75000000000  )
       120           Ge  tau( 120) = (    0.81250000000    0.56250000000    0.81250000000  )
       121           Si  tau( 121) = (    0.75000000000    0.75000000000    0.00000000000  )
       122           Ge  tau( 122) = (    0.81250000000    0.81250000000    0.06250000000  )
       123           Si  tau( 123) = (    0.75000000000    0.75000000000    0.25000000000  )
       124           Ge  tau( 124) = (    0.81250000000    0.81250000000    0.31250000000  )
       125           Si  tau( 125) = (    0.75000000000    0.75000000000    0.50000000000  )
       126           Si  tau( 126) = (    0.81250000000    0.81250000000    0.56250000000  )
       127           Ge  tau( 127) = (    0.75000000000    0.75000000000    0.75000000000  )
       128           Ge  tau( 128) = (    0.81250000000    0.81250000000    0.81250000000  )

     number of k points=     8  gaussian smearing, width (Ry)=  0.0150
                       cart. coord. in units 2pi/alat
        k(    1) = (   0.0000000   0.0000000   0.0000000), wk =   0.2500000
        k(    2) = (  -0.3535534  -0.3535534   0.3535534), wk =   0.2500000
        k(    3) = (  -0.7071068   0.0000000   0.0000000), wk =   0.2500000
        k(    4) = (   0.3535534   0.3535534   0.3535534), wk =   0.2500000
        k(    5) = (   0.3535534  -0.3535534  -0.3535534), wk =   0.2500000
        k(    6) = (  -0.3535534   0.3535534  -0.3535534), wk =   0.2500000
        k(    7) = (   0.0000000  -0.7071068   0.0000000), wk =   0.2500000
        k(    8) = (   0.0000000   0.0000000  -0.7071068), wk =   0.2500000

                       cryst. coord.
        k(    1) = (   0.0000000   0.0000000   0.0000000), wk =   0.2500000
        k(    2) = (   0.0000000   0.0000000  -0.5000000), wk =   0.2500000
        k(    3) = (   0.0000000  -0.5000000  -0.5000000), wk =   0.2500000
        k(    4) = (   0.5000000   0.5000000   0.5000000), wk =   0.2500000
        k(    5) = (  -0.5000000   0.0000000   0.0000000), wk =   0.2500000
        k(    6) = (   0.0000000  -0.5000000   0.0000000), wk =   0.2500000
        k(    7) = (  -0.5000000   0.0000000  -0.5000000), wk =   0.2500000
        k(    8) = (  -0.5000000  -0.5000000   0.0000000), wk =   0.2500000

     Dense  grid:   876295 G-vectors     FFT dimensions: ( 135, 135, 135)

     Smooth grid:   513103 G-vectors     FFT dimensions: ( 120, 120, 120)

     Largest allocated arrays     est. size (Mb)     dimensions
        Kohn-Sham Wavefunctions        42.47 Mb     (    4028,  691)
        NL pseudopotentials           141.61 Mb     (    4028, 2304)
        Each V/rho on FFT grid          2.50 Mb     (  164025)
        Each G-vector array             0.42 Mb     (   54770)
        G-vector shells                 0.02 Mb     (    2932)
     Largest temporary arrays     est. size (Mb)     dimensions
        Auxiliary wavefunctions       169.88 Mb     (    4028, 2764)
        Each subspace H/S matrix      116.57 Mb     (    2764, 2764)
        Each <psi_i|beta_j> matrix     24.29 Mb     (    2304,  691)
        Arrays for rho mixing          20.02 Mb     (  164025,    8)

     Check: negative/imaginary core charge=   -0.000001    0.000000

     Initial potential from superposition of free atoms

     starting charge 1151.90680, renormalised to 1152.00000
     Starting wfc are  832 randomized atomic wfcs

     total cpu time spent up to now is      853.8 secs

     Self-consistent Calculation

     iteration #  1     ecut=    35.00 Ry     beta=0.30
     Davidson diagonalization with overlap
     ethr =  1.00E-02,  avg # of iterations =  3.0

     Threshold (ethr) on eigenvalues was too large:
     Diagonalizing with lowered threshold

     Davidson diagonalization with overlap
     ethr =  2.41E-04,  avg # of iterations =  3.8

     total cpu time spent up to now is     6332.4 secs

     total energy              =  -14256.06918586 Ry
     Harris-Foulkes estimate   =  -14256.35900714 Ry
     estimated scf accuracy    <       2.78860044 Ry

     iteration #  2     ecut=    35.00 Ry     beta=0.30
     Davidson diagonalization with overlap
     ethr =  2.42E-04,  avg # of iterations =  1.0

     total cpu time spent up to now is     8258.4 secs

     total energy              =  -14255.52117191 Ry
     Harris-Foulkes estimate   =  -14256.08374152 Ry
     estimated scf accuracy    <       1.72069709 Ry

     iteration #  3     ecut=    35.00 Ry     beta=0.30
     Davidson diagonalization with overlap
     ethr =  1.49E-04,  avg # of iterations =  2.0

     total cpu time spent up to now is    10499.6 secs

     total energy              =  -14255.62522572 Ry
     Harris-Foulkes estimate   =  -14255.62418824 Ry
     estimated scf accuracy    <       0.02509950 Ry

     iteration #  4     ecut=    35.00 Ry     beta=0.30
     Davidson diagonalization with overlap
     ethr =  2.18E-06,  avg # of iterations =  9.9

     total cpu time spent up to now is    18455.6 secs

     total energy              =  -14255.62926117 Ry
     Harris-Foulkes estimate   =  -14255.63091253 Ry
     estimated scf accuracy    <       0.01150876 Ry

     iteration #  5     ecut=    35.00 Ry     beta=0.30
     Davidson diagonalization with overlap
     ethr =  9.99E-07,  avg # of iterations =  2.0

     total cpu time spent up to now is    21022.7 secs

     total energy              =  -14255.63003076 Ry
     Harris-Foulkes estimate   =  -14255.63014261 Ry
     estimated scf accuracy    <       0.00049911 Ry

     iteration #  6     ecut=    35.00 Ry     beta=0.30
     Davidson diagonalization with overlap
     ethr =  4.33E-08,  avg # of iterations =  2.4

     total cpu time spent up to now is    23262.0 secs

     total energy              =  -14255.62999360 Ry
     Harris-Foulkes estimate   =  -14255.63006314 Ry
     estimated scf accuracy    <       0.00018983 Ry

     iteration #  7     ecut=    35.00 Ry     beta=0.30
     Davidson diagonalization with overlap
     ethr =  1.65E-08,  avg # of iterations =  2.0

     total cpu time spent up to now is    25749.4 secs

     total energy              =  -14255.63001969 Ry
     Harris-Foulkes estimate   =  -14255.63001577 Ry
     estimated scf accuracy    <       0.00001993 Ry

     iteration #  8     ecut=    35.00 Ry     beta=0.30
     Davidson diagonalization with overlap
     ethr =  1.73E-09,  avg # of iterations =  2.0

     total cpu time spent up to now is    28194.9 secs

     total energy              =  -14255.63002030 Ry
     Harris-Foulkes estimate   =  -14255.63002148 Ry
     estimated scf accuracy    <       0.00000705 Ry

     iteration #  9     ecut=    35.00 Ry     beta=0.30
     Davidson diagonalization with overlap
     ethr =  6.12E-10,  avg # of iterations =  2.0

     total cpu time spent up to now is    31264.4 secs

     total energy              =  -14255.63002236 Ry
     Harris-Foulkes estimate   =  -14255.63002186 Ry
     estimated scf accuracy    <       0.00000162 Ry

     iteration # 10     ecut=    35.00 Ry     beta=0.30
     Davidson diagonalization with overlap
     ethr =  1.41E-10,  avg # of iterations =  1.4

     total cpu time spent up to now is    33346.7 secs

     total energy              =  -14255.63002220 Ry
     Harris-Foulkes estimate   =  -14255.63002240 Ry
     estimated scf accuracy    <       0.00000098 Ry

     iteration # 11     ecut=    35.00 Ry     beta=0.30
     Davidson diagonalization with overlap
     ethr =  8.53E-11,  avg # of iterations =  2.6

     total cpu time spent up to now is    36603.7 secs

     total energy              =  -14255.63002256 Ry
     Harris-Foulkes estimate   =  -14255.63002241 Ry
     estimated scf accuracy    <       0.00000012 Ry

     iteration # 12     ecut=    35.00 Ry     beta=0.30
     Davidson diagonalization with overlap
     ethr =  1.08E-11,  avg # of iterations =  2.0

     total cpu time spent up to now is    38930.2 secs

     total energy              =  -14255.63002264 Ry
     Harris-Foulkes estimate   =  -14255.63002257 Ry
     estimated scf accuracy    <       0.00000003 Ry

     iteration # 13     ecut=    35.00 Ry     beta=0.30
     Davidson diagonalization with overlap
     ethr =  2.80E-12,  avg # of iterations =  2.5

     total cpu time spent up to now is    41250.9 secs

     total energy              =  -14255.63002268 Ry
     Harris-Foulkes estimate   =  -14255.63002265 Ry
     estimated scf accuracy    <          4.1E-09 Ry

     iteration # 14     ecut=    35.00 Ry     beta=0.30
     Davidson diagonalization with overlap
     ethr =  3.55E-13,  avg # of iterations =  2.1

     total cpu time spent up to now is    43718.7 secs

     End of self-consistent calculation

          k = 0.0000 0.0000 0.0000 ( 64071 PWs)   bands (ev):

   -17.3279 -17.3223 -17.3212 -17.3117 -17.3029 -17.2988 -17.2973 -17.2971
   -17.2967 -17.2966 -17.2965 -17.2962 -17.2957 -17.2955 -17.2940 -17.2906
   -17.2848 -17.2838 -17.2828 -17.2788 -17.2724 -17.2711 -17.2684 -17.2659
   -17.2608 -17.2597 -17.2130 -17.2119 -17.2108 -17.2100 -17.2096 -17.2095
   -17.2092 -17.2089 -17.2066 -17.2062 -17.2049 -17.2015 -17.2005 -17.1996
   -17.1944 -17.1894 -17.1726 -17.1706 -17.1681 -17.1670 -17.1665 -17.1662
   -17.1529 -17.1524 -17.0901 -17.0801 -17.0786 -17.0774 -17.0759 -17.0743
   -17.0730 -17.0727 -17.0725 -17.0695 -17.0691 -17.0680 -17.0619 -17.0616
   -17.0610 -17.0601 -17.0597 -17.0595 -17.0593 -17.0575 -17.0569 -17.0562
   -17.0559 -17.0547 -17.0532 -17.0526 -17.0524 -17.0508 -17.0501 -17.0500
   -17.0487 -17.0483 -17.0477 -17.0470 -17.0465 -17.0461 -17.0456 -17.0455
   -17.0448 -17.0445 -17.0442 -17.0439 -17.0437 -17.0435 -17.0432 -17.0423
   -17.0418 -17.0410 -17.0407 -17.0403 -17.0397 -17.0392 -17.0387 -17.0376
   -17.0368 -17.0364 -17.0362 -17.0352 -17.0347 -17.0344 -17.0342 -17.0339
   -17.0337 -17.0334 -17.0329 -17.0327 -17.0323 -17.0314 -17.0311 -17.0305
   -17.0302 -17.0299 -17.0294 -17.0284 -17.0278 -17.0261 -17.0251 -17.0248
   -17.0244 -17.0240 -17.0238 -17.0236 -17.0233 -17.0232 -17.0228 -17.0225
   -17.0224 -17.0223 -17.0209 -17.0202 -17.0199 -17.0194 -17.0186 -17.0183
   -17.0181 -17.0175 -17.0173 -17.0167 -17.0160 -17.0152 -17.0145 -17.0142
   -17.0140 -17.0135 -17.0134 -17.0131 -17.0127 -17.0126 -17.0125 -17.0124
   -17.0123 -17.0121 -17.0120 -17.0118 -17.0117 -17.0117 -17.0115 -17.0111
   -17.0110 -17.0108 -17.0106 -17.0105 -17.0104 -17.0100 -17.0099 -17.0098
   -17.0096 -17.0095 -17.0094 -17.0092 -17.0092 -17.0091 -17.0088 -17.0087
   -17.0086 -17.0085 -17.0083 -17.0082 -17.0081 -17.0077 -17.0076 -17.0075
   -17.0074 -17.0073 -17.0070 -17.0070 -17.0067 -17.0064 -17.0064 -17.0061
   -17.0060 -17.0059 -17.0054 -17.0051 -17.0049 -17.0048 -17.0046 -17.0045
   -17.0043 -17.0040 -17.0038 -17.0037 -17.0037 -17.0033 -17.0032 -17.0031
   -17.0029 -17.0028 -17.0026 -17.0023 -17.0021 -17.0020 -17.0013 -17.0004
   -16.9999 -16.9993 -16.9991 -16.9984 -16.9981 -16.9975 -16.9962 -16.9945
   -16.9942 -16.9935 -16.9927 -16.9923 -16.9919 -16.9916 -16.9913 -16.9908
   -16.9898 -16.9894 -16.9891 -16.9887 -16.9875 -16.9871 -16.9869 -16.9869
   -16.9868 -16.9866 -16.9864 -16.9863 -16.9857 -16.9855 -16.9854 -16.9853
   -16.9852 -16.9852 -16.9851 -16.9846 -16.9845 -16.9844 -16.9843 -16.9842
   -16.9839 -16.9839 -16.9835 -16.9834 -16.9833 -16.9831 -16.9830 -16.9830
   -16.9829 -16.9826 -16.9825 -16.9824 -16.9823 -16.9820 -16.9819 -16.9817
   -16.9814 -16.9811 -16.9809 -16.9806 -16.9802 -16.9800 -16.9800 -16.9799
   -16.9798 -16.9796 -16.9785 -16.9784 -16.9768 -16.9752 -16.9751 -16.9718
   -16.9698 -16.9675 -16.9553 -16.9543 -16.9511 -16.9420 -16.9419 -16.9411
   -16.9403 -16.9393 -16.9390 -16.9380 -16.9377 -16.9376 -16.9361 -16.9342
   -16.9341 -16.9339 -16.9330 -16.9317 -16.9302 -16.9297 -16.9280 -16.9262
    -5.1357  -4.5535  -4.4860  -4.4246  -4.4100  -4.3243  -4.3066  -4.2346
    -4.2273  -4.1961  -4.1113  -4.0942  -4.0376  -3.9712  -3.9269  -3.3771
    -3.2860  -3.2489  -3.2381  -3.1988  -3.1610  -3.1471  -3.1215  -3.0908
    -3.0710  -3.0548  -3.0156  -2.9081  -2.8874  -2.8708  -2.8451  -2.7671
    -2.7391  -2.6500  -2.6235  -2.5852  -2.5635  -2.5396  -2.5320  -2.5098
    -2.5063  -2.5043  -2.5013  -2.4998  -2.4957  -2.4375  -2.3911  -2.3501
    -2.3168  -2.2979  -2.2625  -2.2377  -2.2073  -2.1844  -2.1509  -1.3907
    -1.3486  -1.3191  -1.2815  -1.2405  -1.1856  -1.1122  -1.1016  -0.9744
    -0.9123  -0.8639  -0.7175  -0.6355  -0.6025  -0.5081  -0.4838  -0.4738
    -0.4541   0.0178   0.0456   0.0633   0.0789   0.1901   0.2171   0.3397
     0.3604   0.3730   0.4396   0.4621   0.4664   0.5154   0.5175   0.5202
     0.5223   0.5254   0.5304   0.5434   0.5520   0.5738   0.5861   0.5932
     0.6125   0.6355   0.6594   0.6628   0.6776   1.2527   1.2932   1.3239
     1.3424   1.3574   1.3933   1.4055   1.4188   1.4329   1.4696   1.5036
     1.5138   2.9719   3.0028   3.0283   3.0496   3.0679   3.0783   3.1108
     3.1165   3.2157   3.2509   3.2815   3.3125   3.3497   3.3746   3.3884
     3.3900   3.3920   3.3940   3.3977   3.4000   3.4408   3.4431   3.4454
     3.4460   3.4482   3.4503   3.4785   3.4792   3.4833   3.4867   3.4892
     3.4920   3.4943   3.4967   3.4976   3.4991   3.5018   3.5089   3.6433
     3.6482   3.6519   3.6548   3.6582   3.6617   3.6670   3.6677   3.6694
     3.6721   3.6747   3.6769   3.6787   3.6797   3.6819   3.6842   3.6862
     3.6875   3.6926   3.6945   3.6968   3.6976   3.7011   3.7040   4.3575
     4.3580   4.3590   4.3590   4.3600   4.3605   5.0140   5.0164   5.0174
     5.0182   5.0194   5.0203   5.0221   5.0227   5.0238   5.0240   5.0254
     5.0264   5.0269   5.0290   5.0294   5.0298   5.0306   5.0322   5.0339
     5.0351   5.0358   5.0384   5.0401   5.0409   5.3581   5.3599   5.3635
     5.3642   5.3665   5.3696   5.3711   5.3744   5.3763   5.3782   5.3828
     5.3854   5.9136   5.9145   5.9193   5.9199   5.9230   5.9257   5.9280
     5.9303   5.9328   5.9354   5.9364   5.9414   6.0352   6.0370   6.0410
     6.0425   6.0472   6.0495   6.0526   6.0547   6.4989   6.5012   6.5072
     6.5099   6.5183   6.5216   6.5241   6.5293   6.5316   6.5354   6.5434
     6.5449   6.5548   6.5570   6.5633   6.5699   7.3671   7.3677   7.3681
     7.8957   7.9022   7.9097   8.0615   8.1037   8.1201   8.1335   8.1516
     8.1817   8.2086   8.3200   8.3301   8.3515   8.3575   8.3686   8.3808
     8.5450   8.5545   8.6188   8.6364   8.6504   8.6848   8.6922   8.7015
     8.7114   8.7158   8.7268   8.7370   8.7402   8.7459   8.7537   8.7548
     8.7639   8.7671   8.7757   8.7930   8.7949   8.7979   8.8075   8.8215
     8.8284   8.8351   8.8404   8.8439   8.8490   8.8631   8.8751   8.8943
     9.0507   9.4935   9.5225   9.5365   9.5430   9.5515   9.5551   9.5775
     9.5810   9.5949   9.6229   9.6429   9.6484   9.8735   9.8776   9.8788
    10.2779  10.2974  10.3222  10.3298  10.3637  10.3876  10.7846  10.7936
    10.8112  10.8140  10.8203  10.8289  10.8331  10.8359  10.8487  10.8551
    10.8574  10.8642  10.8711  10.8748  10.8820  10.9029  10.9068  10.9168
    10.9240  10.9288  10.9473  10.9556  10.9605  10.9728  11.6196  11.6282
    11.6350  11.6494  11.6551  11.6613  11.6706  11.6750  11.6773  11.6830
    11.6892  11.6965  11.7060  11.7079  11.7181  11.7262  11.7348  11.7404
    11.7435  11.7461  11.7545

     occupation numbers 
     1.0000   1.0000   1.0000   1.0000   1.0000   1.0000   1.0000   1.0000
     1.0000   1.0000   1.0000   1.0000   1.0000   1.0000   1.0000   1.0000
     1.0000   1.0000   1.0000   1.0000   1.0000   1.0000   1.0000   1.0000
     1.0000   1.0000   1.0000   1.0000   1.0000   1.0000   1.0000   1.0000
     1.0000   1.0000   1.0000   1.0000   1.0000   1.0000   1.0000   1.0000
     1.0000   1.0000   1.0000   1.0000   1.0000   1.0000   1.0000   1.0000
     1.0000   1.0000   1.0000   1.0000   1.0000   1.0000   1.0000   1.0000
     1.0000   1.0000   1.0000   1.0000   1.0000   1.0000   1.0000   1.0000
     1.0000   1.0000   1.0000   1.0000   1.0000   1.0000   1.0000   1.0000
     1.0000   1.0000   1.0000   1.0000   1.0000   1.0000   1.0000   1.0000
     1.0000   1.0000   1.0000   1.0000   1.0000   1.0000   1.0000   1.0000
     1.0000   1.0000   1.0000   1.0000   1.0000   1.0000   1.0000   1.0000
     1.0000   1.0000   1.0000   1.0000   1.0000   1.0000   1.0000   1.0000
     1.0000   1.0000   1.0000   1.0000   1.0000   1.0000   1.0000   1.0000
     1.0000   1.0000   1.0000   1.0000   1.0000   1.0000   1.0000   1.0000
     1.0000   1.0000   1.0000   1.0000   1.0000   1.0000   1.0000   1.0000
     1.0000   1.0000   1.0000   1.0000   1.0000   1.0000   1.0000   1.0000
     1.0000   1.0000   1.0000   1.0000   1.0000   1.0000   1.0000   1.0000
     1.0000   1.0000   1.0000   1.0000   1.0000   1.0000   1.0000   1.0000
     1.0000   1.0000   1.0000   1.0000   1.0000   1.0000   1.0000   1.0000
     1.0000   1.0000   1.0000   1.0000   1.0000   1.0000   1.0000   1.0000
     1.0000   1.0000   1.0000   1.0000   1.0000   1.0000   1.0000   1.0000
     1.0000   1.0000   1.0000   1.0000   1.0000   1.0000   1.0000   1.0000
     1.0000   1.0000   1.0000   1.0000   1.0000   1.0000   1.0000   1.0000
     1.0000   1.0000   1.0000   1.0000   1.0000   1.0000   1.0000   1.0000
     1.0000   1.0000   1.0000   1.0000   1.0000   1.0000   1.0000   1.0000
     1.0000   1.0000   1.0000   1.0000   1.0000   1.0000   1.0000   1.0000
     1.0000   1.0000   1.0000   1.0000   1.0000   1.0000   1.0000   1.0000
     1.0000   1.0000   1.0000   1.0000   1.0000   1.0000   1.0000   1.0000
     1.0000   1.0000   1.0000   1.0000   1.0000   1.0000   1.0000   1.0000
     1.0000   1.0000   1.0000   1.0000   1.0000   1.0000   1.0000   1.0000
     1.0000   1.0000   1.0000   1.0000   1.0000   1.0000   1.0000   1.0000
     1.0000   1.0000   1.0000   1.0000   1.0000   1.0000   1.0000   1.0000
     1.0000   1.0000   1.0000   1.0000   1.0000   1.0000   1.0000   1.0000
     1.0000   1.0000   1.0000   1.0000   1.0000   1.0000   1.0000   1.0000
     1.0000   1.0000   1.0000   1.0000   1.0000   1.0000   1.0000   1.0000
     1.0000   1.0000   1.0000   1.0000   1.0000   1.0000   1.0000   1.0000
     1.0000   1.0000   1.0000   1.0000   1.0000   1.0000   1.0000   1.0000
     1.0000   1.0000   1.0000   1.0000   1.0000   1.0000   1.0000   1.0000
     1.0000   1.0000   1.0000   1.0000   1.0000   1.0000   1.0000   1.0000
     1.0000   1.0000   1.0000   1.0000   1.0000   1.0000   1.0000   1.0000
     1.0000   1.0000   1.0000   1.0000   1.0000   1.0000   1.0000   1.0000
     1.0000   1.0000   1.0000   1.0000   1.0000   1.0000   1.0000   1.0000
     1.0000   1.0000   1.0000   1.0000   1.0000   1.0000   1.0000   1.0000
     1.0000   1.0000   1.0000   1.0000   1.0000   1.0000   1.0000   1.0000
     1.0000   1.0000   1.0000   1.0000   1.0000   1.0000   1.0000   1.0000
     1.0000   1.0000   1.0000   1.0000   1.0000   1.0000   1.0000   1.0000
     1.0000   1.0000   1.0000   1.0000   1.0000   1.0000   1.0000   1.0000
     1.0000   1.0000   1.0000   1.0000   1.0000   1.0000   1.0000   1.0000
     1.0000   1.0000   1.0000   1.0000   1.0000   1.0000   1.0000   1.0000
     1.0000   1.0000   1.0000   1.0000   1.0000   1.0000   1.0000   1.0000
     1.0000   1.0000   1.0000   1.0000   1.0000   1.0000   1.0000   1.0000
     1.0000   1.0000   1.0000   1.0000   1.0000   1.0000   1.0000   1.0000
     1.0000   1.0000   1.0000   1.0000   1.0000   1.0000   1.0000   1.0000
     1.0000   1.0000   1.0000   1.0000   1.0000   1.0000   1.0000   1.0000
     1.0000   1.0000   1.0000   1.0000   1.0000   1.0000   1.0000   1.0000
     1.0000   1.0000   1.0000   1.0000   1.0000   1.0000   1.0000   1.0000
     1.0000   1.0000   1.0000   1.0000   1.0000   1.0000   1.0000   1.0000
     1.0000   1.0000   1.0000   1.0000   1.0000   1.0000   1.0000   1.0000
     1.0000   1.0000   1.0000   1.0000   1.0000   1.0000   1.0000   1.0000
     1.0000   1.0000   1.0000   1.0000   1.0000   1.0000   1.0000   1.0000
     1.0000   1.0000   1.0000   1.0000   1.0000   1.0000   1.0000   1.0000
     1.0000   1.0000   1.0000   1.0000   1.0000   1.0000   1.0000   1.0000
     1.0000   1.0000   1.0000   1.0000   1.0000   1.0000   1.0000   1.0000
     1.0000   1.0000   1.0000   1.0000   1.0000   1.0000   1.0000   1.0000
     1.0000   1.0000   1.0000   1.0000   1.0000   1.0000   1.0000   1.0000
     1.0000   1.0000   1.0000   1.0000   1.0000   1.0000   1.0000   1.0000
     1.0000   1.0000   1.0000   1.0000   1.0000   1.0000   1.0000   1.0000
     1.0000   1.0000   1.0000   1.0000   1.0000   1.0000   1.0000   1.0000
     1.0000   1.0000   1.0000   1.0000   1.0000   1.0000   1.0000   1.0000
     1.0000   1.0000   1.0000   1.0000   1.0000   1.0000   1.0000   1.0000
     1.0000   1.0000   1.0000   1.0000   1.0000   0.9337   0.9332   0.9328
     0.0154   0.0138   0.0120   0.0005   0.0002   0.0001   0.0001   0.0000
     0.0000   0.0000   0.0000   0.0000   0.0000   0.0000   0.0000   0.0000
     0.0000   0.0000   0.0000   0.0000   0.0000   0.0000   0.0000   0.0000
     0.0000   0.0000   0.0000   0.0000   0.0000   0.0000   0.0000   0.0000
     0.0000   0.0000   0.0000   0.0000   0.0000   0.0000   0.0000   0.0000
     0.0000   0.0000   0.0000   0.0000   0.0000   0.0000   0.0000   0.0000
     0.0000   0.0000   0.0000   0.0000   0.0000   0.0000   0.0000   0.0000
     0.0000   0.0000   0.0000   0.0000   0.0000   0.0000   0.0000   0.0000
     0.0000   0.0000   0.0000   0.0000   0.0000   0.0000   0.0000   0.0000
     0.0000   0.0000   0.0000   0.0000   0.0000   0.0000   0.0000   0.0000
     0.0000   0.0000   0.0000   0.0000   0.0000   0.0000   0.0000   0.0000
     0.0000   0.0000   0.0000   0.0000   0.0000   0.0000   0.0000   0.0000
     0.0000   0.0000   0.0000   0.0000   0.0000   0.0000   0.0000   0.0000
     0.0000   0.0000   0.0000   0.0000   0.0000   0.0000   0.0000   0.0000
     0.0000   0.0000   0.0000

          k =-0.3536-0.3536 0.3536 ( 64114 PWs)   bands (ev):

   -17.3279 -17.3223 -17.3213 -17.3118 -17.3029 -17.2988 -17.2973 -17.2971
   -17.2967 -17.2966 -17.2965 -17.2962 -17.2958 -17.2955 -17.2940 -17.2906
   -17.2848 -17.2839 -17.2828 -17.2788 -17.2725 -17.2712 -17.2684 -17.2659
   -17.2608 -17.2597 -17.2131 -17.2119 -17.2109 -17.2100 -17.2096 -17.2095
   -17.2092 -17.2090 -17.2067 -17.2062 -17.2049 -17.2015 -17.2005 -17.1996
   -17.1944 -17.1895 -17.1726 -17.1706 -17.1681 -17.1671 -17.1665 -17.1663
   -17.1530 -17.1524 -17.0902 -17.0801 -17.0786 -17.0774 -17.0759 -17.0742
   -17.0731 -17.0728 -17.0726 -17.0695 -17.0691 -17.0680 -17.0619 -17.0616
   -17.0610 -17.0601 -17.0597 -17.0596 -17.0593 -17.0576 -17.0569 -17.0562
   -17.0559 -17.0547 -17.0533 -17.0527 -17.0525 -17.0505 -17.0504 -17.0500
   -17.0488 -17.0483 -17.0479 -17.0469 -17.0465 -17.0460 -17.0458 -17.0453
   -17.0449 -17.0445 -17.0442 -17.0440 -17.0437 -17.0436 -17.0434 -17.0423
   -17.0418 -17.0410 -17.0407 -17.0404 -17.0398 -17.0393 -17.0387 -17.0374
   -17.0368 -17.0364 -17.0363 -17.0350 -17.0349 -17.0345 -17.0340 -17.0339
   -17.0338 -17.0334 -17.0329 -17.0329 -17.0323 -17.0317 -17.0309 -17.0305
   -17.0303 -17.0300 -17.0294 -17.0284 -17.0279 -17.0260 -17.0251 -17.0248
   -17.0244 -17.0241 -17.0239 -17.0236 -17.0233 -17.0231 -17.0230 -17.0225
   -17.0224 -17.0223 -17.0210 -17.0202 -17.0199 -17.0195 -17.0186 -17.0184
   -17.0180 -17.0176 -17.0173 -17.0167 -17.0160 -17.0152 -17.0146 -17.0143
   -17.0140 -17.0136 -17.0133 -17.0129 -17.0129 -17.0127 -17.0126 -17.0125
   -17.0123 -17.0122 -17.0121 -17.0119 -17.0117 -17.0117 -17.0115 -17.0113
   -17.0111 -17.0109 -17.0109 -17.0107 -17.0105 -17.0101 -17.0100 -17.0099
   -17.0097 -17.0096 -17.0096 -17.0093 -17.0092 -17.0090 -17.0090 -17.0087
   -17.0085 -17.0085 -17.0084 -17.0083 -17.0081 -17.0078 -17.0077 -17.0075
   -17.0074 -17.0073 -17.0071 -17.0070 -17.0069 -17.0066 -17.0063 -17.0061
   -17.0060 -17.0056 -17.0053 -17.0051 -17.0050 -17.0048 -17.0045 -17.0045
   -17.0042 -17.0042 -17.0039 -17.0038 -17.0036 -17.0035 -17.0032 -17.0032
   -17.0030 -17.0028 -17.0027 -17.0024 -17.0021 -17.0021 -17.0012 -17.0004
   -16.9999 -16.9995 -16.9991 -16.9986 -16.9980 -16.9976 -16.9963 -16.9946
   -16.9942 -16.9935 -16.9927 -16.9924 -16.9920 -16.9916 -16.9912 -16.9908
   -16.9899 -16.9894 -16.9891 -16.9887 -16.9875 -16.9872 -16.9869 -16.9868
   -16.9868 -16.9867 -16.9864 -16.9864 -16.9856 -16.9855 -16.9855 -16.9853
   -16.9853 -16.9852 -16.9851 -16.9847 -16.9844 -16.9844 -16.9843 -16.9841
   -16.9840 -16.9839 -16.9836 -16.9835 -16.9832 -16.9832 -16.9831 -16.9830
   -16.9829 -16.9827 -16.9826 -16.9824 -16.9823 -16.9821 -16.9819 -16.9818
   -16.9814 -16.9811 -16.9810 -16.9807 -16.9802 -16.9801 -16.9800 -16.9799
   -16.9798 -16.9796 -16.9785 -16.9784 -16.9768 -16.9752 -16.9752 -16.9719
   -16.9699 -16.9676 -16.9554 -16.9543 -16.9511 -16.9420 -16.9419 -16.9412
   -16.9404 -16.9393 -16.9391 -16.9380 -16.9378 -16.9377 -16.9361 -16.9343
   -16.9341 -16.9338 -16.9330 -16.9318 -16.9303 -16.9298 -16.9280 -16.9263
    -4.9893  -4.8992  -4.5243  -4.4617  -4.4486  -4.3995  -4.3802  -4.3435
    -4.0353  -3.9397  -3.9206  -3.8976  -3.8738  -3.8095  -3.5594  -3.5148
    -3.4956  -3.4627  -3.4077  -3.3557  -3.3444  -3.2870  -3.1215  -3.0957
    -3.0530  -3.0284  -2.9958  -2.9820  -2.9695  -2.9551  -2.9209  -2.9116
    -2.8746  -2.8402  -2.8103  -2.7787  -2.7363  -2.7089  -2.6605  -2.6302
    -2.4120  -2.3375  -2.3185  -2.2931  -2.2671  -2.1982  -2.0547  -2.0101
    -1.9686  -1.9496  -1.9207  -1.8927  -1.8815  -1.8693  -1.8453  -1.7841
    -1.7526  -1.7172  -1.6678  -1.6365  -1.6258  -1.5778  -1.5301  -1.4950
    -0.3757  -0.2952  -0.2445  -0.2149  -0.1746  -0.1666  -0.1264  -0.0936
    -0.0464  -0.0101   0.0026   0.0086   0.0251   0.0284   0.0433   0.0769
     0.0938   0.1364   0.1820   0.2281   0.2356   0.2551   0.2632   0.2726
     0.2879   0.2982   0.3299   0.3472   0.3652   0.3740   0.9453   0.9588
     0.9849   1.0195   1.0245   1.0411   1.0524   1.0585   1.0709   1.0855
     1.1024   1.1352   1.1536   1.1762   1.8166   1.8620   1.8908   1.9090
     1.9258   1.9459   2.2419   2.2955   2.3095   2.3340   2.3454   2.4163
     3.1825   3.1844   3.1864   3.1893   3.1905   3.1927   3.1942   3.1964
     3.1987   3.2016   3.2046   3.2080   3.2168   3.2214   3.2268   3.2299
     3.2324   3.2360   3.6460   3.6848   3.7053   3.7089   3.7292   3.7643
     3.8015   3.8032   3.8070   3.8095   3.8123   3.8163   3.8591   3.8626
     3.8632   3.8686   3.8746   3.8775   3.8784   3.8810   3.8865   3.8889
     3.8897   3.8949   4.2862   4.2871   4.2884   4.2891   4.2912   4.2924
     4.2943   4.2953   4.2963   4.2970   4.2977   4.3011   4.5283   4.5316
     4.5336   4.5359   4.5375   4.5394   4.5415   4.5496   4.5541   4.5582
     4.5594   4.5713   4.8438   4.8518   4.8532   4.8588   4.8682   4.8776
     4.8838   4.8909   4.8977   4.8984   4.9022   4.9179   5.0270   5.0297
     5.0324   5.0333   5.0359   5.0389   5.3054   5.3097   5.3127   5.3143
     5.3165   5.3177   5.3180   5.3208   5.3228   5.3243   5.3268   5.3298
     5.3494   5.3514   5.3532   5.3539   5.3548   5.3579   5.4448   5.4867
     5.6699   5.6779   5.6780   5.6826   5.6861   5.6890   5.9389   5.9467
     5.9550   5.9562   5.9598   5.9633   5.9635   5.9672   5.9713   5.9745
     5.9778   5.9899   6.1625   6.1629   6.1772   6.1776   6.4800   6.4945
     6.4980   6.5071   6.5138   6.5274   7.0360   7.0368   7.0618   7.0622
     8.1322   8.1534   8.1614   8.1720   8.1895   8.1994   8.2900   8.3183
     8.5541   8.5786   8.5880   8.6016   8.6073   8.6363   8.9859   9.0067
     9.0212   9.0307   9.0522   9.0539   9.0946   9.1103   9.1403   9.1481
     9.1727   9.1849   9.2128   9.2279   9.2427   9.2554   9.2640   9.2781
     9.2996   9.3061   9.3403   9.3584   9.3622   9.3674   9.3829   9.4075
     9.4910   9.5049   9.5077   9.5420   9.5670   9.6000   9.6107   9.6175
     9.6319   9.6375   9.6531   9.6695   9.6722   9.6861   9.6969   9.7035
     9.7177   9.7277  10.0007  10.0132  10.0279  10.0426  10.0486  10.0557
    10.0614  10.0696  10.0746  10.0799  10.0856  10.0931  10.1406  10.1553
    10.1740  10.1828  10.1916  10.2016  10.2995  10.3020  10.3315  10.3368
    10.4935  10.5055  10.5126  10.5140  10.5279  10.5391  10.7163  10.7261
    10.7398  10.7485  10.7528  10.7722  10.7810  10.7829  10.7884  10.8024
    10.8064  10.8145  10.8200  10.8255  10.8278  10.8338  10.8506  10.8699
    10.8954  10.9166  10.9575  10.9615  11.0015  11.0320  11.0434  11.0593
    11.0869  11.1104  11.1542

     occupation numbers 
     1.0000   1.0000   1.0000   1.0000   1.0000   1.0000   1.0000   1.0000
     1.0000   1.0000   1.0000   1.0000   1.0000   1.0000   1.0000   1.0000
     1.0000   1.0000   1.0000   1.0000   1.0000   1.0000   1.0000   1.0000
     1.0000   1.0000   1.0000   1.0000   1.0000   1.0000   1.0000   1.0000
     1.0000   1.0000   1.0000   1.0000   1.0000   1.0000   1.0000   1.0000
     1.0000   1.0000   1.0000   1.0000   1.0000   1.0000   1.0000   1.0000
     1.0000   1.0000   1.0000   1.0000   1.0000   1.0000   1.0000   1.0000
     1.0000   1.0000   1.0000   1.0000   1.0000   1.0000   1.0000   1.0000
     1.0000   1.0000   1.0000   1.0000   1.0000   1.0000   1.0000   1.0000
     1.0000   1.0000   1.0000   1.0000   1.0000   1.0000   1.0000   1.0000
     1.0000   1.0000   1.0000   1.0000   1.0000   1.0000   1.0000   1.0000
     1.0000   1.0000   1.0000   1.0000   1.0000   1.0000   1.0000   1.0000
     1.0000   1.0000   1.0000   1.0000   1.0000   1.0000   1.0000   1.0000
     1.0000   1.0000   1.0000   1.0000   1.0000   1.0000   1.0000   1.0000
     1.0000   1.0000   1.0000   1.0000   1.0000   1.0000   1.0000   1.0000
     1.0000   1.0000   1.0000   1.0000   1.0000   1.0000   1.0000   1.0000
     1.0000   1.0000   1.0000   1.0000   1.0000   1.0000   1.0000   1.0000
     1.0000   1.0000   1.0000   1.0000   1.0000   1.0000   1.0000   1.0000
     1.0000   1.0000   1.0000   1.0000   1.0000   1.0000   1.0000   1.0000
     1.0000   1.0000   1.0000   1.0000   1.0000   1.0000   1.0000   1.0000
     1.0000   1.0000   1.0000   1.0000   1.0000   1.0000   1.0000   1.0000
     1.0000   1.0000   1.0000   1.0000   1.0000   1.0000   1.0000   1.0000
     1.0000   1.0000   1.0000   1.0000   1.0000   1.0000   1.0000   1.0000
     1.0000   1.0000   1.0000   1.0000   1.0000   1.0000   1.0000   1.0000
     1.0000   1.0000   1.0000   1.0000   1.0000   1.0000   1.0000   1.0000
     1.0000   1.0000   1.0000   1.0000   1.0000   1.0000   1.0000   1.0000
     1.0000   1.0000   1.0000   1.0000   1.0000   1.0000   1.0000   1.0000
     1.0000   1.0000   1.0000   1.0000   1.0000   1.0000   1.0000   1.0000
     1.0000   1.0000   1.0000   1.0000   1.0000   1.0000   1.0000   1.0000
     1.0000   1.0000   1.0000   1.0000   1.0000   1.0000   1.0000   1.0000
     1.0000   1.0000   1.0000   1.0000   1.0000   1.0000   1.0000   1.0000
     1.0000   1.0000   1.0000   1.0000   1.0000   1.0000   1.0000   1.0000
     1.0000   1.0000   1.0000   1.0000   1.0000   1.0000   1.0000   1.0000
     1.0000   1.0000   1.0000   1.0000   1.0000   1.0000   1.0000   1.0000
     1.0000   1.0000   1.0000   1.0000   1.0000   1.0000   1.0000   1.0000
     1.0000   1.0000   1.0000   1.0000   1.0000   1.0000   1.0000   1.0000
     1.0000   1.0000   1.0000   1.0000   1.0000   1.0000   1.0000   1.0000
     1.0000   1.0000   1.0000   1.0000   1.0000   1.0000   1.0000   1.0000
     1.0000   1.0000   1.0000   1.0000   1.0000   1.0000   1.0000   1.0000
     1.0000   1.0000   1.0000   1.0000   1.0000   1.0000   1.0000   1.0000
     1.0000   1.0000   1.0000   1.0000   1.0000   1.0000   1.0000   1.0000
     1.0000   1.0000   1.0000   1.0000   1.0000   1.0000   1.0000   1.0000
     1.0000   1.0000   1.0000   1.0000   1.0000   1.0000   1.0000   1.0000
     1.0000   1.0000   1.0000   1.0000   1.0000   1.0000   1.0000   1.0000
     1.0000   1.0000   1.0000   1.0000   1.0000   1.0000   1.0000   1.0000
     1.0000   1.0000   1.0000   1.0000   1.0000   1.0000   1.0000   1.0000
     1.0000   1.0000   1.0000   1.0000   1.0000   1.0000   1.0000   1.0000
     1.0000   1.0000   1.0000   1.0000   1.0000   1.0000   1.0000   1.0000
     1.0000   1.0000   1.0000   1.0000   1.0000   1.0000   1.0000   1.0000
     1.0000   1.0000   1.0000   1.0000   1.0000   1.0000   1.0000   1.0000
     1.0000   1.0000   1.0000   1.0000   1.0000   1.0000   1.0000   1.0000
     1.0000   1.0000   1.0000   1.0000   1.0000   1.0000   1.0000   1.0000
     1.0000   1.0000   1.0000   1.0000   1.0000   1.0000   1.0000   1.0000
     1.0000   1.0000   1.0000   1.0000   1.0000   1.0000   1.0000   1.0000
     1.0000   1.0000   1.0000   1.0000   1.0000   1.0000   1.0000   1.0000
     1.0000   1.0000   1.0000   1.0000   1.0000   1.0000   1.0000   1.0000
     1.0000   1.0000   1.0000   1.0000   1.0000   1.0000   1.0000   1.0000
     1.0000   1.0000   1.0000   1.0000   1.0000   1.0000   1.0000   1.0000
     1.0000   1.0000   1.0000   1.0000   1.0000   1.0000   1.0000   1.0000
     1.0000   1.0000   1.0000   1.0000   1.0000   1.0000   1.0000   1.0000
     1.0000   1.0000   1.0000   1.0000   1.0000   1.0000   1.0000   1.0000
     1.0000   1.0000   1.0000   1.0000   1.0000   1.0000   1.0000   1.0000
     1.0000   1.0000   1.0000   1.0000   1.0000   1.0000   1.0000   1.0000
     1.0000   1.0000   1.0000   1.0000   1.0000   1.0000   1.0000   1.0000
     1.0000   1.0000   1.0000   1.0000   1.0000   1.0000   1.0000   1.0000
     1.0000   1.0000   1.0000   1.0000   1.0000   1.0000   1.0000   1.0000
     1.0000   1.0000   1.0000   1.0000   1.0000   1.0000   1.0000   1.0000
     1.0000   1.0000   1.0000   1.0000   1.0000   1.0000   1.0000   1.0000
     1.0000   1.0000   1.0000   1.0000   1.0000   1.0000   1.0000   1.0000
     1.0000   1.0000   1.0000   1.0000   1.0000   1.0000   1.0000   1.0000
     1.0000   1.0000   1.0000   1.0000   1.0000   1.0000   1.0000   1.0000
     1.0000   1.0000   1.0000   1.0000   0.9999   0.9999   0.9999   0.9999
     0.0001   0.0000   0.0000   0.0000   0.0000   0.0000   0.0000   0.0000
     0.0000   0.0000   0.0000   0.0000   0.0000   0.0000   0.0000   0.0000
     0.0000   0.0000   0.0000   0.0000   0.0000   0.0000   0.0000   0.0000
     0.0000   0.0000   0.0000   0.0000   0.0000   0.0000   0.0000   0.0000
     0.0000   0.0000   0.0000   0.0000   0.0000   0.0000   0.0000   0.0000
     0.0000   0.0000   0.0000   0.0000   0.0000   0.0000   0.0000   0.0000
     0.0000   0.0000   0.0000   0.0000   0.0000   0.0000   0.0000   0.0000
     0.0000   0.0000   0.0000   0.0000   0.0000   0.0000   0.0000   0.0000
     0.0000   0.0000   0.0000   0.0000   0.0000   0.0000   0.0000   0.0000
     0.0000   0.0000   0.0000   0.0000   0.0000   0.0000   0.0000   0.0000
     0.0000   0.0000   0.0000   0.0000   0.0000   0.0000   0.0000   0.0000
     0.0000   0.0000   0.0000   0.0000   0.0000   0.0000   0.0000   0.0000
     0.0000   0.0000   0.0000   0.0000   0.0000   0.0000   0.0000   0.0000
     0.0000   0.0000   0.0000   0.0000   0.0000   0.0000   0.0000   0.0000
     0.0000   0.0000   0.0000

          k =-0.7071 0.0000 0.0000 ( 64192 PWs)   bands (ev):

   -17.3280 -17.3223 -17.3213 -17.3117 -17.3029 -17.2988 -17.2973 -17.2971
   -17.2967 -17.2966 -17.2965 -17.2962 -17.2958 -17.2955 -17.2940 -17.2906
   -17.2848 -17.2839 -17.2829 -17.2788 -17.2725 -17.2712 -17.2684 -17.2659
   -17.2609 -17.2597 -17.2131 -17.2119 -17.2109 -17.2100 -17.2096 -17.2096
   -17.2092 -17.2090 -17.2066 -17.2062 -17.2049 -17.2015 -17.2005 -17.1996
   -17.1944 -17.1895 -17.1726 -17.1706 -17.1682 -17.1671 -17.1666 -17.1663
   -17.1530 -17.1525 -17.0902 -17.0801 -17.0786 -17.0775 -17.0759 -17.0742
   -17.0731 -17.0728 -17.0726 -17.0696 -17.0692 -17.0680 -17.0619 -17.0616
   -17.0610 -17.0601 -17.0597 -17.0597 -17.0593 -17.0576 -17.0569 -17.0562
   -17.0559 -17.0547 -17.0533 -17.0527 -17.0525 -17.0505 -17.0505 -17.0500
   -17.0488 -17.0483 -17.0479 -17.0470 -17.0466 -17.0460 -17.0455 -17.0455
   -17.0451 -17.0446 -17.0441 -17.0441 -17.0439 -17.0438 -17.0433 -17.0423
   -17.0418 -17.0410 -17.0407 -17.0404 -17.0397 -17.0392 -17.0387 -17.0374
   -17.0368 -17.0364 -17.0362 -17.0351 -17.0350 -17.0344 -17.0341 -17.0340
   -17.0337 -17.0334 -17.0329 -17.0328 -17.0323 -17.0316 -17.0311 -17.0307
   -17.0304 -17.0299 -17.0295 -17.0284 -17.0279 -17.0260 -17.0251 -17.0248
   -17.0244 -17.0240 -17.0238 -17.0235 -17.0234 -17.0231 -17.0228 -17.0226
   -17.0225 -17.0223 -17.0209 -17.0202 -17.0199 -17.0194 -17.0186 -17.0183
   -17.0181 -17.0176 -17.0172 -17.0167 -17.0161 -17.0152 -17.0145 -17.0142
   -17.0139 -17.0136 -17.0133 -17.0132 -17.0131 -17.0127 -17.0126 -17.0124
   -17.0124 -17.0123 -17.0120 -17.0119 -17.0118 -17.0116 -17.0116 -17.0113
   -17.0111 -17.0109 -17.0107 -17.0106 -17.0105 -17.0101 -17.0100 -17.0098
   -17.0097 -17.0096 -17.0095 -17.0094 -17.0092 -17.0090 -17.0090 -17.0088
   -17.0085 -17.0085 -17.0084 -17.0084 -17.0081 -17.0079 -17.0077 -17.0076
   -17.0075 -17.0074 -17.0072 -17.0070 -17.0069 -17.0065 -17.0063 -17.0062
   -17.0060 -17.0057 -17.0056 -17.0053 -17.0051 -17.0047 -17.0046 -17.0045
   -17.0043 -17.0041 -17.0039 -17.0038 -17.0037 -17.0034 -17.0032 -17.0032
   -17.0030 -17.0027 -17.0026 -17.0024 -17.0022 -17.0020 -17.0012 -17.0003
   -16.9999 -16.9993 -16.9991 -16.9985 -16.9980 -16.9975 -16.9963 -16.9946
   -16.9942 -16.9936 -16.9927 -16.9923 -16.9919 -16.9916 -16.9913 -16.9908
   -16.9899 -16.9895 -16.9891 -16.9887 -16.9875 -16.9872 -16.9869 -16.9869
   -16.9868 -16.9867 -16.9864 -16.9863 -16.9856 -16.9856 -16.9855 -16.9854
   -16.9853 -16.9852 -16.9851 -16.9845 -16.9845 -16.9844 -16.9843 -16.9842
   -16.9840 -16.9839 -16.9836 -16.9834 -16.9832 -16.9831 -16.9831 -16.9830
   -16.9829 -16.9827 -16.9826 -16.9824 -16.9823 -16.9821 -16.9820 -16.9817
   -16.9815 -16.9812 -16.9809 -16.9807 -16.9802 -16.9801 -16.9800 -16.9799
   -16.9798 -16.9796 -16.9785 -16.9784 -16.9768 -16.9752 -16.9752 -16.9719
   -16.9700 -16.9676 -16.9554 -16.9543 -16.9511 -16.9421 -16.9419 -16.9413
   -16.9405 -16.9393 -16.9391 -16.9380 -16.9378 -16.9377 -16.9361 -16.9344
   -16.9341 -16.9339 -16.9330 -16.9318 -16.9302 -16.9298 -16.9281 -16.9263
    -4.9422  -4.8142  -4.6795  -4.6431  -4.6274  -4.4873  -4.0654  -3.9731
    -3.9113  -3.8806  -3.8355  -3.8067  -3.7655  -3.7381  -3.6969  -3.6694
    -3.6458  -3.6231  -3.5745  -3.5469  -3.5218  -3.4423  -3.2231  -3.1200
    -3.0294  -3.0158  -3.0041  -2.9663  -2.9288  -2.9157  -2.7947  -2.7873
    -2.7384  -2.6794  -2.6630  -2.5955  -2.5792  -2.5638  -2.5319  -2.5026
    -2.4250  -2.4156  -2.3998  -2.3808  -2.3234  -2.2962  -2.2898  -2.2425
    -2.1956  -2.1591  -2.0683  -2.0337  -2.0156  -1.9824  -1.9614  -1.8896
    -1.6219  -1.5212  -1.5047  -1.4736  -1.2511  -1.2335  -1.1815  -1.1753
    -0.8306  -0.6999  -0.5914  -0.5746  -0.3954  -0.3808  -0.3436  -0.2659
     0.0232   0.0480   0.0908   0.1153   0.1299   0.1605   0.1854   0.2164
     0.2240   0.2394   0.2602   0.3067   0.3216   0.3281   0.3507   0.3756
     0.5112   0.5534   0.6065   0.6180   0.6297   0.6494   0.6555   0.6639
     0.7562   0.8116   0.8265   0.8600   0.8788   0.9036   0.9147   0.9749
     1.0581   1.1098   1.6049   1.6219   1.6441   1.6743   1.6985   1.7024
     1.7218   1.7397   2.4461   2.5192   2.5396   2.5594   2.5918   2.6149
     2.6255   2.6791   2.9702   2.9721   2.9730   2.9779   3.0270   3.0283
     3.0312   3.0336   3.0352   3.0374   3.0392   3.0433   3.6999   3.7054
     3.7063   3.7162   3.7200   3.7227   3.7292   3.7318   3.8125   3.8159
     3.8225   3.8227   3.8337   3.8365   3.8440   3.8488   3.8698   3.8713
     3.8730   3.8756   3.8761   3.8777   3.8796   3.8826   4.2320   4.2410
     4.2461   4.3121   4.4879   4.4906   4.4913   4.4924   4.4935   4.4961
     4.4966   4.4979   4.5222   4.5254   4.5262   4.5288   4.5304   4.5369
     4.5388   4.5438   4.6117   4.6128   4.6219   4.6224   4.6611   4.6623
     4.6638   4.6640   4.6655   4.6682   4.6696   4.6703   4.6754   4.6834
     4.6968   4.7008   4.7062   4.7129   4.7194   4.7233   4.7973   4.7981
     4.7992   4.8013   5.0850   5.0860   5.0908   5.0912   5.0945   5.0963
     5.1005   5.1009   5.2992   5.3033   5.3152   5.3194   5.3227   5.3296
     5.3341   5.3447   5.5644   5.6239   5.6400   5.6482   5.6513   5.6565
     5.6609   5.6620   5.6642   5.6671   5.6697   5.6723   5.6782   5.6814
     5.7986   5.8094   5.8127   5.8171   5.8233   5.8255   5.8306   5.8449
     5.9739   5.9749   5.9755   5.9781   5.9845   5.9917   5.9991   5.9995
     6.4952   6.4964   6.5218   6.5243   7.0166   7.0174   7.0327   7.0357
     7.8505   7.8774   8.4461   8.4595   8.4657   8.4906   8.8533   8.8574
     9.0833   9.1015   9.1025   9.1230   9.1273   9.1454   9.1582   9.1699
     9.1712   9.1813   9.1853   9.1941   9.1958   9.2198   9.2219   9.2301
     9.2341   9.2480   9.2512   9.2656   9.2831   9.2906   9.2974   9.3062
     9.3213   9.3283   9.3383   9.3479   9.3618   9.3666   9.3705   9.3824
     9.3927   9.4080   9.6583   9.6694   9.6804   9.6873   9.7000   9.7049
     9.7232   9.7399   9.7538   9.7642   9.7758   9.8325   9.9011   9.9236
     9.9338   9.9382   9.9480   9.9585   9.9655   9.9785  10.0219  10.0379
    10.0534  10.0664  10.0780  10.0868  10.0919  10.1063  10.1174  10.1188
    10.1277  10.1374  10.1535  10.1696  10.1950  10.2104  10.4065  10.4141
    10.4385  10.4522  10.5090  10.5196  10.5269  10.5420  10.5513  10.5680
    10.5773  10.5901  10.5990  10.6148  10.6303  10.6454  10.6517  10.6787
    10.6845  10.7094  10.7249  10.7322  10.7400  10.7465  10.7524  10.7602
    10.7655  10.7797  10.7848  10.7943  10.8092  10.8131  10.8209  10.8520
    10.9358  10.9516  10.9545

     occupation numbers 
     1.0000   1.0000   1.0000   1.0000   1.0000   1.0000   1.0000   1.0000
     1.0000   1.0000   1.0000   1.0000   1.0000   1.0000   1.0000   1.0000
     1.0000   1.0000   1.0000   1.0000   1.0000   1.0000   1.0000   1.0000
     1.0000   1.0000   1.0000   1.0000   1.0000   1.0000   1.0000   1.0000
     1.0000   1.0000   1.0000   1.0000   1.0000   1.0000   1.0000   1.0000
     1.0000   1.0000   1.0000   1.0000   1.0000   1.0000   1.0000   1.0000
     1.0000   1.0000   1.0000   1.0000   1.0000   1.0000   1.0000   1.0000
     1.0000   1.0000   1.0000   1.0000   1.0000   1.0000   1.0000   1.0000
     1.0000   1.0000   1.0000   1.0000   1.0000   1.0000   1.0000   1.0000
     1.0000   1.0000   1.0000   1.0000   1.0000   1.0000   1.0000   1.0000
     1.0000   1.0000   1.0000   1.0000   1.0000   1.0000   1.0000   1.0000
     1.0000   1.0000   1.0000   1.0000   1.0000   1.0000   1.0000   1.0000
     1.0000   1.0000   1.0000   1.0000   1.0000   1.0000   1.0000   1.0000
     1.0000   1.0000   1.0000   1.0000   1.0000   1.0000   1.0000   1.0000
     1.0000   1.0000   1.0000   1.0000   1.0000   1.0000   1.0000   1.0000
     1.0000   1.0000   1.0000   1.0000   1.0000   1.0000   1.0000   1.0000
     1.0000   1.0000   1.0000   1.0000   1.0000   1.0000   1.0000   1.0000
     1.0000   1.0000   1.0000   1.0000   1.0000   1.0000   1.0000   1.0000
     1.0000   1.0000   1.0000   1.0000   1.0000   1.0000   1.0000   1.0000
     1.0000   1.0000   1.0000   1.0000   1.0000   1.0000   1.0000   1.0000
     1.0000   1.0000   1.0000   1.0000   1.0000   1.0000   1.0000   1.0000
     1.0000   1.0000   1.0000   1.0000   1.0000   1.0000   1.0000   1.0000
     1.0000   1.0000   1.0000   1.0000   1.0000   1.0000   1.0000   1.0000
     1.0000   1.0000   1.0000   1.0000   1.0000   1.0000   1.0000   1.0000
     1.0000   1.0000   1.0000   1.0000   1.0000   1.0000   1.0000   1.0000
     1.0000   1.0000   1.0000   1.0000   1.0000   1.0000   1.0000   1.0000
     1.0000   1.0000   1.0000   1.0000   1.0000   1.0000   1.0000   1.0000
     1.0000   1.0000   1.0000   1.0000   1.0000   1.0000   1.0000   1.0000
     1.0000   1.0000   1.0000   1.0000   1.0000   1.0000   1.0000   1.0000
     1.0000   1.0000   1.0000   1.0000   1.0000   1.0000   1.0000   1.0000
     1.0000   1.0000   1.0000   1.0000   1.0000   1.0000   1.0000   1.0000
     1.0000   1.0000   1.0000   1.0000   1.0000   1.0000   1.0000   1.0000
     1.0000   1.0000   1.0000   1.0000   1.0000   1.0000   1.0000   1.0000
     1.0000   1.0000   1.0000   1.0000   1.0000   1.0000   1.0000   1.0000
     1.0000   1.0000   1.0000   1.0000   1.0000   1.0000   1.0000   1.0000
     1.0000   1.0000   1.0000   1.0000   1.0000   1.0000   1.0000   1.0000
     1.0000   1.0000   1.0000   1.0000   1.0000   1.0000   1.0000   1.0000
     1.0000   1.0000   1.0000   1.0000   1.0000   1.0000   1.0000   1.0000
     1.0000   1.0000   1.0000   1.0000   1.0000   1.0000   1.0000   1.0000
     1.0000   1.0000   1.0000   1.0000   1.0000   1.0000   1.0000   1.0000
     1.0000   1.0000   1.0000   1.0000   1.0000   1.0000   1.0000   1.0000
     1.0000   1.0000   1.0000   1.0000   1.0000   1.0000   1.0000   1.0000
     1.0000   1.0000   1.0000   1.0000   1.0000   1.0000   1.0000   1.0000
     1.0000   1.0000   1.0000   1.0000   1.0000   1.0000   1.0000   1.0000
     1.0000   1.0000   1.0000   1.0000   1.0000   1.0000   1.0000   1.0000
     1.0000   1.0000   1.0000   1.0000   1.0000   1.0000   1.0000   1.0000
     1.0000   1.0000   1.0000   1.0000   1.0000   1.0000   1.0000   1.0000
     1.0000   1.0000   1.0000   1.0000   1.0000   1.0000   1.0000   1.0000
     1.0000   1.0000   1.0000   1.0000   1.0000   1.0000   1.0000   1.0000
     1.0000   1.0000   1.0000   1.0000   1.0000   1.0000   1.0000   1.0000
     1.0000   1.0000   1.0000   1.0000   1.0000   1.0000   1.0000   1.0000
     1.0000   1.0000   1.0000   1.0000   1.0000   1.0000   1.0000   1.0000
     1.0000   1.0000   1.0000   1.0000   1.0000   1.0000   1.0000   1.0000
     1.0000   1.0000   1.0000   1.0000   1.0000   1.0000   1.0000   1.0000
     1.0000   1.0000   1.0000   1.0000   1.0000   1.0000   1.0000   1.0000
     1.0000   1.0000   1.0000   1.0000   1.0000   1.0000   1.0000   1.0000
     1.0000   1.0000   1.0000   1.0000   1.0000   1.0000   1.0000   1.0000
     1.0000   1.0000   1.0000   1.0000   1.0000   1.0000   1.0000   1.0000
     1.0000   1.0000   1.0000   1.0000   1.0000   1.0000   1.0000   1.0000
     1.0000   1.0000   1.0000   1.0000   1.0000   1.0000   1.0000   1.0000
     1.0000   1.0000   1.0000   1.0000   1.0000   1.0000   1.0000   1.0000
     1.0000   1.0000   1.0000   1.0000   1.0000   1.0000   1.0000   1.0000
     1.0000   1.0000   1.0000   1.0000   1.0000   1.0000   1.0000   1.0000
     1.0000   1.0000   1.0000   1.0000   1.0000   1.0000   1.0000   1.0000
     1.0000   1.0000   1.0000   1.0000   1.0000   1.0000   1.0000   1.0000
     1.0000   1.0000   1.0000   1.0000   1.0000   1.0000   1.0000   1.0000
     1.0000   1.0000   1.0000   1.0000   1.0000   1.0000   1.0000   1.0000
     1.0000   1.0000   1.0000   1.0000   1.0000   1.0000   1.0000   1.0000
     1.0000   1.0000   1.0000   1.0000   1.0000   1.0000   1.0000   1.0000
     1.0000   1.0000   1.0000   1.0000   1.0000   1.0000   1.0000   1.0000
     1.0000   1.0000   1.0000   1.0000   1.0000   1.0000   1.0000   1.0000
     1.0000   1.0000   1.0000   1.0000   1.0000   1.0000   0.9999   0.9999
     0.0325   0.0211   0.0000   0.0000   0.0000   0.0000   0.0000   0.0000
     0.0000   0.0000   0.0000   0.0000   0.0000   0.0000   0.0000   0.0000
     0.0000   0.0000   0.0000   0.0000   0.0000   0.0000   0.0000   0.0000
     0.0000   0.0000   0.0000   0.0000   0.0000   0.0000   0.0000   0.0000
     0.0000   0.0000   0.0000   0.0000   0.0000   0.0000   0.0000   0.0000
     0.0000   0.0000   0.0000   0.0000   0.0000   0.0000   0.0000   0.0000
     0.0000   0.0000   0.0000   0.0000   0.0000   0.0000   0.0000   0.0000
     0.0000   0.0000   0.0000   0.0000   0.0000   0.0000   0.0000   0.0000
     0.0000   0.0000   0.0000   0.0000   0.0000   0.0000   0.0000   0.0000
     0.0000   0.0000   0.0000   0.0000   0.0000   0.0000   0.0000   0.0000
     0.0000   0.0000   0.0000   0.0000   0.0000   0.0000   0.0000   0.0000
     0.0000   0.0000   0.0000   0.0000   0.0000   0.0000   0.0000   0.0000
     0.0000   0.0000   0.0000   0.0000   0.0000   0.0000   0.0000   0.0000
     0.0000   0.0000   0.0000   0.0000   0.0000   0.0000   0.0000   0.0000
     0.0000   0.0000   0.0000

          k = 0.3536 0.3536 0.3536 ( 64114 PWs)   bands (ev):

   -17.3280 -17.3223 -17.3212 -17.3117 -17.3029 -17.2989 -17.2973 -17.2971
   -17.2967 -17.2966 -17.2965 -17.2962 -17.2958 -17.2955 -17.2940 -17.2906
   -17.2848 -17.2839 -17.2829 -17.2788 -17.2725 -17.2712 -17.2684 -17.2660
   -17.2608 -17.2597 -17.2130 -17.2119 -17.2108 -17.2100 -17.2096 -17.2095
   -17.2092 -17.2090 -17.2066 -17.2062 -17.2049 -17.2015 -17.2005 -17.1996
   -17.1944 -17.1895 -17.1726 -17.1706 -17.1681 -17.1671 -17.1665 -17.1663
   -17.1529 -17.1525 -17.0902 -17.0801 -17.0786 -17.0775 -17.0758 -17.0742
   -17.0731 -17.0728 -17.0726 -17.0695 -17.0692 -17.0680 -17.0619 -17.0616
   -17.0610 -17.0600 -17.0597 -17.0596 -17.0593 -17.0576 -17.0569 -17.0562
   -17.0559 -17.0547 -17.0533 -17.0527 -17.0524 -17.0508 -17.0503 -17.0500
   -17.0487 -17.0483 -17.0475 -17.0469 -17.0466 -17.0459 -17.0459 -17.0455
   -17.0450 -17.0446 -17.0441 -17.0440 -17.0438 -17.0437 -17.0435 -17.0423
   -17.0422 -17.0408 -17.0408 -17.0405 -17.0397 -17.0389 -17.0387 -17.0375
   -17.0366 -17.0363 -17.0361 -17.0351 -17.0349 -17.0348 -17.0342 -17.0338
   -17.0336 -17.0334 -17.0329 -17.0328 -17.0323 -17.0316 -17.0310 -17.0308
   -17.0303 -17.0300 -17.0294 -17.0285 -17.0279 -17.0260 -17.0251 -17.0248
   -17.0242 -17.0241 -17.0239 -17.0235 -17.0233 -17.0232 -17.0228 -17.0225
   -17.0225 -17.0223 -17.0210 -17.0202 -17.0199 -17.0195 -17.0187 -17.0183
   -17.0180 -17.0176 -17.0173 -17.0168 -17.0161 -17.0153 -17.0145 -17.0143
   -17.0139 -17.0135 -17.0133 -17.0131 -17.0129 -17.0127 -17.0125 -17.0125
   -17.0124 -17.0122 -17.0121 -17.0120 -17.0117 -17.0116 -17.0114 -17.0112
   -17.0111 -17.0108 -17.0108 -17.0106 -17.0104 -17.0100 -17.0099 -17.0098
   -17.0097 -17.0096 -17.0095 -17.0093 -17.0092 -17.0092 -17.0090 -17.0088
   -17.0087 -17.0085 -17.0084 -17.0083 -17.0081 -17.0079 -17.0077 -17.0077
   -17.0075 -17.0073 -17.0071 -17.0071 -17.0070 -17.0065 -17.0063 -17.0061
   -17.0060 -17.0058 -17.0055 -17.0053 -17.0050 -17.0049 -17.0046 -17.0045
   -17.0042 -17.0040 -17.0039 -17.0038 -17.0037 -17.0035 -17.0032 -17.0030
   -17.0028 -17.0027 -17.0026 -17.0023 -17.0021 -17.0020 -17.0015 -17.0005
   -16.9998 -16.9994 -16.9991 -16.9984 -16.9979 -16.9976 -16.9964 -16.9946
   -16.9943 -16.9935 -16.9928 -16.9924 -16.9919 -16.9916 -16.9913 -16.9908
   -16.9899 -16.9895 -16.9891 -16.9887 -16.9875 -16.9872 -16.9870 -16.9869
   -16.9868 -16.9867 -16.9864 -16.9864 -16.9857 -16.9855 -16.9855 -16.9854
   -16.9852 -16.9852 -16.9850 -16.9847 -16.9845 -16.9844 -16.9843 -16.9843
   -16.9840 -16.9838 -16.9835 -16.9834 -16.9833 -16.9831 -16.9831 -16.9830
   -16.9829 -16.9827 -16.9826 -16.9824 -16.9823 -16.9821 -16.9820 -16.9817
   -16.9815 -16.9811 -16.9809 -16.9807 -16.9802 -16.9801 -16.9800 -16.9799
   -16.9798 -16.9796 -16.9785 -16.9784 -16.9768 -16.9752 -16.9752 -16.9718
   -16.9699 -16.9676 -16.9554 -16.9543 -16.9511 -16.9421 -16.9419 -16.9412
   -16.9404 -16.9393 -16.9391 -16.9380 -16.9379 -16.9376 -16.9361 -16.9343
   -16.9342 -16.9338 -16.9330 -16.9318 -16.9302 -16.9298 -16.9281 -16.9263
    -4.9728  -4.9201  -4.5310  -4.4976  -4.4360  -4.3775  -4.3584  -4.3250
    -4.0177  -4.0093  -3.9239  -3.9067  -3.8693  -3.8067  -3.5453  -3.5065
    -3.4671  -3.4208  -3.4000  -3.3764  -3.3383  -3.2824  -3.1899  -3.0809
    -3.0762  -3.0382  -3.0285  -2.9923  -2.9821  -2.9646  -2.9316  -2.8823
    -2.8572  -2.8241  -2.7899  -2.7670  -2.7447  -2.6910  -2.6785  -2.5990
    -2.4155  -2.3804  -2.3241  -2.2934  -2.2395  -2.1934  -2.0289  -2.0023
    -1.9725  -1.9398  -1.9138  -1.9053  -1.8698  -1.8439  -1.8321  -1.8081
    -1.7647  -1.7320  -1.6972  -1.6850  -1.6118  -1.5601  -1.5424  -1.4727
    -0.3503  -0.2776  -0.2435  -0.2186  -0.1968  -0.1425  -0.1077  -0.1015
    -0.0489  -0.0431  -0.0094   0.0026   0.0169   0.0379   0.0507   0.0747
[...]
     atom   77 type  2   force =   0.00000000E+00  0.00000000E+00  0.00000000E+00
     atom   78 type  2   force =   0.00000000E+00  0.00000000E+00  0.00000000E+00
     atom   79 type  1   force =   0.00000000E+00  0.00000000E+00  0.00000000E+00
     atom   80 type  2   force =   0.00000000E+00  0.00000000E+00  0.00000000E+00
     atom   81 type  1   force =   0.00000000E+00  0.00000000E+00  0.00000000E+00
     atom   82 type  1   force =   0.00000000E+00  0.00000000E+00  0.00000000E+00
     atom   83 type  1   force =   0.00000000E+00  0.00000000E+00  0.00000000E+00
     atom   84 type  2   force =   0.00000000E+00  0.00000000E+00  0.00000000E+00
     atom   85 type  1   force =   0.00000000E+00  0.00000000E+00  0.00000000E+00
     atom   86 type  2   force =   0.00000000E+00  0.00000000E+00  0.00000000E+00
     atom   87 type  1   force =   0.00000000E+00  0.00000000E+00  0.00000000E+00
     atom   88 type  2   force =   0.00000000E+00  0.00000000E+00  0.00000000E+00
     atom   89 type  2   force =   0.00000000E+00  0.00000000E+00  0.00000000E+00
     atom   90 type  2   force =   0.00000000E+00  0.00000000E+00  0.00000000E+00
     atom   91 type  1   force =   0.00000000E+00  0.00000000E+00  0.00000000E+00
     atom   92 type  2   force =   0.00000000E+00  0.00000000E+00  0.00000000E+00
     atom   93 type  1   force =   0.00000000E+00  0.00000000E+00  0.00000000E+00
     atom   94 type  2   force =   0.00000000E+00  0.00000000E+00  0.00000000E+00
     atom   95 type  1   force =   0.00000000E+00  0.00000000E+00  0.00000000E+00
     atom   96 type  2   force =   0.00000000E+00  0.00000000E+00  0.00000000E+00
     atom   97 type  1   force =   0.00000000E+00  0.00000000E+00  0.00000000E+00
     atom   98 type  1   force =   0.00000000E+00  0.00000000E+00  0.00000000E+00
     atom   99 type  1   force =   0.00000000E+00  0.00000000E+00  0.00000000E+00
     atom  100 type  2   force =   0.00000000E+00  0.00000000E+00  0.00000000E+00
     atom  101 type  1   force =   0.00000000E+00  0.00000000E+00  0.00000000E+00
     atom  102 type  2   force =   0.00000000E+00  0.00000000E+00  0.00000000E+00
     atom  103 type  1   force =   0.00000000E+00  0.00000000E+00  0.00000000E+00
     atom  104 type  2   force =   0.00000000E+00  0.00000000E+00  0.00000000E+00
     atom  105 type  1   force =   0.00000000E+00  0.00000000E+00  0.00000000E+00
     atom  106 type  2   force =   0.00000000E+00  0.00000000E+00  0.00000000E+00
     atom  107 type  1   force =   0.00000000E+00  0.00000000E+00  0.00000000E+00
     atom  108 type  1   force =   0.00000000E+00  0.00000000E+00  0.00000000E+00
     atom  109 type  1   force =   0.00000000E+00  0.00000000E+00  0.00000000E+00
     atom  110 type  2   force =   0.00000000E+00  0.00000000E+00  0.00000000E+00
     atom  111 type  1   force =   0.00000000E+00  0.00000000E+00  0.00000000E+00
     atom  112 type  2   force =   0.00000000E+00  0.00000000E+00  0.00000000E+00
     atom  113 type  1   force =   0.00000000E+00  0.00000000E+00  0.00000000E+00
     atom  114 type  2   force =   0.00000000E+00  0.00000000E+00  0.00000000E+00
     atom  115 type  1   force =   0.00000000E+00  0.00000000E+00  0.00000000E+00
     atom  116 type  2   force =   0.00000000E+00  0.00000000E+00  0.00000000E+00
     atom  117 type  2   force =   0.00000000E+00  0.00000000E+00  0.00000000E+00
     atom  118 type  2   force =   0.00000000E+00  0.00000000E+00  0.00000000E+00
     atom  119 type  1   force =   0.00000000E+00  0.00000000E+00  0.00000000E+00
     atom  120 type  2   force =   0.00000000E+00  0.00000000E+00  0.00000000E+00
     atom  121 type  1   force =   0.00000000E+00  0.00000000E+00  0.00000000E+00
     atom  122 type  2   force =   0.00000000E+00  0.00000000E+00  0.00000000E+00
     atom  123 type  1   force =   0.00000000E+00  0.00000000E+00  0.00000000E+00
     atom  124 type  2   force =   0.00000000E+00  0.00000000E+00  0.00000000E+00
     atom  125 type  1   force =   0.00000000E+00  0.00000000E+00  0.00000000E+00
     atom  126 type  1   force =   0.00000000E+00  0.00000000E+00  0.00000000E+00
     atom  127 type  2   force =   0.00000000E+00  0.00000000E+00  0.00000000E+00
     atom  128 type  2   force =   0.00000000E+00  0.00000000E+00  0.00000000E+00
     The SCF correction term to forces
     atom    1 type  1   force =   0.17875083E-05 -0.72022663E-06  0.47648305E-06
     atom    2 type  1   force =   0.30223885E-05 -0.18851171E-05 -0.66479041E-06
     atom    3 type  2   force =   0.23669622E-05  0.27755784E-05  0.10897384E-04
     atom    4 type  2   force =  -0.14270623E-04  0.40050471E-05 -0.10902283E-04
     atom    5 type  2   force =  -0.13756339E-04  0.13561593E-05  0.17666326E-04
     atom    6 type  2   force =  -0.18247812E-04  0.95891639E-05 -0.57548832E-05
     atom    7 type  1   force =   0.16944771E-06  0.97896951E-06  0.46085187E-06
     atom    8 type  1   force =   0.23307100E-05 -0.14796116E-06  0.16793649E-06
     atom    9 type  1   force =  -0.17888426E-05 -0.29689972E-05  0.61829054E-06
     atom   10 type  2   force =  -0.15634398E-04 -0.13642327E-04  0.82413867E-06
     atom   11 type  1   force =  -0.75029345E-05  0.10802772E-05 -0.75397669E-06
     atom   12 type  2   force =  -0.12169312E-04  0.22242344E-05  0.61978221E-05
     atom   13 type  1   force =  -0.42809063E-06  0.31313597E-05 -0.27455053E-05
     atom   14 type  1   force =   0.27945753E-05  0.38361272E-05 -0.13693629E-05
     atom   15 type  1   force =   0.63001108E-05  0.20971301E-05 -0.17906067E-05
     atom   16 type  2   force =   0.69001604E-05  0.76060711E-05 -0.29998467E-06
     atom   17 type  1   force =  -0.44721276E-05 -0.12525002E-05  0.81660565E-06
     atom   18 type  2   force =   0.43055819E-05 -0.17343080E-04  0.57816705E-05
     atom   19 type  2   force =   0.53859949E-05 -0.70155965E-05  0.10088494E-04
     atom   20 type  2   force =  -0.14385147E-05 -0.12009191E-05  0.13004583E-04
     atom   21 type  1   force =   0.24779028E-05  0.16798098E-07 -0.13840140E-05
     atom   22 type  2   force =   0.49442627E-06  0.20227950E-04 -0.77904835E-05
     atom   23 type  1   force =  -0.83275947E-06  0.46609861E-05 -0.36535006E-05
     atom   24 type  2   force =  -0.98652409E-05  0.56102249E-05 -0.58974212E-05
     atom   25 type  2   force =   0.82571748E-05 -0.38887346E-05  0.35896902E-05
     atom   26 type  2   force =  -0.87318772E-05 -0.49087455E-05 -0.56713274E-05
     atom   27 type  1   force =   0.39735478E-06 -0.18671845E-05  0.22909011E-05
     atom   28 type  2   force =   0.15903552E-05 -0.16283206E-04  0.18658624E-04
     atom   29 type  1   force =  -0.19797925E-05  0.10226178E-05  0.33789242E-05
     atom   30 type  1   force =  -0.32627212E-06  0.19224418E-05  0.41366483E-05
     atom   31 type  1   force =  -0.12801861E-05  0.35076940E-05  0.60581935E-06
     atom   32 type  2   force =   0.58795580E-05  0.74294973E-05 -0.34062617E-05
     atom   33 type  1   force =   0.28620489E-05 -0.29357664E-05 -0.17709758E-05
     atom   34 type  1   force =   0.33500712E-05 -0.29693130E-06 -0.11122655E-05
     atom   35 type  1   force =   0.25889788E-05  0.11448423E-05 -0.23694700E-05
     atom   36 type  2   force =  -0.53441884E-05  0.79186232E-05 -0.45628205E-05
     atom   37 type  1   force =  -0.20989664E-05  0.62464286E-06 -0.21075505E-06
     atom   38 type  2   force =  -0.85098557E-05 -0.43639674E-05 -0.53197511E-05
     atom   39 type  1   force =  -0.65475587E-06 -0.14366217E-05 -0.10127816E-05
     atom   40 type  2   force =   0.11344060E-04 -0.20962238E-04  0.19458361E-05
     atom   41 type  1   force =  -0.49195193E-06 -0.35201917E-05  0.40070987E-07
     atom   42 type  2   force =  -0.11166362E-04  0.75202792E-05 -0.16962169E-05
     atom   43 type  2   force =  -0.14841274E-04  0.18971887E-04  0.33549058E-05
     atom   44 type  2   force =  -0.42164717E-05  0.23651953E-05  0.46613908E-05
     atom   45 type  1   force =  -0.12354344E-05  0.27331344E-05  0.40687079E-06
     atom   46 type  2   force =   0.11978323E-04  0.59058270E-05 -0.79764265E-05
     atom   47 type  1   force =   0.44774671E-05 -0.23962440E-05 -0.90619549E-06
     atom   48 type  2   force =   0.71441727E-06 -0.13538967E-04 -0.46505961E-05
     atom   49 type  1   force =  -0.80088469E-06 -0.78148337E-06 -0.32291661E-06
     atom   50 type  2   force =   0.81476393E-05  0.34411132E-05 -0.64933192E-06
     atom   51 type  2   force =  -0.17170621E-05  0.51564367E-05 -0.42826625E-05
     atom   52 type  2   force =   0.74065289E-05 -0.72667717E-05 -0.92984473E-05
     atom   53 type  1   force =   0.18954966E-05  0.32582921E-05 -0.23566736E-07
     atom   54 type  2   force =   0.45625666E-05  0.33186901E-05 -0.62886840E-06
     atom   55 type  1   force =  -0.22092310E-05 -0.19750075E-05 -0.21663557E-05
     atom   56 type  1   force =  -0.17443311E-05 -0.24303548E-05 -0.15837644E-06
     atom   57 type  1   force =   0.72464501E-06 -0.31985792E-05 -0.22610911E-06
     atom   58 type  2   force =   0.22499828E-05 -0.40243955E-05 -0.11073851E-04
     atom   59 type  1   force =   0.32083931E-05 -0.53022120E-06  0.50554431E-07
     atom   60 type  2   force =   0.10511774E-04 -0.21280449E-06 -0.75668131E-07
     atom   61 type  1   force =  -0.18519170E-06  0.12948886E-05  0.14800258E-05
     atom   62 type  2   force =  -0.68526929E-06 -0.53397132E-05  0.64932151E-05
     atom   63 type  1   force =   0.52876545E-06 -0.18830138E-05  0.19525252E-05
     atom   64 type  2   force =   0.21792212E-05 -0.41674556E-05 -0.19941069E-05
     atom   65 type  1   force =   0.27145861E-05  0.20384261E-05  0.43981591E-06
     atom   66 type  2   force =   0.14642414E-04  0.87222048E-05  0.52224506E-05
     atom   67 type  1   force =   0.14858351E-05  0.87154831E-06 -0.41786958E-06
     atom   68 type  2   force =  -0.69433060E-05 -0.82489143E-05 -0.11499025E-05
     atom   69 type  1   force =  -0.21144903E-05 -0.40274016E-05 -0.17846506E-05
     atom   70 type  2   force =  -0.16784197E-05 -0.18880924E-04 -0.37371271E-05
     atom   71 type  1   force =   0.15865535E-05 -0.25802293E-05 -0.13120445E-05
     atom   72 type  2   force =   0.13528921E-04 -0.38069126E-06  0.71052515E-05
     atom   73 type  1   force =  -0.15929017E-06  0.26902944E-05  0.20175677E-05
     atom   74 type  2   force =  -0.15981003E-04  0.83378799E-05 -0.40281776E-06
     atom   75 type  1   force =  -0.40990408E-05 -0.88875967E-06 -0.12293718E-05
     atom   76 type  2   force =  -0.10208236E-04 -0.17010853E-05 -0.13366213E-04
     atom   77 type  2   force =   0.10127343E-04 -0.85060341E-05 -0.58758853E-05
     atom   78 type  2   force =   0.18654145E-04 -0.88568036E-05 -0.71200923E-05
     atom   79 type  1   force =   0.40658780E-05 -0.17785468E-05  0.80398482E-08
     atom   80 type  2   force =  -0.11556462E-07  0.10323697E-04 -0.79868009E-06
     atom   81 type  1   force =  -0.48836739E-05  0.99492357E-06 -0.15035953E-05
     atom   82 type  1   force =  -0.30788084E-05 -0.60495446E-07 -0.92840608E-07
     atom   83 type  1   force =   0.10315506E-05 -0.30213897E-06 -0.20480825E-05
     atom   84 type  2   force =   0.20486353E-04  0.80505191E-06 -0.35224883E-06
     atom   85 type  1   force =   0.48883094E-05 -0.34888238E-06 -0.14052296E-05
     atom   86 type  2   force =  -0.14329967E-05 -0.28407002E-05  0.73209509E-05
     atom   87 type  1   force =  -0.20089474E-05  0.63130675E-06  0.12666490E-05
     atom   88 type  2   force =  -0.11743072E-04  0.79518680E-05  0.76221213E-05
     atom   89 type  2   force =   0.73580086E-05  0.74717274E-06  0.87639172E-06
     atom   90 type  2   force =   0.72349587E-05  0.79999113E-05 -0.44405959E-06
     atom   91 type  1   force =   0.45013541E-05 -0.75247546E-07  0.79114652E-06
     atom   92 type  2   force =   0.10280367E-04 -0.24472032E-05  0.14908323E-05
     atom   93 type  1   force =   0.36287261E-06 -0.15936933E-05 -0.25071184E-06
     atom   94 type  2   force =  -0.16269340E-05 -0.12488109E-04 -0.10350670E-04
     atom   95 type  1   force =  -0.15886158E-05 -0.26704914E-05 -0.20311692E-05
     atom   96 type  2   force =  -0.50015424E-05 -0.39777363E-05 -0.92418591E-05
     atom   97 type  1   force =   0.14858322E-05  0.12225077E-05  0.12410358E-05
     atom   98 type  1   force =   0.15988547E-05 -0.13132001E-05  0.19124472E-05
     atom   99 type  1   force =  -0.52252718E-06 -0.24440394E-05  0.82464390E-06
     atom  100 type  2   force =  -0.25400846E-04 -0.13182113E-05  0.14156734E-04
     atom  101 type  1   force =  -0.20748411E-05 -0.22344971E-05  0.26337027E-05
     atom  102 type  2   force =  -0.10134889E-04  0.15353728E-04  0.13253071E-04
     atom  103 type  1   force =   0.19403820E-05  0.26913234E-05  0.21864792E-05
     atom  104 type  2   force =   0.13449953E-04  0.45641936E-05  0.81185592E-05
     atom  105 type  1   force =  -0.14778191E-05 -0.10835317E-05  0.21984953E-05
     atom  106 type  2   force =  -0.27071294E-04 -0.37577638E-05  0.27472732E-05
     atom  107 type  1   force =  -0.70982122E-05 -0.23574295E-05 -0.20367595E-07
     atom  108 type  1   force =  -0.35956178E-05 -0.25071417E-06  0.30710044E-06
     atom  109 type  1   force =   0.21228078E-05  0.15825050E-05 -0.11178740E-05
     atom  110 type  2   force =   0.26454440E-04  0.45879949E-05 -0.52413728E-06
     atom  111 type  1   force =   0.46679581E-05  0.36485422E-05  0.10814532E-05
     atom  112 type  2   force =   0.10952480E-04  0.39388408E-05 -0.24073050E-05
     atom  113 type  1   force =  -0.72084939E-05  0.14918013E-05  0.54918609E-06
     atom  114 type  2   force =  -0.12890482E-04 -0.29486815E-06  0.87401040E-05
     atom  115 type  1   force =   0.13650294E-05 -0.12170606E-05  0.23715341E-05
     atom  116 type  2   force =   0.18390658E-04  0.40294811E-05  0.16364671E-05
     atom  117 type  2   force =   0.19198321E-04  0.45124464E-06  0.11789904E-06
     atom  118 type  2   force =   0.32700930E-05  0.20955104E-05 -0.21382220E-04
     atom  119 type  1   force =  -0.26804652E-05  0.34270054E-05 -0.21535352E-05
     atom  120 type  2   force =  -0.21751618E-04  0.83168115E-05 -0.10291304E-04
     atom  121 type  1   force =   0.16101270E-05  0.20563938E-05  0.16845795E-05
     atom  122 type  2   force =  -0.30461611E-06  0.76530566E-05  0.10668577E-04
     atom  123 type  1   force =   0.18432205E-05 -0.19149623E-05  0.12373465E-05
     atom  124 type  2   force =  -0.30979071E-05 -0.80063774E-05  0.73894498E-05
     atom  125 type  1   force =  -0.25926556E-05 -0.21526026E-05 -0.31492446E-05
     atom  126 type  1   force =  -0.23127233E-05 -0.20882268E-06 -0.55067159E-06
     atom  127 type  2   force =  -0.81763351E-05  0.16317265E-04 -0.15073326E-04
     atom  128 type  2   force =  -0.88427816E-06  0.12369337E-04  0.34557196E-05

     Total force =     0.139010     Total SCF correction =     0.000136


     entering subroutine stress ...

          total   stress  (Ry/bohr**3)                   (kbar)     P=    1.16
   0.0000078804   0.0000000031  -0.0000000117          1.16      0.00     -0.00
   0.0000000031   0.0000078499   0.0000005547          0.00      1.15      0.08
  -0.0000000117   0.0000005547   0.0000079495         -0.00      0.08      1.17

     kinetic stress (kbar)   6412.26      0.00     -0.00
                                0.00   6412.26      0.02
                               -0.00      0.02   6412.28

     local   stress (kbar)  -2522.85    167.45   -105.24
                              167.45  -4092.57  -1427.97
                             -105.24  -1427.97  -3249.99

     nonloc. stress (kbar)   2496.55      0.00     -0.01
                                0.00   2496.55     -0.22
                               -0.01     -0.22   2496.56

     hartree stress (kbar)  15881.12    -83.86     53.38
                              -83.86  16656.39    693.07
                               53.38    693.07  16240.69

     exc-cor stress (kbar)  10937.32      0.00     -0.00
                                0.00  10937.32     -0.00
                               -0.00     -0.00  10937.32

     corecor stress (kbar) -16604.64      0.00      0.00
                                0.00 -16604.64     -0.01
                                0.00     -0.01 -16604.64

     ewald   stress (kbar) -16598.62    -83.59     51.87
                              -83.59 -15804.17    735.21
                               51.87    735.21 -16231.06

     hubbard stress (kbar)      0.00      0.00      0.00
                                0.00      0.00      0.00
                                0.00      0.00      0.00

     london  stress (kbar)      0.00      0.00      0.00
                                0.00      0.00      0.00
                                0.00      0.00      0.00

     XDM     stress (kbar)      0.00      0.00      0.00
                                0.00      0.00      0.00
                                0.00      0.00      0.00

     dft-nl  stress (kbar)      0.00      0.00      0.00
                                0.00      0.00      0.00
                                0.00      0.00      0.00



     Writing output data file SiGe_zns.scf.in.super.444.mix.save

     init_run     :    995.77s CPU    853.07s WALL (       1 calls)
     electrons    :  48532.93s CPU  42865.17s WALL (       1 calls)
     forces       :    640.90s CPU    502.38s WALL (       1 calls)
     stress       :   3444.27s CPU   3430.85s WALL (       1 calls)

     Called by init_run:
     wfcinit      :    942.31s CPU    799.09s WALL (       1 calls)
     potinit      :      1.19s CPU      1.27s WALL (       1 calls)

     Called by electrons:
     c_bands      :  42833.38s CPU  37376.09s WALL (      15 calls)
     sum_band     :   4927.27s CPU   4703.88s WALL (      15 calls)
     v_of_rho     :     10.26s CPU     11.74s WALL (      15 calls)
     v_h          :      0.72s CPU      0.95s WALL (      15 calls)
     v_xc         :     10.82s CPU     12.17s WALL (      17 calls)
     newd         :    788.20s CPU    797.38s WALL (      15 calls)
     mix_rho      :     21.05s CPU     23.28s WALL (      15 calls)

     Called by c_bands:
     init_us_2    :     57.19s CPU     58.30s WALL (     264 calls)
     cegterg      :  42537.16s CPU  37068.55s WALL (     120 calls)

     Called by sum_band:
     sum_band:bec :     15.84s CPU     15.91s WALL (     120 calls)
     addusdens    :    586.50s CPU    589.60s WALL (      15 calls)

     Called by *egterg:
     h_psi        :  17625.05s CPU  16198.99s WALL (     453 calls)
     s_psi        :   4077.31s CPU   2784.09s WALL (     453 calls)
     g_psi        :      7.94s CPU      9.70s WALL (     325 calls)
     cdiaghg      :  13034.23s CPU  12377.11s WALL (     437 calls)
     cegterg:over :   3878.87s CPU   2836.74s WALL (     325 calls)
     cegterg:upda :   1786.66s CPU   1248.04s WALL (     325 calls)
     cegterg:last :   1166.40s CPU    782.86s WALL (     120 calls)

     Called by h_psi:
     h_psi:vloc   :   9129.09s CPU  10326.05s WALL (     453 calls)
     h_psi:vnl    :   8475.30s CPU   5851.94s WALL (     453 calls)
     add_vuspsi   :   4072.34s CPU   2761.06s WALL (     453 calls)

     General routines
     calbec       :   7172.67s CPU   5245.44s WALL (     589 calls)
     fft          :    265.15s CPU    268.12s WALL (     265 calls)
     ffts         :     13.28s CPU     14.86s WALL (     427 calls)
     fftw         :  10403.11s CPU  11865.91s WALL (  487212 calls)
     interpolate  :      3.00s CPU      3.50s WALL (      30 calls)

     Parallel routines
     fft_scatter  :   7394.18s CPU   8287.45s WALL (  487904 calls)

     PWSCF        :    14h54m CPU       13h15m WALL


   This run was terminated on:  11:43:42  19Jan2017            

=------------------------------------------------------------------------------=
   JOB DONE.
=------------------------------------------------------------------------------=
