
     Program PWSCF v.5.1 starts on  2Nov2017 at 12:22: 0 

     This program is part of the open-source Quantum ESPRESSO suite
     for quantum simulation of materials; please cite
         "P. Giannozzi et al., J. Phys.:Condens. Matter 21 395502 (2009);
          URL http://www.quantum-espresso.org", 
     in publications or presentations arising from this work. More details at
     http://www.quantum-espresso.org/quote

     Parallel version (MPI), running on     8 processors
     R & G space division:  proc/nbgrp/npool/nimage =       8
     Reading input from /tmp/SiGe_zns.scf.in.super.444.b.04.24774/SiGe_zns.scf.in.super.444.b.04.t
Warning: card &IONS ignored
Warning: card   ION_DYNAMICS='BFGS', ignored
Warning: card / ignored
Warning: card &CELL ignored
Warning: card  CELL_DYNAMICS = 'BFGS' ignored
Warning: card / ignored
     Message from routine read_cards :
     DEPRECATED: no units specified in CELL_PARAMETERS card

     Current dimensions of program PWSCF are:
     Max number of different atomic species (ntypx) = 10
     Max number of k-points (npk) =  40000
     Max angular momentum in pseudopotentials (lmaxx) =  3
 kfg - two_fermi_energies  F

     Subspace diagonalization in iterative solution of the eigenvalue problem:
     a serial algorithm will be used


     Parallelization info
     --------------------
     sticks:   dense  smooth     PW     G-vecs:    dense   smooth      PW
     Min        1512    1057    278               109510    64140    8650
     Max        1513    1058    279               109512    64161    8651
     Sum       12101    8459   2227               876083   513175   69203



     bravais-lattice index     =            0
     lattice parameter (alat)  =    29.606049039  a.u.
     unit-cell volume          =   18339.6390 (a.u.)^3
     number of atoms/cell      =          128
     number of atomic types    =            2
     number of electrons       =      1152.00
     number of Kohn-Sham states=          691
     kinetic-energy cutoff     =      35.0000  Ry
     charge density cutoff     =     200.0000  Ry
     convergence threshold     =      1.0E-09
     mixing beta               =       0.3000
     number of iterations used =            8  local-TF  mixing
     Exchange-correlation      = SLA  PW   PSX  PSC ( 1  4 10  8 0)
     A smooth kinetic-energy cutoff is imposed at      34.5000 Ry
     height of the smooth step-function =             800.0000 Ry
     width of the smooth step-function  =               1.0000 Ry


     celldm(1)=  29.606049  celldm(2)=   0.000000  celldm(3)=   0.000000
     celldm(4)=   0.000000  celldm(5)=   0.000000  celldm(6)=   0.000000

     crystal axes: (cart. coord. in units of alat)
               a(1) = (  -0.001440477205   0.707326439620   0.706885586810 )  
               a(2) = (   0.708137235646   0.001391082634   0.705763302579 )  
               a(3) = (   0.707027169008   0.706434886172  -0.000254185297 )  

     reciprocal axes: (cart. coord. in units 2 pi/alat)
               b(1) = ( -0.705476  0.706321  0.706457 )  
               b(2) = (  0.706851 -0.707189  0.709070 )  
               b(3) = (  0.704974  0.709738 -0.708744 )  


     PseudoPot. # 1 for Si read from file:
     /users/kfg/psuedo/gbrv_1.5/si.pbesol.UPF
     MD5 check sum: ef58ba74faed4df802eb8a9742fc00a8
     Pseudo is Ultrasoft + core correction, Zval =  4.0
     Generated by new atomic code, or converted to UPF format
     Using radial grid of  899 points,  6 beta functions with: 
                l(1) =   0
                l(2) =   0
                l(3) =   1
                l(4) =   1
                l(5) =   2
                l(6) =   2
     Q(r) pseudized with  8 coefficients,  rinner =    0.900   0.900   0.900
                                                       0.900   0.900

     PseudoPot. # 2 for Ge read from file:
     /users/kfg/psuedo/gbrv_1.5/ge.pbesol.UPF
     MD5 check sum: 7bed0412183f5e553a4d27ec7023354d
     Pseudo is Ultrasoft + core correction, Zval = 14.0
     Generated by new atomic code, or converted to UPF format
     Using radial grid of  873 points,  6 beta functions with: 
                l(1) =   0
                l(2) =   0
                l(3) =   1
                l(4) =   1
                l(5) =   2
                l(6) =   2
     Q(r) pseudized with  8 coefficients,  rinner =    1.400   1.400   1.400
                                                       1.400   1.400

     atomic species   valence    mass     pseudopotential
        Si             4.00    28.08550     Si( 1.00)
        Ge            14.00    72.64000     Ge( 1.00)

     No symmetry found


                                    s                        frac. trans.

      isym =  1     identity                                     

 cryst.   s( 1) = (     1          0          0      )
                  (     0          1          0      )
                  (     0          0          1      )

 cart.    s( 1) = (  1.0000000  0.0000000  0.0000000 )
                  ( -0.0000000  1.0000000  0.0000000 )
                  ( -0.0000000  0.0000000  1.0000000 )


     point group C_1 (1)    
     there are  1 classes
     the character table:

       E    
A      1.00

     the symmetry operations in each class:
     E        1

   Cartesian axes

     site n.     atom                  positions (alat units)
         1           Ge  tau(   1) = (   -0.00074462910    0.00095957864   -0.00163287581  )
         2           Si  tau(   2) = (    0.08780012669    0.08901689231    0.08929392402  )
         3           Ge  tau(   3) = (    0.17812606491    0.17643983687   -0.00044614084  )
         4           Si  tau(   4) = (    0.26506178352    0.26437684473    0.08873593199  )
         5           Si  tau(   5) = (    0.35517104406    0.35170688580   -0.00135220490  )
         6           Ge  tau(   6) = (    0.44184531335    0.44093586819    0.08729912480  )
         7           Si  tau(   7) = (    0.52977227470    0.52946737340    0.00057018103  )
         8           Ge  tau(   8) = (    0.61946379277    0.61817771256    0.08917294020  )
         9           Si  tau(   9) = (    0.17573071554    0.00001760455    0.17521086756  )
        10           Ge  tau(  10) = (    0.26638818695    0.08858725276    0.26484974715  )
        11           Si  tau(  11) = (    0.35378175226    0.17573979126    0.17780662660  )
        12           Si  tau(  12) = (    0.44126182457    0.26466148632    0.26438137321  )
        13           Ge  tau(  13) = (    0.53109392755    0.35356213259    0.17524940162  )
        14           Ge  tau(  14) = (    0.61895974241    0.44272622417    0.26381826596  )
        15           Si  tau(  15) = (    0.70664786414    0.53069258170    0.17679021663  )
        16           Ge  tau(  16) = (    0.79503197425    0.61902837208    0.26546627862  )
        17           Si  tau(  17) = (    0.35529195765    0.00091628454    0.35370112314  )
        18           Si  tau(  18) = (    0.44291356713    0.08971551910    0.44213207200  )
        19           Si  tau(  19) = (    0.53241719183    0.17800600386    0.35251037850  )
        20           Ge  tau(  20) = (    0.61794414391    0.26717484343    0.44161681043  )
        21           Ge  tau(  21) = (    0.70921037060    0.35443818519    0.35117219865  )
        22           Si  tau(  22) = (    0.79524079159    0.44075361380    0.44186488479  )
        23           Ge  tau(  23) = (    0.88355829205    0.52948599941    0.35198085703  )
        24           Ge  tau(  24) = (    0.97360983231    0.61899531974    0.44040671286  )
        25           Ge  tau(  25) = (    0.53246537846    0.00265492108    0.52889347036  )
        26           Si  tau(  26) = (    0.62017256146    0.09086715651    0.61890608357  )
        27           Ge  tau(  27) = (    0.70660801655    0.17719261378    0.52861143233  )
        28           Ge  tau(  28) = (    0.79481829890    0.26598895811    0.61714714003  )
        29           Ge  tau(  29) = (    0.88448642530    0.35473774136    0.53019214578  )
        30           Si  tau(  30) = (    0.97417997573    0.44218422864    0.61905235961  )
        31           Ge  tau(  31) = (    1.06270521771    0.53085597768    0.53064471502  )
        32           Ge  tau(  32) = (    1.15039118675    0.62072701834    0.61614304103  )
        33           Ge  tau(  33) = (    0.00090295572    0.17851202542    0.17755829256  )
        34           Si  tau(  34) = (    0.08746079910    0.26504179870    0.26627825475  )
        35           Ge  tau(  35) = (    0.17746969342    0.35182036215    0.17534652398  )
        36           Ge  tau(  36) = (    0.26624082597    0.44166145164    0.26348770971  )
        37           Si  tau(  37) = (    0.35224741137    0.53130047186    0.17647039604  )
        38           Ge  tau(  38) = (    0.44031966371    0.61690184760    0.26537406054  )
        39           Ge  tau(  39) = (    0.53037522729    0.70565373172    0.17726081164  )
        40           Si  tau(  40) = (    0.61748365901    0.79363213827    0.26619058941  )
        41           Ge  tau(  41) = (    0.17550398118    0.17664562746    0.35448860150  )
        42           Si  tau(  42) = (    0.26389936216    0.26469598196    0.44270010780  )
        43           Ge  tau(  43) = (    0.35342180430    0.35463873895    0.35477751753  )
        44           Si  tau(  44) = (    0.44056413937    0.44364245954    0.44291746851  )
        45           Si  tau(  45) = (    0.52870635745    0.53063195383    0.35346493399  )
        46           Ge  tau(  46) = (    0.61811715133    0.61969147155    0.43971665927  )
        47           Si  tau(  47) = (    0.70590888501    0.70607065487    0.35161116959  )
        48           Si  tau(  48) = (    0.79461442724    0.79399299397    0.43964622337  )
        49           Si  tau(  49) = (    0.35478301286    0.17908461560    0.52893346901  )
        50           Si  tau(  50) = (    0.44056561400    0.26498745982    0.61846776264  )
        51           Si  tau(  51) = (    0.53005101860    0.35511079187    0.52912450883  )
        52           Si  tau(  52) = (    0.61984972914    0.44098176636    0.61881507246  )
        53           Si  tau(  53) = (    0.70566545821    0.53222572474    0.53055730858  )
        54           Ge  tau(  54) = (    0.79437323099    0.61970329585    0.61872068012  )
        55           Ge  tau(  55) = (    0.88488021086    0.70641072471    0.52922869948  )
        56           Ge  tau(  56) = (    0.97231790993    0.79668534936    0.61848979664  )
        57           Si  tau(  57) = (    0.53108275515    0.17633704591    0.70630717783  )
        58           Si  tau(  58) = (    0.62027067143    0.26729783525    0.79275792402  )
        59           Si  tau(  59) = (    0.70595990041    0.35341753441    0.70761357775  )
        60           Ge  tau(  60) = (    0.79621268902    0.44274990040    0.79474753450  )
        61           Si  tau(  61) = (    0.88430230665    0.53076750599    0.70638342312  )
        62           Si  tau(  62) = (    0.97104793526    0.61999596124    0.79350362047  )
        63           Ge  tau(  63) = (    1.06181704447    0.70668716980    0.70679738915  )
        64           Ge  tau(  64) = (    1.14952323456    0.79496421181    0.79364226923  )
        65           Ge  tau(  65) = (   -0.00038162531    0.35457586284    0.35433685644  )
        66           Ge  tau(  66) = (    0.08665761220    0.44080018001    0.44309332588  )
        67           Ge  tau(  67) = (    0.17454605509    0.53005360354    0.35271175662  )
        68           Si  tau(  68) = (    0.26506095491    0.61788922834    0.44150864398  )
        69           Ge  tau(  69) = (    0.35171792069    0.70835358424    0.35336494018  )
        70           Si  tau(  70) = (    0.44042486030    0.79644539146    0.44048019849  )
        71           Si  tau(  71) = (    0.52962121281    0.88302625458    0.35202820756  )
        72           Si  tau(  72) = (    0.61769737672    0.97163884597    0.44191898009  )
        73           Ge  tau(  73) = (    0.17783828403    0.35366451288    0.53060010436  )
        74           Si  tau(  74) = (    0.26299648382    0.44387962120    0.61979718222  )
        75           Ge  tau(  75) = (    0.35290103163    0.53165884630    0.52847155708  )
        76           Si  tau(  76) = (    0.44270017618    0.62000816138    0.61830269071  )
        77           Ge  tau(  77) = (    0.52867757132    0.70696672532    0.52915904548  )
        78           Si  tau(  78) = (    0.61746050002    0.79401215249    0.61859483461  )
        79           Si  tau(  79) = (    0.70622807974    0.88445671350    0.52931890636  )
        80           Ge  tau(  80) = (    0.79410745418    0.97203922318    0.61728155125  )
        81           Si  tau(  81) = (    0.35463776893    0.35412797419    0.70690054740  )
        82           Ge  tau(  82) = (    0.44300254414    0.44201482434    0.79448053040  )
        83           Si  tau(  83) = (    0.53013859599    0.53096308335    0.70601569497  )
        84           Ge  tau(  84) = (    0.62008566827    0.61847811021    0.79418254570  )
        85           Si  tau(  85) = (    0.70593197686    0.70922320885    0.70758678185  )
        86           Ge  tau(  86) = (    0.79462212025    0.79517760777    0.79282522927  )
        87           Si  tau(  87) = (    0.88343306402    0.88471629435    0.70729643387  )
        88           Si  tau(  88) = (    0.97295635500    0.97371506941    0.79487869865  )
        89           Si  tau(  89) = (    0.52914123697    0.35504128615    0.88125529880  )
        90           Si  tau(  90) = (    0.61862403147    0.44233798857    0.97127065392  )
        91           Si  tau(  91) = (    0.70853636080    0.53175907689    0.88287128689  )
        92           Ge  tau(  92) = (    0.79657863470    0.61975661203    0.97245312180  )
        93           Ge  tau(  93) = (    0.88462239184    0.70698689511    0.88363472965  )
        94           Ge  tau(  94) = (    0.97099930313    0.79538323216    0.97222411764  )
        95           Ge  tau(  95) = (    1.05988312525    0.88585769453    0.88339654858  )
        96           Si  tau(  96) = (    1.14943910360    0.97438819610    0.96947114718  )
        97           Si  tau(  97) = (   -0.00268590605    0.52922874446    0.52960117867  )
        98           Ge  tau(  98) = (    0.08783179777    0.61983769238    0.61838309287  )
        99           Ge  tau(  99) = (    0.17660682125    0.70677922009    0.52913068250  )
       100           Ge  tau( 100) = (    0.26519993403    0.79564985602    0.61944312854  )
       101           Ge  tau( 101) = (    0.35269221471    0.88455467664    0.52884515929  )
       102           Si  tau( 102) = (    0.44192652287    0.97292103281    0.61891805245  )
       103           Si  tau( 103) = (    0.52788958916    1.06091399194    0.52859587691  )
       104           Ge  tau( 104) = (    0.61718253923    1.14899500363    0.61864170735  )
       105           Ge  tau( 105) = (    0.17587867998    0.52931399732    0.70720206453  )
       106           Si  tau( 106) = (    0.26472406824    0.61825147088    0.79508214432  )
       107           Si  tau( 107) = (    0.35315438603    0.70773863100    0.70528863986  )
       108           Si  tau( 108) = (    0.44104104163    0.79681623174    0.79390442285  )
       109           Si  tau( 109) = (    0.52788079759    0.88462739949    0.70705456361  )
       110           Ge  tau( 110) = (    0.61870420343    0.97112890669    0.79487824819  )
       111           Ge  tau( 111) = (    0.70530362232    1.06171183363    0.70567759478  )
       112           Ge  tau( 112) = (    0.79576015688    1.15022120945    0.79585334671  )
       113           Ge  tau( 113) = (    0.35436687957    0.53071517973    0.88204051746  )
       114           Si  tau( 114) = (    0.44098628721    0.61833482165    0.97061274985  )
       115           Ge  tau( 115) = (    0.53045045429    0.70784949595    0.88237381667  )
       116           Si  tau( 116) = (    0.61842682574    0.79730218136    0.97148796379  )
       117           Ge  tau( 117) = (    0.70545899299    0.88392387271    0.88247247663  )
       118           Si  tau( 118) = (    0.79500860275    0.97320605449    0.97194612946  )
       119           Ge  tau( 119) = (    0.88206140986    1.06093904637    0.88289547486  )
       120           Si  tau( 120) = (    0.97058405450    1.15012153255    0.97142915505  )
       121           Si  tau( 121) = (    0.52863525358    0.53248360109    1.06003307087  )
       122           Ge  tau( 122) = (    0.61721519828    0.61933267683    1.14700492631  )
       123           Ge  tau( 123) = (    0.70760737964    0.70862348219    1.05923860079  )
       124           Ge  tau( 124) = (    0.79366276492    0.79803519132    1.14810592687  )
       125           Si  tau( 125) = (    0.88488896946    0.88382159641    1.06037060751  )
       126           Ge  tau( 126) = (    0.97248811906    0.97340231785    1.14719080791  )
       127           Si  tau( 127) = (    1.05883418005    1.06023751231    1.05790792453  )
       128           Si  tau( 128) = (    1.14864632703    1.15046372579    1.14794907468  )

   Crystallographic axes

     site n.     atom                  positions (cryst. coord.)
         1           Ge  tau(   1) = (    0.00004953293   -0.00236276961    0.00131339705  )
         2           Si  tau(   2) = (    0.06401595504    0.06242556642    0.06178895818  )
         3           Ge  tau(   3) = (   -0.00135556194    0.00081601934    0.25111659969  )
         4           Si  tau(   4) = (    0.06242844850    0.06331494965    0.31160901097  )
         5           Si  tau(   5) = (   -0.00310172511    0.00137113636    0.50096465725  )
         6           Ge  tau(   6) = (    0.06140433384    0.06239525640    0.56256587858  )
         7           Si  tau(   7) = (    0.00063546326    0.00044112401    0.74885497608  )
         8           Ge  tau(   8) = (    0.06261228452    0.06393032969    0.81224960309  )
         9           Si  tau(   9) = (   -0.00018246181    0.24843991600   -0.00028160534  )
        10           Ge  tau(  10) = (    0.06174550380    0.31344608470    0.06295979554  )
        11           Si  tau(  11) = (    0.00015698521    0.25186733714    0.24811682806  )
        12           Si  tau(  12) = (    0.06241051031    0.31220590675    0.31153979279  )
        13           Ge  tau(  13) = (   -0.00113929400    0.24963345809    0.50113709207  )
        14           Ge  tau(  14) = (    0.06242206646    0.31148724019    0.56359071367  )
        15           Si  tau(  15) = (    0.00121121044    0.24955186297    0.74952231781  )
        16           Ge  tau(  16) = (    0.06389760976    0.31243377903    0.81167747132  )
        17           Si  tau(  17) = (   -0.00012819967    0.50128967567    0.00043829687  )
        18           Si  tau(  18) = (    0.06325030414    0.56313107193    0.06255855376  )
        19           Si  tau(  19) = (   -0.00084470412    0.50041069007    0.25183831698  )
        20           Ge  tau(  20) = (    0.06474978910    0.56098905909    0.31226547247  )
        21           Ge  tau(  21) = (   -0.00189554126    0.49965745226    0.50264206056  )
        22           Si  tau(  22) = (    0.06244896119    0.56373436583    0.56027472465  )
        23           Ge  tau(  23) = (   -0.00068246886    0.49967704939    0.74921786279  )
        24           Ge  tau(  24) = (    0.06147972847    0.56273026968    0.81355874298  )
        25           Ge  tau(  25) = (   -0.00012593711    0.74951914293    0.00240837012  )
        26           Si  tau(  26) = (    0.06389496372    0.81295765772    0.06305134260  )
        27           Ge  tau(  27) = (    0.00010111832    0.74898100696    0.24925042504  )
        28           Ge  tau(  28) = (    0.06313629384    0.81131483283    0.31170938259  )
        29           Ge  tau(  29) = (    0.00113284681    0.75027750322    0.49954037911  )
        30           Si  tau(  30) = (    0.06239742914    0.81484448111    0.56185696518  )
        31           Ge  tau(  31) = (    0.00011961413    0.75202374824    0.74985714132  )
        32           Ge  tau(  32) = (    0.06213798284    0.81107323150    0.81486195197  )
        33           Ge  tau(  33) = (    0.25088707525    0.00029785322    0.00148994539  )
        34           Si  tau(  34) = (    0.31361724647    0.06319719367    0.06104471435  )
        35           Ge  tau(  35) = (    0.24717239590    0.00097426779    0.25053609266  )
        36           Ge  tau(  36) = (    0.31027111846    0.06268595533    0.31441154607  )
        37           Si  tau(  37) = (    0.25143556736   -0.00161329467    0.50033725450  )
        38           Ge  tau(  38) = (    0.31257139039    0.06314331841    0.56017052538  )
        39           Ge  tau(  39) = (    0.24947854945    0.00155637230    0.74909776243  )
        40           Si  tau(  40) = (    0.31299172027    0.06396921345    0.80992012694  )
        41           Ge  tau(  41) = (    0.25138558167    0.25049079699   -0.00214385560  )
        42           Si  tau(  42) = (    0.31353423177    0.31325313429    0.06014591004  )
        43           Ge  tau(  43) = (    0.25179332615    0.25058236871    0.24940739013  )
        44           Si  tau(  44) = (    0.31544880196    0.31173404085    0.31154114564  )
        45           Si  tau(  45) = (    0.25151481910    0.24909133846    0.49881789898  )
        46           Ge  tau(  46) = (    0.31227541348    0.31046812997    0.56392873020  )
        47           Si  tau(  47) = (    0.24910924180    0.24896444203    0.74957052950  )
        48           Si  tau(  48) = (    0.31082400459    0.31191143108    0.81211315311  )
        49           Si  tau(  49) = (    0.24986899820    0.49918332173    0.00233745745  )
        50           Si  tau(  50) = (    0.31327856038    0.56255545672    0.06032359218  )
        51           Si  tau(  51) = (    0.25068769083    0.49872345988    0.25069401014  )
        52           Si  tau(  52) = (    0.31135187285    0.56506773216    0.31137802374  )
        53           Si  tau(  53) = (    0.25290824434    0.49861901390    0.49918743168  )
        54           Ge  tau(  54) = (    0.31439793529    0.56197310098    0.56132501438  )
        55           Ge  tau(  55) = (    0.24856857445    0.50117343748    0.75009662837  )
        56           Ge  tau(  56) = (    0.31370538596    0.56243009038    0.81254601113  )
        57           Si  tau(  57) = (    0.24885995333    0.75151456273   -0.00103845056  )
        58           Si  tau(  58) = (    0.31126129099    0.81153037436    0.06512360812  )
        59           Si  tau(  59) = (    0.25148702534    0.75082369144    0.24700033618  )
        60           Ge  tau(  60) = (    0.31246958964    0.81322825714    0.31227312621  )
        61           Si  tau(  61) = (    0.25006781582    0.75059307372    0.49947107381  )
        62           Si  tau(  62) = (    0.31344148169    0.81058232628    0.56220740899  )
        63           Ge  tau(  63) = (    0.24938374906    0.75195471261    0.74917792098  )
        64           Ge  tau(  64) = (    0.31121325884    0.81310054913    0.81211130233  )
        65           Ge  tau(  65) = (    0.50103735255    0.00022789188    0.00025278923  )
        66           Ge  tau(  66) = (    0.56323795247    0.06370940788    0.05990426041  )
        67           Ge  tau(  67) = (    0.50042574092   -0.00137245279    0.24926735437  )
        68           Si  tau(  68) = (    0.56134099995    0.06345500044    0.31248403867  )
        69           Ge  tau(  69) = (    0.50183382785   -0.00176688546    0.50025234357  )
        70           Si  tau(  70) = (    0.56301750827    0.06040904558    0.56356813021  )
        71           Si  tau(  71) = (    0.49875807473   -0.00049010499    0.75058887027  )
        72           Si  tau(  72) = (    0.56271537332    0.06283970356    0.81186246665  )
        73           Ge  tau(  73) = (    0.49918614535    0.25183045644    0.00032081797  )
        74           Si  tau(  74) = (    0.56584382384    0.31147253696    0.06116634486  )
        75           Ge  tau(  75) = (    0.49990110672    0.24818889783    0.25157353995  )
        76           Si  tau(  76) = (    0.56241479424    0.31288049574    0.31391720468  )
        77           Ge  tau(  77) = (    0.50020441158    0.24894848289    0.49942693769  )
        78           Si  tau(  78) = (    0.56223475707    0.31356353518    0.56040897541  )
        79           Si  tau(  79) = (    0.50042474906    0.24904471173    0.75045361724  )
        80           Ge  tau(  80) = (    0.56243117068    0.31159670347    0.81222394330  )
        81           Si  tau(  81) = (    0.49933434857    0.50148311442    0.00033687857  )
        82           Ge  tau(  82) = (    0.56094295991    0.56389165195    0.06293661124  )
        83           Si  tau(  83) = (    0.49980008693    0.49985287084    0.25019422759  )
        84           Ge  tau(  84) = (    0.56044439581    0.56405893732    0.31322960240  )
        85           Si  tau(  85) = (    0.50280096966    0.49916309745    0.49952857502  )
        86           Ge  tau(  86) = (    0.56116091676    0.56150791654    0.56264569932  )
        87           Si  tau(  87) = (    0.50132766447    0.50031735060    0.74942221845  )
        88           Si  tau(  88) = (    0.56290595939    0.56276006362    0.81362623338  )
        89           Si  tau(  89) = (    0.50004552861    0.74781506760    0.00043258084  )
        90           Si  tau(  90) = (    0.56216905502    0.81315807511    0.06167558143  )
        91           Si  tau(  91) = (    0.49944780562    0.75079375189    0.25117958652  )
        92           Ge  tau(  92) = (    0.56277633438    0.81431550771    0.31221172012  )
        93           Ge  tau(  93) = (    0.49952988163    0.75188257647    0.49914051325  )
        94           Ge  tau(  94) = (    0.56361384507    0.81324142513    0.55998504537  )
        95           Ge  tau(  95) = (    0.50205969713    0.74910154014    0.74981508517  )
        96           Si  tau(  96) = (    0.56221907964    0.81082947461    0.81477834218  )
        97           Si  tau(  97) = (    0.74984066903   -0.00063873732   -0.00163142808  )
        98           Ge  tau(  98) = (    0.81270222958    0.06221881733    0.06356617888  )
        99           Ge  tau(  99) = (    0.74842931703    0.00019923793    0.25111316313  )
       100           Ge  tau( 100) = (    0.81250207714    0.06401096251    0.31263548050  )
       101           Ge  tau( 101) = (    0.74957024553   -0.00125784071    0.50162524576  )
       102           Si  tau( 102) = (    0.81266524053    0.06319387501    0.56341146440  )
       103           Si  tau( 103) = (    0.75036300157   -0.00231544011    0.75048052264  )
       104           Ge  tau( 104) = (    0.81319596256    0.06236032984    0.81212474295  )
       105           Ge  tau( 105) = (    0.74939520580    0.25145115545   -0.00156112732  )
       106           Si  tau( 106) = (    0.81161883945    0.31366921549    0.06191040094  )
       107           Si  tau( 107) = (    0.74900488369    0.24922206332    0.25140460693  )
       108           Si  tau( 108) = (    0.81252359717    0.31118501075    0.31377828151  )
       109           Si  tau( 109) = (    0.75192751233    0.24888606273    0.49887537430  )
       110           Ge  tau( 110) = (    0.81099528650    0.31418498786    0.56205242498  )
       111           Ge  tau( 111) = (    0.75086577264    0.24808912099    0.75061342234  )
       112           Ge  tau( 112) = (    0.81327219963    0.31337656147    0.81328988502  )
       113           Ge  tau( 113) = (    0.74798156177    0.50059768393    0.00134714752  )
       114           Si  tau( 114) = (    0.81133373379    0.56266504722    0.06182354193  )
       115           Ge  tau( 115) = (    0.74910809333    0.50003151578    0.25096431917  )
       116           Si  tau( 116) = (    0.81318051741    0.56214599851    0.31331424030  )
       117           Ge  tau( 117) = (    0.75007861636    0.49928865858    0.49923763773  )
       118           Si  tau( 118) = (    0.81317470373    0.56289068031    0.56232084066  )
       119           Ge  tau( 119) = (    0.75081833289    0.49923709400    0.74907244599  )
       120           Si  tau( 120) = (    0.81390445228    0.56151720073    0.81202710757  )
       121           Si  tau( 121) = (    0.75203252609    0.74873819447   -0.00069425332  )
       122           Ge  tau( 122) = (    0.81232672255    0.81160152224    0.06175162698  )
       123           Ge  tau( 123) = (    0.74962214385    0.75011738885    0.25105278394  )
       124           Ge  tau( 124) = (    0.81484646634    0.81072798410    0.31219430997  )
       125           Si  tau( 125) = (    0.74910017597    0.75233364008    0.49957424905  )
       126           Ge  tau( 126) = (    0.81190858182    0.81246436750    0.56337493248  )
       127           Si  tau( 127) = (    0.74925261014    0.74878146253    0.74915568961  )
       128           Si  tau( 128) = (    0.81323118587    0.81230384584    0.81269177948  )

     number of k points=     8  gaussian smearing, width (Ry)=  0.0150
                       cart. coord. in units 2pi/alat
        k(    1) = (   0.0000000   0.0000000   0.0000000), wk =   0.2500000
        k(    2) = (  -0.3524871  -0.3548692   0.3543722), wk =   0.2500000
        k(    3) = (  -0.3534257   0.3535945  -0.3545352), wk =   0.2500000
        k(    4) = (  -0.7059128  -0.0012747  -0.0001630), wk =   0.2500000
        k(    5) = (   0.3527379  -0.3531607  -0.3532283), wk =   0.2500000
        k(    6) = (   0.0002508  -0.7080299   0.0011439), wk =   0.2500000
        k(    7) = (  -0.0006879   0.0004338  -0.7077635), wk =   0.2500000
        k(    8) = (  -0.3531750  -0.3544354  -0.3533913), wk =   0.2500000

                       cryst. coord.
        k(    1) = (   0.0000000   0.0000000   0.0000000), wk =   0.2500000
        k(    2) = (   0.0000000   0.0000000  -0.5000000), wk =   0.2500000
        k(    3) = (   0.0000000  -0.5000000   0.0000000), wk =   0.2500000
        k(    4) = (   0.0000000  -0.5000000  -0.5000000), wk =   0.2500000
        k(    5) = (  -0.5000000   0.0000000   0.0000000), wk =   0.2500000
        k(    6) = (  -0.5000000   0.0000000  -0.5000000), wk =   0.2500000
        k(    7) = (  -0.5000000  -0.5000000   0.0000000), wk =   0.2500000
        k(    8) = (  -0.5000000  -0.5000000  -0.5000000), wk =   0.2500000

     Dense  grid:   876083 G-vectors     FFT dimensions: ( 135, 135, 135)

     Smooth grid:   513175 G-vectors     FFT dimensions: ( 120, 120, 120)

     Largest allocated arrays     est. size (Mb)     dimensions
        Kohn-Sham Wavefunctions        84.73 Mb     (    8036,  691)
        NL pseudopotentials           282.52 Mb     (    8036, 2304)
        Each V/rho on FFT grid          4.73 Mb     (  309825)
        Each G-vector array             0.84 Mb     (  109511)
        G-vector shells                 0.83 Mb     (  108231)
     Largest temporary arrays     est. size (Mb)     dimensions
        Auxiliary wavefunctions       338.92 Mb     (    8036, 2764)
        Each subspace H/S matrix      116.57 Mb     (    2764, 2764)
        Each <psi_i|beta_j> matrix     24.29 Mb     (    2304,  691)
        Arrays for rho mixing          37.82 Mb     (  309825,    8)

     Check: negative/imaginary core charge=   -0.000001    0.000000

     Initial potential from superposition of free atoms

     starting charge 1151.90680, renormalised to 1152.00000
     Starting wfc are  832 randomized atomic wfcs

     total cpu time spent up to now is     1650.7 secs

     per-process dynamical memory:  1167.1 Mb

     Self-consistent Calculation

     iteration #  1     ecut=    35.00 Ry     beta=0.30
     Davidson diagonalization with overlap
     ethr =  1.00E-02,  avg # of iterations =  3.0

     Threshold (ethr) on eigenvalues was too large:
     Diagonalizing with lowered threshold

     Davidson diagonalization with overlap
     ethr =  2.44E-04,  avg # of iterations =  3.9

     total cpu time spent up to now is    10287.4 secs

     total energy              =  -14256.03839212 Ry
     Harris-Foulkes estimate   =  -14256.33166099 Ry
     estimated scf accuracy    <       2.81942912 Ry

     iteration #  2     ecut=    35.00 Ry     beta=0.30
     Davidson diagonalization with overlap
     ethr =  2.45E-04,  avg # of iterations =  1.0

     total cpu time spent up to now is    13566.8 secs

     total energy              =  -14255.48061894 Ry
     Harris-Foulkes estimate   =  -14256.05235965 Ry
     estimated scf accuracy    <       1.73971006 Ry

     iteration #  3     ecut=    35.00 Ry     beta=0.30
     Davidson diagonalization with overlap
     ethr =  1.51E-04,  avg # of iterations =  2.0

     total cpu time spent up to now is    17149.5 secs

     total energy              =  -14255.58801744 Ry
     Harris-Foulkes estimate   =  -14255.58700328 Ry
     estimated scf accuracy    <       0.02481485 Ry

     iteration #  4     ecut=    35.00 Ry     beta=0.30
     Davidson diagonalization with overlap
     ethr =  2.15E-06,  avg # of iterations =  9.4

     total cpu time spent up to now is    26011.5 secs

     total energy              =  -14255.59209502 Ry
     Harris-Foulkes estimate   =  -14255.59277615 Ry
     estimated scf accuracy    <       0.01093189 Ry

     iteration #  5     ecut=    35.00 Ry     beta=0.30
     Davidson diagonalization with overlap
     ethr =  9.49E-07,  avg # of iterations =  2.0

     total cpu time spent up to now is    30012.9 secs

     total energy              =  -14255.59300201 Ry
     Harris-Foulkes estimate   =  -14255.59315144 Ry
     estimated scf accuracy    <       0.00070424 Ry

     iteration #  6     ecut=    35.00 Ry     beta=0.30
     Davidson diagonalization with overlap
     ethr =  6.11E-08,  avg # of iterations =  2.0

     total cpu time spent up to now is    33149.0 secs

     total energy              =  -14255.59297491 Ry
     Harris-Foulkes estimate   =  -14255.59303788 Ry
     estimated scf accuracy    <       0.00019391 Ry

     iteration #  7     ecut=    35.00 Ry     beta=0.30
     Davidson diagonalization with overlap
     ethr =  1.68E-08,  avg # of iterations =  2.1

     total cpu time spent up to now is    36645.1 secs

     total energy              =  -14255.59300145 Ry
     Harris-Foulkes estimate   =  -14255.59299738 Ry
     estimated scf accuracy    <       0.00003443 Ry

     iteration #  8     ecut=    35.00 Ry     beta=0.30
     Davidson diagonalization with overlap
     ethr =  2.99E-09,  avg # of iterations =  2.0

     total cpu time spent up to now is    39802.0 secs

     total energy              =  -14255.59299927 Ry
     Harris-Foulkes estimate   =  -14255.59300383 Ry
     estimated scf accuracy    <       0.00002044 Ry

     iteration #  9     ecut=    35.00 Ry     beta=0.30
     Davidson diagonalization with overlap
     ethr =  1.77E-09,  avg # of iterations =  2.0

     total cpu time spent up to now is    44112.0 secs

     total energy              =  -14255.59300292 Ry
     Harris-Foulkes estimate   =  -14255.59300344 Ry
     estimated scf accuracy    <       0.00000516 Ry

     iteration # 10     ecut=    35.00 Ry     beta=0.30
     Davidson diagonalization with overlap
     ethr =  4.48E-10,  avg # of iterations =  1.5

     total cpu time spent up to now is    47177.5 secs

     total energy              =  -14255.59300235 Ry
     Harris-Foulkes estimate   =  -14255.59300312 Ry
     estimated scf accuracy    <       0.00000230 Ry

     iteration # 11     ecut=    35.00 Ry     beta=0.30
     Davidson diagonalization with overlap
     ethr =  2.00E-10,  avg # of iterations =  2.4

     total cpu time spent up to now is    51490.0 secs

     total energy              =  -14255.59300295 Ry
     Harris-Foulkes estimate   =  -14255.59300282 Ry
     estimated scf accuracy    <       0.00000021 Ry

     iteration # 12     ecut=    35.00 Ry     beta=0.30
     Davidson diagonalization with overlap
     ethr =  1.81E-11,  avg # of iterations =  2.0

     total cpu time spent up to now is    54752.0 secs

     total energy              =  -14255.59300303 Ry
     Harris-Foulkes estimate   =  -14255.59300297 Ry
     estimated scf accuracy    <       0.00000006 Ry

     iteration # 13     ecut=    35.00 Ry     beta=0.30
     Davidson diagonalization with overlap
     ethr =  5.24E-12,  avg # of iterations =  2.4

     total cpu time spent up to now is    58389.0 secs

     total energy              =  -14255.59300308 Ry
     Harris-Foulkes estimate   =  -14255.59300304 Ry
     estimated scf accuracy    <          5.1E-09 Ry

     iteration # 14     ecut=    35.00 Ry     beta=0.30
     Davidson diagonalization with overlap
     ethr =  4.42E-13,  avg # of iterations =  3.0

     total cpu time spent up to now is    63015.1 secs

     total energy              =  -14255.59300310 Ry
     Harris-Foulkes estimate   =  -14255.59300308 Ry
     estimated scf accuracy    <          2.6E-09 Ry

     iteration # 15     ecut=    35.00 Ry     beta=0.30
     Davidson diagonalization with overlap
     ethr =  2.27E-13,  avg # of iterations =  2.4

     total cpu time spent up to now is    67065.9 secs

     End of self-consistent calculation

          k = 0.0000 0.0000 0.0000 ( 64161 PWs)   bands (ev):

   -17.3564 -17.3454 -17.3338 -17.3264 -17.3261 -17.3181 -17.3169 -17.3165
   -17.3063 -17.3006 -17.2945 -17.2910 -17.2905 -17.2896 -17.2883 -17.2867
   -17.2850 -17.2837 -17.2818 -17.2744 -17.2725 -17.2717 -17.2696 -17.2667
   -17.2637 -17.2627 -17.2612 -17.2607 -17.2589 -17.2507 -17.2495 -17.2494
   -17.2477 -17.2451 -17.2424 -17.2415 -17.2385 -17.2367 -17.2362 -17.2335
   -17.2321 -17.2277 -17.2253 -17.2238 -17.2233 -17.2199 -17.2178 -17.2170
   -17.2146 -17.2131 -17.2117 -17.2092 -17.2086 -17.2064 -17.2052 -17.2027
   -17.2010 -17.1982 -17.1947 -17.1944 -17.1926 -17.1900 -17.1871 -17.1842
   -17.1838 -17.1811 -17.1799 -17.1788 -17.1775 -17.1759 -17.1732 -17.1728
   -17.1713 -17.1676 -17.1664 -17.1643 -17.1625 -17.1596 -17.1584 -17.1565
   -17.1544 -17.1531 -17.1514 -17.1509 -17.1507 -17.1479 -17.1461 -17.1448
   -17.1443 -17.1432 -17.1427 -17.1401 -17.1398 -17.1394 -17.1378 -17.1359
   -17.1346 -17.1332 -17.1329 -17.1301 -17.1298 -17.1292 -17.1282 -17.1280
   -17.1271 -17.1257 -17.1246 -17.1228 -17.1225 -17.1204 -17.1197 -17.1188
   -17.1171 -17.1159 -17.1147 -17.1141 -17.1131 -17.1127 -17.1121 -17.1114
   -17.1091 -17.1085 -17.1052 -17.1043 -17.1030 -17.1009 -17.0997 -17.0978
   -17.0974 -17.0962 -17.0934 -17.0926 -17.0924 -17.0917 -17.0911 -17.0909
   -17.0890 -17.0847 -17.0838 -17.0827 -17.0809 -17.0800 -17.0793 -17.0787
   -17.0781 -17.0775 -17.0774 -17.0750 -17.0746 -17.0732 -17.0725 -17.0717
   -17.0710 -17.0700 -17.0679 -17.0667 -17.0665 -17.0645 -17.0638 -17.0616
   -17.0611 -17.0601 -17.0578 -17.0576 -17.0576 -17.0567 -17.0562 -17.0559
   -17.0553 -17.0550 -17.0540 -17.0531 -17.0525 -17.0520 -17.0514 -17.0512
   -17.0508 -17.0495 -17.0492 -17.0480 -17.0469 -17.0463 -17.0456 -17.0453
   -17.0442 -17.0432 -17.0426 -17.0425 -17.0416 -17.0414 -17.0398 -17.0390
   -17.0387 -17.0378 -17.0371 -17.0367 -17.0361 -17.0355 -17.0346 -17.0344
   -17.0328 -17.0324 -17.0316 -17.0314 -17.0310 -17.0305 -17.0299 -17.0295
   -17.0292 -17.0286 -17.0280 -17.0278 -17.0276 -17.0273 -17.0262 -17.0257
   -17.0247 -17.0235 -17.0231 -17.0225 -17.0213 -17.0210 -17.0206 -17.0205
   -17.0201 -17.0199 -17.0197 -17.0194 -17.0177 -17.0163 -17.0153 -17.0143
   -17.0138 -17.0130 -17.0129 -17.0119 -17.0112 -17.0110 -17.0109 -17.0106
   -17.0102 -17.0094 -17.0090 -17.0078 -17.0073 -17.0065 -17.0059 -17.0051
   -17.0036 -17.0033 -17.0022 -17.0004 -16.9999 -16.9990 -16.9979 -16.9968
   -16.9959 -16.9951 -16.9944 -16.9930 -16.9917 -16.9910 -16.9905 -16.9892
   -16.9884 -16.9874 -16.9871 -16.9868 -16.9861 -16.9840 -16.9838 -16.9825
   -16.9820 -16.9817 -16.9812 -16.9788 -16.9785 -16.9774 -16.9757 -16.9750
   -16.9736 -16.9717 -16.9713 -16.9693 -16.9662 -16.9658 -16.9625 -16.9611
   -16.9602 -16.9581 -16.9561 -16.9558 -16.9530 -16.9520 -16.9496 -16.9468
   -16.9447 -16.9434 -16.9409 -16.9392 -16.9367 -16.9353 -16.9350 -16.9320
   -16.9301 -16.9292 -16.9285 -16.9278 -16.9254 -16.9230 -16.9212 -16.9192
   -16.9183 -16.9179 -16.9176 -16.9169 -16.9107 -16.9086 -16.9043 -16.8994
    -5.1807  -4.5708  -4.5305  -4.5038  -4.4408  -4.4175  -4.4079  -4.3278
    -4.1965  -4.1225  -4.1154  -4.0648  -4.0301  -3.9798  -3.9586  -3.4188
    -3.3671  -3.3569  -3.2800  -3.2732  -3.2348  -3.2226  -3.1339  -3.1199
    -3.0982  -3.0837  -2.9955  -2.9606  -2.9208  -2.8617  -2.8317  -2.7758
    -2.7239  -2.6977  -2.6797  -2.6521  -2.6028  -2.5636  -2.5383  -2.4973
    -2.4605  -2.4375  -2.4095  -2.3614  -2.3391  -2.3075  -2.2854  -2.2605
    -2.2364  -2.2297  -2.1789  -2.1483  -2.1134  -2.0973  -2.0270  -1.2510
    -1.2057  -1.1575  -1.1397  -1.0869  -1.0355  -1.0188  -1.0015  -0.9764
    -0.9027  -0.8515  -0.8423  -0.7708  -0.7653  -0.6821  -0.6687  -0.6577
    -0.6248  -0.0473  -0.0196   0.0213   0.0559   0.1825   0.2265   0.2471
     0.2764   0.3083   0.3202   0.3339   0.3645   0.4099   0.4342   0.4783
     0.4949   0.5054   0.5425   0.5578   0.5726   0.5938   0.6270   0.6443
     0.6591   0.6817   0.6929   0.7359   0.7684   1.1971   1.2541   1.3196
     1.3623   1.3812   1.3878   1.4018   1.4476   1.4842   1.4878   1.5315
     1.5644   2.9525   2.9811   3.0010   3.0266   3.0329   3.0636   3.0789
     3.1630   3.2284   3.2520   3.3150   3.3256   3.3412   3.3642   3.3927
     3.3978   3.4029   3.4051   3.4068   3.4122   3.4156   3.4200   3.4232
     3.4284   3.4357   3.4404   3.4620   3.4688   3.4720   3.4787   3.4816
     3.4854   3.4988   3.5028   3.5046   3.5077   3.5207   3.5245   3.6302
     3.6346   3.6409   3.6415   3.6467   3.6528   3.6537   3.6553   3.6573
     3.6614   3.6667   3.6751   3.6796   3.6823   3.6888   3.6931   3.7008
     3.7060   3.7094   3.7136   3.7194   3.7245   3.7291   3.7523   4.3365
     4.3428   4.3536   4.3591   4.3700   4.3844   4.9659   4.9780   4.9878
     4.9927   4.9945   4.9988   5.0029   5.0089   5.0098   5.0148   5.0177
     5.0193   5.0236   5.0309   5.0323   5.0346   5.0387   5.0446   5.0537
     5.0584   5.0647   5.0686   5.0717   5.0745   5.3262   5.3403   5.3536
     5.3572   5.3608   5.3676   5.3743   5.3769   5.3828   5.3927   5.3995
     5.4229   5.8748   5.8881   5.8942   5.8958   5.9112   5.9210   5.9244
     5.9271   5.9365   5.9548   5.9623   5.9710   6.0089   6.0222   6.0270
     6.0502   6.0583   6.0605   6.0801   6.1053   6.4312   6.4763   6.4950
     6.4956   6.5129   6.5215   6.5275   6.5290   6.5417   6.5478   6.5513
     6.5654   6.5709   6.5887   6.5994   6.6170   7.3480   7.3772   7.3957
     7.9051   7.9570   7.9773   7.9981   8.0055   8.0254   8.0381   8.0969
     8.1453   8.2179   8.2901   8.2991   8.3417   8.3460   8.3646   8.3912
     8.4923   8.5503   8.5525   8.5671   8.5854   8.6047   8.6222   8.6343
     8.6563   8.6739   8.6893   8.7068   8.7224   8.7239   8.7323   8.7503
     8.7564   8.7657   8.7802   8.8059   8.8201   8.8223   8.8348   8.8387
     8.8466   8.8606   8.8779   8.8941   8.9052   8.9136   8.9346   8.9462
     9.0698   9.4610   9.4833   9.5023   9.5099   9.5334   9.5508   9.5684
     9.5972   9.6135   9.6208   9.6496   9.6776   9.8527   9.8754   9.8938
    10.2554  10.2631  10.2898  10.3271  10.3588  10.3942  10.6936  10.7379
    10.7583  10.7684  10.7746  10.7951  10.8088  10.8155  10.8226  10.8411
    10.8473  10.8588  10.8749  10.8805  10.8897  10.8983  10.9116  10.9196
    10.9410  10.9462  10.9596  10.9676  10.9950  11.0288  11.5547  11.5635
    11.5675  11.5828  11.5908  11.5960  11.6012  11.6190  11.6421  11.6513
    11.6519  11.6657  11.6772  11.6801  11.6959  11.7032  11.7138  11.7170
    11.7248  11.7366  11.7466

     occupation numbers 
     1.0000   1.0000   1.0000   1.0000   1.0000   1.0000   1.0000   1.0000
     1.0000   1.0000   1.0000   1.0000   1.0000   1.0000   1.0000   1.0000
     1.0000   1.0000   1.0000   1.0000   1.0000   1.0000   1.0000   1.0000
     1.0000   1.0000   1.0000   1.0000   1.0000   1.0000   1.0000   1.0000
     1.0000   1.0000   1.0000   1.0000   1.0000   1.0000   1.0000   1.0000
     1.0000   1.0000   1.0000   1.0000   1.0000   1.0000   1.0000   1.0000
     1.0000   1.0000   1.0000   1.0000   1.0000   1.0000   1.0000   1.0000
     1.0000   1.0000   1.0000   1.0000   1.0000   1.0000   1.0000   1.0000
     1.0000   1.0000   1.0000   1.0000   1.0000   1.0000   1.0000   1.0000
     1.0000   1.0000   1.0000   1.0000   1.0000   1.0000   1.0000   1.0000
     1.0000   1.0000   1.0000   1.0000   1.0000   1.0000   1.0000   1.0000
     1.0000   1.0000   1.0000   1.0000   1.0000   1.0000   1.0000   1.0000
     1.0000   1.0000   1.0000   1.0000   1.0000   1.0000   1.0000   1.0000
     1.0000   1.0000   1.0000   1.0000   1.0000   1.0000   1.0000   1.0000
     1.0000   1.0000   1.0000   1.0000   1.0000   1.0000   1.0000   1.0000
     1.0000   1.0000   1.0000   1.0000   1.0000   1.0000   1.0000   1.0000
     1.0000   1.0000   1.0000   1.0000   1.0000   1.0000   1.0000   1.0000
     1.0000   1.0000   1.0000   1.0000   1.0000   1.0000   1.0000   1.0000
     1.0000   1.0000   1.0000   1.0000   1.0000   1.0000   1.0000   1.0000
     1.0000   1.0000   1.0000   1.0000   1.0000   1.0000   1.0000   1.0000
     1.0000   1.0000   1.0000   1.0000   1.0000   1.0000   1.0000   1.0000
     1.0000   1.0000   1.0000   1.0000   1.0000   1.0000   1.0000   1.0000
     1.0000   1.0000   1.0000   1.0000   1.0000   1.0000   1.0000   1.0000
     1.0000   1.0000   1.0000   1.0000   1.0000   1.0000   1.0000   1.0000
     1.0000   1.0000   1.0000   1.0000   1.0000   1.0000   1.0000   1.0000
     1.0000   1.0000   1.0000   1.0000   1.0000   1.0000   1.0000   1.0000
     1.0000   1.0000   1.0000   1.0000   1.0000   1.0000   1.0000   1.0000
     1.0000   1.0000   1.0000   1.0000   1.0000   1.0000   1.0000   1.0000
     1.0000   1.0000   1.0000   1.0000   1.0000   1.0000   1.0000   1.0000
     1.0000   1.0000   1.0000   1.0000   1.0000   1.0000   1.0000   1.0000
     1.0000   1.0000   1.0000   1.0000   1.0000   1.0000   1.0000   1.0000
     1.0000   1.0000   1.0000   1.0000   1.0000   1.0000   1.0000   1.0000
     1.0000   1.0000   1.0000   1.0000   1.0000   1.0000   1.0000   1.0000
     1.0000   1.0000   1.0000   1.0000   1.0000   1.0000   1.0000   1.0000
     1.0000   1.0000   1.0000   1.0000   1.0000   1.0000   1.0000   1.0000
     1.0000   1.0000   1.0000   1.0000   1.0000   1.0000   1.0000   1.0000
     1.0000   1.0000   1.0000   1.0000   1.0000   1.0000   1.0000   1.0000
     1.0000   1.0000   1.0000   1.0000   1.0000   1.0000   1.0000   1.0000
     1.0000   1.0000   1.0000   1.0000   1.0000   1.0000   1.0000   1.0000
     1.0000   1.0000   1.0000   1.0000   1.0000   1.0000   1.0000   1.0000
     1.0000   1.0000   1.0000   1.0000   1.0000   1.0000   1.0000   1.0000
     1.0000   1.0000   1.0000   1.0000   1.0000   1.0000   1.0000   1.0000
     1.0000   1.0000   1.0000   1.0000   1.0000   1.0000   1.0000   1.0000
     1.0000   1.0000   1.0000   1.0000   1.0000   1.0000   1.0000   1.0000
     1.0000   1.0000   1.0000   1.0000   1.0000   1.0000   1.0000   1.0000
     1.0000   1.0000   1.0000   1.0000   1.0000   1.0000   1.0000   1.0000
     1.0000   1.0000   1.0000   1.0000   1.0000   1.0000   1.0000   1.0000
     1.0000   1.0000   1.0000   1.0000   1.0000   1.0000   1.0000   1.0000
     1.0000   1.0000   1.0000   1.0000   1.0000   1.0000   1.0000   1.0000
     1.0000   1.0000   1.0000   1.0000   1.0000   1.0000   1.0000   1.0000
     1.0000   1.0000   1.0000   1.0000   1.0000   1.0000   1.0000   1.0000
     1.0000   1.0000   1.0000   1.0000   1.0000   1.0000   1.0000   1.0000
     1.0000   1.0000   1.0000   1.0000   1.0000   1.0000   1.0000   1.0000
     1.0000   1.0000   1.0000   1.0000   1.0000   1.0000   1.0000   1.0000
     1.0000   1.0000   1.0000   1.0000   1.0000   1.0000   1.0000   1.0000
     1.0000   1.0000   1.0000   1.0000   1.0000   1.0000   1.0000   1.0000
     1.0000   1.0000   1.0000   1.0000   1.0000   1.0000   1.0000   1.0000
     1.0000   1.0000   1.0000   1.0000   1.0000   1.0000   1.0000   1.0000
     1.0000   1.0000   1.0000   1.0000   1.0000   1.0000   1.0000   1.0000
     1.0000   1.0000   1.0000   1.0000   1.0000   1.0000   1.0000   1.0000
     1.0000   1.0000   1.0000   1.0000   1.0000   1.0000   1.0000   1.0000
     1.0000   1.0000   1.0000   1.0000   1.0000   1.0000   1.0000   1.0000
     1.0000   1.0000   1.0000   1.0000   1.0000   1.0000   1.0000   1.0000
     1.0000   1.0000   1.0000   1.0000   1.0000   1.0000   1.0000   1.0000
     1.0000   1.0000   1.0000   1.0000   1.0000   1.0000   1.0000   1.0000
     1.0000   1.0000   1.0000   1.0000   1.0000   1.0000   1.0000   1.0000
     1.0000   1.0000   1.0000   1.0000   1.0000   1.0000   1.0000   1.0000
     1.0000   1.0000   1.0000   1.0000   1.0000   1.0000   1.0000   1.0000
     1.0000   1.0000   1.0000   1.0000   1.0000   1.0000   1.0000   1.0000
     1.0000   1.0000   1.0000   1.0000   1.0000   1.0000   1.0000   1.0000
     1.0000   1.0000   1.0000   1.0000   1.0000   1.0000   1.0000   1.0000
     1.0000   1.0000   1.0000   1.0000   1.0000   0.9492   0.9242   0.9042
     0.0131   0.0049   0.0032   0.0021   0.0018   0.0011   0.0008   0.0002
     0.0001   0.0000   0.0000   0.0000   0.0000   0.0000   0.0000   0.0000
     0.0000   0.0000   0.0000   0.0000   0.0000   0.0000   0.0000   0.0000
     0.0000   0.0000   0.0000   0.0000   0.0000   0.0000   0.0000   0.0000
     0.0000   0.0000   0.0000   0.0000   0.0000   0.0000   0.0000   0.0000
     0.0000   0.0000   0.0000   0.0000   0.0000   0.0000   0.0000   0.0000
     0.0000   0.0000   0.0000   0.0000   0.0000   0.0000   0.0000   0.0000
     0.0000   0.0000   0.0000   0.0000   0.0000   0.0000   0.0000   0.0000
     0.0000   0.0000   0.0000   0.0000   0.0000   0.0000   0.0000   0.0000
     0.0000   0.0000   0.0000   0.0000   0.0000   0.0000   0.0000   0.0000
     0.0000   0.0000   0.0000   0.0000   0.0000   0.0000   0.0000   0.0000
     0.0000   0.0000   0.0000   0.0000   0.0000   0.0000   0.0000   0.0000
     0.0000   0.0000   0.0000   0.0000   0.0000   0.0000   0.0000   0.0000
     0.0000   0.0000   0.0000   0.0000   0.0000   0.0000   0.0000   0.0000
     0.0000   0.0000   0.0000

          k =-0.3525-0.3549 0.3544 ( 64126 PWs)   bands (ev):

   -17.3565 -17.3454 -17.3338 -17.3264 -17.3260 -17.3181 -17.3169 -17.3167
   -17.3064 -17.3004 -17.2946 -17.2923 -17.2903 -17.2889 -17.2880 -17.2870
   -17.2849 -17.2837 -17.2818 -17.2744 -17.2742 -17.2712 -17.2692 -17.2670
   -17.2629 -17.2627 -17.2613 -17.2609 -17.2590 -17.2505 -17.2495 -17.2495
   -17.2475 -17.2459 -17.2423 -17.2413 -17.2390 -17.2374 -17.2340 -17.2335
   -17.2310 -17.2284 -17.2273 -17.2239 -17.2223 -17.2211 -17.2174 -17.2170
   -17.2143 -17.2140 -17.2108 -17.2092 -17.2083 -17.2062 -17.2042 -17.2037
   -17.2009 -17.1981 -17.1972 -17.1934 -17.1928 -17.1890 -17.1867 -17.1840
   -17.1835 -17.1824 -17.1792 -17.1789 -17.1776 -17.1759 -17.1744 -17.1719
   -17.1715 -17.1679 -17.1665 -17.1645 -17.1625 -17.1594 -17.1580 -17.1569
   -17.1544 -17.1533 -17.1525 -17.1507 -17.1501 -17.1471 -17.1458 -17.1450
   -17.1439 -17.1432 -17.1426 -17.1408 -17.1401 -17.1396 -17.1374 -17.1364
   -17.1348 -17.1342 -17.1321 -17.1302 -17.1295 -17.1289 -17.1284 -17.1274
   -17.1272 -17.1266 -17.1236 -17.1234 -17.1227 -17.1199 -17.1196 -17.1195
   -17.1180 -17.1164 -17.1144 -17.1141 -17.1129 -17.1128 -17.1120 -17.1114
   -17.1084 -17.1066 -17.1065 -17.1046 -17.1029 -17.1011 -17.0998 -17.0987
   -17.0968 -17.0955 -17.0949 -17.0925 -17.0922 -17.0918 -17.0912 -17.0911
   -17.0890 -17.0855 -17.0841 -17.0828 -17.0810 -17.0797 -17.0787 -17.0786
   -17.0781 -17.0777 -17.0774 -17.0750 -17.0743 -17.0730 -17.0725 -17.0715
   -17.0709 -17.0690 -17.0677 -17.0670 -17.0662 -17.0658 -17.0651 -17.0619
   -17.0607 -17.0598 -17.0580 -17.0578 -17.0569 -17.0565 -17.0561 -17.0558
   -17.0552 -17.0548 -17.0540 -17.0534 -17.0522 -17.0519 -17.0518 -17.0514
   -17.0513 -17.0499 -17.0495 -17.0482 -17.0469 -17.0462 -17.0459 -17.0451
   -17.0446 -17.0439 -17.0429 -17.0421 -17.0415 -17.0413 -17.0401 -17.0394
   -17.0390 -17.0372 -17.0368 -17.0365 -17.0363 -17.0352 -17.0347 -17.0345
   -17.0328 -17.0317 -17.0314 -17.0313 -17.0308 -17.0303 -17.0299 -17.0296
   -17.0291 -17.0289 -17.0281 -17.0278 -17.0276 -17.0271 -17.0261 -17.0257
   -17.0251 -17.0247 -17.0230 -17.0226 -17.0219 -17.0215 -17.0209 -17.0205
   -17.0203 -17.0198 -17.0197 -17.0188 -17.0174 -17.0168 -17.0160 -17.0141
   -17.0136 -17.0131 -17.0124 -17.0122 -17.0115 -17.0112 -17.0110 -17.0106
   -17.0104 -17.0093 -17.0085 -17.0082 -17.0069 -17.0067 -17.0064 -17.0050
   -17.0041 -17.0035 -17.0023 -17.0006 -17.0000 -16.9994 -16.9980 -16.9962
   -16.9957 -16.9950 -16.9938 -16.9935 -16.9914 -16.9914 -16.9900 -16.9893
   -16.9884 -16.9874 -16.9869 -16.9865 -16.9860 -16.9841 -16.9838 -16.9830
   -16.9818 -16.9815 -16.9808 -16.9793 -16.9776 -16.9773 -16.9762 -16.9758
   -16.9737 -16.9729 -16.9705 -16.9690 -16.9661 -16.9656 -16.9631 -16.9610
   -16.9603 -16.9581 -16.9565 -16.9559 -16.9544 -16.9504 -16.9493 -16.9472
   -16.9443 -16.9437 -16.9410 -16.9394 -16.9369 -16.9359 -16.9351 -16.9320
   -16.9301 -16.9293 -16.9285 -16.9275 -16.9253 -16.9234 -16.9210 -16.9193
   -16.9184 -16.9180 -16.9176 -16.9170 -16.9107 -16.9085 -16.9044 -16.8994
    -5.0203  -4.9718  -4.5921  -4.5263  -4.4633  -4.4104  -4.3654  -4.3437
    -4.0633  -4.0470  -3.9491  -3.9358  -3.8770  -3.8123  -3.6444  -3.5490
    -3.5026  -3.4839  -3.4613  -3.3890  -3.3519  -3.2820  -3.1979  -3.1690
    -3.1389  -3.1149  -3.0846  -3.0342  -2.9915  -2.9599  -2.9203  -2.8921
    -2.8764  -2.8024  -2.7325  -2.6682  -2.6489  -2.6153  -2.5655  -2.5384
    -2.3965  -2.3339  -2.3065  -2.2230  -2.1777  -2.1233  -2.0969  -2.0386
    -1.9535  -1.9066  -1.8754  -1.8613  -1.8411  -1.7325  -1.7213  -1.6916
    -1.6772  -1.6073  -1.6012  -1.5676  -1.5236  -1.5013  -1.4547  -1.4357
    -0.4228  -0.4108  -0.3485  -0.3072  -0.2768  -0.2246  -0.1929  -0.1859
    -0.1641  -0.1439  -0.1039  -0.0366  -0.0302   0.0238   0.0467   0.0565
     0.0762   0.1393   0.1544   0.1787   0.2066   0.2276   0.2417   0.2566
     0.2824   0.3151   0.3482   0.3566   0.3790   0.4485   0.8646   0.9280
     0.9631   0.9964   1.0020   1.0156   1.0379   1.0718   1.0921   1.1142
     1.1201   1.1523   1.2049   1.2555   1.7899   1.8302   1.8825   1.9065
     1.9726   2.0137   2.2815   2.2889   2.3118   2.3415   2.3668   2.4055
     3.1559   3.1577   3.1596   3.1748   3.1779   3.1879   3.1892   3.1927
     3.1982   3.2059   3.2084   3.2103   3.2162   3.2219   3.2275   3.2338
     3.2412   3.2600   3.6187   3.6358   3.6933   3.7151   3.7313   3.7518
     3.7910   3.7959   3.8029   3.8054   3.8135   3.8237   3.8326   3.8458
     3.8504   3.8631   3.8757   3.8789   3.8870   3.8887   3.9018   3.9082
     3.9150   3.9206   4.2625   4.2726   4.2789   4.2831   4.2887   4.2938
     4.2949   4.2989   4.3053   4.3093   4.3099   4.3218   4.5046   4.5121
     4.5212   4.5262   4.5316   4.5384   4.5432   4.5453   4.5521   4.5613
     4.5667   4.5748   4.8180   4.8352   4.8577   4.8633   4.8672   4.8903
     4.9002   4.9040   4.9090   4.9170   4.9242   4.9358   4.9940   5.0136
     5.0163   5.0406   5.0418   5.0473   5.2676   5.2872   5.2955   5.2996
     5.3074   5.3092   5.3173   5.3235   5.3267   5.3301   5.3408   5.3446
     5.3486   5.3540   5.3642   5.3673   5.3821   5.3865   5.4813   5.5049
     5.6475   5.6608   5.6730   5.6774   5.6950   5.7060   5.9091   5.9231
     5.9315   5.9443   5.9578   5.9614   5.9695   5.9824   5.9908   6.0015
     6.0079   6.0190   6.1398   6.1538   6.1713   6.1996   6.4456   6.4835
     6.4899   6.5083   6.5263   6.5412   7.0072   7.0454   7.0533   7.0819
     8.0977   8.1206   8.1344   8.1554   8.1626   8.2103   8.2551   8.2736
     8.5260   8.5464   8.5601   8.5810   8.5994   8.6322   8.9416   8.9561
     8.9674   8.9824   9.0022   9.0267   9.0406   9.1120   9.1231   9.1299
     9.1413   9.1540   9.1856   9.1953   9.2102   9.2371   9.2404   9.2461
     9.2677   9.3092   9.3307   9.3419   9.3572   9.3705   9.3923   9.4208
     9.4512   9.5043   9.5296   9.5348   9.5610   9.5876   9.6062   9.6152
     9.6276   9.6424   9.6589   9.6771   9.6870   9.6956   9.7083   9.7169
     9.7400   9.7529   9.9708   9.9968  10.0163  10.0288  10.0374  10.0430
    10.0464  10.0720  10.0851  10.0879  10.1062  10.1160  10.1259  10.1600
    10.1816  10.1887  10.2088  10.2296  10.2796  10.3023  10.3192  10.3685
    10.4910  10.5103  10.5151  10.5243  10.5408  10.5655  10.6693  10.6850
    10.6964  10.7166  10.7199  10.7404  10.7475  10.7611  10.7726  10.7828
    10.7972  10.8128  10.8373  10.8390  10.8543  10.8655  10.8733  10.8866
    10.8939  10.9109  10.9444  10.9708  11.0273  11.0489  11.0688  11.0827
    11.0993  11.1087  11.1237

     occupation numbers 
     1.0000   1.0000   1.0000   1.0000   1.0000   1.0000   1.0000   1.0000
     1.0000   1.0000   1.0000   1.0000   1.0000   1.0000   1.0000   1.0000
     1.0000   1.0000   1.0000   1.0000   1.0000   1.0000   1.0000   1.0000
     1.0000   1.0000   1.0000   1.0000   1.0000   1.0000   1.0000   1.0000
     1.0000   1.0000   1.0000   1.0000   1.0000   1.0000   1.0000   1.0000
     1.0000   1.0000   1.0000   1.0000   1.0000   1.0000   1.0000   1.0000
     1.0000   1.0000   1.0000   1.0000   1.0000   1.0000   1.0000   1.0000
     1.0000   1.0000   1.0000   1.0000   1.0000   1.0000   1.0000   1.0000
     1.0000   1.0000   1.0000   1.0000   1.0000   1.0000   1.0000   1.0000
     1.0000   1.0000   1.0000   1.0000   1.0000   1.0000   1.0000   1.0000
     1.0000   1.0000   1.0000   1.0000   1.0000   1.0000   1.0000   1.0000
     1.0000   1.0000   1.0000   1.0000   1.0000   1.0000   1.0000   1.0000
     1.0000   1.0000   1.0000   1.0000   1.0000   1.0000   1.0000   1.0000
     1.0000   1.0000   1.0000   1.0000   1.0000   1.0000   1.0000   1.0000
     1.0000   1.0000   1.0000   1.0000   1.0000   1.0000   1.0000   1.0000
     1.0000   1.0000   1.0000   1.0000   1.0000   1.0000   1.0000   1.0000
     1.0000   1.0000   1.0000   1.0000   1.0000   1.0000   1.0000   1.0000
     1.0000   1.0000   1.0000   1.0000   1.0000   1.0000   1.0000   1.0000
     1.0000   1.0000   1.0000   1.0000   1.0000   1.0000   1.0000   1.0000
     1.0000   1.0000   1.0000   1.0000   1.0000   1.0000   1.0000   1.0000
     1.0000   1.0000   1.0000   1.0000   1.0000   1.0000   1.0000   1.0000
     1.0000   1.0000   1.0000   1.0000   1.0000   1.0000   1.0000   1.0000
     1.0000   1.0000   1.0000   1.0000   1.0000   1.0000   1.0000   1.0000
     1.0000   1.0000   1.0000   1.0000   1.0000   1.0000   1.0000   1.0000
     1.0000   1.0000   1.0000   1.0000   1.0000   1.0000   1.0000   1.0000
     1.0000   1.0000   1.0000   1.0000   1.0000   1.0000   1.0000   1.0000
     1.0000   1.0000   1.0000   1.0000   1.0000   1.0000   1.0000   1.0000
     1.0000   1.0000   1.0000   1.0000   1.0000   1.0000   1.0000   1.0000
     1.0000   1.0000   1.0000   1.0000   1.0000   1.0000   1.0000   1.0000
     1.0000   1.0000   1.0000   1.0000   1.0000   1.0000   1.0000   1.0000
     1.0000   1.0000   1.0000   1.0000   1.0000   1.0000   1.0000   1.0000
     1.0000   1.0000   1.0000   1.0000   1.0000   1.0000   1.0000   1.0000
     1.0000   1.0000   1.0000   1.0000   1.0000   1.0000   1.0000   1.0000
     1.0000   1.0000   1.0000   1.0000   1.0000   1.0000   1.0000   1.0000
     1.0000   1.0000   1.0000   1.0000   1.0000   1.0000   1.0000   1.0000
     1.0000   1.0000   1.0000   1.0000   1.0000   1.0000   1.0000   1.0000
     1.0000   1.0000   1.0000   1.0000   1.0000   1.0000   1.0000   1.0000
     1.0000   1.0000   1.0000   1.0000   1.0000   1.0000   1.0000   1.0000
     1.0000   1.0000   1.0000   1.0000   1.0000   1.0000   1.0000   1.0000
     1.0000   1.0000   1.0000   1.0000   1.0000   1.0000   1.0000   1.0000
     1.0000   1.0000   1.0000   1.0000   1.0000   1.0000   1.0000   1.0000
     1.0000   1.0000   1.0000   1.0000   1.0000   1.0000   1.0000   1.0000
     1.0000   1.0000   1.0000   1.0000   1.0000   1.0000   1.0000   1.0000
     1.0000   1.0000   1.0000   1.0000   1.0000   1.0000   1.0000   1.0000
     1.0000   1.0000   1.0000   1.0000   1.0000   1.0000   1.0000   1.0000
     1.0000   1.0000   1.0000   1.0000   1.0000   1.0000   1.0000   1.0000
     1.0000   1.0000   1.0000   1.0000   1.0000   1.0000   1.0000   1.0000
     1.0000   1.0000   1.0000   1.0000   1.0000   1.0000   1.0000   1.0000
     1.0000   1.0000   1.0000   1.0000   1.0000   1.0000   1.0000   1.0000
     1.0000   1.0000   1.0000   1.0000   1.0000   1.0000   1.0000   1.0000
     1.0000   1.0000   1.0000   1.0000   1.0000   1.0000   1.0000   1.0000
     1.0000   1.0000   1.0000   1.0000   1.0000   1.0000   1.0000   1.0000
     1.0000   1.0000   1.0000   1.0000   1.0000   1.0000   1.0000   1.0000
     1.0000   1.0000   1.0000   1.0000   1.0000   1.0000   1.0000   1.0000
     1.0000   1.0000   1.0000   1.0000   1.0000   1.0000   1.0000   1.0000
     1.0000   1.0000   1.0000   1.0000   1.0000   1.0000   1.0000   1.0000
     1.0000   1.0000   1.0000   1.0000   1.0000   1.0000   1.0000   1.0000
     1.0000   1.0000   1.0000   1.0000   1.0000   1.0000   1.0000   1.0000
     1.0000   1.0000   1.0000   1.0000   1.0000   1.0000   1.0000   1.0000
     1.0000   1.0000   1.0000   1.0000   1.0000   1.0000   1.0000   1.0000
     1.0000   1.0000   1.0000   1.0000   1.0000   1.0000   1.0000   1.0000
     1.0000   1.0000   1.0000   1.0000   1.0000   1.0000   1.0000   1.0000
     1.0000   1.0000   1.0000   1.0000   1.0000   1.0000   1.0000   1.0000
     1.0000   1.0000   1.0000   1.0000   1.0000   1.0000   1.0000   1.0000
     1.0000   1.0000   1.0000   1.0000   1.0000   1.0000   1.0000   1.0000
     1.0000   1.0000   1.0000   1.0000   1.0000   1.0000   1.0000   1.0000
     1.0000   1.0000   1.0000   1.0000   1.0000   1.0000   1.0000   1.0000
     1.0000   1.0000   1.0000   1.0000   1.0000   1.0000   1.0000   1.0000
     1.0000   1.0000   1.0000   1.0000   1.0000   1.0000   1.0000   1.0000
     1.0000   1.0000   1.0000   1.0000   1.0000   1.0000   1.0000   1.0000
     1.0000   1.0000   1.0000   1.0000   1.0000   1.0000   1.0000   1.0000
     1.0000   1.0000   1.0000   1.0000   1.0000   0.9999   0.9999   0.9997
     0.0002   0.0001   0.0001   0.0000   0.0000   0.0000   0.0000   0.0000
     0.0000   0.0000   0.0000   0.0000   0.0000   0.0000   0.0000   0.0000
     0.0000   0.0000   0.0000   0.0000   0.0000   0.0000   0.0000   0.0000
     0.0000   0.0000   0.0000   0.0000   0.0000   0.0000   0.0000   0.0000
     0.0000   0.0000   0.0000   0.0000   0.0000   0.0000   0.0000   0.0000
     0.0000   0.0000   0.0000   0.0000   0.0000   0.0000   0.0000   0.0000
     0.0000   0.0000   0.0000   0.0000   0.0000   0.0000   0.0000   0.0000
     0.0000   0.0000   0.0000   0.0000   0.0000   0.0000   0.0000   0.0000
     0.0000   0.0000   0.0000   0.0000   0.0000   0.0000   0.0000   0.0000
     0.0000   0.0000   0.0000   0.0000   0.0000   0.0000   0.0000   0.0000
     0.0000   0.0000   0.0000   0.0000   0.0000   0.0000   0.0000   0.0000
     0.0000   0.0000   0.0000   0.0000   0.0000   0.0000   0.0000   0.0000
     0.0000   0.0000   0.0000   0.0000   0.0000   0.0000   0.0000   0.0000
     0.0000   0.0000   0.0000   0.0000   0.0000   0.0000   0.0000   0.0000
     0.0000   0.0000   0.0000

          k =-0.3534 0.3536-0.3545 ( 64122 PWs)   bands (ev):

   -17.3564 -17.3454 -17.3339 -17.3265 -17.3261 -17.3181 -17.3170 -17.3165
   -17.3065 -17.3004 -17.2946 -17.2912 -17.2903 -17.2898 -17.2879 -17.2873
   -17.2848 -17.2836 -17.2824 -17.2746 -17.2724 -17.2720 -17.2693 -17.2668
   -17.2631 -17.2624 -17.2615 -17.2609 -17.2590 -17.2508 -17.2495 -17.2495
   -17.2475 -17.2450 -17.2431 -17.2422 -17.2383 -17.2369 -17.2351 -17.2339
   -17.2313 -17.2278 -17.2260 -17.2239 -17.2231 -17.2202 -17.2177 -17.2170
   -17.2143 -17.2133 -17.2116 -17.2099 -17.2082 -17.2063 -17.2042 -17.2032
   -17.2007 -17.1982 -17.1961 -17.1946 -17.1927 -17.1891 -17.1865 -17.1842
   -17.1840 -17.1815 -17.1804 -17.1789 -17.1777 -17.1759 -17.1734 -17.1717
   -17.1714 -17.1680 -17.1665 -17.1645 -17.1624 -17.1586 -17.1583 -17.1567
   -17.1544 -17.1538 -17.1516 -17.1512 -17.1507 -17.1476 -17.1470 -17.1450
   -17.1439 -17.1430 -17.1427 -17.1406 -17.1401 -17.1393 -17.1374 -17.1361
   -17.1348 -17.1332 -17.1325 -17.1302 -17.1298 -17.1290 -17.1286 -17.1274
   -17.1271 -17.1266 -17.1234 -17.1233 -17.1225 -17.1203 -17.1198 -17.1190
   -17.1172 -17.1161 -17.1149 -17.1142 -17.1134 -17.1128 -17.1126 -17.1114
   -17.1080 -17.1077 -17.1062 -17.1046 -17.1030 -17.1008 -17.0992 -17.0980
   -17.0974 -17.0952 -17.0947 -17.0929 -17.0925 -17.0917 -17.0911 -17.0905
   -17.0890 -17.0848 -17.0839 -17.0830 -17.0812 -17.0801 -17.0791 -17.0786
   -17.0784 -17.0774 -17.0772 -17.0749 -17.0744 -17.0728 -17.0725 -17.0721
   -17.0709 -17.0703 -17.0681 -17.0669 -17.0667 -17.0649 -17.0634 -17.0618
   -17.0610 -17.0595 -17.0580 -17.0579 -17.0577 -17.0568 -17.0562 -17.0560
   -17.0553 -17.0547 -17.0540 -17.0532 -17.0527 -17.0521 -17.0516 -17.0511
   -17.0509 -17.0497 -17.0484 -17.0479 -17.0470 -17.0466 -17.0459 -17.0450
   -17.0443 -17.0439 -17.0432 -17.0420 -17.0416 -17.0415 -17.0398 -17.0397
   -17.0389 -17.0376 -17.0371 -17.0365 -17.0362 -17.0356 -17.0352 -17.0338
   -17.0328 -17.0316 -17.0315 -17.0310 -17.0308 -17.0304 -17.0298 -17.0295
   -17.0292 -17.0291 -17.0283 -17.0278 -17.0274 -17.0270 -17.0263 -17.0257
   -17.0252 -17.0245 -17.0228 -17.0224 -17.0218 -17.0213 -17.0206 -17.0204
   -17.0202 -17.0198 -17.0196 -17.0187 -17.0184 -17.0161 -17.0155 -17.0140
   -17.0137 -17.0134 -17.0130 -17.0121 -17.0114 -17.0113 -17.0112 -17.0107
   -17.0105 -17.0096 -17.0083 -17.0079 -17.0075 -17.0065 -17.0060 -17.0052
   -17.0037 -17.0028 -17.0019 -17.0008 -16.9998 -16.9994 -16.9985 -16.9969
   -16.9958 -16.9945 -16.9942 -16.9927 -16.9915 -16.9911 -16.9900 -16.9893
   -16.9884 -16.9876 -16.9873 -16.9869 -16.9862 -16.9852 -16.9840 -16.9823
   -16.9818 -16.9815 -16.9810 -16.9785 -16.9780 -16.9766 -16.9761 -16.9758
   -16.9737 -16.9724 -16.9702 -16.9697 -16.9664 -16.9658 -16.9633 -16.9611
   -16.9603 -16.9579 -16.9561 -16.9559 -16.9543 -16.9504 -16.9495 -16.9474
   -16.9440 -16.9437 -16.9410 -16.9393 -16.9371 -16.9354 -16.9350 -16.9320
   -16.9300 -16.9295 -16.9285 -16.9276 -16.9255 -16.9234 -16.9209 -16.9193
   -16.9184 -16.9180 -16.9177 -16.9170 -16.9108 -16.9086 -16.9044 -16.8995
    -5.0436  -4.9352  -4.5884  -4.5573  -4.4949  -4.4210  -4.3476  -4.2776
    -4.1100  -4.0332  -3.9680  -3.9151  -3.8714  -3.8390  -3.5884  -3.5588
    -3.5240  -3.4641  -3.4211  -3.4083  -3.3309  -3.3120  -3.2329  -3.1522
    -3.1334  -3.1100  -3.0876  -3.0666  -3.0506  -2.9351  -2.9311  -2.8676
    -2.8242  -2.8070  -2.7441  -2.7173  -2.6505  -2.6232  -2.5641  -2.5140
    -2.3649  -2.3351  -2.2834  -2.2410  -2.2010  -2.1208  -2.0582  -1.9865
    -1.9420  -1.9123  -1.9033  -1.8618  -1.8378  -1.7553  -1.7294  -1.7032
    -1.6835  -1.6408  -1.6116  -1.5701  -1.5381  -1.4982  -1.4551  -1.4022
    -0.3824  -0.3710  -0.3547  -0.3035  -0.2690  -0.2211  -0.1955  -0.1803
    -0.1592  -0.1278  -0.1097  -0.1014  -0.0185  -0.0122   0.0117   0.0509
     0.0858   0.1010   0.1403   0.1703   0.2105   0.2387   0.2654   0.2874
     0.3129   0.3294   0.3482   0.3624   0.3762   0.4150   0.8588   0.9100
     0.9357   0.9593   0.9653   1.0562   1.0617   1.0816   1.1056   1.1201
     1.1430   1.1812   1.2306   1.2654   1.8032   1.8328   1.8701   1.9045
     1.9205   1.9703   2.2165   2.3193   2.3303   2.3588   2.3653   2.4128
     3.1489   3.1564   3.1689   3.1737   3.1813   3.1845   3.1887   3.1935
     3.1954   3.2037   3.2107   3.2130   3.2178   3.2267   3.2324   3.2415
     3.2456   3.2639   3.6125   3.6573   3.6882   3.7169   3.7498   3.7826
     3.7838   3.7877   3.7977   3.8016   3.8111   3.8232   3.8370   3.8504
     3.8564   3.8657   3.8746   3.8789   3.8839   3.8944   3.9056   3.9105
     3.9267   3.9454   4.2624   4.2647   4.2743   4.2823   4.2888   4.2911
     4.2979   4.2997   4.3029   4.3089   4.3116   4.3258   4.5032   4.5214
     4.5306   4.5326   4.5383   4.5415   4.5446   4.5496   4.5589   4.5619
     4.5811   4.5885   4.8031   4.8210   4.8398   4.8479   4.8640   4.8652
     4.8710   4.8894   4.8956   4.9096   4.9165   4.9361   5.0055   5.0211
     5.0253   5.0313   5.0471   5.0567   5.2709   5.2760   5.2812   5.2896
     5.2993   5.3013   5.3082   5.3140   5.3188   5.3241   5.3386   5.3401
     5.3409   5.3575   5.3592   5.3620   5.3735   5.3852   5.4431   5.4906
     5.6459   5.6767   5.6833   5.6949   5.6995   5.7187   5.9111   5.9115
     5.9289   5.9338   5.9446   5.9505   5.9714   5.9748   5.9824   5.9939
     6.0101   6.0147   6.1544   6.1712   6.1745   6.1910   6.4695   6.5003
     6.5053   6.5292   6.5331   6.5488   7.0342   7.0429   7.0668   7.0936
     8.0856   8.1407   8.1554   8.1617   8.1964   8.2133   8.2601   8.2961
     8.5352   8.5571   8.5692   8.5755   8.6103   8.6376   8.9383   8.9577
     8.9804   8.9992   9.0282   9.0436   9.0477   9.0822   9.1165   9.1278
     9.1390   9.1632   9.1771   9.1885   9.1985   9.2135   9.2369   9.2558
     9.2682   9.2928   9.3184   9.3404   9.3491   9.3701   9.3846   9.4231
     9.4300   9.4784   9.5136   9.5266   9.5619   9.5689   9.5850   9.6035
     9.6215   9.6352   9.6470   9.6684   9.6786   9.6830   9.7076   9.7335
     9.7527   9.7777   9.9613   9.9869  10.0041  10.0180  10.0244  10.0324
    10.0606  10.0716  10.0915  10.1004  10.1078  10.1259  10.1475  10.1614
    10.1697  10.1774  10.2149  10.2439  10.2881  10.3104  10.3217  10.3619
    10.4876  10.5056  10.5187  10.5406  10.5498  10.5608  10.6423  10.6811
    10.6967  10.7140  10.7187  10.7350  10.7450  10.7499  10.7698  10.7863
    10.7974  10.8012  10.8178  10.8356  10.8476  10.8519  10.8681  10.8888
    10.9005  10.9174  10.9513  10.9576  11.0037  11.0147  11.0287  11.0696
    11.0829  11.1205  11.1521

     occupation numbers 
     1.0000   1.0000   1.0000   1.0000   1.0000   1.0000   1.0000   1.0000
     1.0000   1.0000   1.0000   1.0000   1.0000   1.0000   1.0000   1.0000
     1.0000   1.0000   1.0000   1.0000   1.0000   1.0000   1.0000   1.0000
     1.0000   1.0000   1.0000   1.0000   1.0000   1.0000   1.0000   1.0000
     1.0000   1.0000   1.0000   1.0000   1.0000   1.0000   1.0000   1.0000
     1.0000   1.0000   1.0000   1.0000   1.0000   1.0000   1.0000   1.0000
     1.0000   1.0000   1.0000   1.0000   1.0000   1.0000   1.0000   1.0000
     1.0000   1.0000   1.0000   1.0000   1.0000   1.0000   1.0000   1.0000
     1.0000   1.0000   1.0000   1.0000   1.0000   1.0000   1.0000   1.0000
     1.0000   1.0000   1.0000   1.0000   1.0000   1.0000   1.0000   1.0000
     1.0000   1.0000   1.0000   1.0000   1.0000   1.0000   1.0000   1.0000
     1.0000   1.0000   1.0000   1.0000   1.0000   1.0000   1.0000   1.0000
     1.0000   1.0000   1.0000   1.0000   1.0000   1.0000   1.0000   1.0000
     1.0000   1.0000   1.0000   1.0000   1.0000   1.0000   1.0000   1.0000
     1.0000   1.0000   1.0000   1.0000   1.0000   1.0000   1.0000   1.0000
     1.0000   1.0000   1.0000   1.0000   1.0000   1.0000   1.0000   1.0000
     1.0000   1.0000   1.0000   1.0000   1.0000   1.0000   1.0000   1.0000
     1.0000   1.0000   1.0000   1.0000   1.0000   1.0000   1.0000   1.0000
     1.0000   1.0000   1.0000   1.0000   1.0000   1.0000   1.0000   1.0000
     1.0000   1.0000   1.0000   1.0000   1.0000   1.0000   1.0000   1.0000
     1.0000   1.0000   1.0000   1.0000   1.0000   1.0000   1.0000   1.0000
     1.0000   1.0000   1.0000   1.0000   1.0000   1.0000   1.0000   1.0000
     1.0000   1.0000   1.0000   1.0000   1.0000   1.0000   1.0000   1.0000
     1.0000   1.0000   1.0000   1.0000   1.0000   1.0000   1.0000   1.0000
     1.0000   1.0000   1.0000   1.0000   1.0000   1.0000   1.0000   1.0000
     1.0000   1.0000   1.0000   1.0000   1.0000   1.0000   1.0000   1.0000
     1.0000   1.0000   1.0000   1.0000   1.0000   1.0000   1.0000   1.0000
     1.0000   1.0000   1.0000   1.0000   1.0000   1.0000   1.0000   1.0000
     1.0000   1.0000   1.0000   1.0000   1.0000   1.0000   1.0000   1.0000
     1.0000   1.0000   1.0000   1.0000   1.0000   1.0000   1.0000   1.0000
     1.0000   1.0000   1.0000   1.0000   1.0000   1.0000   1.0000   1.0000
     1.0000   1.0000   1.0000   1.0000   1.0000   1.0000   1.0000   1.0000
     1.0000   1.0000   1.0000   1.0000   1.0000   1.0000   1.0000   1.0000
     1.0000   1.0000   1.0000   1.0000   1.0000   1.0000   1.0000   1.0000
     1.0000   1.0000   1.0000   1.0000   1.0000   1.0000   1.0000   1.0000
     1.0000   1.0000   1.0000   1.0000   1.0000   1.0000   1.0000   1.0000
     1.0000   1.0000   1.0000   1.0000   1.0000   1.0000   1.0000   1.0000
     1.0000   1.0000   1.0000   1.0000   1.0000   1.0000   1.0000   1.0000
     1.0000   1.0000   1.0000   1.0000   1.0000   1.0000   1.0000   1.0000
     1.0000   1.0000   1.0000   1.0000   1.0000   1.0000   1.0000   1.0000
     1.0000   1.0000   1.0000   1.0000   1.0000   1.0000   1.0000   1.0000
     1.0000   1.0000   1.0000   1.0000   1.0000   1.0000   1.0000   1.0000
     1.0000   1.0000   1.0000   1.0000   1.0000   1.0000   1.0000   1.0000
     1.0000   1.0000   1.0000   1.0000   1.0000   1.0000   1.0000   1.0000
     1.0000   1.0000   1.0000   1.0000   1.0000   1.0000   1.0000   1.0000
     1.0000   1.0000   1.0000   1.0000   1.0000   1.0000   1.0000   1.0000
     1.0000   1.0000   1.0000   1.0000   1.0000   1.0000   1.0000   1.0000
     1.0000   1.0000   1.0000   1.0000   1.0000   1.0000   1.0000   1.0000
     1.0000   1.0000   1.0000   1.0000   1.0000   1.0000   1.0000   1.0000
     1.0000   1.0000   1.0000   1.0000   1.0000   1.0000   1.0000   1.0000
     1.0000   1.0000   1.0000   1.0000   1.0000   1.0000   1.0000   1.0000
     1.0000   1.0000   1.0000   1.0000   1.0000   1.0000   1.0000   1.0000
     1.0000   1.0000   1.0000   1.0000   1.0000   1.0000   1.0000   1.0000
     1.0000   1.0000   1.0000   1.0000   1.0000   1.0000   1.0000   1.0000
     1.0000   1.0000   1.0000   1.0000   1.0000   1.0000   1.0000   1.0000
     1.0000   1.0000   1.0000   1.0000   1.0000   1.0000   1.0000   1.0000
     1.0000   1.0000   1.0000   1.0000   1.0000   1.0000   1.0000   1.0000
     1.0000   1.0000   1.0000   1.0000   1.0000   1.0000   1.0000   1.0000
     1.0000   1.0000   1.0000   1.0000   1.0000   1.0000   1.0000   1.0000
     1.0000   1.0000   1.0000   1.0000   1.0000   1.0000   1.0000   1.0000
     1.0000   1.0000   1.0000   1.0000   1.0000   1.0000   1.0000   1.0000
     1.0000   1.0000   1.0000   1.0000   1.0000   1.0000   1.0000   1.0000
     1.0000   1.0000   1.0000   1.0000   1.0000   1.0000   1.0000   1.0000
     1.0000   1.0000   1.0000   1.0000   1.0000   1.0000   1.0000   1.0000
     1.0000   1.0000   1.0000   1.0000   1.0000   1.0000   1.0000   1.0000
     1.0000   1.0000   1.0000   1.0000   1.0000   1.0000   1.0000   1.0000
     1.0000   1.0000   1.0000   1.0000   1.0000   1.0000   1.0000   1.0000
     1.0000   1.0000   1.0000   1.0000   1.0000   1.0000   1.0000   1.0000
     1.0000   1.0000   1.0000   1.0000   1.0000   1.0000   1.0000   1.0000
     1.0000   1.0000   1.0000   1.0000   1.0000   1.0000   1.0000   1.0000
     1.0000   1.0000   1.0000   1.0000   1.0000   1.0000   1.0000   1.0000
     1.0000   1.0000   1.0000   1.0000   0.9999   0.9999   0.9998   0.9997
     0.0003   0.0001   0.0000   0.0000   0.0000   0.0000   0.0000   0.0000
     0.0000   0.0000   0.0000   0.0000   0.0000   0.0000   0.0000   0.0000
     0.0000   0.0000   0.0000   0.0000   0.0000   0.0000   0.0000   0.0000
     0.0000   0.0000   0.0000   0.0000   0.0000   0.0000   0.0000   0.0000
     0.0000   0.0000   0.0000   0.0000   0.0000   0.0000   0.0000   0.0000
     0.0000   0.0000   0.0000   0.0000   0.0000   0.0000   0.0000   0.0000
     0.0000   0.0000   0.0000   0.0000   0.0000   0.0000   0.0000   0.0000
     0.0000   0.0000   0.0000   0.0000   0.0000   0.0000   0.0000   0.0000
     0.0000   0.0000   0.0000   0.0000   0.0000   0.0000   0.0000   0.0000
     0.0000   0.0000   0.0000   0.0000   0.0000   0.0000   0.0000   0.0000
     0.0000   0.0000   0.0000   0.0000   0.0000   0.0000   0.0000   0.0000
     0.0000   0.0000   0.0000   0.0000   0.0000   0.0000   0.0000   0.0000
     0.0000   0.0000   0.0000   0.0000   0.0000   0.0000   0.0000   0.0000
     0.0000   0.0000   0.0000   0.0000   0.0000   0.0000   0.0000   0.0000
     0.0000   0.0000   0.0000

          k =-0.7059-0.0013-0.0002 ( 64162 PWs)   bands (ev):

   -17.3565 -17.3454 -17.3338 -17.3264 -17.3260 -17.3182 -17.3168 -17.3167
   -17.3064 -17.3006 -17.2946 -17.2924 -17.2904 -17.2889 -17.2880 -17.2867
   -17.2848 -17.2832 -17.2821 -17.2743 -17.2740 -17.2715 -17.2693 -17.2672
   -17.2629 -17.2627 -17.2614 -17.2609 -17.2588 -17.2504 -17.2495 -17.2495
   -17.2477 -17.2455 -17.2421 -17.2414 -17.2391 -17.2380 -17.2347 -17.2336
   -17.2305 -17.2287 -17.2258 -17.2237 -17.2231 -17.2214 -17.2171 -17.2169
   -17.2142 -17.2135 -17.2116 -17.2098 -17.2078 -17.2066 -17.2047 -17.2029
   -17.2015 -17.1984 -17.1955 -17.1931 -17.1927 -17.1899 -17.1874 -17.1841
   -17.1835 -17.1811 -17.1795 -17.1789 -17.1777 -17.1759 -17.1741 -17.1729
   -17.1716 -17.1675 -17.1665 -17.1645 -17.1624 -17.1596 -17.1591 -17.1563
   -17.1544 -17.1528 -17.1515 -17.1509 -17.1507 -17.1473 -17.1455 -17.1445
   -17.1441 -17.1433 -17.1427 -17.1408 -17.1397 -17.1396 -17.1378 -17.1363
   -17.1346 -17.1341 -17.1328 -17.1305 -17.1296 -17.1295 -17.1284 -17.1277
   -17.1269 -17.1257 -17.1243 -17.1227 -17.1218 -17.1202 -17.1198 -17.1190
   -17.1180 -17.1165 -17.1144 -17.1141 -17.1131 -17.1127 -17.1123 -17.1114
   -17.1086 -17.1070 -17.1053 -17.1044 -17.1030 -17.1013 -17.0999 -17.0988
   -17.0973 -17.0964 -17.0936 -17.0927 -17.0926 -17.0918 -17.0912 -17.0910
   -17.0890 -17.0854 -17.0840 -17.0826 -17.0809 -17.0798 -17.0796 -17.0786
   -17.0783 -17.0774 -17.0772 -17.0751 -17.0746 -17.0732 -17.0725 -17.0715
   -17.0710 -17.0687 -17.0677 -17.0665 -17.0663 -17.0658 -17.0649 -17.0618
   -17.0606 -17.0602 -17.0578 -17.0578 -17.0568 -17.0565 -17.0560 -17.0559
   -17.0552 -17.0547 -17.0540 -17.0533 -17.0521 -17.0519 -17.0518 -17.0514
   -17.0512 -17.0503 -17.0496 -17.0485 -17.0474 -17.0463 -17.0451 -17.0449
   -17.0445 -17.0434 -17.0431 -17.0426 -17.0416 -17.0409 -17.0404 -17.0391
   -17.0388 -17.0371 -17.0370 -17.0364 -17.0361 -17.0355 -17.0348 -17.0342
   -17.0328 -17.0325 -17.0317 -17.0314 -17.0307 -17.0303 -17.0300 -17.0296
   -17.0295 -17.0288 -17.0281 -17.0281 -17.0277 -17.0273 -17.0260 -17.0256
   -17.0247 -17.0236 -17.0235 -17.0228 -17.0216 -17.0210 -17.0208 -17.0205
   -17.0202 -17.0199 -17.0194 -17.0180 -17.0178 -17.0167 -17.0160 -17.0147
   -17.0140 -17.0130 -17.0120 -17.0115 -17.0113 -17.0112 -17.0110 -17.0105
   -17.0104 -17.0103 -17.0095 -17.0085 -17.0071 -17.0067 -17.0062 -17.0050
   -17.0038 -17.0033 -17.0021 -17.0009 -17.0000 -16.9987 -16.9979 -16.9967
   -16.9958 -16.9949 -16.9943 -16.9932 -16.9917 -16.9911 -16.9900 -16.9892
   -16.9884 -16.9872 -16.9869 -16.9860 -16.9860 -16.9850 -16.9842 -16.9825
   -16.9818 -16.9815 -16.9807 -16.9792 -16.9781 -16.9768 -16.9758 -16.9756
   -16.9738 -16.9724 -16.9706 -16.9702 -16.9661 -16.9658 -16.9625 -16.9612
   -16.9603 -16.9584 -16.9561 -16.9559 -16.9530 -16.9516 -16.9503 -16.9467
   -16.9446 -16.9435 -16.9410 -16.9395 -16.9367 -16.9359 -16.9351 -16.9318
   -16.9301 -16.9295 -16.9285 -16.9276 -16.9253 -16.9231 -16.9213 -16.9194
   -16.9184 -16.9179 -16.9176 -16.9170 -16.9107 -16.9086 -16.9044 -16.8995
    -5.0134  -4.8694  -4.6951  -4.6450  -4.6040  -4.5825  -4.0721  -4.0256
    -3.9870  -3.9156  -3.9014  -3.8512  -3.8353  -3.8100  -3.7089  -3.6817
    -3.6569  -3.6269  -3.5745  -3.5493  -3.4679  -3.4265  -3.2520  -3.1977
    -3.1408  -3.1166  -3.0508  -2.9456  -2.9082  -2.8761  -2.8635  -2.7846
[...]
     atom   77 type  2   force =   0.00000000E+00  0.00000000E+00  0.00000000E+00
     atom   78 type  1   force =   0.00000000E+00  0.00000000E+00  0.00000000E+00
     atom   79 type  1   force =   0.00000000E+00  0.00000000E+00  0.00000000E+00
     atom   80 type  2   force =   0.00000000E+00  0.00000000E+00  0.00000000E+00
     atom   81 type  1   force =   0.00000000E+00  0.00000000E+00  0.00000000E+00
     atom   82 type  2   force =   0.00000000E+00  0.00000000E+00  0.00000000E+00
     atom   83 type  1   force =   0.00000000E+00  0.00000000E+00  0.00000000E+00
     atom   84 type  2   force =   0.00000000E+00  0.00000000E+00  0.00000000E+00
     atom   85 type  1   force =   0.00000000E+00  0.00000000E+00  0.00000000E+00
     atom   86 type  2   force =   0.00000000E+00  0.00000000E+00  0.00000000E+00
     atom   87 type  1   force =   0.00000000E+00  0.00000000E+00  0.00000000E+00
     atom   88 type  1   force =   0.00000000E+00  0.00000000E+00  0.00000000E+00
     atom   89 type  1   force =   0.00000000E+00  0.00000000E+00  0.00000000E+00
     atom   90 type  1   force =   0.00000000E+00  0.00000000E+00  0.00000000E+00
     atom   91 type  1   force =   0.00000000E+00  0.00000000E+00  0.00000000E+00
     atom   92 type  2   force =   0.00000000E+00  0.00000000E+00  0.00000000E+00
     atom   93 type  2   force =   0.00000000E+00  0.00000000E+00  0.00000000E+00
     atom   94 type  2   force =   0.00000000E+00  0.00000000E+00  0.00000000E+00
     atom   95 type  2   force =   0.00000000E+00  0.00000000E+00  0.00000000E+00
     atom   96 type  1   force =   0.00000000E+00  0.00000000E+00  0.00000000E+00
     atom   97 type  1   force =   0.00000000E+00  0.00000000E+00  0.00000000E+00
     atom   98 type  2   force =   0.00000000E+00  0.00000000E+00  0.00000000E+00
     atom   99 type  2   force =   0.00000000E+00  0.00000000E+00  0.00000000E+00
     atom  100 type  2   force =   0.00000000E+00  0.00000000E+00  0.00000000E+00
     atom  101 type  2   force =   0.00000000E+00  0.00000000E+00  0.00000000E+00
     atom  102 type  1   force =   0.00000000E+00  0.00000000E+00  0.00000000E+00
     atom  103 type  1   force =   0.00000000E+00  0.00000000E+00  0.00000000E+00
     atom  104 type  2   force =   0.00000000E+00  0.00000000E+00  0.00000000E+00
     atom  105 type  2   force =   0.00000000E+00  0.00000000E+00  0.00000000E+00
     atom  106 type  1   force =   0.00000000E+00  0.00000000E+00  0.00000000E+00
     atom  107 type  1   force =   0.00000000E+00  0.00000000E+00  0.00000000E+00
     atom  108 type  1   force =   0.00000000E+00  0.00000000E+00  0.00000000E+00
     atom  109 type  1   force =   0.00000000E+00  0.00000000E+00  0.00000000E+00
     atom  110 type  2   force =   0.00000000E+00  0.00000000E+00  0.00000000E+00
     atom  111 type  2   force =   0.00000000E+00  0.00000000E+00  0.00000000E+00
     atom  112 type  2   force =   0.00000000E+00  0.00000000E+00  0.00000000E+00
     atom  113 type  2   force =   0.00000000E+00  0.00000000E+00  0.00000000E+00
     atom  114 type  1   force =   0.00000000E+00  0.00000000E+00  0.00000000E+00
     atom  115 type  2   force =   0.00000000E+00  0.00000000E+00  0.00000000E+00
     atom  116 type  1   force =   0.00000000E+00  0.00000000E+00  0.00000000E+00
     atom  117 type  2   force =   0.00000000E+00  0.00000000E+00  0.00000000E+00
     atom  118 type  1   force =   0.00000000E+00  0.00000000E+00  0.00000000E+00
     atom  119 type  2   force =   0.00000000E+00  0.00000000E+00  0.00000000E+00
     atom  120 type  1   force =   0.00000000E+00  0.00000000E+00  0.00000000E+00
     atom  121 type  1   force =   0.00000000E+00  0.00000000E+00  0.00000000E+00
     atom  122 type  2   force =   0.00000000E+00  0.00000000E+00  0.00000000E+00
     atom  123 type  2   force =   0.00000000E+00  0.00000000E+00  0.00000000E+00
     atom  124 type  2   force =   0.00000000E+00  0.00000000E+00  0.00000000E+00
     atom  125 type  1   force =   0.00000000E+00  0.00000000E+00  0.00000000E+00
     atom  126 type  2   force =   0.00000000E+00  0.00000000E+00  0.00000000E+00
     atom  127 type  1   force =   0.00000000E+00  0.00000000E+00  0.00000000E+00
     atom  128 type  1   force =   0.00000000E+00  0.00000000E+00  0.00000000E+00
     The SCF correction term to forces
     atom    1 type  2   force =  -0.12827452E-07 -0.35685475E-05  0.54804446E-05
     atom    2 type  1   force =   0.15142316E-05  0.61155757E-06 -0.75262417E-06
     atom    3 type  2   force =   0.14377452E-04 -0.31421932E-06  0.41455961E-05
     atom    4 type  1   force =   0.16393324E-05 -0.37885326E-06 -0.95316370E-06
     atom    5 type  1   force =   0.20464796E-05 -0.16898083E-05  0.64803701E-06
     atom    6 type  2   force =   0.27298418E-05 -0.16203498E-05 -0.66392200E-05
     atom    7 type  1   force =   0.47047059E-06 -0.24451638E-05  0.42602790E-06
     atom    8 type  2   force =  -0.66916744E-05 -0.10303168E-04 -0.13921421E-05
     atom    9 type  1   force =   0.64066485E-06  0.76909698E-06 -0.19600180E-05
     atom   10 type  2   force =   0.10753798E-04  0.10292092E-05 -0.99731930E-05
     atom   11 type  1   force =   0.12604587E-05  0.82214367E-06 -0.31767639E-05
     atom   12 type  1   force =   0.30987684E-06 -0.40282020E-06 -0.33431377E-05
     atom   13 type  2   force =  -0.47105995E-05 -0.32124189E-05 -0.85774227E-05
     atom   14 type  2   force =  -0.40707218E-05  0.15404024E-05 -0.11118674E-04
     atom   15 type  1   force =  -0.20639216E-05 -0.23574501E-06 -0.18292712E-05
     atom   16 type  2   force =  -0.39184201E-05 -0.61021852E-06 -0.51893591E-05
     atom   17 type  1   force =   0.15691171E-05 -0.12589970E-05 -0.17759586E-05
     atom   18 type  1   force =   0.37582385E-06 -0.86231175E-06 -0.25461346E-05
     atom   19 type  1   force =  -0.26632198E-07 -0.82636590E-06 -0.34199369E-05
     atom   20 type  2   force =  -0.12476787E-05 -0.46002647E-05 -0.85201662E-05
     atom   21 type  2   force =   0.57724833E-05  0.65828932E-06 -0.75282001E-05
     atom   22 type  1   force =   0.98647948E-06 -0.46946093E-06 -0.80499493E-06
     atom   23 type  2   force =   0.71786769E-05 -0.72326027E-05 -0.92044189E-06
     atom   24 type  2   force =   0.78357076E-05 -0.17323977E-05 -0.54493594E-05
     atom   25 type  2   force =  -0.34940467E-05 -0.44906950E-05  0.12284287E-05
     atom   26 type  1   force =   0.13151763E-05 -0.15227083E-05  0.93961204E-06
     atom   27 type  2   force =   0.66079862E-05 -0.46665342E-05  0.22175243E-05
     atom   28 type  2   force =   0.90801289E-05 -0.48228862E-05  0.77734563E-05
     atom   29 type  2   force =   0.68261800E-05 -0.36018285E-06  0.17884868E-05
     atom   30 type  1   force =   0.30103086E-05 -0.20934805E-05  0.10046971E-05
     atom   31 type  2   force =   0.70027881E-05 -0.79083004E-05 -0.65650559E-07
     atom   32 type  2   force =   0.63449484E-05 -0.16053767E-04  0.85418012E-05
     atom   33 type  2   force =   0.34081618E-05 -0.17413077E-05  0.38439861E-05
     atom   34 type  1   force =  -0.38058014E-07  0.12288344E-05 -0.91354322E-06
     atom   35 type  2   force =   0.10519359E-04 -0.72961576E-05 -0.93927164E-06
     atom   36 type  2   force =  -0.18907852E-06  0.50903511E-05 -0.80961260E-05
     atom   37 type  1   force =   0.15510479E-05 -0.17972420E-05 -0.13654388E-06
     atom   38 type  2   force =  -0.11320646E-05 -0.39813438E-05 -0.38525056E-05
     atom   39 type  2   force =   0.52619935E-05 -0.62456588E-05  0.41577504E-05
     atom   40 type  1   force =  -0.12171062E-05  0.22907347E-06  0.47269026E-06
     atom   41 type  2   force =  -0.69194645E-05  0.43306914E-05 -0.32330544E-05
     atom   42 type  1   force =  -0.62329533E-06  0.74916536E-06 -0.14711121E-05
     atom   43 type  2   force =  -0.96453138E-06  0.17891409E-05 -0.13829099E-04
     atom   44 type  1   force =  -0.29578695E-06  0.13885969E-05 -0.19681211E-05
     atom   45 type  1   force =  -0.14372074E-05  0.62949001E-06 -0.24214021E-05
     atom   46 type  2   force =  -0.33525969E-05  0.23447584E-05 -0.34879757E-05
     atom   47 type  1   force =  -0.12967754E-05  0.13328167E-05 -0.10737665E-05
     atom   48 type  1   force =  -0.17783179E-05  0.93620829E-06 -0.11130319E-06
     atom   49 type  1   force =  -0.37132293E-06 -0.49182665E-06 -0.11086551E-05
     atom   50 type  1   force =  -0.12771220E-06  0.30296943E-06  0.29220209E-06
     atom   51 type  1   force =   0.40918292E-06  0.11670230E-05 -0.57592155E-06
     atom   52 type  1   force =  -0.10472551E-06  0.13369506E-05  0.12547617E-05
     atom   53 type  1   force =  -0.34340707E-06 -0.33714959E-06  0.22323074E-06
     atom   54 type  2   force =  -0.44711213E-05  0.42061004E-07  0.33833085E-05
     atom   55 type  2   force =   0.29623668E-06  0.13248413E-05 -0.69430639E-05
     atom   56 type  2   force =  -0.15510631E-05  0.45792466E-06  0.21718624E-05
     atom   57 type  1   force =   0.11817860E-05 -0.11223211E-05  0.11676848E-05
     atom   58 type  1   force =   0.12989774E-05  0.87155274E-07  0.15389835E-05
     atom   59 type  1   force =   0.11456913E-05  0.55016915E-08  0.10118565E-05
     atom   60 type  2   force =   0.27129980E-05 -0.31337015E-05  0.61587956E-05
     atom   61 type  1   force =   0.14854625E-05 -0.16746627E-05  0.10721256E-05
     atom   62 type  1   force =   0.21512487E-05 -0.24460399E-05  0.10302058E-05
     atom   63 type  2   force =   0.34156676E-05 -0.10179126E-04  0.27362813E-05
     atom   64 type  2   force =   0.66138383E-05 -0.95837744E-05  0.31972158E-05
     atom   65 type  2   force =  -0.38213605E-05 -0.42271741E-06  0.27185057E-05
     atom   66 type  2   force =  -0.51722773E-05  0.59635244E-05 -0.19871602E-05
     atom   67 type  2   force =   0.41162898E-05 -0.15736435E-05  0.14498124E-05
     atom   68 type  1   force =  -0.19284315E-06  0.13680920E-05 -0.38795910E-06
     atom   69 type  2   force =   0.51135684E-05 -0.15715589E-05  0.97219580E-05
     atom   70 type  1   force =  -0.54013687E-06  0.14925587E-05  0.10321698E-05
     atom   71 type  1   force =  -0.51405413E-06  0.10192644E-06  0.19392303E-05
     atom   72 type  1   force =  -0.20003343E-05  0.55376540E-06  0.10353453E-05
     atom   73 type  2   force =  -0.80533726E-05  0.24186843E-05 -0.37766653E-05
     atom   74 type  1   force =  -0.75138807E-06  0.12496033E-05  0.21899958E-06
     atom   75 type  2   force =  -0.11549155E-05  0.12870306E-04 -0.27162118E-05
     atom   76 type  1   force =  -0.38981875E-06  0.27142238E-05  0.16770387E-05
     atom   77 type  2   force =  -0.10598322E-04  0.11515272E-04  0.62673071E-05
     atom   78 type  1   force =  -0.23560279E-05  0.18495646E-05  0.12764294E-05
     atom   79 type  1   force =  -0.26582507E-05  0.12472156E-05  0.46199243E-06
     atom   80 type  2   force =  -0.12524461E-04 -0.26650244E-06  0.28020251E-05
     atom   81 type  1   force =  -0.56068135E-06  0.12527596E-05  0.14935980E-05
     atom   82 type  2   force =   0.34898088E-05  0.87363997E-05  0.26111472E-05
     atom   83 type  1   force =  -0.27444662E-06  0.24221377E-05  0.14402374E-05
     atom   84 type  2   force =  -0.67677526E-05  0.27183573E-05  0.10427288E-05
     atom   85 type  1   force =  -0.32283381E-05  0.10125881E-05  0.96800943E-06
     atom   86 type  2   force =  -0.10482717E-04  0.56002709E-05 -0.38064526E-05
     atom   87 type  1   force =  -0.16927168E-05  0.10316479E-05  0.34802340E-06
     atom   88 type  1   force =  -0.12889159E-05  0.82150606E-06  0.93637942E-06
     atom   89 type  1   force =   0.27406677E-06  0.11060549E-05  0.19000434E-05
     atom   90 type  1   force =   0.27619125E-08  0.21301743E-06  0.81223302E-06
     atom   91 type  1   force =  -0.12528528E-05  0.43359271E-07  0.57302844E-06
     atom   92 type  2   force =  -0.16005316E-05 -0.98045961E-05  0.39569706E-05
     atom   93 type  2   force =   0.12171026E-05 -0.58646391E-05  0.14114067E-05
     atom   94 type  2   force =   0.19640997E-05 -0.26241109E-06  0.12585887E-04
     atom   95 type  2   force =   0.22940392E-05  0.54602724E-05  0.59553778E-05
     atom   96 type  1   force =   0.61675928E-06  0.28001609E-06  0.29002331E-05
     atom   97 type  1   force =  -0.12132884E-05 -0.19054403E-05  0.10947645E-05
     atom   98 type  2   force =  -0.16254345E-05  0.12582467E-05 -0.55427315E-05
     atom   99 type  2   force =   0.10372264E-04  0.25254380E-05  0.30440310E-05
     atom  100 type  2   force =   0.69927444E-05  0.65578747E-06  0.45259969E-05
     atom  101 type  2   force =   0.69137552E-05 -0.19984542E-05  0.85317355E-05
     atom  102 type  1   force =   0.24840652E-06 -0.10853189E-06  0.70508531E-06
     atom  103 type  1   force =  -0.34555777E-06 -0.47829902E-06  0.18523648E-05
     atom  104 type  2   force =  -0.82044317E-05 -0.96732862E-06  0.22364895E-05
     atom  105 type  2   force =  -0.24738361E-06  0.52065840E-05  0.36405446E-05
     atom  106 type  1   force =   0.16918750E-05  0.17674293E-05 -0.34670055E-06
     atom  107 type  1   force =   0.62973732E-06  0.27159585E-05 -0.12187406E-06
     atom  108 type  1   force =   0.16284316E-06  0.84572089E-06 -0.87424570E-06
     atom  109 type  1   force =  -0.16735305E-05  0.10371422E-05  0.14428364E-06
     atom  110 type  2   force =  -0.93258203E-05 -0.11729836E-05 -0.75593316E-05
     atom  111 type  2   force =  -0.13689397E-04  0.73873057E-06 -0.80730750E-06
     atom  112 type  2   force =  -0.10647093E-04 -0.16743651E-05 -0.14243903E-06
     atom  113 type  2   force =   0.13535053E-05  0.69293203E-05  0.54953366E-05
     atom  114 type  1   force =   0.60334843E-06  0.46646852E-06 -0.13459448E-05
     atom  115 type  2   force =  -0.50941774E-05  0.44044352E-05 -0.30915340E-05
     atom  116 type  1   force =  -0.17259482E-05  0.89922017E-07 -0.21111387E-05
     atom  117 type  2   force =  -0.11976204E-04  0.33501756E-05  0.11858605E-05
     atom  118 type  1   force =  -0.31844330E-06 -0.91632021E-07 -0.59487245E-06
     atom  119 type  2   force =  -0.12889763E-06  0.96842321E-06  0.53132075E-05
     atom  120 type  1   force =   0.10797703E-05 -0.14313550E-06  0.44744068E-06
     atom  121 type  1   force =  -0.69570936E-06 -0.80766188E-06 -0.43221681E-06
     atom  122 type  2   force =   0.10822270E-05 -0.12501238E-04 -0.10182573E-05
     atom  123 type  2   force =  -0.30156750E-05  0.46813538E-05 -0.59654072E-05
     atom  124 type  2   force =   0.88205867E-05 -0.19647689E-05  0.10116319E-06
     atom  125 type  1   force =   0.48194560E-06  0.51273155E-06  0.86152142E-06
     atom  126 type  2   force =   0.97534018E-05 -0.41096359E-05  0.61267876E-06
     atom  127 type  1   force =   0.85863336E-06  0.20731779E-06  0.11191465E-05
     atom  128 type  1   force =   0.77695031E-06 -0.16055397E-05  0.11935151E-05

     Total force =     0.237711     Total SCF correction =     0.000083


     entering subroutine stress ...

          total   stress  (Ry/bohr**3)                   (kbar)     P=    2.39
   0.0000055889  -0.0000015108   0.0000103670          0.82     -0.22      1.53
  -0.0000015108   0.0000226396  -0.0000143915         -0.22      3.33     -2.12
   0.0000103670  -0.0000143915   0.0000205696          1.53     -2.12      3.03

     kinetic stress (kbar)   6409.34      1.84      0.15
                                1.84   6412.51     -1.07
                                0.15     -1.07   6412.08

     local   stress (kbar)  -2957.03   3881.36   2903.39
                             3881.36  -6221.63   2104.63
                             2903.39   2104.63  -8732.24

     nonloc. stress (kbar)   2496.68      0.08      0.89
                                0.08   2495.76     -0.60
                                0.89     -0.60   2495.90

     hartree stress (kbar)  16092.01  -1880.39  -1440.89
                            -1880.39  17727.76  -1029.83
                            -1440.89  -1029.83  18966.79

     exc-cor stress (kbar)  10935.33     -0.01      0.02
                               -0.01  10935.29     -0.01
                                0.02     -0.01  10935.30

     corecor stress (kbar) -16601.80      0.10     -0.07
                                0.10 -16601.73      0.10
                               -0.07      0.10 -16601.73

     ewald   stress (kbar) -16373.72  -2003.21  -1461.96
                            -2003.21 -14744.63  -1075.33
                            -1461.96  -1075.33 -13473.07

     hubbard stress (kbar)      0.00      0.00      0.00
                                0.00      0.00      0.00
                                0.00      0.00      0.00

     london  stress (kbar)      0.00      0.00      0.00
                                0.00      0.00      0.00
                                0.00      0.00      0.00

     XDM     stress (kbar)      0.00      0.00      0.00
                                0.00      0.00      0.00
                                0.00      0.00      0.00

     dft-nl  stress (kbar)      0.00      0.00      0.00
                                0.00      0.00      0.00
                                0.00      0.00      0.00



     Writing output data file SiGe_zns.scf.in.super.444.b.044.save

     init_run     :   2100.04s CPU   1650.34s WALL (       1 calls)
     electrons    :  84534.24s CPU  65415.44s WALL (       1 calls)
     forces       :   1670.82s CPU   1214.43s WALL (       1 calls)
     stress       :   6276.76s CPU   6167.54s WALL (       1 calls)

     Called by init_run:
     wfcinit      :   1825.28s CPU   1375.31s WALL (       1 calls)
     potinit      :      9.77s CPU      9.83s WALL (       1 calls)

     Called by electrons:
     c_bands      :  73502.60s CPU  55906.56s WALL (      16 calls)
     sum_band     :   9213.42s CPU   7659.19s WALL (      16 calls)
     v_of_rho     :     18.12s CPU     18.74s WALL (      16 calls)
     v_h          :      1.21s CPU      1.31s WALL (      16 calls)
     v_xc         :     18.66s CPU     19.18s WALL (      18 calls)
     newd         :   2010.53s CPU   2039.98s WALL (      16 calls)
     mix_rho      :     31.92s CPU     33.15s WALL (      16 calls)

     Called by c_bands:
     init_us_2    :     80.04s CPU     83.94s WALL (     280 calls)
     cegterg      :  72891.12s CPU  55272.71s WALL (     128 calls)

     Called by sum_band:
     sum_band:bec :     19.26s CPU     19.99s WALL (     128 calls)
     addusdens    :   1105.80s CPU   1141.05s WALL (      16 calls)

     Called by *egterg:
     h_psi        :  34238.09s CPU  26934.98s WALL (     480 calls)
     s_psi        :   9198.05s CPU   5444.04s WALL (     480 calls)
     g_psi        :     15.13s CPU     17.87s WALL (     344 calls)
     cdiaghg      :  12859.34s CPU  12213.26s WALL (     464 calls)
     cegterg:over :   8082.78s CPU   5175.76s WALL (     344 calls)
     cegterg:upda :   3901.59s CPU   2391.28s WALL (     344 calls)
     cegterg:last :   2635.75s CPU   1572.99s WALL (     128 calls)

     Called by h_psi:
     h_psi:vloc   :  14579.57s CPU  15034.58s WALL (     480 calls)
     h_psi:vnl    :  19630.48s CPU  11871.26s WALL (     480 calls)
     add_vuspsi   :   9108.33s CPU   5417.91s WALL (     480 calls)

     General routines
     calbec       :  17021.07s CPU  11022.90s WALL (     624 calls)
     fft          :    227.95s CPU    233.82s WALL (     281 calls)
     ffts         :     19.14s CPU     19.87s WALL (     450 calls)
     fftw         :  16390.38s CPU  16889.00s WALL (  514848 calls)
     interpolate  :      5.04s CPU      5.45s WALL (      32 calls)

     Parallel routines
     fft_scatter  :  10765.74s CPU  11088.68s WALL (  515579 calls)

     PWSCF        :     1d    2h16m CPU        0d   20h41m WALL


   This run was terminated on:   9: 3:30   3Nov2017            

=------------------------------------------------------------------------------=
   JOB DONE.
=------------------------------------------------------------------------------=
