
     Program PWSCF v.5.1 starts on  3Feb2017 at 12:51:42 

     This program is part of the open-source Quantum ESPRESSO suite
     for quantum simulation of materials; please cite
         "P. Giannozzi et al., J. Phys.:Condens. Matter 21 395502 (2009);
          URL http://www.quantum-espresso.org", 
     in publications or presentations arising from this work. More details at
     http://www.quantum-espresso.org/quote

     Parallel version (MPI), running on    16 processors
     R & G space division:  proc/nbgrp/npool/nimage =      16
     Reading input from /tmp/SiGe_zns.scf.in.super.444.a.02.2987/SiGe_zns.scf.in.super.444.a.02.t
Warning: card &IONS ignored
Warning: card   ION_DYNAMICS='BFGS', ignored
Warning: card / ignored
Warning: card &CELL ignored
Warning: card  CELL_DYNAMICS = 'BFGS' ignored
Warning: card / ignored
     Message from routine read_cards :
     DEPRECATED: no units specified in CELL_PARAMETERS card

     Current dimensions of program PWSCF are:
     Max number of different atomic species (ntypx) = 10
     Max number of k-points (npk) =  40000
     Max angular momentum in pseudopotentials (lmaxx) =  3

     Subspace diagonalization in iterative solution of the eigenvalue problem:
     a serial algorithm will be used


     Parallelization info
     --------------------
     sticks:   dense  smooth     PW     G-vecs:    dense   smooth      PW
     Min         756     527    138                54768    32060    4315
     Max         757     528    139                54770    32083    4319
     Sum       12097    8443   2221               876295   513103   69089



     bravais-lattice index     =            0
     lattice parameter (alat)  =    29.598892955  a.u.
     unit-cell volume          =   18336.2874 (a.u.)^3
     number of atoms/cell      =          128
     number of atomic types    =            2
     number of electrons       =      1202.00
     number of Kohn-Sham states=          721
     kinetic-energy cutoff     =      35.0000  Ry
     charge density cutoff     =     200.0000  Ry
     convergence threshold     =      1.0E-09
     mixing beta               =       0.3000
     number of iterations used =            8  local-TF  mixing
     Exchange-correlation      = SLA  PW   PSX  PSC ( 1  4 10  8 0)
     A smooth kinetic-energy cutoff is imposed at      34.5000 Ry
     height of the smooth step-function =             800.0000 Ry
     width of the smooth step-function  =               1.0000 Ry


     celldm(1)=  29.598893  celldm(2)=   0.000000  celldm(3)=   0.000000
     celldm(4)=   0.000000  celldm(5)=   0.000000  celldm(6)=   0.000000

     crystal axes: (cart. coord. in units of alat)
               a(1) = (  -0.000000000000   0.707106781187   0.707106781187 )  
               a(2) = (   0.707106781187  -0.000000000000   0.707106781187 )  
               a(3) = (   0.707106781187   0.707106781187  -0.000000000000 )  

     reciprocal axes: (cart. coord. in units 2 pi/alat)
               b(1) = ( -0.707107  0.707107  0.707107 )  
               b(2) = (  0.707107 -0.707107  0.707107 )  
               b(3) = (  0.707107  0.707107 -0.707107 )  


     PseudoPot. # 1 for Si read from file:
     /users/kfg/psuedo/gbrv_1.5/si.pbesol.UPF
     MD5 check sum: ef58ba74faed4df802eb8a9742fc00a8
     Pseudo is Ultrasoft + core correction, Zval =  4.0
     Generated by new atomic code, or converted to UPF format
     Using radial grid of  899 points,  6 beta functions with: 
                l(1) =   0
                l(2) =   0
                l(3) =   1
                l(4) =   1
                l(5) =   2
                l(6) =   2
     Q(r) pseudized with  8 coefficients,  rinner =    0.900   0.900   0.900
                                                       0.900   0.900

     PseudoPot. # 2 for Ge read from file:
     /users/kfg/psuedo/gbrv_1.5/ge.pbesol.UPF
     MD5 check sum: 7bed0412183f5e553a4d27ec7023354d
     Pseudo is Ultrasoft + core correction, Zval = 14.0
     Generated by new atomic code, or converted to UPF format
     Using radial grid of  873 points,  6 beta functions with: 
                l(1) =   0
                l(2) =   0
                l(3) =   1
                l(4) =   1
                l(5) =   2
                l(6) =   2
     Q(r) pseudized with  8 coefficients,  rinner =    1.400   1.400   1.400
                                                       1.400   1.400

     atomic species   valence    mass     pseudopotential
        Si             4.00    28.08550     Si( 1.00)
        Ge            14.00    72.64000     Ge( 1.00)

     No symmetry found


                                    s                        frac. trans.

      isym =  1     identity                                     

 cryst.   s( 1) = (     1          0          0      )
                  (     0          1          0      )
                  (     0          0          1      )

 cart.    s( 1) = (  1.0000000  0.0000000  0.0000000 )
                  (  0.0000000  1.0000000  0.0000000 )
                  (  0.0000000  0.0000000  1.0000000 )


     point group C_1 (1)    
     there are  1 classes
     the character table:

       E    
A      1.00

     the symmetry operations in each class:
     E        1

   Cartesian axes

     site n.     atom                  positions (alat units)
         1           Ge  tau(   1) = (   -0.00005860794   -0.00025051266    0.00005513197  )
         2           Ge  tau(   2) = (    0.08812594907    0.08826733747    0.08842798133  )
         3           Si  tau(   3) = (    0.17705054051    0.17675495738    0.00009348914  )
         4           Si  tau(   4) = (    0.26508771209    0.26541150023    0.08855301509  )
         5           Ge  tau(   5) = (    0.35328650013    0.35362990689    0.00030953441  )
         6           Ge  tau(   6) = (    0.44162671720    0.44193054532    0.08805781913  )
         7           Si  tau(   7) = (    0.53058439326    0.53037901418    0.00017675197  )
         8           Si  tau(   8) = (    0.61842292632    0.61869064841    0.08807237437  )
         9           Si  tau(   9) = (    0.17675228829   -0.00013547151    0.17684908433  )
        10           Ge  tau(  10) = (    0.26527196789    0.08817982455    0.26489264575  )
        11           Si  tau(  11) = (    0.35383200599    0.17699651798    0.17707003103  )
        12           Si  tau(  12) = (    0.44202499564    0.26538227872    0.26523735265  )
        13           Si  tau(  13) = (    0.53049820340    0.35385358446    0.17666673312  )
        14           Si  tau(  14) = (    0.61853200303    0.44190316970    0.26532127836  )
        15           Ge  tau(  15) = (    0.70709139555    0.53035434695    0.17699395119  )
        16           Si  tau(  16) = (    0.79541744671    0.61869832302    0.26538522539  )
        17           Si  tau(  17) = (    0.35335156073   -0.00024654531    0.35359382797  )
        18           Si  tau(  18) = (    0.44193394270    0.08857138924    0.44220739030  )
        19           Ge  tau(  19) = (    0.53039142739    0.17646314407    0.35332410040  )
        20           Ge  tau(  20) = (    0.61886694940    0.26519509240    0.44219823405  )
        21           Si  tau(  21) = (    0.70734719939    0.35384959492    0.35374526938  )
        22           Ge  tau(  22) = (    0.79559939986    0.44195594521    0.44218537689  )
        23           Ge  tau(  23) = (    0.88360473056    0.53012461323    0.35370280716  )
        24           Ge  tau(  24) = (    0.97207202934    0.61897418656    0.44164670555  )
        25           Si  tau(  25) = (    0.53020577520    0.00016263258    0.53059085985  )
        26           Ge  tau(  26) = (    0.61883932999    0.08841115150    0.61844903069  )
        27           Si  tau(  27) = (    0.70710438613    0.17659322103    0.53006945346  )
        28           Ge  tau(  28) = (    0.79564755496    0.26512173557    0.61869426890  )
        29           Si  tau(  29) = (    0.88359045290    0.35364472310    0.53058344632  )
        30           Ge  tau(  30) = (    0.97194297700    0.44184238005    0.61847460832  )
        31           Si  tau(  31) = (    1.06063356586    0.53049500755    0.52999558830  )
        32           Si  tau(  32) = (    1.14919810376    0.61890428735    0.61855989815  )
        33           Si  tau(  33) = (    0.00011991327    0.17681822208    0.17691241602  )
        34           Si  tau(  34) = (    0.08840824797    0.26498145295    0.26547204162  )
        35           Ge  tau(  35) = (    0.17659759383    0.35388710115    0.17711020685  )
        36           Ge  tau(  36) = (    0.26488215343    0.44187844180    0.26537358112  )
        37           Ge  tau(  37) = (    0.35339051452    0.53031240321    0.17666603893  )
        38           Si  tau(  38) = (    0.44206071791    0.61886070405    0.26543785796  )
        39           Ge  tau(  39) = (    0.53039409082    0.70742695241    0.17698949658  )
        40           Si  tau(  40) = (    0.61900777620    0.79550315960    0.26519241564  )
        41           Ge  tau(  41) = (    0.17697159905    0.17689039130    0.35387734562  )
        42           Si  tau(  42) = (    0.26511089649    0.26541190899    0.44179880888  )
        43           Si  tau(  43) = (    0.35342802600    0.35380912099    0.35342582929  )
        44           Ge  tau(  44) = (    0.44202840122    0.44199047403    0.44205573373  )
        45           Si  tau(  45) = (    0.53009492960    0.53054063630    0.35344781840  )
        46           Ge  tau(  46) = (    0.61883814757    0.61872286452    0.44210182956  )
        47           Ge  tau(  47) = (    0.70688331935    0.70687626698    0.35332143968  )
        48           Ge  tau(  48) = (    0.79578003420    0.79572335478    0.44226057691  )
        49           Si  tau(  49) = (    0.35384840764    0.17672017594    0.53001143236  )
        50           Ge  tau(  50) = (    0.44199034944    0.26500326138    0.61895408473  )
        51           Ge  tau(  51) = (    0.53041654827    0.35368595571    0.53012315330  )
        52           Si  tau(  52) = (    0.61881979516    0.44173830786    0.61892834633  )
        53           Si  tau(  53) = (    0.70712599472    0.53026151702    0.53019608830  )
        54           Ge  tau(  54) = (    0.79520129467    0.61887466046    0.61872319826  )
        55           Ge  tau(  55) = (    0.88373360714    0.70726111545    0.53043985527  )
        56           Si  tau(  56) = (    0.97247309584    0.79565349752    0.61892094568  )
        57           Ge  tau(  57) = (    0.53031103003    0.17685476808    0.70699988166  )
        58           Ge  tau(  58) = (    0.61871624109    0.26528760425    0.79541276531  )
        59           Ge  tau(  59) = (    0.70711708328    0.35367698339    0.70692998369  )
        60           Ge  tau(  60) = (    0.79539384899    0.44210910963    0.79556776390  )
        61           Si  tau(  61) = (    0.88358986720    0.53056437453    0.70739241725  )
        62           Si  tau(  62) = (    0.97257366845    0.61851252472    0.79549126459  )
        63           Ge  tau(  63) = (    1.06043551556    0.70737412675    0.70704188837  )
        64           Ge  tau(  64) = (    1.14917571179    0.79558626197    0.79532489362  )
        65           Ge  tau(  65) = (    0.00015642448    0.35345708834    0.35378322882  )
        66           Si  tau(  66) = (    0.08845536687    0.44169018566    0.44161416710  )
        67           Ge  tau(  67) = (    0.17673965655    0.53037656954    0.35336375620  )
        68           Si  tau(  68) = (    0.26525215188    0.61871823248    0.44194387035  )
        69           Si  tau(  69) = (    0.35352166488    0.70724529644    0.35385577480  )
        70           Ge  tau(  70) = (    0.44227714452    0.79561863857    0.44202800842  )
        71           Ge  tau(  71) = (    0.53055385530    0.88399399426    0.35353765318  )
        72           Ge  tau(  72) = (    0.61888332629    0.97221789504    0.44175249162  )
        73           Si  tau(  73) = (    0.17672714766    0.35340154929    0.53043591248  )
        74           Ge  tau(  74) = (    0.26487671350    0.44219817480    0.61889067587  )
        75           Ge  tau(  75) = (    0.35327706916    0.53031826268    0.53003378742  )
        76           Ge  tau(  76) = (    0.44206419058    0.61862064727    0.61867080895  )
        77           Ge  tau(  77) = (    0.53014957657    0.70743440957    0.53034230440  )
        78           Si  tau(  78) = (    0.61839869793    0.79551152125    0.61901317681  )
        79           Si  tau(  79) = (    0.70732678568    0.88367156556    0.53036045941  )
        80           Si  tau(  80) = (    0.79559249925    0.97250077278    0.61871645009  )
        81           Ge  tau(  81) = (    0.35357856301    0.35383440940    0.70723924570  )
        82           Ge  tau(  82) = (    0.44213865420    0.44195597256    0.79532386161  )
        83           Ge  tau(  83) = (    0.53044583967    0.53040728025    0.70695742999  )
        84           Ge  tau(  84) = (    0.61838240852    0.61864622190    0.79552113435  )
        85           Si  tau(  85) = (    0.70678374529    0.70716736543    0.70700884436  )
        86           Ge  tau(  86) = (    0.79526130112    0.79536356124    0.79536014831  )
        87           Si  tau(  87) = (    0.88396761305    0.88401504358    0.70733210213  )
        88           Si  tau(  88) = (    0.97197295715    0.97220354365    0.79537207019  )
        89           Ge  tau(  89) = (    0.53060243039    0.35355462562    0.88366338641  )
        90           Si  tau(  90) = (    0.61844237369    0.44171565917    0.97245568137  )
        91           Ge  tau(  91) = (    0.70706611475    0.53011595426    0.88372347728  )
        92           Ge  tau(  92) = (    0.79528410552    0.61839389484    0.97252897135  )
        93           Ge  tau(  93) = (    0.88374873611    0.70742011482    0.88393971283  )
        94           Si  tau(  94) = (    0.97247979966    0.79553986556    0.97196864801  )
        95           Si  tau(  95) = (    1.06060574875    0.88397361554    0.88402058308  )
        96           Si  tau(  96) = (    1.14891303722    0.97221522415    0.97213033358  )
        97           Si  tau(  97) = (   -0.00009328335    0.53032352359    0.53047015053  )
        98           Ge  tau(  98) = (    0.08811600827    0.61839743732    0.61896532370  )
        99           Ge  tau(  99) = (    0.17678557191    0.70732381639    0.53042586714  )
       100           Si  tau( 100) = (    0.26508272358    0.79553881817    0.61891895628  )
       101           Ge  tau( 101) = (    0.35359014331    0.88421939051    0.53064615743  )
       102           Ge  tau( 102) = (    0.44211318014    0.97212534370    0.61894345521  )
       103           Ge  tau( 103) = (    0.53033676921    1.06060929675    0.53058260387  )
       104           Si  tau( 104) = (    0.61868037836    1.14896468471    0.61853979472  )
       105           Ge  tau( 105) = (    0.17676131230    0.53006873355    0.70739125412  )
       106           Ge  tau( 106) = (    0.26520327829    0.61863447513    0.79516643579  )
       107           Ge  tau( 107) = (    0.35370745513    0.70711925927    0.70710546949  )
       108           Ge  tau( 108) = (    0.44214346305    0.79534081071    0.79537439420  )
       109           Ge  tau( 109) = (    0.53009604242    0.88359416341    0.70728323986  )
       110           Ge  tau( 110) = (    0.61884441153    0.97225907044    0.79525899050  )
       111           Si  tau( 111) = (    0.70699646600    1.06056732652    0.70702874824  )
       112           Ge  tau( 112) = (    0.79543332286    1.14905090088    0.79566107621  )
       113           Si  tau( 113) = (    0.35380904751    0.53036515013    0.88401489709  )
       114           Si  tau( 114) = (    0.44163731301    0.61893526633    0.97246643931  )
       115           Si  tau( 115) = (    0.53043837985    0.70677224163    0.88359337281  )
       116           Ge  tau( 116) = (    0.61853112379    0.79542464678    0.97221634950  )
       117           Si  tau( 117) = (    0.70732358133    0.88416592451    0.88417258413  )
       118           Ge  tau( 118) = (    0.79552304565    0.97241699661    0.97225839945  )
       119           Ge  tau( 119) = (    0.88411948365    1.06046613564    0.88366417482  )
       120           Si  tau( 120) = (    0.97249041191    1.14871223732    0.97229256873  )
       121           Si  tau( 121) = (    0.53022168857    0.53029010932    1.06093263538  )
       122           Ge  tau( 122) = (    0.61883099256    0.61855350953    1.14921597245  )
       123           Si  tau( 123) = (    0.70732563963    0.70739229440    1.06050933765  )
       124           Si  tau( 124) = (    0.79536899281    0.79534696610    1.14935118559  )
       125           Ge  tau( 125) = (    0.88363074925    0.88361404698    1.06086765234  )
       126           Ge  tau( 126) = (    0.97198063459    0.97234608630    1.14875242037  )
       127           Si  tau( 127) = (    1.06085191858    1.06069694350    1.06040323664  )
       128           Si  tau( 128) = (    1.14900633263    1.14874928116    1.14916271331  )

   Crystallographic axes

     site n.     atom                  positions (cryst. coord.)
         1           Ge  tau(   1) = (   -0.00009671294    0.00017468132   -0.00025756547  )
         2           Ge  tau(   2) = (    0.06262800194    0.06242804855    0.06220086382  )
         3           Si  tau(   3) = (   -0.00014290203    0.00027511564    0.25011215997  )
         4           Si  tau(   4) = (    0.06284539026    0.06238748468    0.31250315298  )
         5           Ge  tau(   5) = (    0.00046169912   -0.00002395137    0.49964651126  )
         6           Ge  tau(   6) = (    0.06248111997    0.06205144212    0.56250305085  )
         7           Si  tau(   7) = (   -0.00002024242    0.00027020745    0.75008943748  )
         8           Si  tau(   8) = (    0.06246588126    0.06208726505    0.81249482464  )
         9           Si  tau(   9) = (   -0.00002734769    0.25012972124   -0.00016423796  )
        10           Ge  tau(  10) = (    0.06208433065    0.31253044155    0.06262077316  )
        11           Si  tau(  11) = (    0.00016584696    0.25024899242    0.25014502926  )
        12           Si  tau(  12) = (    0.06264586770    0.31245639367    0.31266135008  )
        13           Si  tau(  13) = (    0.00001563709    0.24982885292    0.50040890115  )
        14           Si  tau(  14) = (    0.06271502932    0.31250592092    0.56223042652  )
        15           Ge  tau(  15) = (    0.00018165757    0.25012558866    0.74985265276  )
        16           Si  tau(  16) = (    0.06269640178    0.31261498323    0.81227515766  )
        17           Si  tau(  17) = (   -0.00000302506    0.50006021214   -0.00034564267  )
        18           Si  tau(  18) = (    0.06282278660    0.56255290215    0.06243607330  )
        19           Ge  tau(  19) = (   -0.00042722184    0.50010295653    0.24998379344  )
        20           Ge  tau(  20) = (    0.06259760153    0.56276513832    0.31244489482  )
        21           Si  tau(  21) = (    0.00017512554    0.50009623205    0.50024377064  )
        22           Ge  tau(  22) = (    0.06260859364    0.56273596345    0.56241149805  )
        23           Ge  tau(  23) = (    0.00015746549    0.50005384145    0.74955195229  )
        24           Ge  tau(  24) = (    0.06261350134    0.56196925944    0.81274818806  )
        25           Si  tau(  25) = (    0.00038729457    0.74998149550   -0.00015729736  )
        26           Ge  tau(  26) = (    0.06224014148    0.81237886536    0.06279210804  )
        27           Si  tau(  27) = (   -0.00031233730    0.74994374738    0.25005286550  )
        28           Ge  tau(  28) = (    0.06234450853    0.81262131751    0.31259424559  )
        29           Si  tau(  29) = (    0.00045093368    0.74990737208    0.49967822999  )
        30           Ge  tau(  30) = (    0.06248986272    0.81216531635    0.56236962358  )
        31           Si  tau(  31) = (   -0.00010109507    0.74962804404    0.75033432951  )
        32           Si  tau(  32) = (    0.06241354494    0.81236225216    0.81284929204  )
        33           Si  tau(  33) = (    0.25004054143    0.00015139665    0.00001818632  )
        34           Si  tau(  34) = (    0.31257319146    0.06286097023    0.06216717308  )
        35           Ge  tau(  35) = (    0.25059844114   -0.00012678458    0.24987349686  )
        36           Ge  tau(  36) = (    0.31280273451    0.06249218301    0.31210775080  )
        37           Ge  tau(  37) = (    0.25002442137   -0.00018091310    0.49995057154  )
        38           Si  tau(  38) = (    0.31270937846    0.06267644023    0.56249182243  )
        39           Ge  tau(  39) = (    0.25033161016   -0.00003066369    0.75012118033  )
        40           Si  tau(  40) = (    0.31232043787    0.06271827297    0.81269091935  )
        41           Ge  tau(  41) = (    0.25017164824    0.25028649335   -0.00001085781  )
        42           Si  tau(  42) = (    0.31261178166    0.31218608570    0.06273733965  )
        43           Si  tau(  43) = (    0.25017927539    0.24964032569    0.25018238201  )
        44           Ge  tau(  44) = (    0.31255378841    0.31260742556    0.31251513441  )
        45           Si  tau(  45) = (    0.25024051142    0.24961018695    0.50005725183  )
        46           Ge  tau(  46) = (    0.31253168423    0.31269471908    0.56247458213  )
        47           Ge  tau(  47) = (    0.24983099916    0.24984097271    0.74984300453  )
        48           Ge  tau(  48) = (    0.31268537458    0.31276553138    0.81263738565  )
        49           Si  tau(  49) = (    0.24952610415    0.50002325171    0.00039396541  )
        50           Ge  tau(  50) = (    0.31251786041    0.56281540071    0.06225334591  )
        51           Ge  tau(  51) = (    0.24988627612    0.49982107700    0.25030119927  )
        52           Si  tau(  52) = (    0.31243291027    0.56286395125    0.31227939572  )
        53           Si  tau(  53) = (    0.24984317786    0.49996732093    0.50005985111  )
        54           Ge  tau(  54) = (    0.31282161041    0.56218512792    0.56239932782  )
        55           Ge  tau(  55) = (    0.25029272311    0.49986251424    0.74992553850  )
        56           Si  tau(  56) = (    0.31261286069    0.56267353472    0.81261110645  )
        57           Ge  tau(  57) = (    0.24999309094    0.74985573030    0.00011732065  )
        58           Ge  tau(  58) = (    0.31252997442    0.81235354597    0.06264335344  )
        59           Ge  tau(  59) = (    0.24995509391    0.74979487667    0.25021969269  )
        60           Ge  tau(  60) = (    0.31274132586    0.81236139564    0.31249537304  )
        61           Si  tau(  61) = (    0.25057525540    0.74982869499    0.49975607878  )
        62           Si  tau(  62) = (    0.31213823188    0.81285630325    0.56257056908  )
        63           Ge  tau(  63) = (    0.25030201164    0.74960621605    0.75007607208  )
        64           Ge  tau(  64) = (    0.31235412780    0.81240512324    0.81277475391  )
        65           Ge  tau(  65) = (    0.49998381538    0.00034122495   -0.00012000733  )
        66           Si  tau(  66) = (    0.56204310794    0.06249363650    0.06260114299  )
        67           Ge  tau(  67) = (    0.49992496749   -0.00019315101    0.25014077032  )
        68           Si  tau(  68) = (    0.56243977014    0.06256324512    0.31255994551  )
        69           Si  tau(  69) = (    0.50033419646    0.00009343938    0.49986169369  )
        70           Ge  tau(  70) = (    0.56241116875    0.06271083571    0.56276350039  )
        71           Ge  tau(  71) = (    0.49990879097    0.00006895297    0.75024750477  )
        72           Ge  tau(  72) = (    0.56221145202    0.06252091284    0.81271228073  )
        73           Si  tau(  73) = (    0.50000249815    0.25014716325   -0.00021723418  )
        74           Ge  tau(  74) = (    0.56300700146    0.31223658599    0.06235565460  )
        75           Ge  tau(  75) = (    0.49997751383    0.24960345685    0.25000576563  )
        76           Ge  tau(  76) = (    0.56231059212    0.31262205654    0.31255111722  )
        77           Ge  tau(  77) = (    0.50036794740    0.24964933217    0.50009538910  )
        78           Si  tau(  78) = (    0.56294609337    0.31247073656    0.56207708900  )
        79           Si  tau(  79) = (    0.49971606700    0.25032688764    0.74998424569  )
        80           Si  tau(  80) = (    0.56259163735    0.31240555763    0.81273214494  )
        81           Ge  tau(  81) = (    0.50027457727    0.49991275583    0.00012284334  )
        82           Ge  tau(  82) = (    0.56224972036    0.56250807121    0.06277041001  )
        83           Ge  tau(  83) = (    0.49986712713    0.49992165839    0.25024204218  )
        84           Ge  tau(  84) = (    0.56270493291    0.56233184445    0.31219294442  )
        85           Si  tau(  85) = (    0.50020200861    0.49965948780    0.49988367045  )
        86           Ge  tau(  86) = (    0.56247686318    0.56233224553    0.56233707214  )
        87           Si  tau(  87) = (    0.50019286442    0.50012578752    0.74999319956  )
        88           Si  tau(  88) = (    0.56257603367    0.56224993512    0.81232740314  )
        89           Ge  tau(  89) = (    0.49965266947    0.75003607617    0.00034907712  )
        90           Si  tau(  90) = (    0.56266534845    0.81259466495    0.06201492747  )
        91           Ge  tau(  91) = (    0.49976420507    0.75000952189    0.24993296708  )
        92           Ge  tau(  92) = (    0.56260156304    0.81276209804    0.31193946994  )
        93           Ge  tau(  93) = (    0.50035660127    0.74972292893    0.50008651940  )
        94           Si  tau(  94) = (    0.56217019484    0.81240104938    0.56289307244  )
        95           Si  tau(  95) = (    0.50019916983    0.74999472818    0.74992830604  )
        96           Si  tau(  96) = (    0.56245572923    0.81234417291    0.81246422631  )
        97           Si  tau(  97) = (    0.75016036170    0.00003771961   -0.00016964219  )
        98           Ge  tau(  98) = (    0.81264017213    0.06270898329    0.06190587067  )
        99           Ge  tau(  99) = (    0.75021491792   -0.00007946278    0.25009201621  )
       100           Si  tau( 100) = (    0.81273089260    0.06255268939    0.31233089345  )
       101           Ge  tau( 101) = (    0.75043503533    0.00001195733    0.50004001885  )
       102           Ge  tau( 102) = (    0.81243430932    0.06288391938    0.56235853607  )
       103           Ge  tau( 103) = (    0.75013785728    0.00021925707    0.74979019456  )
       104           Si  tau( 104) = (    0.81234131226    0.06240605430    0.81254012755  )
       105           Ge  tau( 105) = (    0.75002722615    0.25037507933   -0.00039683418  )
       106           Ge  tau( 106) = (    0.81218117489    0.31235398295    0.06270009000  )
       107           Ge  tau( 107) = (    0.74989895574    0.25009918923    0.25011869093  )
       108           Ge  tau( 108) = (    0.81216286735    0.31266638809    0.31261889387  )
       109           Ge  tau( 109) = (    0.75008569361    0.25016385664    0.49950515591  )
       110           Ge  tau( 110) = (    0.81223492687    0.31243112310    0.56274703669  )
       111           Si  tau( 111) = (    0.74995717548    0.24993246927    0.74991152150  )
       112           Ge  tau( 112) = (    0.81266272989    0.31257195515    0.81234063800  )
       113           Si  tau( 113) = (    0.74993694583    0.50024891098    0.00011264250  )
       114           Si  tau( 114) = (    0.81300619880    0.56226902863    0.06230044908  )
       115           Si  tau( 115) = (    0.74948173514    0.50010799631    0.25004515448  )
       116           Ge  tau( 116) = (    0.81254338317    0.56237816386    0.31235694016  )
       117           Si  tau( 117) = (    0.75025085005    0.50015800992    0.50014859179  )
       118           Ge  tau( 118) = (    0.81257341959    0.56240759504    0.56263188530  )
       119           Ge  tau( 119) = (    0.74954084377    0.50014901684    0.75018474769  )
       120           Si  tau( 120) = (    0.81212231638    0.56290702091    0.81240210889  )
       121           Si  tau( 121) = (    0.75024104164    0.75014428008   -0.00029757704  )
       122           Ge  tau( 122) = (    0.81242219703    0.81281461730    0.06234456520  )
       123           Si  tau( 123) = (    0.74994047621    0.74984621213    0.25046330045  )
       124           Si  tau( 124) = (    0.81269844206    0.81272959252    0.31209202420  )
       125           Ge  tau( 125) = (    0.75013490063    0.75015852120    0.49948406852  )
       126           Ge  tau( 126) = (    0.81254903972    0.81203221297    0.56255598284  )
       127           Si  tau( 127) = (    0.74970873550    0.74992790335    0.75034326758  )
       128           Si  tau( 128) = (    0.81239898444    0.81276251011    0.81217782875  )

     number of k points=     8  gaussian smearing, width (Ry)=  0.0150
                       cart. coord. in units 2pi/alat
        k(    1) = (   0.0000000   0.0000000   0.0000000), wk =   0.2500000
        k(    2) = (  -0.3535534  -0.3535534   0.3535534), wk =   0.2500000
        k(    3) = (  -0.7071068   0.0000000   0.0000000), wk =   0.2500000
        k(    4) = (   0.3535534   0.3535534   0.3535534), wk =   0.2500000
        k(    5) = (   0.3535534  -0.3535534  -0.3535534), wk =   0.2500000
        k(    6) = (  -0.3535534   0.3535534  -0.3535534), wk =   0.2500000
        k(    7) = (   0.0000000  -0.7071068   0.0000000), wk =   0.2500000
        k(    8) = (   0.0000000   0.0000000  -0.7071068), wk =   0.2500000

                       cryst. coord.
        k(    1) = (   0.0000000   0.0000000   0.0000000), wk =   0.2500000
        k(    2) = (   0.0000000   0.0000000  -0.5000000), wk =   0.2500000
        k(    3) = (   0.0000000  -0.5000000  -0.5000000), wk =   0.2500000
        k(    4) = (   0.5000000   0.5000000   0.5000000), wk =   0.2500000
        k(    5) = (  -0.5000000   0.0000000   0.0000000), wk =   0.2500000
        k(    6) = (   0.0000000  -0.5000000   0.0000000), wk =   0.2500000
        k(    7) = (  -0.5000000   0.0000000  -0.5000000), wk =   0.2500000
        k(    8) = (  -0.5000000  -0.5000000   0.0000000), wk =   0.2500000

     Dense  grid:   876295 G-vectors     FFT dimensions: ( 135, 135, 135)

     Smooth grid:   513103 G-vectors     FFT dimensions: ( 120, 120, 120)

     Largest allocated arrays     est. size (Mb)     dimensions
        Kohn-Sham Wavefunctions        44.31 Mb     (    4028,  721)
        NL pseudopotentials           141.61 Mb     (    4028, 2304)
        Each V/rho on FFT grid          2.50 Mb     (  164025)
        Each G-vector array             0.42 Mb     (   54770)
        G-vector shells                 0.02 Mb     (    2932)
     Largest temporary arrays     est. size (Mb)     dimensions
        Auxiliary wavefunctions       177.26 Mb     (    4028, 2884)
        Each subspace H/S matrix      126.91 Mb     (    2884, 2884)
        Each <psi_i|beta_j> matrix     25.35 Mb     (    2304,  721)
        Arrays for rho mixing          20.02 Mb     (  164025,    8)

     Check: negative/imaginary core charge=   -0.000001    0.000000

     Initial potential from superposition of free atoms

     starting charge 1201.90600, renormalised to 1202.00000
     Starting wfc are  857 randomized atomic wfcs

     total cpu time spent up to now is      825.9 secs

     Self-consistent Calculation

     iteration #  1     ecut=    35.00 Ry     beta=0.30
     Davidson diagonalization with overlap
     ethr =  1.00E-02,  avg # of iterations =  3.0

     Threshold (ethr) on eigenvalues was too large:
     Diagonalizing with lowered threshold

     Davidson diagonalization with overlap
     ethr =  2.30E-04,  avg # of iterations =  5.0

     total cpu time spent up to now is     6227.6 secs

     total energy              =  -15274.19059555 Ry
     Harris-Foulkes estimate   =  -15274.48132021 Ry
     estimated scf accuracy    <       2.78894001 Ry

     iteration #  2     ecut=    35.00 Ry     beta=0.30
     Davidson diagonalization with overlap
     ethr =  2.32E-04,  avg # of iterations =  1.0

     total cpu time spent up to now is     8051.6 secs

     total energy              =  -15273.63906697 Ry
     Harris-Foulkes estimate   =  -15274.20377804 Ry
     estimated scf accuracy    <       1.71914669 Ry

     iteration #  3     ecut=    35.00 Ry     beta=0.30
     Davidson diagonalization with overlap
     ethr =  1.43E-04,  avg # of iterations =  2.0

     total cpu time spent up to now is    10200.6 secs

     total energy              =  -15273.74446062 Ry
     Harris-Foulkes estimate   =  -15273.74369216 Ry
     estimated scf accuracy    <       0.02442508 Ry

     iteration #  4     ecut=    35.00 Ry     beta=0.30
     Davidson diagonalization with overlap
     ethr =  2.03E-06,  avg # of iterations =  9.9

     total cpu time spent up to now is    16734.9 secs

     total energy              =  -15273.74820359 Ry
     Harris-Foulkes estimate   =  -15273.74872273 Ry
     estimated scf accuracy    <       0.01040452 Ry

     iteration #  5     ecut=    35.00 Ry     beta=0.30
     Davidson diagonalization with overlap
     ethr =  8.66E-07,  avg # of iterations =  2.0

     total cpu time spent up to now is    19142.2 secs

     total energy              =  -15273.74907244 Ry
     Harris-Foulkes estimate   =  -15273.74922473 Ry
     estimated scf accuracy    <       0.00067927 Ry

     iteration #  6     ecut=    35.00 Ry     beta=0.30
     Davidson diagonalization with overlap
     ethr =  5.65E-08,  avg # of iterations =  2.0

     total cpu time spent up to now is    21093.7 secs

     total energy              =  -15273.74905108 Ry
     Harris-Foulkes estimate   =  -15273.74910887 Ry
     estimated scf accuracy    <       0.00017130 Ry

     iteration #  7     ecut=    35.00 Ry     beta=0.30
     Davidson diagonalization with overlap
     ethr =  1.43E-08,  avg # of iterations =  2.1

     total cpu time spent up to now is    23334.3 secs

     total energy              =  -15273.74907654 Ry
     Harris-Foulkes estimate   =  -15273.74907166 Ry
     estimated scf accuracy    <       0.00002868 Ry

     iteration #  8     ecut=    35.00 Ry     beta=0.30
     Davidson diagonalization with overlap
     ethr =  2.39E-09,  avg # of iterations =  2.0

     total cpu time spent up to now is    25478.7 secs

     total energy              =  -15273.74907497 Ry
     Harris-Foulkes estimate   =  -15273.74907884 Ry
     estimated scf accuracy    <       0.00001701 Ry

     iteration #  9     ecut=    35.00 Ry     beta=0.30
     Davidson diagonalization with overlap
     ethr =  1.42E-09,  avg # of iterations =  2.0

     total cpu time spent up to now is    28353.7 secs

     total energy              =  -15273.74907847 Ry
     Harris-Foulkes estimate   =  -15273.74907887 Ry
     estimated scf accuracy    <       0.00000443 Ry

     iteration # 10     ecut=    35.00 Ry     beta=0.30
     Davidson diagonalization with overlap
     ethr =  3.68E-10,  avg # of iterations =  1.4

     total cpu time spent up to now is    30193.4 secs

     total energy              =  -15273.74907806 Ry
     Harris-Foulkes estimate   =  -15273.74907865 Ry
     estimated scf accuracy    <       0.00000177 Ry

     iteration # 11     ecut=    35.00 Ry     beta=0.30
     Davidson diagonalization with overlap
     ethr =  1.47E-10,  avg # of iterations =  2.4

     total cpu time spent up to now is    33049.3 secs

     total energy              =  -15273.74907862 Ry
     Harris-Foulkes estimate   =  -15273.74907852 Ry
     estimated scf accuracy    <       0.00000028 Ry

     iteration # 12     ecut=    35.00 Ry     beta=0.30
     Davidson diagonalization with overlap
     ethr =  2.36E-11,  avg # of iterations =  2.0

     total cpu time spent up to now is    35135.9 secs

     total energy              =  -15273.74907872 Ry
     Harris-Foulkes estimate   =  -15273.74907865 Ry
     estimated scf accuracy    <       0.00000005 Ry

     iteration # 13     ecut=    35.00 Ry     beta=0.30
     Davidson diagonalization with overlap
     ethr =  4.47E-12,  avg # of iterations =  2.4

     total cpu time spent up to now is    37409.7 secs

     total energy              =  -15273.74907876 Ry
     Harris-Foulkes estimate   =  -15273.74907872 Ry
     estimated scf accuracy    <          4.7E-09 Ry

     iteration # 14     ecut=    35.00 Ry     beta=0.30
     Davidson diagonalization with overlap
     ethr =  3.89E-13,  avg # of iterations =  3.0

     total cpu time spent up to now is    40526.9 secs

     total energy              =  -15273.74907879 Ry
     Harris-Foulkes estimate   =  -15273.74907877 Ry
     estimated scf accuracy    <          2.4E-09 Ry

     iteration # 15     ecut=    35.00 Ry     beta=0.30
     Davidson diagonalization with overlap
     ethr =  1.98E-13,  avg # of iterations =  2.0

     total cpu time spent up to now is    42609.9 secs

     End of self-consistent calculation

          k = 0.0000 0.0000 0.0000 ( 64071 PWs)   bands (ev):

   -17.2148 -17.2132 -17.2121 -17.2116 -17.2097 -17.2053 -17.2041 -17.2038
   -17.2013 -17.2003 -17.1972 -17.1957 -17.1951 -17.1899 -17.1884 -17.1868
   -17.1840 -17.1814 -17.1802 -17.1768 -17.1759 -17.1746 -17.1716 -17.1685
   -17.1651 -17.1625 -17.1619 -17.1596 -17.1574 -17.1561 -17.1552 -17.1547
   -17.1527 -17.1511 -17.1496 -17.1483 -17.1473 -17.1441 -17.1434 -17.1368
   -17.1349 -17.1314 -17.1275 -17.1256 -17.1243 -17.1219 -17.1194 -17.1176
   -17.1165 -17.1146 -17.1077 -17.1069 -17.1057 -17.1046 -17.1021 -17.1008
   -17.0991 -17.0959 -17.0954 -17.0944 -17.0920 -17.0917 -17.0908 -17.0895
   -17.0882 -17.0869 -17.0855 -17.0840 -17.0832 -17.0828 -17.0802 -17.0796
   -17.0782 -17.0768 -17.0753 -17.0745 -17.0730 -17.0710 -17.0700 -17.0694
   -17.0660 -17.0646 -17.0615 -17.0598 -17.0519 -17.0501 -17.0497 -17.0493
   -17.0476 -17.0464 -17.0455 -17.0447 -17.0441 -17.0417 -17.0409 -17.0402
   -17.0385 -17.0374 -17.0363 -17.0339 -17.0330 -17.0315 -17.0282 -17.0278
   -17.0262 -17.0246 -17.0243 -17.0218 -17.0208 -17.0174 -17.0165 -17.0159
   -17.0142 -17.0139 -17.0120 -17.0114 -17.0104 -17.0093 -17.0085 -17.0071
   -17.0055 -17.0050 -17.0041 -17.0034 -17.0028 -17.0021 -17.0014 -17.0005
   -16.9995 -16.9985 -16.9965 -16.9962 -16.9945 -16.9939 -16.9931 -16.9913
   -16.9905 -16.9901 -16.9896 -16.9883 -16.9868 -16.9839 -16.9830 -16.9802
   -16.9796 -16.9779 -16.9760 -16.9751 -16.9727 -16.9722 -16.9707 -16.9701
   -16.9663 -16.9655 -16.9647 -16.9608 -16.9598 -16.9571 -16.9564 -16.9553
   -16.9539 -16.9537 -16.9527 -16.9509 -16.9506 -16.9495 -16.9492 -16.9483
   -16.9463 -16.9443 -16.9435 -16.9424 -16.9414 -16.9398 -16.9387 -16.9372
   -16.9363 -16.9361 -16.9358 -16.9343 -16.9331 -16.9321 -16.9310 -16.9303
   -16.9297 -16.9295 -16.9287 -16.9282 -16.9281 -16.9278 -16.9270 -16.9263
   -16.9257 -16.9250 -16.9241 -16.9234 -16.9225 -16.9225 -16.9219 -16.9213
   -16.9208 -16.9207 -16.9203 -16.9198 -16.9193 -16.9189 -16.9183 -16.9183
   -16.9178 -16.9172 -16.9167 -16.9163 -16.9161 -16.9157 -16.9156 -16.9151
   -16.9150 -16.9146 -16.9141 -16.9137 -16.9129 -16.9127 -16.9123 -16.9114
   -16.9108 -16.9105 -16.9102 -16.9099 -16.9094 -16.9090 -16.9089 -16.9080
   -16.9072 -16.9067 -16.9048 -16.9046 -16.9042 -16.9039 -16.9033 -16.9025
   -16.9022 -16.9016 -16.8995 -16.8982 -16.8976 -16.8966 -16.8956 -16.8950
   -16.8945 -16.8939 -16.8930 -16.8928 -16.8915 -16.8909 -16.8906 -16.8899
   -16.8894 -16.8892 -16.8886 -16.8880 -16.8877 -16.8870 -16.8866 -16.8861
   -16.8856 -16.8852 -16.8843 -16.8835 -16.8825 -16.8822 -16.8813 -16.8809
   -16.8807 -16.8801 -16.8797 -16.8786 -16.8785 -16.8774 -16.8771 -16.8764
   -16.8762 -16.8758 -16.8752 -16.8736 -16.8732 -16.8725 -16.8719 -16.8701
   -16.8686 -16.8679 -16.8671 -16.8658 -16.8638 -16.8636 -16.8631 -16.8622
   -16.8605 -16.8563 -16.8554 -16.8544 -16.8531 -16.8518 -16.8490 -16.8468
   -16.8456 -16.8439 -16.8430 -16.8408 -16.8401 -16.8397 -16.8386 -16.8377
   -16.8326 -16.8313 -16.8300 -16.8288 -16.8279 -16.8245 -16.8231 -16.8218
   -16.8216 -16.8208 -16.8202 -16.8190 -16.8172 -16.8163 -16.8153 -16.8139
   -16.8122 -16.8115 -16.8110 -16.8099 -16.8090 -16.8076 -16.8066 -16.8064
   -16.8058 -16.8053 -16.8045 -16.8037 -16.8029 -16.8013 -16.8008 -16.7997
   -16.7927  -5.0961  -4.5235  -4.4799  -4.4053  -4.3642  -4.3182  -4.2766
    -4.2006  -4.1954  -4.1257  -4.0884  -4.0465  -3.9526  -3.8632  -3.7918
    -3.3426  -3.3210  -3.2628  -3.2442  -3.2132  -3.1379  -3.1271  -3.1143
    -3.0602  -2.9581  -2.9325  -2.8733  -2.8365  -2.8227  -2.7413  -2.7200
    -2.6834  -2.6445  -2.6151  -2.5900  -2.5585  -2.5462  -2.4990  -2.4819
    -2.4442  -2.3915  -2.3555  -2.3436  -2.3170  -2.2784  -2.2657  -2.2050
    -2.1880  -2.1489  -2.1209  -2.0878  -2.0833  -2.0033  -1.9616  -1.9331
    -1.1622  -1.0804  -1.0664  -1.0231  -0.9549  -0.9336  -0.9265  -0.8775
    -0.8426  -0.8196  -0.8122  -0.7924  -0.7740  -0.6795  -0.6523  -0.6114
    -0.5719  -0.4882   0.0694   0.0996   0.1356   0.1897   0.2838   0.3185
     0.3453   0.3782   0.4223   0.4337   0.4557   0.4642   0.4835   0.5084
     0.5471   0.5750   0.5962   0.6012   0.6252   0.6487   0.6947   0.7126
     0.7142   0.7629   0.7720   0.8312   0.8468   0.8689   1.2748   1.3490
     1.3846   1.3937   1.4281   1.4663   1.5005   1.5275   1.5779   1.6377
     1.6660   1.7074   3.0374   3.0829   3.1211   3.1345   3.1703   3.1941
     3.2337   3.2387   3.2862   3.3339   3.3805   3.4271   3.4996   3.5229
     3.5248   3.5295   3.5309   3.5347   3.5381   3.5389   3.5407   3.5426
     3.5466   3.5481   3.5554   3.5570   3.5854   3.5956   3.5985   3.6024
     3.6067   3.6083   3.6119   3.6147   3.6225   3.6259   3.6290   3.6377
     3.7555   3.7643   3.7663   3.7697   3.7730   3.7755   3.7784   3.7828
     3.7894   3.7916   3.7933   3.7987   3.7993   3.8023   3.8045   3.8084
     3.8123   3.8150   3.8170   3.8175   3.8247   3.8296   3.8324   3.8353
     4.4758   4.4777   4.4785   4.4804   4.4815   4.4831   5.1284   5.1325
     5.1334   5.1369   5.1390   5.1404   5.1430   5.1441   5.1465   5.1475
     5.1505   5.1513   5.1527   5.1554   5.1571   5.1583   5.1595   5.1613
     5.1626   5.1631   5.1658   5.1685   5.1727   5.1762   5.4700   5.4776
     5.4846   5.4880   5.4912   5.4974   5.4997   5.5064   5.5097   5.5149
     5.5206   5.5289   6.0337   6.0348   6.0380   6.0462   6.0539   6.0571
     6.0589   6.0605   6.0666   6.0688   6.0787   6.0804   6.1549   6.1586
     6.1684   6.1751   6.1797   6.1846   6.1928   6.1980   6.6254   6.6315
     6.6382   6.6411   6.6494   6.6528   6.6603   6.6623   6.6677   6.6744
     6.6834   6.6857   6.6934   6.6960   6.7085   6.7235   7.5080   7.5141
     7.5166   8.0621   8.0665   8.1105   8.1210   8.1579   8.1718   8.1824
     8.2393   8.2662   8.3634   8.4211   8.4405   8.4653   8.4814   8.5142
     8.5229   8.6255   8.6558   8.6786   8.7050   8.7243   8.7667   8.7676
     8.7822   8.8008   8.8143   8.8277   8.8328   8.8485   8.8644   8.8679
     8.8771   8.9009   8.9101   8.9181   8.9321   8.9355   8.9449   8.9539
     8.9631   8.9828   8.9919   9.0142   9.0205   9.0285   9.0590   9.0634
     9.0763   9.1667   9.5968   9.6022   9.6357   9.6474   9.6651   9.6812
     9.7021   9.7314   9.7556   9.7828   9.8054   9.8394  10.0173  10.0309
    10.0364  10.3594  10.3892  10.4360  10.4541  10.4958  10.5477  10.9012
    10.9082  10.9222  10.9335  10.9482  10.9592  10.9675  10.9775  10.9929
    10.9990  11.0097  11.0118  11.0200  11.0228  11.0370  11.0510  11.0600
    11.0880  11.0954  11.1051  11.1109  11.1269  11.1401  11.1714  11.7211
    11.7350  11.7430  11.7645  11.7720  11.7721  11.7928  11.8049  11.8131
    11.8158  11.8279  11.8363  11.8432  11.8463  11.8544  11.8615  11.8688
    11.8777  11.8916  11.9004  11.9049  11.9135  11.9196  11.9267  11.9434
    11.9509

     occupation numbers 
     1.0000   1.0000   1.0000   1.0000   1.0000   1.0000   1.0000   1.0000
     1.0000   1.0000   1.0000   1.0000   1.0000   1.0000   1.0000   1.0000
     1.0000   1.0000   1.0000   1.0000   1.0000   1.0000   1.0000   1.0000
     1.0000   1.0000   1.0000   1.0000   1.0000   1.0000   1.0000   1.0000
     1.0000   1.0000   1.0000   1.0000   1.0000   1.0000   1.0000   1.0000
     1.0000   1.0000   1.0000   1.0000   1.0000   1.0000   1.0000   1.0000
     1.0000   1.0000   1.0000   1.0000   1.0000   1.0000   1.0000   1.0000
     1.0000   1.0000   1.0000   1.0000   1.0000   1.0000   1.0000   1.0000
     1.0000   1.0000   1.0000   1.0000   1.0000   1.0000   1.0000   1.0000
     1.0000   1.0000   1.0000   1.0000   1.0000   1.0000   1.0000   1.0000
     1.0000   1.0000   1.0000   1.0000   1.0000   1.0000   1.0000   1.0000
     1.0000   1.0000   1.0000   1.0000   1.0000   1.0000   1.0000   1.0000
     1.0000   1.0000   1.0000   1.0000   1.0000   1.0000   1.0000   1.0000
     1.0000   1.0000   1.0000   1.0000   1.0000   1.0000   1.0000   1.0000
     1.0000   1.0000   1.0000   1.0000   1.0000   1.0000   1.0000   1.0000
     1.0000   1.0000   1.0000   1.0000   1.0000   1.0000   1.0000   1.0000
     1.0000   1.0000   1.0000   1.0000   1.0000   1.0000   1.0000   1.0000
     1.0000   1.0000   1.0000   1.0000   1.0000   1.0000   1.0000   1.0000
     1.0000   1.0000   1.0000   1.0000   1.0000   1.0000   1.0000   1.0000
     1.0000   1.0000   1.0000   1.0000   1.0000   1.0000   1.0000   1.0000
     1.0000   1.0000   1.0000   1.0000   1.0000   1.0000   1.0000   1.0000
     1.0000   1.0000   1.0000   1.0000   1.0000   1.0000   1.0000   1.0000
     1.0000   1.0000   1.0000   1.0000   1.0000   1.0000   1.0000   1.0000
     1.0000   1.0000   1.0000   1.0000   1.0000   1.0000   1.0000   1.0000
     1.0000   1.0000   1.0000   1.0000   1.0000   1.0000   1.0000   1.0000
     1.0000   1.0000   1.0000   1.0000   1.0000   1.0000   1.0000   1.0000
     1.0000   1.0000   1.0000   1.0000   1.0000   1.0000   1.0000   1.0000
     1.0000   1.0000   1.0000   1.0000   1.0000   1.0000   1.0000   1.0000
     1.0000   1.0000   1.0000   1.0000   1.0000   1.0000   1.0000   1.0000
     1.0000   1.0000   1.0000   1.0000   1.0000   1.0000   1.0000   1.0000
     1.0000   1.0000   1.0000   1.0000   1.0000   1.0000   1.0000   1.0000
     1.0000   1.0000   1.0000   1.0000   1.0000   1.0000   1.0000   1.0000
     1.0000   1.0000   1.0000   1.0000   1.0000   1.0000   1.0000   1.0000
     1.0000   1.0000   1.0000   1.0000   1.0000   1.0000   1.0000   1.0000
     1.0000   1.0000   1.0000   1.0000   1.0000   1.0000   1.0000   1.0000
     1.0000   1.0000   1.0000   1.0000   1.0000   1.0000   1.0000   1.0000
     1.0000   1.0000   1.0000   1.0000   1.0000   1.0000   1.0000   1.0000
     1.0000   1.0000   1.0000   1.0000   1.0000   1.0000   1.0000   1.0000
     1.0000   1.0000   1.0000   1.0000   1.0000   1.0000   1.0000   1.0000
     1.0000   1.0000   1.0000   1.0000   1.0000   1.0000   1.0000   1.0000
     1.0000   1.0000   1.0000   1.0000   1.0000   1.0000   1.0000   1.0000
     1.0000   1.0000   1.0000   1.0000   1.0000   1.0000   1.0000   1.0000
     1.0000   1.0000   1.0000   1.0000   1.0000   1.0000   1.0000   1.0000
     1.0000   1.0000   1.0000   1.0000   1.0000   1.0000   1.0000   1.0000
     1.0000   1.0000   1.0000   1.0000   1.0000   1.0000   1.0000   1.0000
     1.0000   1.0000   1.0000   1.0000   1.0000   1.0000   1.0000   1.0000
     1.0000   1.0000   1.0000   1.0000   1.0000   1.0000   1.0000   1.0000
     1.0000   1.0000   1.0000   1.0000   1.0000   1.0000   1.0000   1.0000
     1.0000   1.0000   1.0000   1.0000   1.0000   1.0000   1.0000   1.0000
     1.0000   1.0000   1.0000   1.0000   1.0000   1.0000   1.0000   1.0000
     1.0000   1.0000   1.0000   1.0000   1.0000   1.0000   1.0000   1.0000
     1.0000   1.0000   1.0000   1.0000   1.0000   1.0000   1.0000   1.0000
     1.0000   1.0000   1.0000   1.0000   1.0000   1.0000   1.0000   1.0000
     1.0000   1.0000   1.0000   1.0000   1.0000   1.0000   1.0000   1.0000
     1.0000   1.0000   1.0000   1.0000   1.0000   1.0000   1.0000   1.0000
     1.0000   1.0000   1.0000   1.0000   1.0000   1.0000   1.0000   1.0000
     1.0000   1.0000   1.0000   1.0000   1.0000   1.0000   1.0000   1.0000
     1.0000   1.0000   1.0000   1.0000   1.0000   1.0000   1.0000   1.0000
     1.0000   1.0000   1.0000   1.0000   1.0000   1.0000   1.0000   1.0000
     1.0000   1.0000   1.0000   1.0000   1.0000   1.0000   1.0000   1.0000
     1.0000   1.0000   1.0000   1.0000   1.0000   1.0000   1.0000   1.0000
     1.0000   1.0000   1.0000   1.0000   1.0000   1.0000   1.0000   1.0000
     1.0000   1.0000   1.0000   1.0000   1.0000   1.0000   1.0000   1.0000
     1.0000   1.0000   1.0000   1.0000   1.0000   1.0000   1.0000   1.0000
     1.0000   1.0000   1.0000   1.0000   1.0000   1.0000   1.0000   1.0000
     1.0000   1.0000   1.0000   1.0000   1.0000   1.0000   1.0000   1.0000
     1.0000   1.0000   1.0000   1.0000   1.0000   1.0000   1.0000   1.0000
     1.0000   1.0000   1.0000   1.0000   1.0000   1.0000   1.0000   1.0000
     1.0000   1.0000   1.0000   1.0000   1.0000   1.0000   1.0000   1.0000
     1.0000   1.0000   1.0000   1.0000   1.0000   1.0000   1.0000   1.0000
     1.0000   1.0000   1.0000   1.0000   1.0000   1.0000   1.0000   1.0000
     1.0000   1.0000   1.0000   1.0000   1.0000   1.0000   1.0000   1.0000
     1.0000   1.0000   1.0000   1.0000   1.0000   1.0000   1.0000   1.0000
     1.0000   1.0000   1.0000   1.0000   1.0000   1.0000   1.0000   1.0000
     1.0000   1.0000   1.0000   1.0000   1.0000   1.0000   0.9339   0.9283
     0.9258   0.0098   0.0090   0.0038   0.0030   0.0014   0.0010   0.0008
     0.0002   0.0001   0.0000   0.0000   0.0000   0.0000   0.0000   0.0000
     0.0000   0.0000   0.0000   0.0000   0.0000   0.0000   0.0000   0.0000
     0.0000   0.0000   0.0000   0.0000   0.0000   0.0000   0.0000   0.0000
     0.0000   0.0000   0.0000   0.0000   0.0000   0.0000   0.0000   0.0000
     0.0000   0.0000   0.0000   0.0000   0.0000   0.0000   0.0000   0.0000
     0.0000   0.0000   0.0000   0.0000   0.0000   0.0000   0.0000   0.0000
     0.0000   0.0000   0.0000   0.0000   0.0000   0.0000   0.0000   0.0000
     0.0000   0.0000   0.0000   0.0000   0.0000   0.0000   0.0000   0.0000
     0.0000   0.0000   0.0000   0.0000   0.0000   0.0000   0.0000   0.0000
     0.0000   0.0000   0.0000   0.0000   0.0000   0.0000   0.0000   0.0000
     0.0000   0.0000   0.0000   0.0000   0.0000   0.0000   0.0000   0.0000
     0.0000   0.0000   0.0000   0.0000   0.0000   0.0000   0.0000   0.0000
     0.0000   0.0000   0.0000   0.0000   0.0000   0.0000   0.0000   0.0000
     0.0000   0.0000   0.0000   0.0000   0.0000   0.0000   0.0000   0.0000
     0.0000

          k =-0.3536-0.3536 0.3536 ( 64114 PWs)   bands (ev):

   -17.2148 -17.2133 -17.2122 -17.2117 -17.2098 -17.2053 -17.2042 -17.2038
   -17.2014 -17.2003 -17.1972 -17.1957 -17.1951 -17.1900 -17.1884 -17.1869
   -17.1840 -17.1812 -17.1805 -17.1768 -17.1759 -17.1746 -17.1717 -17.1685
   -17.1652 -17.1625 -17.1620 -17.1595 -17.1573 -17.1559 -17.1553 -17.1548
   -17.1533 -17.1508 -17.1497 -17.1484 -17.1473 -17.1440 -17.1434 -17.1366
   -17.1349 -17.1316 -17.1275 -17.1255 -17.1243 -17.1222 -17.1194 -17.1176
   -17.1165 -17.1146 -17.1077 -17.1071 -17.1055 -17.1038 -17.1019 -17.1007
   -17.0996 -17.0961 -17.0959 -17.0947 -17.0925 -17.0920 -17.0901 -17.0891
   -17.0883 -17.0868 -17.0848 -17.0842 -17.0833 -17.0829 -17.0801 -17.0799
   -17.0791 -17.0763 -17.0755 -17.0743 -17.0731 -17.0714 -17.0706 -17.0683
   -17.0662 -17.0648 -17.0615 -17.0600 -17.0520 -17.0500 -17.0498 -17.0493
   -17.0477 -17.0463 -17.0456 -17.0446 -17.0440 -17.0417 -17.0409 -17.0404
   -17.0386 -17.0376 -17.0364 -17.0338 -17.0331 -17.0313 -17.0282 -17.0278
   -17.0264 -17.0247 -17.0243 -17.0220 -17.0208 -17.0174 -17.0165 -17.0159
   -17.0147 -17.0139 -17.0120 -17.0114 -17.0106 -17.0098 -17.0088 -17.0067
   -17.0054 -17.0050 -17.0040 -17.0034 -17.0027 -17.0020 -17.0011 -17.0009
   -16.9994 -16.9985 -16.9965 -16.9953 -16.9948 -16.9940 -16.9932 -16.9922
   -16.9907 -16.9901 -16.9895 -16.9888 -16.9862 -16.9837 -16.9824 -16.9802
   -16.9801 -16.9781 -16.9764 -16.9754 -16.9726 -16.9719 -16.9706 -16.9704
   -16.9658 -16.9653 -16.9647 -16.9606 -16.9593 -16.9584 -16.9564 -16.9551
   -16.9539 -16.9533 -16.9524 -16.9510 -16.9505 -16.9499 -16.9495 -16.9482
   -16.9476 -16.9442 -16.9430 -16.9419 -16.9411 -16.9400 -16.9386 -16.9376
   -16.9368 -16.9363 -16.9361 -16.9344 -16.9331 -16.9323 -16.9314 -16.9305
   -16.9299 -16.9291 -16.9287 -16.9284 -16.9281 -16.9272 -16.9268 -16.9266
   -16.9254 -16.9251 -16.9240 -16.9235 -16.9228 -16.9224 -16.9221 -16.9215
   -16.9210 -16.9207 -16.9205 -16.9197 -16.9193 -16.9190 -16.9182 -16.9181
   -16.9179 -16.9170 -16.9167 -16.9165 -16.9160 -16.9158 -16.9154 -16.9151
   -16.9146 -16.9142 -16.9140 -16.9135 -16.9135 -16.9129 -16.9127 -16.9117
   -16.9114 -16.9110 -16.9103 -16.9097 -16.9095 -16.9089 -16.9088 -16.9079
   -16.9069 -16.9058 -16.9054 -16.9045 -16.9044 -16.9040 -16.9034 -16.9030
   -16.9018 -16.9017 -16.8997 -16.8990 -16.8969 -16.8965 -16.8957 -16.8955
   -16.8947 -16.8940 -16.8938 -16.8928 -16.8915 -16.8910 -16.8906 -16.8897
   -16.8895 -16.8893 -16.8887 -16.8878 -16.8874 -16.8870 -16.8869 -16.8862
   -16.8855 -16.8852 -16.8843 -16.8839 -16.8825 -16.8820 -16.8812 -16.8810
   -16.8809 -16.8804 -16.8798 -16.8786 -16.8785 -16.8773 -16.8773 -16.8765
   -16.8759 -16.8758 -16.8750 -16.8736 -16.8732 -16.8725 -16.8719 -16.8704
   -16.8690 -16.8679 -16.8664 -16.8654 -16.8638 -16.8637 -16.8631 -16.8629
   -16.8606 -16.8564 -16.8554 -16.8543 -16.8530 -16.8519 -16.8487 -16.8471
   -16.8463 -16.8440 -16.8428 -16.8407 -16.8400 -16.8395 -16.8383 -16.8379
   -16.8327 -16.8314 -16.8303 -16.8288 -16.8280 -16.8248 -16.8232 -16.8221
   -16.8219 -16.8206 -16.8205 -16.8194 -16.8171 -16.8162 -16.8153 -16.8136
   -16.8121 -16.8116 -16.8111 -16.8100 -16.8092 -16.8075 -16.8067 -16.8064
   -16.8059 -16.8052 -16.8044 -16.8036 -16.8032 -16.8014 -16.8008 -16.7997
   -16.7927  -4.9577  -4.8530  -4.5398  -4.4621  -4.4190  -4.3107  -4.3022
    -4.2516  -4.0079  -3.9974  -3.9019  -3.8725  -3.7726  -3.7395  -3.5372
    -3.5232  -3.4095  -3.4000  -3.3693  -3.2870  -3.2499  -3.2385  -3.1152
    -3.0606  -3.0523  -2.9996  -2.9598  -2.9307  -2.8988  -2.8404  -2.8149
    -2.7777  -2.7445  -2.7101  -2.6797  -2.6709  -2.6534  -2.5567  -2.5213
    -2.4539  -2.3372  -2.3039  -2.2446  -2.1314  -2.0786  -2.0189  -1.9455
    -1.8986  -1.8508  -1.8311  -1.8102  -1.7620  -1.7154  -1.6900  -1.6384
    -1.6260  -1.5954  -1.5476  -1.4985  -1.4539  -1.4466  -1.4307  -1.3793
    -1.2920  -0.2859  -0.2607  -0.2230  -0.2094  -0.1898  -0.1623  -0.1276
    -0.0934  -0.0833  -0.0729  -0.0489   0.0078   0.0306   0.0528   0.1178
     0.1281   0.1981   0.2068   0.2321   0.2566   0.2824   0.3136   0.3638
     0.3862   0.4135   0.4510   0.4693   0.4863   0.5199   0.5493   0.9539
     0.9643   1.0413   1.0576   1.0938   1.1062   1.1584   1.1614   1.1806
     1.2160   1.2658   1.2937   1.3076   1.3283   1.8595   1.9283   1.9732
     1.9989   2.0126   2.1062   2.3542   2.3827   2.4447   2.4551   2.4934
     2.5338   3.2926   3.2956   3.2986   3.3052   3.3063   3.3070   3.3139
     3.3147   3.3197   3.3217   3.3280   3.3298   3.3321   3.3376   3.3438
     3.3521   3.3560   3.3598   3.6923   3.7735   3.7918   3.8621   3.8645
     3.8971   3.9201   3.9206   3.9243   3.9271   3.9331   3.9414   3.9702
     3.9729   3.9813   3.9847   3.9878   3.9933   3.9979   4.0063   4.0099
     4.0173   4.0212   4.0319   4.4030   4.4043   4.4090   4.4118   4.4137
     4.4151   4.4167   4.4170   4.4204   4.4217   4.4247   4.4261   4.6444
     4.6478   4.6546   4.6564   4.6585   4.6612   4.6658   4.6705   4.6753
     4.6816   4.6905   4.6913   4.9551   4.9604   4.9654   4.9734   4.9916
     5.0072   5.0109   5.0144   5.0203   5.0245   5.0364   5.0444   5.1493
     5.1530   5.1547   5.1559   5.1614   5.1731   5.4294   5.4312   5.4366
     5.4392   5.4414   5.4444   5.4471   5.4504   5.4545   5.4555   5.4598
     5.4648   5.4717   5.4735   5.4786   5.4813   5.4881   5.4888   5.5594
     5.6217   5.7873   5.7975   5.8033   5.8104   5.8183   5.8347   6.0591
     6.0704   6.0724   6.0766   6.0785   6.0833   6.1033   6.1105   6.1129
     6.1162   6.1217   6.1273   6.2914   6.3002   6.3089   6.3106   6.6097
     6.6166   6.6336   6.6434   6.6533   6.6664   7.1702   7.1823   7.2026
     7.2069   8.2362   8.2575   8.3003   8.3201   8.3370   8.3503   8.3805
     8.4195   8.6824   8.6861   8.7219   8.7367   8.7410   8.7671   9.0975
     9.1088   9.1188   9.1387   9.1538   9.1735   9.1931   9.2132   9.2184
     9.2485   9.2559   9.2828   9.3180   9.3219   9.3587   9.3916   9.3983
     9.4166   9.4465   9.4543   9.4860   9.4926   9.4976   9.5123   9.5326
     9.5422   9.5585   9.5935   9.6227   9.6558   9.6838   9.7114   9.7155
     9.7530   9.7638   9.7858   9.7944   9.7975   9.8216   9.8293   9.8480
     9.8637   9.8826   9.9082  10.1054  10.1345  10.1546  10.1631  10.1710
    10.1828  10.1967  10.2031  10.2206  10.2297  10.2436  10.2465  10.2753
    10.2956  10.3096  10.3253  10.3508  10.3850  10.4343  10.4592  10.4876
    10.4938  10.6021  10.6138  10.6338  10.6489  10.6586  10.6703  10.8179
    10.8435  10.8613  10.8679  10.8852  10.8918  10.8943  10.9083  10.9320
    10.9378  10.9434  10.9548  10.9704  10.9734  10.9934  11.0071  11.0288
    11.0413  11.0584  11.0852  11.1082  11.1237  11.1511  11.1923  11.2073
    11.2366  11.2724  11.2827  11.2956  11.3056  11.3217  11.3610  11.3835
    11.4206

     occupation numbers 
     1.0000   1.0000   1.0000   1.0000   1.0000   1.0000   1.0000   1.0000
     1.0000   1.0000   1.0000   1.0000   1.0000   1.0000   1.0000   1.0000
     1.0000   1.0000   1.0000   1.0000   1.0000   1.0000   1.0000   1.0000
     1.0000   1.0000   1.0000   1.0000   1.0000   1.0000   1.0000   1.0000
     1.0000   1.0000   1.0000   1.0000   1.0000   1.0000   1.0000   1.0000
     1.0000   1.0000   1.0000   1.0000   1.0000   1.0000   1.0000   1.0000
     1.0000   1.0000   1.0000   1.0000   1.0000   1.0000   1.0000   1.0000
     1.0000   1.0000   1.0000   1.0000   1.0000   1.0000   1.0000   1.0000
     1.0000   1.0000   1.0000   1.0000   1.0000   1.0000   1.0000   1.0000
     1.0000   1.0000   1.0000   1.0000   1.0000   1.0000   1.0000   1.0000
     1.0000   1.0000   1.0000   1.0000   1.0000   1.0000   1.0000   1.0000
     1.0000   1.0000   1.0000   1.0000   1.0000   1.0000   1.0000   1.0000
     1.0000   1.0000   1.0000   1.0000   1.0000   1.0000   1.0000   1.0000
     1.0000   1.0000   1.0000   1.0000   1.0000   1.0000   1.0000   1.0000
     1.0000   1.0000   1.0000   1.0000   1.0000   1.0000   1.0000   1.0000
     1.0000   1.0000   1.0000   1.0000   1.0000   1.0000   1.0000   1.0000
     1.0000   1.0000   1.0000   1.0000   1.0000   1.0000   1.0000   1.0000
     1.0000   1.0000   1.0000   1.0000   1.0000   1.0000   1.0000   1.0000
     1.0000   1.0000   1.0000   1.0000   1.0000   1.0000   1.0000   1.0000
     1.0000   1.0000   1.0000   1.0000   1.0000   1.0000   1.0000   1.0000
     1.0000   1.0000   1.0000   1.0000   1.0000   1.0000   1.0000   1.0000
     1.0000   1.0000   1.0000   1.0000   1.0000   1.0000   1.0000   1.0000
     1.0000   1.0000   1.0000   1.0000   1.0000   1.0000   1.0000   1.0000
     1.0000   1.0000   1.0000   1.0000   1.0000   1.0000   1.0000   1.0000
     1.0000   1.0000   1.0000   1.0000   1.0000   1.0000   1.0000   1.0000
     1.0000   1.0000   1.0000   1.0000   1.0000   1.0000   1.0000   1.0000
     1.0000   1.0000   1.0000   1.0000   1.0000   1.0000   1.0000   1.0000
     1.0000   1.0000   1.0000   1.0000   1.0000   1.0000   1.0000   1.0000
     1.0000   1.0000   1.0000   1.0000   1.0000   1.0000   1.0000   1.0000
     1.0000   1.0000   1.0000   1.0000   1.0000   1.0000   1.0000   1.0000
     1.0000   1.0000   1.0000   1.0000   1.0000   1.0000   1.0000   1.0000
     1.0000   1.0000   1.0000   1.0000   1.0000   1.0000   1.0000   1.0000
     1.0000   1.0000   1.0000   1.0000   1.0000   1.0000   1.0000   1.0000
     1.0000   1.0000   1.0000   1.0000   1.0000   1.0000   1.0000   1.0000
     1.0000   1.0000   1.0000   1.0000   1.0000   1.0000   1.0000   1.0000
     1.0000   1.0000   1.0000   1.0000   1.0000   1.0000   1.0000   1.0000
     1.0000   1.0000   1.0000   1.0000   1.0000   1.0000   1.0000   1.0000
     1.0000   1.0000   1.0000   1.0000   1.0000   1.0000   1.0000   1.0000
     1.0000   1.0000   1.0000   1.0000   1.0000   1.0000   1.0000   1.0000
     1.0000   1.0000   1.0000   1.0000   1.0000   1.0000   1.0000   1.0000
     1.0000   1.0000   1.0000   1.0000   1.0000   1.0000   1.0000   1.0000
     1.0000   1.0000   1.0000   1.0000   1.0000   1.0000   1.0000   1.0000
     1.0000   1.0000   1.0000   1.0000   1.0000   1.0000   1.0000   1.0000
     1.0000   1.0000   1.0000   1.0000   1.0000   1.0000   1.0000   1.0000
     1.0000   1.0000   1.0000   1.0000   1.0000   1.0000   1.0000   1.0000
     1.0000   1.0000   1.0000   1.0000   1.0000   1.0000   1.0000   1.0000
     1.0000   1.0000   1.0000   1.0000   1.0000   1.0000   1.0000   1.0000
     1.0000   1.0000   1.0000   1.0000   1.0000   1.0000   1.0000   1.0000
     1.0000   1.0000   1.0000   1.0000   1.0000   1.0000   1.0000   1.0000
     1.0000   1.0000   1.0000   1.0000   1.0000   1.0000   1.0000   1.0000
     1.0000   1.0000   1.0000   1.0000   1.0000   1.0000   1.0000   1.0000
     1.0000   1.0000   1.0000   1.0000   1.0000   1.0000   1.0000   1.0000
     1.0000   1.0000   1.0000   1.0000   1.0000   1.0000   1.0000   1.0000
     1.0000   1.0000   1.0000   1.0000   1.0000   1.0000   1.0000   1.0000
     1.0000   1.0000   1.0000   1.0000   1.0000   1.0000   1.0000   1.0000
     1.0000   1.0000   1.0000   1.0000   1.0000   1.0000   1.0000   1.0000
     1.0000   1.0000   1.0000   1.0000   1.0000   1.0000   1.0000   1.0000
     1.0000   1.0000   1.0000   1.0000   1.0000   1.0000   1.0000   1.0000
     1.0000   1.0000   1.0000   1.0000   1.0000   1.0000   1.0000   1.0000
     1.0000   1.0000   1.0000   1.0000   1.0000   1.0000   1.0000   1.0000
     1.0000   1.0000   1.0000   1.0000   1.0000   1.0000   1.0000   1.0000
     1.0000   1.0000   1.0000   1.0000   1.0000   1.0000   1.0000   1.0000
     1.0000   1.0000   1.0000   1.0000   1.0000   1.0000   1.0000   1.0000
     1.0000   1.0000   1.0000   1.0000   1.0000   1.0000   1.0000   1.0000
     1.0000   1.0000   1.0000   1.0000   1.0000   1.0000   1.0000   1.0000
     1.0000   1.0000   1.0000   1.0000   1.0000   1.0000   1.0000   1.0000
     1.0000   1.0000   1.0000   1.0000   1.0000   1.0000   1.0000   1.0000
     1.0000   1.0000   1.0000   1.0000   1.0000   1.0000   1.0000   1.0000
     1.0000   1.0000   1.0000   1.0000   1.0000   1.0000   1.0000   1.0000
     1.0000   1.0000   1.0000   1.0000   1.0000   1.0000   1.0000   1.0000
     1.0000   1.0000   1.0000   1.0000   1.0000   1.0000   1.0000   1.0000
     1.0000   1.0000   1.0000   1.0000   1.0000   1.0000   1.0000   1.0000
     1.0000   1.0000   1.0000   1.0000   1.0000   1.0000   1.0000   1.0000
     1.0000   1.0000   1.0000   1.0000   1.0000   1.0000   1.0000   1.0000
     1.0000   1.0000   1.0000   1.0000   1.0000   0.9999   0.9999   0.9999
     0.9998   0.0002   0.0001   0.0000   0.0000   0.0000   0.0000   0.0000
     0.0000   0.0000   0.0000   0.0000   0.0000   0.0000   0.0000   0.0000
     0.0000   0.0000   0.0000   0.0000   0.0000   0.0000   0.0000   0.0000
     0.0000   0.0000   0.0000   0.0000   0.0000   0.0000   0.0000   0.0000
     0.0000   0.0000   0.0000   0.0000   0.0000   0.0000   0.0000   0.0000
     0.0000   0.0000   0.0000   0.0000   0.0000   0.0000   0.0000   0.0000
     0.0000   0.0000   0.0000   0.0000   0.0000   0.0000   0.0000   0.0000
     0.0000   0.0000   0.0000   0.0000   0.0000   0.0000   0.0000   0.0000
     0.0000   0.0000   0.0000   0.0000   0.0000   0.0000   0.0000   0.0000
     0.0000   0.0000   0.0000   0.0000   0.0000   0.0000   0.0000   0.0000
     0.0000   0.0000   0.0000   0.0000   0.0000   0.0000   0.0000   0.0000
     0.0000   0.0000   0.0000   0.0000   0.0000   0.0000   0.0000   0.0000
     0.0000   0.0000   0.0000   0.0000   0.0000   0.0000   0.0000   0.0000
     0.0000   0.0000   0.0000   0.0000   0.0000   0.0000   0.0000   0.0000
     0.0000   0.0000   0.0000   0.0000   0.0000   0.0000   0.0000   0.0000
     0.0000

          k =-0.7071 0.0000 0.0000 ( 64192 PWs)   bands (ev):

   -17.2147 -17.2131 -17.2121 -17.2115 -17.2096 -17.2048 -17.2042 -17.2028
   -17.2021 -17.2011 -17.1980 -17.1958 -17.1955 -17.1904 -17.1889 -17.1866
   -17.1839 -17.1814 -17.1803 -17.1768 -17.1763 -17.1744 -17.1711 -17.1692
   -17.1651 -17.1639 -17.1611 -17.1584 -17.1578 -17.1566 -17.1554 -17.1549
   -17.1523 -17.1515 -17.1492 -17.1485 -17.1467 -17.1442 -17.1430 -17.1368
   -17.1349 -17.1314 -17.1275 -17.1255 -17.1242 -17.1217 -17.1204 -17.1172
   -17.1157 -17.1144 -17.1082 -17.1065 -17.1059 -17.1035 -17.1014 -17.1006
   -17.0995 -17.0962 -17.0958 -17.0942 -17.0921 -17.0917 -17.0903 -17.0891
   -17.0883 -17.0867 -17.0861 -17.0846 -17.0830 -17.0827 -17.0806 -17.0794
   -17.0779 -17.0769 -17.0761 -17.0747 -17.0729 -17.0725 -17.0696 -17.0696
   -17.0660 -17.0648 -17.0615 -17.0601 -17.0524 -17.0515 -17.0498 -17.0494
   -17.0477 -17.0464 -17.0457 -17.0446 -17.0435 -17.0414 -17.0409 -17.0398
   -17.0388 -17.0374 -17.0362 -17.0343 -17.0334 -17.0312 -17.0300 -17.0282
   -17.0258 -17.0247 -17.0240 -17.0222 -17.0202 -17.0179 -17.0165 -17.0159
   -17.0145 -17.0124 -17.0120 -17.0117 -17.0103 -17.0090 -17.0075 -17.0072
   -17.0056 -17.0051 -17.0044 -17.0039 -17.0027 -17.0019 -17.0016 -17.0007
   -16.9986 -16.9980 -16.9975 -16.9958 -16.9945 -16.9937 -16.9928 -16.9914
   -16.9909 -16.9904 -16.9898 -16.9884 -16.9866 -16.9845 -16.9830 -16.9807
   -16.9800 -16.9781 -16.9758 -16.9753 -16.9736 -16.9719 -16.9713 -16.9694
   -16.9663 -16.9657 -16.9630 -16.9610 -16.9594 -16.9584 -16.9569 -16.9546
   -16.9538 -16.9534 -16.9516 -16.9507 -16.9503 -16.9496 -16.9490 -16.9479
   -16.9469 -16.9446 -16.9436 -16.9424 -16.9423 -16.9403 -16.9387 -16.9369
   -16.9366 -16.9361 -16.9356 -16.9345 -16.9329 -16.9322 -16.9319 -16.9300
   -16.9296 -16.9291 -16.9286 -16.9284 -16.9281 -16.9275 -16.9271 -16.9260
   -16.9260 -16.9244 -16.9240 -16.9234 -16.9228 -16.9221 -16.9217 -16.9214
   -16.9209 -16.9207 -16.9203 -16.9197 -16.9194 -16.9186 -16.9182 -16.9177
   -16.9176 -16.9171 -16.9169 -16.9168 -16.9162 -16.9159 -16.9157 -16.9154
   -16.9146 -16.9144 -16.9141 -16.9134 -16.9131 -16.9128 -16.9124 -16.9120
   -16.9116 -16.9108 -16.9104 -16.9102 -16.9099 -16.9089 -16.9087 -16.9084
   -16.9078 -16.9065 -16.9056 -16.9049 -16.9042 -16.9040 -16.9031 -16.9023
   -16.9020 -16.9015 -16.8994 -16.8983 -16.8976 -16.8970 -16.8957 -16.8947
   -16.8944 -16.8940 -16.8934 -16.8926 -16.8917 -16.8915 -16.8908 -16.8898
   -16.8894 -16.8893 -16.8886 -16.8884 -16.8873 -16.8872 -16.8870 -16.8863
   -16.8856 -16.8852 -16.8843 -16.8835 -16.8828 -16.8818 -16.8817 -16.8810
   -16.8809 -16.8801 -16.8792 -16.8787 -16.8783 -16.8775 -16.8770 -16.8767
   -16.8764 -16.8757 -16.8754 -16.8737 -16.8734 -16.8725 -16.8720 -16.8707
   -16.8689 -16.8675 -16.8663 -16.8658 -16.8640 -16.8637 -16.8635 -16.8618
   -16.8599 -16.8564 -16.8557 -16.8537 -16.8534 -16.8515 -16.8496 -16.8467
   -16.8463 -16.8443 -16.8431 -16.8407 -16.8400 -16.8392 -16.8388 -16.8377
   -16.8323 -16.8314 -16.8293 -16.8282 -16.8278 -16.8246 -16.8237 -16.8223
   -16.8217 -16.8209 -16.8202 -16.8195 -16.8174 -16.8163 -16.8156 -16.8140
   -16.8126 -16.8113 -16.8107 -16.8098 -16.8093 -16.8075 -16.8069 -16.8065
   -16.8062 -16.8052 -16.8045 -16.8037 -16.8031 -16.8014 -16.8008 -16.7997
   -16.7927  -4.8843  -4.8301  -4.6434  -4.6063  -4.5088  -4.5012  -3.9597
    -3.9263  -3.9049  -3.8599  -3.8462  -3.8013  -3.7824  -3.7195  -3.7047
    -3.6478  -3.5621  -3.5095  -3.5081  -3.4671  -3.3881  -3.3207  -3.1338
    -3.0954  -3.0278  -2.9996  -2.9309  -2.8863  -2.8282  -2.7972  -2.7728
    -2.6740  -2.6514  -2.6397  -2.5986  -2.5278  -2.5114  -2.4272  -2.3879
    -2.3742  -2.3479  -2.2951  -2.2656  -2.2260  -2.2233  -2.1645  -2.1126
    -2.0552  -2.0049  -1.9905  -1.9194  -1.9049  -1.8547  -1.8204  -1.8001
    -1.7790  -1.4104  -1.3747  -1.2890  -1.2619  -0.9894  -0.9303  -0.9253
    -0.8756  -0.8589  -0.7939  -0.7690  -0.7218  -0.3816  -0.3495  -0.3404
    -0.3135   0.0317   0.0734   0.1120   0.1432   0.1703   0.1912   0.2310
     0.2457   0.2791   0.3170   0.3515   0.3765   0.3854   0.3957   0.4232
     0.4771   0.6081   0.6319   0.6579   0.7121   0.7216   0.7289   0.7797
     0.7866   0.8330   0.8524   0.9297   0.9304   0.9465   1.0078   1.0611
     1.1024   1.2104   1.2200   1.6783   1.7066   1.7100   1.7759   1.8133
     1.8278   1.8615   1.8918   2.5687   2.5918   2.6150   2.6746   2.7076
     2.7389   2.7488   2.7823   3.0874   3.0893   3.0925   3.0943   3.1452
     3.1463   3.1503   3.1545   3.1554   3.1578   3.1620   3.1653   3.8069
     3.8141   3.8194   3.8319   3.8357   3.8417   3.8486   3.8599   3.9401
     3.9448   3.9458   3.9466   3.9495   3.9516   3.9549   3.9599   3.9876
     3.9906   3.9913   3.9950   3.9974   3.9992   4.0027   4.0056   4.3136
     4.3601   4.3903   4.4172   4.6091   4.6108   4.6128   4.6147   4.6164
     4.6186   4.6187   4.6211   4.6388   4.6424   4.6493   4.6531   4.6575
     4.6582   4.6663   4.6696   4.7348   4.7360   4.7433   4.7448   4.7772
     4.7843   4.7869   4.7875   4.7909   4.7917   4.7928   4.7961   4.7982
     4.8069   4.8115   4.8179   4.8263   4.8395   4.8425   4.8512   4.9204
     4.9228   4.9250   4.9252   5.2077   5.2099   5.2142   5.2161   5.2191
     5.2270   5.2274   5.2291   5.4024   5.4219   5.4266   5.4370   5.4516
     5.4616   5.4654   5.4816   5.7024   5.7219   5.7639   5.7679   5.7774
     5.7804   5.7851   5.7912   5.7920   5.7964   5.8054   5.8106   5.8127
     5.8184   5.9280   5.9353   5.9392   5.9460   5.9552   5.9617   5.9691
     5.9705   6.1033   6.1059   6.1065   6.1156   6.1167   6.1207   6.1287
     6.1329   6.6421   6.6442   6.6481   6.6525   7.1511   7.1534   7.1751
     7.1824   7.9829   8.0089   8.5727   8.5826   8.6018   8.6088   8.9558
     8.9749   9.2000   9.2069   9.2339   9.2475   9.2587   9.2669   9.2748
     9.2807   9.2987   9.3044   9.3127   9.3228   9.3254   9.3400   9.3467
     9.3547   9.3607   9.3680   9.3766   9.3836   9.3903   9.3967   9.4061
     9.4167   9.4320   9.4388   9.4454   9.4525   9.4777   9.4970   9.5095
     9.5250   9.5313   9.5614   9.7656   9.7934   9.8112   9.8259   9.8359
     9.8420   9.8618   9.8710   9.8832   9.9000   9.9244   9.9411  10.0035
    10.0268  10.0299  10.0681  10.0701  10.0824  10.1074  10.1113  10.1617
    10.1719  10.1792  10.1876  10.1987  10.2037  10.2282  10.2362  10.2514
    10.2633  10.2816  10.2962  10.3078  10.3266  10.3408  10.3485  10.5213
    10.5526  10.5625  10.6018  10.6418  10.6544  10.6710  10.6773  10.6906
    10.7074  10.7137  10.7350  10.7431  10.7561  10.7672  10.7761  10.8032
    10.8127  10.8241  10.8351  10.8404  10.8680  10.8703  10.8818  10.8901
    10.8951  10.9090  10.9185  10.9234  10.9428  10.9542  10.9714  10.9866
    11.0109  11.0767  11.0981  11.1076  11.1294  11.1457  11.1574  11.1665
    11.1734

     occupation numbers 
     1.0000   1.0000   1.0000   1.0000   1.0000   1.0000   1.0000   1.0000
     1.0000   1.0000   1.0000   1.0000   1.0000   1.0000   1.0000   1.0000
     1.0000   1.0000   1.0000   1.0000   1.0000   1.0000   1.0000   1.0000
     1.0000   1.0000   1.0000   1.0000   1.0000   1.0000   1.0000   1.0000
     1.0000   1.0000   1.0000   1.0000   1.0000   1.0000   1.0000   1.0000
     1.0000   1.0000   1.0000   1.0000   1.0000   1.0000   1.0000   1.0000
     1.0000   1.0000   1.0000   1.0000   1.0000   1.0000   1.0000   1.0000
     1.0000   1.0000   1.0000   1.0000   1.0000   1.0000   1.0000   1.0000
     1.0000   1.0000   1.0000   1.0000   1.0000   1.0000   1.0000   1.0000
     1.0000   1.0000   1.0000   1.0000   1.0000   1.0000   1.0000   1.0000
     1.0000   1.0000   1.0000   1.0000   1.0000   1.0000   1.0000   1.0000
     1.0000   1.0000   1.0000   1.0000   1.0000   1.0000   1.0000   1.0000
     1.0000   1.0000   1.0000   1.0000   1.0000   1.0000   1.0000   1.0000
     1.0000   1.0000   1.0000   1.0000   1.0000   1.0000   1.0000   1.0000
     1.0000   1.0000   1.0000   1.0000   1.0000   1.0000   1.0000   1.0000
     1.0000   1.0000   1.0000   1.0000   1.0000   1.0000   1.0000   1.0000
     1.0000   1.0000   1.0000   1.0000   1.0000   1.0000   1.0000   1.0000
     1.0000   1.0000   1.0000   1.0000   1.0000   1.0000   1.0000   1.0000
     1.0000   1.0000   1.0000   1.0000   1.0000   1.0000   1.0000   1.0000
     1.0000   1.0000   1.0000   1.0000   1.0000   1.0000   1.0000   1.0000
     1.0000   1.0000   1.0000   1.0000   1.0000   1.0000   1.0000   1.0000
     1.0000   1.0000   1.0000   1.0000   1.0000   1.0000   1.0000   1.0000
     1.0000   1.0000   1.0000   1.0000   1.0000   1.0000   1.0000   1.0000
     1.0000   1.0000   1.0000   1.0000   1.0000   1.0000   1.0000   1.0000
     1.0000   1.0000   1.0000   1.0000   1.0000   1.0000   1.0000   1.0000
     1.0000   1.0000   1.0000   1.0000   1.0000   1.0000   1.0000   1.0000
     1.0000   1.0000   1.0000   1.0000   1.0000   1.0000   1.0000   1.0000
     1.0000   1.0000   1.0000   1.0000   1.0000   1.0000   1.0000   1.0000
     1.0000   1.0000   1.0000   1.0000   1.0000   1.0000   1.0000   1.0000
     1.0000   1.0000   1.0000   1.0000   1.0000   1.0000   1.0000   1.0000
     1.0000   1.0000   1.0000   1.0000   1.0000   1.0000   1.0000   1.0000
     1.0000   1.0000   1.0000   1.0000   1.0000   1.0000   1.0000   1.0000
     1.0000   1.0000   1.0000   1.0000   1.0000   1.0000   1.0000   1.0000
     1.0000   1.0000   1.0000   1.0000   1.0000   1.0000   1.0000   1.0000
     1.0000   1.0000   1.0000   1.0000   1.0000   1.0000   1.0000   1.0000
     1.0000   1.0000   1.0000   1.0000   1.0000   1.0000   1.0000   1.0000
     1.0000   1.0000   1.0000   1.0000   1.0000   1.0000   1.0000   1.0000
     1.0000   1.0000   1.0000   1.0000   1.0000   1.0000   1.0000   1.0000
     1.0000   1.0000   1.0000   1.0000   1.0000   1.0000   1.0000   1.0000
     1.0000   1.0000   1.0000   1.0000   1.0000   1.0000   1.0000   1.0000
     1.0000   1.0000   1.0000   1.0000   1.0000   1.0000   1.0000   1.0000
     1.0000   1.0000   1.0000   1.0000   1.0000   1.0000   1.0000   1.0000
     1.0000   1.0000   1.0000   1.0000   1.0000   1.0000   1.0000   1.0000
     1.0000   1.0000   1.0000   1.0000   1.0000   1.0000   1.0000   1.0000
     1.0000   1.0000   1.0000   1.0000   1.0000   1.0000   1.0000   1.0000
     1.0000   1.0000   1.0000   1.0000   1.0000   1.0000   1.0000   1.0000
     1.0000   1.0000   1.0000   1.0000   1.0000   1.0000   1.0000   1.0000
     1.0000   1.0000   1.0000   1.0000   1.0000   1.0000   1.0000   1.0000
     1.0000   1.0000   1.0000   1.0000   1.0000   1.0000   1.0000   1.0000
     1.0000   1.0000   1.0000   1.0000   1.0000   1.0000   1.0000   1.0000
     1.0000   1.0000   1.0000   1.0000   1.0000   1.0000   1.0000   1.0000
     1.0000   1.0000   1.0000   1.0000   1.0000   1.0000   1.0000   1.0000
     1.0000   1.0000   1.0000   1.0000   1.0000   1.0000   1.0000   1.0000
     1.0000   1.0000   1.0000   1.0000   1.0000   1.0000   1.0000   1.0000
     1.0000   1.0000   1.0000   1.0000   1.0000   1.0000   1.0000   1.0000
     1.0000   1.0000   1.0000   1.0000   1.0000   1.0000   1.0000   1.0000
     1.0000   1.0000   1.0000   1.0000   1.0000   1.0000   1.0000   1.0000
     1.0000   1.0000   1.0000   1.0000   1.0000   1.0000   1.0000   1.0000
     1.0000   1.0000   1.0000   1.0000   1.0000   1.0000   1.0000   1.0000
     1.0000   1.0000   1.0000   1.0000   1.0000   1.0000   1.0000   1.0000
     1.0000   1.0000   1.0000   1.0000   1.0000   1.0000   1.0000   1.0000
     1.0000   1.0000   1.0000   1.0000   1.0000   1.0000   1.0000   1.0000
     1.0000   1.0000   1.0000   1.0000   1.0000   1.0000   1.0000   1.0000
     1.0000   1.0000   1.0000   1.0000   1.0000   1.0000   1.0000   1.0000
     1.0000   1.0000   1.0000   1.0000   1.0000   1.0000   1.0000   1.0000
     1.0000   1.0000   1.0000   1.0000   1.0000   1.0000   1.0000   1.0000
     1.0000   1.0000   1.0000   1.0000   1.0000   1.0000   1.0000   1.0000
     1.0000   1.0000   1.0000   1.0000   1.0000   1.0000   1.0000   1.0000
     1.0000   1.0000   1.0000   1.0000   1.0000   1.0000   1.0000   1.0000
     1.0000   1.0000   1.0000   1.0000   1.0000   1.0000   1.0000   1.0000
     1.0000   1.0000   1.0000   1.0000   1.0000   1.0000   1.0000   1.0000
     1.0000   1.0000   1.0000   1.0000   1.0000   1.0000   1.0000   1.0000
     1.0000   1.0000   1.0000   1.0000   1.0000   1.0000   1.0000   1.0000
     1.0000   1.0000   1.0000   1.0000   1.0000   1.0000   1.0000   1.0000
     1.0000   1.0000   1.0000   1.0000   1.0000   1.0000   1.0000   0.9999
     0.9999   0.0371   0.0246   0.0000   0.0000   0.0000   0.0000   0.0000
     0.0000   0.0000   0.0000   0.0000   0.0000   0.0000   0.0000   0.0000
     0.0000   0.0000   0.0000   0.0000   0.0000   0.0000   0.0000   0.0000
     0.0000   0.0000   0.0000   0.0000   0.0000   0.0000   0.0000   0.0000
     0.0000   0.0000   0.0000   0.0000   0.0000   0.0000   0.0000   0.0000
     0.0000   0.0000   0.0000   0.0000   0.0000   0.0000   0.0000   0.0000
     0.0000   0.0000   0.0000   0.0000   0.0000   0.0000   0.0000   0.0000
     0.0000   0.0000   0.0000   0.0000   0.0000   0.0000   0.0000   0.0000
     0.0000   0.0000   0.0000   0.0000   0.0000   0.0000   0.0000   0.0000
     0.0000   0.0000   0.0000   0.0000   0.0000   0.0000   0.0000   0.0000
     0.0000   0.0000   0.0000   0.0000   0.0000   0.0000   0.0000   0.0000
     0.0000   0.0000   0.0000   0.0000   0.0000   0.0000   0.0000   0.0000
     0.0000   0.0000   0.0000   0.0000   0.0000   0.0000   0.0000   0.0000
     0.0000   0.0000   0.0000   0.0000   0.0000   0.0000   0.0000   0.0000
     0.0000   0.0000   0.0000   0.0000   0.0000   0.0000   0.0000   0.0000
     0.0000

          k = 0.3536 0.3536 0.3536 ( 64114 PWs)   bands (ev):

   -17.2148 -17.2132 -17.2122 -17.2117 -17.2098 -17.2053 -17.2042 -17.2038
   -17.2015 -17.2003 -17.1970 -17.1957 -17.1953 -17.1900 -17.1884 -17.1869
   -17.1840 -17.1814 -17.1804 -17.1768 -17.1760 -17.1747 -17.1715 -17.1685
   -17.1652 -17.1626 -17.1618 -17.1597 -17.1575 -17.1560 -17.1553 -17.1546
   -17.1527 -17.1512 -17.1496 -17.1485 -17.1473 -17.1440 -17.1435 -17.1368
   -17.1349 -17.1314 -17.1275 -17.1256 -17.1243 -17.1220 -17.1194 -17.1178
   -17.1163 -17.1144 -17.1078 -17.1070 -17.1057 -17.1045 -17.1020 -17.1010
   -17.0991 -17.0960 -17.0953 -17.0944 -17.0921 -17.0917 -17.0908 -17.0895
   -17.0882 -17.0870 -17.0856 -17.0841 -17.0834 -17.0825 -17.0801 -17.0797
   -17.0783 -17.0768 -17.0754 -17.0746 -17.0730 -17.0710 -17.0702 -17.0694
   -17.0660 -17.0645 -17.0616 -17.0598 -17.0521 -17.0502 -17.0496 -17.0493
   -17.0477 -17.0464 -17.0456 -17.0446 -17.0441 -17.0418 -17.0410 -17.0400
   -17.0388 -17.0375 -17.0364 -17.0340 -17.0331 -17.0315 -17.0281 -17.0278
   -17.0262 -17.0246 -17.0243 -17.0219 -17.0208 -17.0174 -17.0165 -17.0160
   -17.0143 -17.0138 -17.0120 -17.0113 -17.0105 -17.0093 -17.0087 -17.0072
   -17.0055 -17.0051 -17.0041 -17.0035 -17.0027 -17.0021 -17.0014 -17.0006
   -16.9997 -16.9985 -16.9966 -16.9961 -16.9946 -16.9940 -16.9932 -16.9912
   -16.9905 -16.9900 -16.9896 -16.9885 -16.9867 -16.9839 -16.9831 -16.9802
   -16.9794 -16.9780 -16.9761 -16.9752 -16.9730 -16.9722 -16.9708 -16.9702
   -16.9662 -16.9657 -16.9648 -16.9608 -16.9597 -16.9571 -16.9563 -16.9552
   -16.9540 -16.9537 -16.9526 -16.9508 -16.9506 -16.9495 -16.9493 -16.9482
   -16.9465 -16.9443 -16.9435 -16.9422 -16.9414 -16.9400 -16.9387 -16.9373
[...]
     atom   77 type  2   force =   0.00000000E+00  0.00000000E+00  0.00000000E+00
     atom   78 type  1   force =   0.00000000E+00  0.00000000E+00  0.00000000E+00
     atom   79 type  1   force =   0.00000000E+00  0.00000000E+00  0.00000000E+00
     atom   80 type  1   force =   0.00000000E+00  0.00000000E+00  0.00000000E+00
     atom   81 type  2   force =   0.00000000E+00  0.00000000E+00  0.00000000E+00
     atom   82 type  2   force =   0.00000000E+00  0.00000000E+00  0.00000000E+00
     atom   83 type  2   force =   0.00000000E+00  0.00000000E+00  0.00000000E+00
     atom   84 type  2   force =   0.00000000E+00  0.00000000E+00  0.00000000E+00
     atom   85 type  1   force =   0.00000000E+00  0.00000000E+00  0.00000000E+00
     atom   86 type  2   force =   0.00000000E+00  0.00000000E+00  0.00000000E+00
     atom   87 type  1   force =   0.00000000E+00  0.00000000E+00  0.00000000E+00
     atom   88 type  1   force =   0.00000000E+00  0.00000000E+00  0.00000000E+00
     atom   89 type  2   force =   0.00000000E+00  0.00000000E+00  0.00000000E+00
     atom   90 type  1   force =   0.00000000E+00  0.00000000E+00  0.00000000E+00
     atom   91 type  2   force =   0.00000000E+00  0.00000000E+00  0.00000000E+00
     atom   92 type  2   force =   0.00000000E+00  0.00000000E+00  0.00000000E+00
     atom   93 type  2   force =   0.00000000E+00  0.00000000E+00  0.00000000E+00
     atom   94 type  1   force =   0.00000000E+00  0.00000000E+00  0.00000000E+00
     atom   95 type  1   force =   0.00000000E+00  0.00000000E+00  0.00000000E+00
     atom   96 type  1   force =   0.00000000E+00  0.00000000E+00  0.00000000E+00
     atom   97 type  1   force =   0.00000000E+00  0.00000000E+00  0.00000000E+00
     atom   98 type  2   force =   0.00000000E+00  0.00000000E+00  0.00000000E+00
     atom   99 type  2   force =   0.00000000E+00  0.00000000E+00  0.00000000E+00
     atom  100 type  1   force =   0.00000000E+00  0.00000000E+00  0.00000000E+00
     atom  101 type  2   force =   0.00000000E+00  0.00000000E+00  0.00000000E+00
     atom  102 type  2   force =   0.00000000E+00  0.00000000E+00  0.00000000E+00
     atom  103 type  2   force =   0.00000000E+00  0.00000000E+00  0.00000000E+00
     atom  104 type  1   force =   0.00000000E+00  0.00000000E+00  0.00000000E+00
     atom  105 type  2   force =   0.00000000E+00  0.00000000E+00  0.00000000E+00
     atom  106 type  2   force =   0.00000000E+00  0.00000000E+00  0.00000000E+00
     atom  107 type  2   force =   0.00000000E+00  0.00000000E+00  0.00000000E+00
     atom  108 type  2   force =   0.00000000E+00  0.00000000E+00  0.00000000E+00
     atom  109 type  2   force =   0.00000000E+00  0.00000000E+00  0.00000000E+00
     atom  110 type  2   force =   0.00000000E+00  0.00000000E+00  0.00000000E+00
     atom  111 type  1   force =   0.00000000E+00  0.00000000E+00  0.00000000E+00
     atom  112 type  2   force =   0.00000000E+00  0.00000000E+00  0.00000000E+00
     atom  113 type  1   force =   0.00000000E+00  0.00000000E+00  0.00000000E+00
     atom  114 type  1   force =   0.00000000E+00  0.00000000E+00  0.00000000E+00
     atom  115 type  1   force =   0.00000000E+00  0.00000000E+00  0.00000000E+00
     atom  116 type  2   force =   0.00000000E+00  0.00000000E+00  0.00000000E+00
     atom  117 type  1   force =   0.00000000E+00  0.00000000E+00  0.00000000E+00
     atom  118 type  2   force =   0.00000000E+00  0.00000000E+00  0.00000000E+00
     atom  119 type  2   force =   0.00000000E+00  0.00000000E+00  0.00000000E+00
     atom  120 type  1   force =   0.00000000E+00  0.00000000E+00  0.00000000E+00
     atom  121 type  1   force =   0.00000000E+00  0.00000000E+00  0.00000000E+00
     atom  122 type  2   force =   0.00000000E+00  0.00000000E+00  0.00000000E+00
     atom  123 type  1   force =   0.00000000E+00  0.00000000E+00  0.00000000E+00
     atom  124 type  1   force =   0.00000000E+00  0.00000000E+00  0.00000000E+00
     atom  125 type  2   force =   0.00000000E+00  0.00000000E+00  0.00000000E+00
     atom  126 type  2   force =   0.00000000E+00  0.00000000E+00  0.00000000E+00
     atom  127 type  1   force =   0.00000000E+00  0.00000000E+00  0.00000000E+00
     atom  128 type  1   force =   0.00000000E+00  0.00000000E+00  0.00000000E+00
     The SCF correction term to forces
     atom    1 type  2   force =  -0.13757616E-05 -0.37509233E-05 -0.50757161E-05
     atom    2 type  2   force =  -0.18229883E-05 -0.33061055E-05  0.98534775E-05
     atom    3 type  1   force =  -0.32897483E-06 -0.18557668E-05  0.12193002E-05
     atom    4 type  1   force =  -0.34946727E-06 -0.12102627E-05  0.26831031E-05
     atom    5 type  2   force =   0.32348610E-05 -0.43433424E-05  0.32859755E-05
     atom    6 type  2   force =   0.65968704E-05  0.22983362E-05  0.18173109E-05
     atom    7 type  1   force =   0.15710752E-05  0.91988761E-06 -0.14427774E-05
     atom    8 type  1   force =   0.14921791E-05  0.18382783E-06 -0.64750779E-06
     atom    9 type  1   force =   0.48225592E-06 -0.11551688E-05  0.16970488E-05
     atom   10 type  2   force =   0.24878038E-06 -0.48695678E-05  0.61053434E-05
     atom   11 type  1   force =  -0.50599045E-07 -0.13997157E-05  0.29880067E-05
     atom   12 type  1   force =   0.45547056E-07 -0.19031977E-05  0.20365546E-05
     atom   13 type  1   force =   0.11011967E-05 -0.14676457E-05  0.13276696E-05
     atom   14 type  1   force =   0.14284975E-05 -0.87791791E-06 -0.10790299E-08
     atom   15 type  2   force =   0.70151343E-05  0.19904749E-05  0.31137404E-05
     atom   16 type  1   force =   0.16484131E-05  0.11135029E-05 -0.22940920E-07
     atom   17 type  1   force =   0.53631018E-06  0.36207416E-06  0.12061183E-07
     atom   18 type  1   force =   0.79328265E-07 -0.37874657E-06 -0.83777127E-06
     atom   19 type  2   force =  -0.29216058E-05 -0.87872794E-05 -0.60689057E-06
     atom   20 type  2   force =   0.10110107E-05 -0.80852356E-05 -0.58980356E-05
     atom   21 type  1   force =   0.15503332E-07 -0.12031397E-05 -0.11286250E-05
     atom   22 type  2   force =  -0.22691215E-05  0.23958883E-05 -0.85673330E-05
     atom   23 type  2   force =   0.47681094E-05  0.60746487E-05 -0.92450022E-05
     atom   24 type  2   force =   0.38504906E-05  0.72198464E-05 -0.64823404E-05
     atom   25 type  1   force =   0.37978316E-06  0.56547747E-06 -0.20872538E-05
     atom   26 type  2   force =  -0.44437679E-05 -0.19550148E-05 -0.75917678E-05
     atom   27 type  1   force =  -0.19335087E-05 -0.24015206E-05 -0.20234054E-05
     atom   28 type  2   force =  -0.57994787E-05 -0.71772941E-05 -0.42757284E-05
     atom   29 type  1   force =  -0.56459924E-06  0.37153099E-06 -0.21605072E-05
     atom   30 type  2   force =   0.13235420E-05  0.86459451E-05 -0.44907233E-05
     atom   31 type  1   force =   0.10348817E-05  0.24661014E-05 -0.23992871E-05
     atom   32 type  1   force =   0.94162078E-06  0.16278711E-05 -0.20752843E-05
     atom   33 type  1   force =   0.30414875E-07  0.24361174E-06  0.23196971E-05
     atom   34 type  1   force =  -0.70343520E-06 -0.23770479E-06  0.24909577E-05
     atom   35 type  2   force =  -0.44273675E-05 -0.46570632E-05  0.14306080E-04
     atom   36 type  2   force =  -0.70388811E-05  0.66139836E-06  0.11742465E-04
     atom   37 type  2   force =  -0.67533468E-05  0.49588469E-05  0.45331820E-05
     atom   38 type  1   force =  -0.84084356E-06  0.48301268E-06  0.34785649E-06
     atom   39 type  2   force =   0.58163891E-05  0.26002198E-05  0.31907760E-05
     atom   40 type  1   force =   0.20289481E-05  0.13144808E-05  0.59782987E-06
     atom   41 type  2   force =  -0.25450423E-05  0.32292976E-05  0.45021024E-05
     atom   42 type  1   force =  -0.10867914E-05 -0.68867400E-06  0.73605940E-07
     atom   43 type  1   force =  -0.17158482E-05 -0.18130122E-05  0.88489737E-06
     atom   44 type  2   force =  -0.62001951E-05 -0.51905922E-05 -0.21035326E-05
     atom   45 type  1   force =   0.40080179E-06 -0.33886887E-06 -0.19814713E-06
     atom   46 type  2   force =   0.57992020E-05  0.30567408E-05 -0.26360751E-05
     atom   47 type  2   force =   0.10285612E-04  0.73837802E-05 -0.56648836E-05
     atom   48 type  2   force =   0.85370290E-06  0.55752112E-05 -0.72678962E-06
     atom   49 type  1   force =  -0.45234070E-06 -0.41250297E-06 -0.12976467E-05
     atom   50 type  2   force =  -0.63976570E-05 -0.75861980E-05 -0.23969954E-05
     atom   51 type  2   force =  -0.86143417E-06 -0.62385094E-05  0.31194975E-05
     atom   52 type  1   force =  -0.11661004E-05  0.42483252E-06  0.43233531E-06
     atom   53 type  1   force =  -0.90204250E-07  0.43392958E-06 -0.55790996E-06
     atom   54 type  2   force =   0.30059136E-06  0.68828342E-05 -0.11437849E-05
     atom   55 type  2   force =   0.41630560E-05  0.98400815E-05 -0.83908163E-05
     atom   56 type  1   force =  -0.13784511E-06  0.12296796E-05 -0.14778387E-05
     atom   57 type  2   force =   0.28341455E-06  0.81123466E-06 -0.40964528E-05
     atom   58 type  2   force =  -0.34682691E-05 -0.56426396E-05  0.80775200E-05
     atom   59 type  2   force =  -0.11127131E-04  0.24675819E-05  0.51180296E-05
     atom   60 type  2   force =  -0.39380428E-05  0.77238871E-05  0.10708085E-04
     atom   61 type  1   force =  -0.30844415E-06  0.22658057E-05  0.13357101E-05
     atom   62 type  1   force =  -0.14574272E-05  0.15321005E-05  0.10834744E-05
     atom   63 type  2   force =  -0.36259255E-05  0.17177835E-05 -0.60644357E-05
     atom   64 type  2   force =  -0.21815530E-05  0.92277958E-05 -0.23166426E-05
     atom   65 type  2   force =   0.54473471E-05  0.54466904E-05 -0.79503856E-06
     atom   66 type  1   force =  -0.23649741E-06  0.27035467E-06 -0.72882035E-06
     atom   67 type  2   force =  -0.12880546E-04  0.24051131E-06  0.20262768E-05
     atom   68 type  1   force =  -0.23856510E-05 -0.15749822E-05 -0.98993791E-06
     atom   69 type  1   force =  -0.15304623E-05 -0.28304975E-06 -0.24580737E-06
     atom   70 type  2   force =  -0.31087843E-06 -0.11313650E-05 -0.41786657E-05
     atom   71 type  2   force =   0.55168707E-05  0.39676943E-05 -0.66126429E-05
     atom   72 type  2   force =   0.11927881E-04  0.11945718E-06 -0.20837726E-05
     atom   73 type  1   force =  -0.73290973E-06  0.93478028E-07 -0.97711148E-06
     atom   74 type  2   force =  -0.89338123E-05 -0.18954239E-05  0.34371623E-06
     atom   75 type  2   force =  -0.10124957E-04 -0.76363317E-06  0.35663642E-05
     atom   76 type  2   force =  -0.49433415E-06 -0.36672829E-05  0.33091749E-05
     atom   77 type  2   force =   0.32492652E-05  0.45050677E-05  0.52982402E-05
     atom   78 type  1   force =   0.17927959E-05  0.45917251E-06 -0.19491741E-06
     atom   79 type  1   force =   0.18111963E-05  0.51729977E-06 -0.91093049E-06
     atom   80 type  1   force =   0.80982712E-06  0.27508931E-06 -0.12751314E-05
     atom   81 type  2   force =  -0.44303808E-05 -0.77947616E-06 -0.32706866E-06
     atom   82 type  2   force =  -0.39870096E-05  0.40230307E-05  0.59794542E-05
     atom   83 type  2   force =  -0.18676840E-05 -0.20585286E-05  0.33991803E-05
     atom   84 type  2   force =   0.20092922E-06  0.28245578E-05  0.89448949E-05
     atom   85 type  1   force =   0.27401282E-07  0.12489494E-05  0.12413519E-05
     atom   86 type  2   force =  -0.10384285E-05  0.18457237E-05  0.45040499E-05
     atom   87 type  1   force =  -0.21458215E-06  0.56913563E-06 -0.63412383E-06
     atom   88 type  1   force =  -0.38019540E-06  0.39353311E-06 -0.41196437E-06
     atom   89 type  2   force =   0.15156469E-05  0.29366831E-05  0.81652720E-05
     atom   90 type  1   force =   0.67240872E-06  0.70477849E-06  0.11517770E-05
     atom   91 type  2   force =  -0.14504426E-05  0.47770045E-05  0.17610468E-04
     atom   92 type  2   force =  -0.55836433E-05  0.20423582E-05  0.73184851E-05
     atom   93 type  2   force =  -0.55292987E-05 -0.27176903E-05  0.89063821E-05
     atom   94 type  1   force =  -0.15603833E-05 -0.52546177E-06 -0.84711234E-06
     atom   95 type  1   force =  -0.55854845E-06  0.10606506E-05 -0.24209036E-06
     atom   96 type  1   force =   0.78428670E-06  0.11037589E-05 -0.75312636E-06
     atom   97 type  1   force =   0.89522901E-06 -0.14442024E-06 -0.19581699E-05
     atom   98 type  2   force =  -0.26851473E-05 -0.11239999E-04 -0.15876567E-05
     atom   99 type  2   force =  -0.69620137E-05 -0.62508547E-05 -0.46734924E-05
     atom  100 type  1   force =  -0.41985296E-06 -0.16771286E-05  0.99366229E-07
     atom  101 type  2   force =   0.20690594E-05 -0.35718976E-05 -0.66302677E-06
     atom  102 type  2   force =   0.58592193E-05 -0.20076267E-05 -0.34507257E-05
     atom  103 type  2   force =   0.71852128E-05  0.60551140E-05 -0.52201175E-05
     atom  104 type  1   force =   0.22568470E-05  0.77359468E-06 -0.17351543E-05
     atom  105 type  2   force =   0.13906437E-05 -0.34103320E-06 -0.58634535E-06
     atom  106 type  2   force =  -0.32461656E-05 -0.78589158E-05  0.67719134E-05
     atom  107 type  2   force =  -0.45791621E-05 -0.81426312E-05  0.36095795E-05
     atom  108 type  2   force =   0.32753755E-05 -0.42199853E-05  0.11408022E-04
     atom  109 type  2   force =   0.83744916E-05 -0.37236900E-05 -0.21237528E-05
     atom  110 type  2   force =   0.83437223E-05 -0.17043470E-05  0.45519230E-05
     atom  111 type  1   force =   0.17416075E-05 -0.11001882E-06 -0.91389978E-06
     atom  112 type  2   force =   0.50600373E-05  0.29093708E-06 -0.54873113E-05
     atom  113 type  1   force =  -0.26621338E-06  0.52945707E-06  0.75141724E-06
     atom  114 type  1   force =   0.29726782E-06  0.28962485E-06  0.71493470E-06
     atom  115 type  1   force =   0.93512631E-06 -0.53658748E-06  0.28226538E-05
     atom  116 type  2   force =   0.42963157E-05 -0.55825875E-05  0.37695210E-05
     atom  117 type  1   force =  -0.14778208E-07 -0.13613068E-05  0.12967607E-05
     atom  118 type  2   force =  -0.65234238E-05 -0.19553531E-05 -0.35982828E-05
     atom  119 type  2   force =   0.35352144E-05  0.24195932E-05  0.40507170E-06
     atom  120 type  1   force =   0.39109175E-06  0.13309901E-05 -0.10064176E-05
     atom  121 type  1   force =   0.13758859E-05  0.11423135E-05 -0.10132421E-05
     atom  122 type  2   force =   0.38929596E-05  0.16118619E-05 -0.48868656E-05
     atom  123 type  1   force =  -0.53113376E-06 -0.93621308E-06 -0.95857021E-06
     atom  124 type  1   force =  -0.25092859E-05 -0.20224453E-05 -0.20705043E-05
     atom  125 type  2   force =  -0.66899456E-05 -0.80011592E-05 -0.77328481E-05
     atom  126 type  2   force =   0.29570836E-05  0.16667704E-05 -0.83968228E-05
     atom  127 type  1   force =   0.67809957E-06  0.13434197E-05 -0.21468702E-05
     atom  128 type  1   force =   0.14271438E-05  0.15343866E-05 -0.20718894E-05

     Total force =     0.193124     Total SCF correction =     0.000081


     entering subroutine stress ...

          total   stress  (Ry/bohr**3)                   (kbar)     P=    6.42
   0.0000436434   0.0000004675   0.0000016963          6.42      0.07      0.25
   0.0000004675   0.0000436102   0.0000003568          0.07      6.42      0.05
   0.0000016963   0.0000003568   0.0000436072          0.25      0.05      6.41

     kinetic stress (kbar)   6755.79     -0.09     -0.27
                               -0.09   6755.79     -0.06
                               -0.27     -0.06   6755.81

     local   stress (kbar)  -5062.21   2910.36    636.73
                             2910.36  -6669.97   1095.97
                              636.73   1095.97  -3675.58

     nonloc. stress (kbar)   2550.56      0.05      0.35
                                0.05   2550.55      0.07
                                0.35      0.07   2550.56

     hartree stress (kbar)  18292.79  -1438.33   -311.64
                            -1438.33  19084.46   -542.88
                             -311.64   -542.88  17606.52

     exc-cor stress (kbar)  11717.76      0.00      0.01
                                0.00  11717.76     -0.00
                                0.01     -0.00  11717.76

     corecor stress (kbar) -17755.75     -0.01     -0.01
                               -0.01 -17755.75     -0.01
                               -0.01     -0.01 -17755.75

     ewald   stress (kbar) -16492.52  -1471.91   -324.92
                            -1471.91 -15676.43   -553.03
                             -324.92   -553.03 -17192.90

     hubbard stress (kbar)      0.00      0.00      0.00
                                0.00      0.00      0.00
                                0.00      0.00      0.00

     london  stress (kbar)      0.00      0.00      0.00
                                0.00      0.00      0.00
                                0.00      0.00      0.00

     XDM     stress (kbar)      0.00      0.00      0.00
                                0.00      0.00      0.00
                                0.00      0.00      0.00

     dft-nl  stress (kbar)      0.00      0.00      0.00
                                0.00      0.00      0.00
                                0.00      0.00      0.00



     Writing output data file SiGe_zns.scf.in.super.444.a.022.save

     init_run     :    988.31s CPU    825.56s WALL (       1 calls)
     electrons    :  49262.26s CPU  41784.21s WALL (       1 calls)
     forces       :    649.12s CPU    499.66s WALL (       1 calls)
     stress       :   4047.28s CPU   4029.91s WALL (       1 calls)

     Called by init_run:
     wfcinit      :    941.47s CPU    777.67s WALL (       1 calls)
     potinit      :      0.94s CPU      1.07s WALL (       1 calls)

     Called by electrons:
     c_bands      :  44132.44s CPU  36943.54s WALL (      16 calls)
     sum_band     :   4510.72s CPU   4209.62s WALL (      16 calls)
     v_of_rho     :      8.64s CPU      9.85s WALL (      16 calls)
     v_h          :      0.58s CPU      0.73s WALL (      16 calls)
     v_xc         :      9.36s CPU     10.56s WALL (      18 calls)
     newd         :    635.47s CPU    644.62s WALL (      16 calls)
     mix_rho      :     17.44s CPU     19.53s WALL (      16 calls)

     Called by c_bands:
     init_us_2    :     55.86s CPU     56.96s WALL (     280 calls)
     cegterg      :  43844.70s CPU  36646.92s WALL (     128 calls)

     Called by sum_band:
     sum_band:bec :     17.36s CPU     17.49s WALL (     128 calls)
     addusdens    :    427.28s CPU    430.54s WALL (      16 calls)

     Called by *egterg:
     h_psi        :  17267.82s CPU  15502.17s WALL (     489 calls)
     s_psi        :   4325.67s CPU   2803.45s WALL (     489 calls)
     g_psi        :      7.90s CPU      8.95s WALL (     353 calls)
     cdiaghg      :  13689.84s CPU  12442.94s WALL (     473 calls)
     cegterg:over :   4217.92s CPU   2904.33s WALL (     353 calls)
     cegterg:upda :   1970.85s CPU   1307.48s WALL (     353 calls)
     cegterg:last :   1281.48s CPU    820.96s WALL (     128 calls)

     Called by h_psi:
     h_psi:vloc   :   8281.17s CPU   9523.42s WALL (     489 calls)
     h_psi:vnl    :   8966.44s CPU   5957.86s WALL (     489 calls)
     add_vuspsi   :   4328.91s CPU   2831.65s WALL (     489 calls)

     General routines
     calbec       :   7665.49s CPU   5436.44s WALL (     633 calls)
     fft          :    237.20s CPU    240.41s WALL (     281 calls)
     ffts         :     10.84s CPU     12.23s WALL (     454 calls)
     fftw         :   9154.23s CPU  10661.92s WALL (  537542 calls)
     interpolate  :      2.49s CPU      2.99s WALL (      32 calls)

     Parallel routines
     fft_scatter  :   6049.26s CPU   6955.84s WALL (  538277 calls)

     PWSCF        :    15h16m CPU       13h 6m WALL


   This run was terminated on:   1:58:18   4Feb2017            

=------------------------------------------------------------------------------=
   JOB DONE.
=------------------------------------------------------------------------------=
