
     Program PWSCF v.5.1 starts on  3Feb2017 at 17:12:55 

     This program is part of the open-source Quantum ESPRESSO suite
     for quantum simulation of materials; please cite
         "P. Giannozzi et al., J. Phys.:Condens. Matter 21 395502 (2009);
          URL http://www.quantum-espresso.org", 
     in publications or presentations arising from this work. More details at
     http://www.quantum-espresso.org/quote

     Parallel version (MPI), running on    16 processors
     R & G space division:  proc/nbgrp/npool/nimage =      16
     Reading input from /tmp/SiGe_zns.scf.in.super.444.a.05.29647/SiGe_zns.scf.in.super.444.a.05.t
Warning: card &IONS ignored
Warning: card   ION_DYNAMICS='BFGS', ignored
Warning: card / ignored
Warning: card &CELL ignored
Warning: card  CELL_DYNAMICS = 'BFGS' ignored
Warning: card / ignored
     Message from routine read_cards :
     DEPRECATED: no units specified in CELL_PARAMETERS card

     Current dimensions of program PWSCF are:
     Max number of different atomic species (ntypx) = 10
     Max number of k-points (npk) =  40000
     Max angular momentum in pseudopotentials (lmaxx) =  3

     Subspace diagonalization in iterative solution of the eigenvalue problem:
     a serial algorithm will be used


     Parallelization info
     --------------------
     sticks:   dense  smooth     PW     G-vecs:    dense   smooth      PW
     Min         756     527    138                54768    32060    4315
     Max         757     528    139                54770    32083    4319
     Sum       12097    8443   2221               876295   513103   69089



     bravais-lattice index     =            0
     lattice parameter (alat)  =    29.598892955  a.u.
     unit-cell volume          =   18336.2874 (a.u.)^3
     number of atoms/cell      =          128
     number of atomic types    =            2
     number of electrons       =      1092.00
     number of Kohn-Sham states=          655
     kinetic-energy cutoff     =      35.0000  Ry
     charge density cutoff     =     200.0000  Ry
     convergence threshold     =      1.0E-09
     mixing beta               =       0.3000
     number of iterations used =            8  local-TF  mixing
     Exchange-correlation      = SLA  PW   PSX  PSC ( 1  4 10  8 0)
     A smooth kinetic-energy cutoff is imposed at      34.5000 Ry
     height of the smooth step-function =             800.0000 Ry
     width of the smooth step-function  =               1.0000 Ry


     celldm(1)=  29.598893  celldm(2)=   0.000000  celldm(3)=   0.000000
     celldm(4)=   0.000000  celldm(5)=   0.000000  celldm(6)=   0.000000

     crystal axes: (cart. coord. in units of alat)
               a(1) = (  -0.000000000000   0.707106781187   0.707106781187 )  
               a(2) = (   0.707106781187   0.000000000000   0.707106781187 )  
               a(3) = (   0.707106781187   0.707106781187  -0.000000000000 )  

     reciprocal axes: (cart. coord. in units 2 pi/alat)
               b(1) = ( -0.707107  0.707107  0.707107 )  
               b(2) = (  0.707107 -0.707107  0.707107 )  
               b(3) = (  0.707107  0.707107 -0.707107 )  


     PseudoPot. # 1 for Si read from file:
     /users/kfg/psuedo/gbrv_1.5/si.pbesol.UPF
     MD5 check sum: ef58ba74faed4df802eb8a9742fc00a8
     Pseudo is Ultrasoft + core correction, Zval =  4.0
     Generated by new atomic code, or converted to UPF format
     Using radial grid of  899 points,  6 beta functions with: 
                l(1) =   0
                l(2) =   0
                l(3) =   1
                l(4) =   1
                l(5) =   2
                l(6) =   2
     Q(r) pseudized with  8 coefficients,  rinner =    0.900   0.900   0.900
                                                       0.900   0.900

     PseudoPot. # 2 for Ge read from file:
     /users/kfg/psuedo/gbrv_1.5/ge.pbesol.UPF
     MD5 check sum: 7bed0412183f5e553a4d27ec7023354d
     Pseudo is Ultrasoft + core correction, Zval = 14.0
     Generated by new atomic code, or converted to UPF format
     Using radial grid of  873 points,  6 beta functions with: 
                l(1) =   0
                l(2) =   0
                l(3) =   1
                l(4) =   1
                l(5) =   2
                l(6) =   2
     Q(r) pseudized with  8 coefficients,  rinner =    1.400   1.400   1.400
                                                       1.400   1.400

     atomic species   valence    mass     pseudopotential
        Si             4.00    28.08550     Si( 1.00)
        Ge            14.00    72.64000     Ge( 1.00)

     No symmetry found


                                    s                        frac. trans.

      isym =  1     identity                                     

 cryst.   s( 1) = (     1          0          0      )
                  (     0          1          0      )
                  (     0          0          1      )

 cart.    s( 1) = (  1.0000000  0.0000000  0.0000000 )
                  (  0.0000000  1.0000000  0.0000000 )
                  (  0.0000000  0.0000000  1.0000000 )


     point group C_1 (1)    
     there are  1 classes
     the character table:

       E    
A      1.00

     the symmetry operations in each class:
     E        1

   Cartesian axes

     site n.     atom                  positions (alat units)
         1           Ge  tau(   1) = (   -0.00011772549   -0.00019495348    0.00025789047  )
         2           Ge  tau(   2) = (    0.08838362744    0.08820980160    0.08835330511  )
         3           Ge  tau(   3) = (    0.17668907948    0.17694190377    0.00023581305  )
         4           Ge  tau(   4) = (    0.26507351719    0.26488830116    0.08830662138  )
         5           Ge  tau(   5) = (    0.35384337976    0.35338442211   -0.00017215169  )
         6           Ge  tau(   6) = (    0.44163380414    0.44191388149    0.08865154192  )
         7           Si  tau(   7) = (    0.53016010804    0.53052245959   -0.00022075907  )
         8           Ge  tau(   8) = (    0.61848132851    0.61902907996    0.08858034455  )
         9           Ge  tau(   9) = (    0.17710581988   -0.00021880700    0.17665225047  )
        10           Ge  tau(  10) = (    0.26484103946    0.08866179277    0.26534992837  )
        11           Ge  tau(  11) = (    0.35357837440    0.17649105055    0.17676326667  )
        12           Si  tau(  12) = (    0.44168231046    0.26503814469    0.26504128057  )
        13           Ge  tau(  13) = (    0.53025881414    0.35383188478    0.17697646431  )
        14           Si  tau(  14) = (    0.61873098485    0.44218072820    0.26485832162  )
        15           Ge  tau(  15) = (    0.70720256587    0.53023926130    0.17673809946  )
        16           Si  tau(  16) = (    0.79546629431    0.61872886929    0.26494158008  )
        17           Si  tau(  17) = (    0.35370046492   -0.00033130978    0.35331867002  )
        18           Si  tau(  18) = (    0.44162657459    0.08812689883    0.44184914585  )
        19           Si  tau(  19) = (    0.53004330637    0.17703240968    0.35354105840  )
        20           Si  tau(  20) = (    0.61885619023    0.26499547021    0.44179426743  )
        21           Si  tau(  21) = (    0.70731940407    0.35329856021    0.35335826842  )
        22           Ge  tau(  22) = (    0.79552444135    0.44210702835    0.44195929365  )
        23           Si  tau(  23) = (    0.88389134864    0.53065495083    0.35346017805  )
        24           Si  tau(  24) = (    0.97239915536    0.61854718722    0.44225406788  )
        25           Si  tau(  25) = (    0.53043820238   -0.00004861300    0.53061992871  )
        26           Ge  tau(  26) = (    0.61841643061    0.08865665633    0.61864125988  )
        27           Ge  tau(  27) = (    0.70708663852    0.17661061267    0.53064007031  )
        28           Si  tau(  28) = (    0.79530204443    0.26495026511    0.61849637708  )
        29           Ge  tau(  29) = (    0.88393657818    0.35354732118    0.53046129592  )
        30           Si  tau(  30) = (    0.97257265361    0.44191325587    0.61876824815  )
        31           Si  tau(  31) = (    1.06040649190    0.53034436696    0.53029552132  )
        32           Si  tau(  32) = (    1.14921100594    0.61855754843    0.61887753171  )
        33           Si  tau(  33) = (   -0.00020703591    0.17707715838    0.17676618643  )
        34           Si  tau(  34) = (    0.08819819612    0.26546913570    0.26537473235  )
        35           Si  tau(  35) = (    0.17667566861    0.35329243844    0.17673134548  )
        36           Si  tau(  36) = (    0.26489741265    0.44224950740    0.26496761330  )
        37           Si  tau(  37) = (    0.35324760651    0.53014332718    0.17652336324  )
        38           Si  tau(  38) = (    0.44210306666    0.61890391532    0.26488474001  )
        39           Ge  tau(  39) = (    0.53047564414    0.70705900211    0.17673574260  )
        40           Si  tau(  40) = (    0.61900597690    0.79537317632    0.26534262194  )
        41           Si  tau(  41) = (    0.17701231157    0.17686321553    0.35323341035  )
        42           Ge  tau(  42) = (    0.26499373606    0.26546435699    0.44170344770  )
        43           Si  tau(  43) = (    0.35355982971    0.35321688357    0.35326900914  )
        44           Ge  tau(  44) = (    0.44189674289    0.44194121542    0.44205320193  )
        45           Ge  tau(  45) = (    0.53055055618    0.53015406944    0.35375246726  )
        46           Ge  tau(  46) = (    0.61875557490    0.61870108707    0.44196337234  )
        47           Si  tau(  47) = (    0.70737625658    0.70716965396    0.35330244409  )
        48           Si  tau(  48) = (    0.79516376659    0.79547306872    0.44179196120  )
        49           Si  tau(  49) = (    0.35327686781    0.17678330512    0.53052558163  )
        50           Si  tau(  50) = (    0.44168569820    0.26539900777    0.61882153375  )
        51           Si  tau(  51) = (    0.53048349512    0.35371187920    0.53029987716  )
        52           Si  tau(  52) = (    0.61876592598    0.44164653126    0.61850349989  )
        53           Ge  tau(  53) = (    0.70701026697    0.53020610261    0.53061189314  )
        54           Ge  tau(  54) = (    0.79565635528    0.61846016077    0.61890972044  )
        55           Ge  tau(  55) = (    0.88382497133    0.70698288947    0.53005559599  )
        56           Si  tau(  56) = (    0.97203333004    0.79533975915    0.61869277921  )
        57           Ge  tau(  57) = (    0.53027095295    0.17697725285    0.70682500225  )
        58           Ge  tau(  58) = (    0.61856716098    0.26527332235    0.79521989258  )
        59           Si  tau(  59) = (    0.70722129928    0.35323507379    0.70710390018  )
        60           Ge  tau(  60) = (    0.79520841028    0.44179274960    0.79515734519  )
        61           Ge  tau(  61) = (    0.88404464297    0.53041310076    0.70694557627  )
        62           Si  tau(  62) = (    0.97216056759    0.61866079992    0.79572962648  )
        63           Si  tau(  63) = (    1.06091309223    0.70680591642    0.70740863260  )
        64           Si  tau(  64) = (    1.14910459557    0.79567563805    0.79578335347  )
        65           Si  tau(  65) = (    0.00026424938    0.35373686854    0.35383553107  )
        66           Ge  tau(  66) = (    0.08816335297    0.44201683963    0.44184839011  )
        67           Ge  tau(  67) = (    0.17693257749    0.53041426753    0.35343919650  )
        68           Ge  tau(  68) = (    0.26540315915    0.61862769773    0.44162587299  )
        69           Ge  tau(  69) = (    0.35376967393    0.70705810336    0.35376525021  )
        70           Ge  tau(  70) = (    0.44196694401    0.79550548047    0.44200486763  )
        71           Ge  tau(  71) = (    0.53030581299    0.88358304720    0.35349136275  )
        72           Ge  tau(  72) = (    0.61847947998    0.97196361016    0.44175244959  )
        73           Ge  tau(  73) = (    0.17709150491    0.35375419533    0.53017014397  )
        74           Si  tau(  74) = (    0.26537245736    0.44199468916    0.61865041296  )
        75           Si  tau(  75) = (    0.35359669500    0.52999644028    0.53032833850  )
        76           Ge  tau(  76) = (    0.44169973975    0.61888939936    0.61870805686  )
        77           Si  tau(  77) = (    0.53055190225    0.70730447426    0.53028541829  )
        78           Si  tau(  78) = (    0.61850491334    0.79518293120    0.61867442321  )
        79           Si  tau(  79) = (    0.70741178458    0.88367044986    0.53029988843  )
        80           Ge  tau(  80) = (    0.79547227655    0.97218308078    0.61898831896  )
        81           Si  tau(  81) = (    0.35326809505    0.35345774854    0.70706696389  )
        82           Si  tau(  82) = (    0.44203779171    0.44221956533    0.79566884084  )
        83           Si  tau(  83) = (    0.53034757053    0.53003278031    0.70714693543  )
        84           Ge  tau(  84) = (    0.61880048475    0.61841186357    0.79552731893  )
        85           Ge  tau(  85) = (    0.70707419813    0.70710231022    0.70697243017  )
        86           Ge  tau(  86) = (    0.79545645221    0.79552945956    0.79574838085  )
        87           Ge  tau(  87) = (    0.88371165334    0.88393361155    0.70710422668  )
        88           Ge  tau(  88) = (    0.97227182361    0.97253809419    0.79571693705  )
        89           Si  tau(  89) = (    0.53056296859    0.35342527201    0.88383269316  )
        90           Si  tau(  90) = (    0.61890635598    0.44187301990    0.97206959907  )
        91           Si  tau(  91) = (    0.70728377081    0.53005931620    0.88355518983  )
        92           Si  tau(  92) = (    0.79575287691    0.61859654406    0.97216215085  )
        93           Si  tau(  93) = (    0.88362166680    0.70711629126    0.88393126183  )
        94           Si  tau(  94) = (    0.97244686570    0.79572317667    0.97254873686  )
        95           Ge  tau(  95) = (    1.06049055432    0.88399357204    0.88393650089  )
        96           Si  tau(  96) = (    1.14886414456    0.97198915877    0.97220745417  )
        97           Ge  tau(  97) = (   -0.00007606261    0.53022697800    0.53066110853  )
        98           Si  tau(  98) = (    0.08835492275    0.61878901574    0.61886254848  )
        99           Si  tau(  99) = (    0.17645504277    0.70678925202    0.53061441369  )
       100           Si  tau( 100) = (    0.26483285943    0.79523608013    0.61853025304  )
       101           Si  tau( 101) = (    0.35338889662    0.88397380045    0.53064398087  )
       102           Si  tau( 102) = (    0.44225359325    0.97249980901    0.61867173946  )
       103           Ge  tau( 103) = (    0.53029751292    1.06086858867    0.53032655449  )
       104           Si  tau( 104) = (    0.61885111487    1.14933208368    0.61841980826  )
       105           Ge  tau( 105) = (    0.17649545339    0.53022758400    0.70690629207  )
       106           Ge  tau( 106) = (    0.26506337379    0.61861536545    0.79581839072  )
       107           Si  tau( 107) = (    0.35354553807    0.70704375304    0.70716133036  )
       108           Ge  tau( 108) = (    0.44217816744    0.79566502828    0.79563472718  )
       109           Si  tau( 109) = (    0.53047285725    0.88417855351    0.70737001513  )
       110           Si  tau( 110) = (    0.61856169158    0.97210353403    0.79561013651  )
       111           Si  tau( 111) = (    0.70728140267    1.06048409336    0.70735954293  )
       112           Si  tau( 112) = (    0.79533380214    1.14917190893    0.79555474888  )
       113           Si  tau( 113) = (    0.35325281303    0.53063155517    0.88400224831  )
       114           Ge  tau( 114) = (    0.44226816580    0.61838390767    0.97225918578  )
       115           Si  tau( 115) = (    0.53043166780    0.70724783279    0.88358708119  )
       116           Ge  tau( 116) = (    0.61846002143    0.79526393877    0.97221371176  )
       117           Si  tau( 117) = (    0.70741658202    0.88378123541    0.88420719566  )
       118           Ge  tau( 118) = (    0.79548293537    0.97231368597    0.97248216742  )
       119           Si  tau( 119) = (    0.88386235528    1.06038343601    0.88393575371  )
       120           Ge  tau( 120) = (    0.97238829989    1.14882590338    0.97197608459  )
       121           Si  tau( 121) = (    0.53010767201    0.53064349742    1.06037494786  )
       122           Ge  tau( 122) = (    0.61838843444    0.61861062940    1.14911816621  )
       123           Ge  tau( 123) = (    0.70696923352    0.70734414626    1.06089441651  )
       124           Ge  tau( 124) = (    0.79538884746    0.79574029350    1.14931282965  )
       125           Si  tau( 125) = (    0.88390180812    0.88386420620    1.06060074651  )
       126           Ge  tau( 126) = (    0.97237640671    0.97232253942    1.14882672483  )
       127           Si  tau( 127) = (    1.06060596625    1.06033508597    1.06046052181  )
       128           Ge  tau( 128) = (    1.14920740594    1.14927193605    1.14871757458  )

   Crystallographic axes

     site n.     atom                  positions (cryst. coord.)
         1           Ge  tau(   1) = (    0.00012774766    0.00023696453   -0.00040345352  )
         2           Ge  tau(   2) = (    0.06235230775    0.06259813462    0.06239519000  )
         3           Ge  tau(   3) = (    0.00034551877   -0.00001202876    0.24988812129  )
         4           Ge  tau(   4) = (    0.06231124329    0.06257317832    0.31229738472  )
         5           Ge  tau(   5) = (   -0.00044626169    0.00020280244    0.50020730417  )
         6           Ge  tau(   6) = (    0.06288415104    0.06248806186    0.56207645356  )
         7           Si  tau(   7) = (    0.00010012100   -0.00041232147    0.75017193649  )
         8           Ge  tau(   8) = (    0.06302308108    0.06224844355    0.81241623930  )
         9           Ge  tau(   9) = (   -0.00047544192    0.25029945036    0.00016600209  )
        10           Ge  tau(  10) = (    0.06305319370    0.31220827378    0.06233351610  )
        11           Ge  tau(  11) = (   -0.00022914303    0.25021015208    0.24982518035  )
        12           Si  tau(  12) = (    0.06250619931    0.31231877426    0.31231433946  )
        13           Ge  tau(  13) = (    0.00038857989    0.24989393616    0.50000527037  )
        14           Si  tau(  14) = (    0.06244323158    0.31212299897    0.56289475126  )
        15           Ge  tau(  15) = (   -0.00015924406    0.25010466131    0.75003079869  )
        16           Si  tau(  16) = (    0.06236975617    0.31231421961    0.81264500221  )
        17           Si  tau(  17) = (   -0.00050424116    0.50017229614    0.00003569837  )
        18           Si  tau(  18) = (    0.06247250941    0.56239654518    0.06215774612  )
        19           Si  tau(  19) = (    0.00037488094    0.49960767871    0.24998675380  )
        20           Si  tau(  20) = (    0.06217840767    0.56261303711    0.31258178027  )
        21           Si  tau(  21) = (   -0.00046851158    0.50019256716    0.50010812700  )
        22           Ge  tau(  22) = (    0.06260856423    0.56241626287    0.56262519129  )
        23           Si  tau(  23) = (    0.00015823652    0.49970994104    0.75030119188  )
        24           Si  tau(  24) = (    0.06250972420    0.56293197662    0.81224809693  )
        25           Si  tau(  25) = (    0.00009412533    0.75031577431   -0.00016287450  )
        26           Ge  tau(  26) = (    0.06284870119    0.81204215877    0.06253074459  )
        27           Ge  tau(  27) = (    0.00011599695    0.75032238722    0.24964912675  )
        28           Si  tau(  28) = (    0.06232764280    0.81235832195    0.31236861547  )
        29           Ge  tau(  29) = (    0.00005093921    0.75013461979    0.49994047735  )
        30           Si  tau(  30) = (    0.06230236560    0.81276808289    0.56265735424  )
        31           Si  tau(  31) = (    0.00016503617    0.74978608215    0.74985516032  )
        32           Si  tau(  32) = (    0.06238384113    0.81284115766    0.81238863296  )
        33           Si  tau(  33) = (    0.25035142509   -0.00036628688    0.00007349388  )
        34           Si  tau(  34) = (    0.31299775629    0.06229878931    0.06243229581  )
        35           Si  tau(  35) = (    0.24985484846    0.00008101722    0.24977610947  )
        36           Si  tau(  36) = (    0.31276726502    0.06195352730    0.31266798631  )
        37           Si  tau(  37) = (    0.24990503083   -0.00026329646    0.49983085247  )
        38           Si  tau(  38) = (    0.31231887490    0.06228471689    0.56294343595  )
        39           Ge  tau(  39) = (    0.24983433194    0.00010775221    0.75009809825  )
        40           Si  tau(  40) = (    0.31233601000    0.06291512462    0.81249152310  )
        41           Si  tau(  41) = (    0.24966831299    0.24987916662    0.00045404511  )
        42           Ge  tau(  42) = (    0.31266428240    0.31199872389    0.06275901159  )
        43           Si  tau(  43) = (    0.24955641241    0.25004141148    0.24996769480  )
        44           Ge  tau(  44) = (    0.31261026356    0.31254736990    0.31238899706  )
        45           Ge  tau(  45) = (    0.24986041000    0.25042112693    0.49989066515  )
        46           Ge  tau(  46) = (    0.31247676890    0.31255382633    0.56249869949  )
        47           Si  tau(  47) = (    0.24967646391    0.24996864414    0.75041245162  )
        48           Si  tau(  48) = (    0.31261280128    0.31217538200    0.81235600101  )
        49           Si  tau(  49) = (    0.25033844135    0.49993803137   -0.00032909365  )
        50           Si  tau(  50) = (    0.31291938862    0.56222641710    0.06241148760  )
        51           Si  tau(  51) = (    0.24998223087    0.49997504754    0.25024190587  )
        52           Si  tau(  52) = (    0.31210569387    0.56259034405    0.31247682041  )
        53           Ge  tau(  53) = (    0.25017984426    0.50021869138    0.49964481690  )
        54           Ge  tau(  54) = (    0.31233862953    0.56293189100    0.56229611762  )
        55           Ge  tau(  55) = (    0.24975967105    0.49985214162    0.75006511960  )
        56           Si  tau(  56) = (    0.31254063749    0.56242308182    0.81223963660  )
        57           Ge  tau(  57) = (    0.24998438111    0.74961712329    0.00029925010  )
        58           Ge  tau(  58) = (    0.31248890953    0.81212184762    0.06266422068  )
        59           Si  tau(  59) = (    0.24969190233    0.75030402332    0.24985792972  )
        60           Ge  tau(  60) = (    0.31235854065    0.81216376114    0.31243075759  )
        61           Ge  tau(  61) = (    0.24983074938    0.74994127245    0.50028665138  )
        62           Si  tau(  62) = (    0.31270373201    0.81262789774    0.56221476175  )
        63           Si  tau(  63) = (    0.24982185590    0.75060502647    0.74975265707  )
        64           Si  tau(  64) = (    0.31279179307    0.81261581813    0.81246348551  )
        65           Si  tau(  65) = (    0.50014238941    0.00025661747    0.00011708759  )
        66           Ge  tau(  66) = (    0.56264619287    0.06222179294    0.06246001653  )
        67           Ge  tau(  67) = (    0.49986855263   -0.00003004747    0.25025049818  )
        68           Ge  tau(  68) = (    0.56204411606    0.06250918302    0.31282756414  )
        69           Ge  tau(  69) = (    0.49996245154    0.00033716320    0.49996870762  )
        70           Ge  tau(  70) = (    0.56253413577    0.06255514267    0.56248050366  )
        71           Ge  tau(  71) = (    0.49976086764    0.00015141175    0.74981426119  )
        72           Ge  tau(  72) = (    0.56231717820    0.06241512722    0.81224694143  )
        73           Ge  tau(  73) = (    0.49980629036    0.24996751760    0.00047769042  )
        74           Si  tau(  74) = (    0.56234268000    0.31256112437    0.06273220391  )
        75           Si  tau(  75) = (    0.49973222050    0.25026530832    0.24979593336  )
        76           Ge  tau(  76) = (    0.56278467245    0.31220065271    0.31245710974  )
        77           Si  tau(  77) = (    0.49995135750    0.24998547298    0.50032822273  )
        78           Si  tau(  78) = (    0.56239910452    0.31253865549    0.56215938136  )
        79           Si  tau(  79) = (    0.49961234464    0.25034494971    0.75008639023  )
        80           Ge  tau(  80) = (    0.56264424579    0.31273742984    0.81223025216  )
        81           Si  tau(  81) = (    0.50010595019    0.49983773965   -0.00024120848  )
        82           Si  tau(  82) = (    0.56275136630    0.56249429958    0.06264154054  )
        83           Si  tau(  83) = (    0.49980580304    0.50025098363    0.24977374338  )
        84           Ge  tau(  84) = (    0.56224796517    0.56279755851    0.31231847943  )
        85           Ge  tau(  85) = (    0.49992487773    0.49988512123    0.50006879936  )
        86           Ge  tau(  86) = (    0.56273070021    0.56262745223    0.56231785077  )
        87           Ge  tau(  87) = (    0.50015514184    0.49984124554    0.74991575985  )
        88           Ge  tau(  88) = (    0.56284512383    0.56246856036    0.81253143890  )
        89           Si  tau(  89) = (    0.49970882431    0.75021935722    0.00010998865  )
        90           Si  tau(  90) = (    0.56217553285    0.81253847773    0.06272728474  )
        91           Si  tau(  91) = (    0.49945125264    0.75008447993    0.25016582119  )
        92           Si  tau(  92) = (    0.56215400500    0.81269089356    0.31267361725  )
        93           Si  tau(  93) = (    0.50022564138    0.74984193730    0.49978780790  )
        94           Si  tau(  94) = (    0.56273328796    0.81265832578    0.56258922038  )
        95           Ge  tau(  95) = (    0.50023528089    0.74983970695    0.74992041774  )
        96           Si  tau(  96) = (    0.56238498169    0.81252398544    0.81221526912  )
        97           Ge  tau(  97) = (    0.75021494445    0.00025319225   -0.00036076103  )
        98           Si  tau(  98) = (    0.81267544878    0.06252836053    0.06242436952  )
        99           Si  tau(  99) = (    0.75020396577    0.00019813445    0.24934698018  )
       100           Si  tau( 100) = (    0.81241865041    0.06231522217    0.31221499939  )
       101           Si  tau( 101) = (    0.75040214076    0.00004177378    0.49972559661  )
       102           Si  tau( 102) = (    0.81240767716    0.06252628744    0.56291474215  )
       103           Ge  tau( 103) = (    0.75016790849   -0.00017290264    0.75012683751  )
       104           Si  tau( 104) = (    0.81239553037    0.06218214971    0.81300549003  )
       105           Ge  tau( 105) = (    0.74998462107    0.24973184451   -0.00012958063  )
       106           Ge  tau( 106) = (    0.81272759147    0.31272956987    0.06212664824  )
       107           Si  tau( 107) = (    0.74999955704    0.25007758715    0.24991130770  )
       108           Ge  tau( 108) = (    0.81255166730    0.31264575458    0.31268860680  )
       109           Si  tau( 109) = (    0.75029383088    0.25007843814    0.50012347105  )
       110           Si  tau( 110) = (    0.81257315694    0.31258948848    0.56218884492  )
       111           Si  tau( 111) = (    0.74993074727    0.25042671182    0.74982024025  )
       112           Si  tau( 112) = (    0.81274348249    0.31234083298    0.81243101662  )
       113           Si  tau( 113) = (    0.75050969577    0.49965827296   -0.00008335383  )
       114           Ge  tau( 114) = (    0.81202369869    0.56295842798    0.06250321030  )
       115           Si  tau( 115) = (    0.74981832617    0.49976250759    0.25038115093  )
       116           Ge  tau( 116) = (    0.81247815724    0.56243965947    0.31219489063  )
       117           Si  tau( 117) = (    0.74993754639    0.50052026166    0.49991786289  )
       118           Ge  tau( 118) = (    0.81268695804    0.56261051230    0.56237224353  )
       119           Si  tau( 119) = (    0.74985621879    0.50021771237    0.74975241774  )
       120           Ge  tau( 120) = (    0.81205110645    0.56253065468    0.81263406691  )
       121           Si  tau( 121) = (    0.75017720201    0.74941943046    0.00026602882  )
       122           Ge  tau( 122) = (    0.81270636328    0.81239213215    0.06214117865  )
       123           Ge  tau( 123) = (    0.75043073938    0.74990053269    0.24990494553  )
       124           Ge  tau( 124) = (    0.81293540543    0.81243838567    0.31241130977  )
       125           Si  tau( 125) = (    0.74993139142    0.74998456856    0.50004135628  )
       126           Ge  tau( 126) = (    0.81230507760    0.81238125747    0.56276664464  )
       127           Si  tau( 127) = (    0.74966728487    0.75005036744    0.74987297437  )
       128           Ge  tau( 128) = (    0.81231161633    0.81222035698    0.81300434248  )

     number of k points=     8  gaussian smearing, width (Ry)=  0.0150
                       cart. coord. in units 2pi/alat
        k(    1) = (   0.0000000   0.0000000   0.0000000), wk =   0.2500000
        k(    2) = (  -0.3535534  -0.3535534   0.3535534), wk =   0.2500000
        k(    3) = (  -0.7071068   0.0000000   0.0000000), wk =   0.2500000
        k(    4) = (   0.3535534   0.3535534   0.3535534), wk =   0.2500000
        k(    5) = (   0.3535534  -0.3535534  -0.3535534), wk =   0.2500000
        k(    6) = (  -0.3535534   0.3535534  -0.3535534), wk =   0.2500000
        k(    7) = (   0.0000000  -0.7071068   0.0000000), wk =   0.2500000
        k(    8) = (   0.0000000   0.0000000  -0.7071068), wk =   0.2500000

                       cryst. coord.
        k(    1) = (   0.0000000   0.0000000   0.0000000), wk =   0.2500000
        k(    2) = (   0.0000000   0.0000000  -0.5000000), wk =   0.2500000
        k(    3) = (   0.0000000  -0.5000000  -0.5000000), wk =   0.2500000
        k(    4) = (   0.5000000   0.5000000   0.5000000), wk =   0.2500000
        k(    5) = (  -0.5000000   0.0000000   0.0000000), wk =   0.2500000
        k(    6) = (   0.0000000  -0.5000000   0.0000000), wk =   0.2500000
        k(    7) = (  -0.5000000   0.0000000  -0.5000000), wk =   0.2500000
        k(    8) = (  -0.5000000  -0.5000000   0.0000000), wk =   0.2500000

     Dense  grid:   876295 G-vectors     FFT dimensions: ( 135, 135, 135)

     Smooth grid:   513103 G-vectors     FFT dimensions: ( 120, 120, 120)

     Largest allocated arrays     est. size (Mb)     dimensions
        Kohn-Sham Wavefunctions        40.26 Mb     (    4028,  655)
        NL pseudopotentials           141.61 Mb     (    4028, 2304)
        Each V/rho on FFT grid          2.50 Mb     (  164025)
        Each G-vector array             0.42 Mb     (   54770)
        G-vector shells                 0.02 Mb     (    2932)
     Largest temporary arrays     est. size (Mb)     dimensions
        Auxiliary wavefunctions       161.03 Mb     (    4028, 2620)
        Each subspace H/S matrix      104.74 Mb     (    2620, 2620)
        Each <psi_i|beta_j> matrix     23.03 Mb     (    2304,  655)
        Arrays for rho mixing          20.02 Mb     (  164025,    8)

     Check: negative/imaginary core charge=   -0.000001    0.000000

     Initial potential from superposition of free atoms

     starting charge 1091.90776, renormalised to 1092.00000
     Starting wfc are  802 randomized atomic wfcs

     total cpu time spent up to now is      686.5 secs

     per-process dynamical memory:   564.8 Mb

     Self-consistent Calculation

     iteration #  1     ecut=    35.00 Ry     beta=0.30
     Davidson diagonalization with overlap
     ethr =  1.00E-02,  avg # of iterations =  3.0

     Threshold (ethr) on eigenvalues was too large:
     Diagonalizing with lowered threshold

     Davidson diagonalization with overlap
     ethr =  2.60E-04,  avg # of iterations =  4.3

     total cpu time spent up to now is     4787.7 secs

     total energy              =  -13034.30423297 Ry
     Harris-Foulkes estimate   =  -13034.59952003 Ry
     estimated scf accuracy    <       2.85070443 Ry

     iteration #  2     ecut=    35.00 Ry     beta=0.30
     Davidson diagonalization with overlap
     ethr =  2.61E-04,  avg # of iterations =  1.0

     total cpu time spent up to now is     6351.9 secs

     total energy              =  -13033.74131402 Ry
     Harris-Foulkes estimate   =  -13034.31899497 Ry
     estimated scf accuracy    <       1.76007388 Ry

     iteration #  3     ecut=    35.00 Ry     beta=0.30
     Davidson diagonalization with overlap
     ethr =  1.61E-04,  avg # of iterations =  2.0

     total cpu time spent up to now is     8273.7 secs

     total energy              =  -13033.84957209 Ry
     Harris-Foulkes estimate   =  -13033.84810692 Ry
     estimated scf accuracy    <       0.02367926 Ry

     iteration #  4     ecut=    35.00 Ry     beta=0.30
     Davidson diagonalization with overlap
     ethr =  2.17E-06,  avg # of iterations =  9.9

     total cpu time spent up to now is    14129.0 secs

     total energy              =  -13033.85448867 Ry
     Harris-Foulkes estimate   =  -13033.85486855 Ry
     estimated scf accuracy    <       0.01058089 Ry

     iteration #  5     ecut=    35.00 Ry     beta=0.30
     Davidson diagonalization with overlap
     ethr =  9.69E-07,  avg # of iterations =  2.0

     total cpu time spent up to now is    16085.5 secs

     total energy              =  -13033.85536144 Ry
     Harris-Foulkes estimate   =  -13033.85550133 Ry
     estimated scf accuracy    <       0.00070473 Ry

     iteration #  6     ecut=    35.00 Ry     beta=0.30
     Davidson diagonalization with overlap
     ethr =  6.45E-08,  avg # of iterations =  2.0

     total cpu time spent up to now is    17798.5 secs

     total energy              =  -13033.85532420 Ry
     Harris-Foulkes estimate   =  -13033.85539486 Ry
     estimated scf accuracy    <       0.00021326 Ry

     iteration #  7     ecut=    35.00 Ry     beta=0.30
     Davidson diagonalization with overlap
     ethr =  1.95E-08,  avg # of iterations =  2.0

     total cpu time spent up to now is    19785.1 secs

     total energy              =  -13033.85534996 Ry
     Harris-Foulkes estimate   =  -13033.85534859 Ry
     estimated scf accuracy    <       0.00002775 Ry

     iteration #  8     ecut=    35.00 Ry     beta=0.30
     Davidson diagonalization with overlap
     ethr =  2.54E-09,  avg # of iterations =  2.4

     total cpu time spent up to now is    21846.0 secs

     total energy              =  -13033.85535038 Ry
     Harris-Foulkes estimate   =  -13033.85535310 Ry
     estimated scf accuracy    <       0.00001165 Ry

     iteration #  9     ecut=    35.00 Ry     beta=0.30
     Davidson diagonalization with overlap
     ethr =  1.07E-09,  avg # of iterations =  2.0

     total cpu time spent up to now is    24226.8 secs

     total energy              =  -13033.85535292 Ry
     Harris-Foulkes estimate   =  -13033.85535232 Ry
     estimated scf accuracy    <       0.00000167 Ry

     iteration # 10     ecut=    35.00 Ry     beta=0.30
     Davidson diagonalization with overlap
     ethr =  1.53E-10,  avg # of iterations =  2.4

     total cpu time spent up to now is    26185.1 secs

     total energy              =  -13033.85535269 Ry
     Harris-Foulkes estimate   =  -13033.85535308 Ry
     estimated scf accuracy    <       0.00000133 Ry

     iteration # 11     ecut=    35.00 Ry     beta=0.30
     Davidson diagonalization with overlap
     ethr =  1.22E-10,  avg # of iterations =  2.0

     total cpu time spent up to now is    28651.9 secs

     total energy              =  -13033.85535311 Ry
     Harris-Foulkes estimate   =  -13033.85535300 Ry
     estimated scf accuracy    <       0.00000021 Ry

     iteration # 12     ecut=    35.00 Ry     beta=0.30
     Davidson diagonalization with overlap
     ethr =  1.92E-11,  avg # of iterations =  2.0

     total cpu time spent up to now is    30429.0 secs

     total energy              =  -13033.85535318 Ry
     Harris-Foulkes estimate   =  -13033.85535312 Ry
     estimated scf accuracy    <       0.00000006 Ry

     iteration # 13     ecut=    35.00 Ry     beta=0.30
     Davidson diagonalization with overlap
     ethr =  5.11E-12,  avg # of iterations =  2.0

     total cpu time spent up to now is    32863.8 secs

     total energy              =  -13033.85535322 Ry
     Harris-Foulkes estimate   =  -13033.85535319 Ry
     estimated scf accuracy    <          3.9E-09 Ry

     iteration # 14     ecut=    35.00 Ry     beta=0.30
     Davidson diagonalization with overlap
     ethr =  3.55E-13,  avg # of iterations =  2.0

     total cpu time spent up to now is    35137.4 secs

     total energy              =  -13033.85535324 Ry
     Harris-Foulkes estimate   =  -13033.85535322 Ry
     estimated scf accuracy    <          1.4E-09 Ry

     iteration # 15     ecut=    35.00 Ry     beta=0.30
     Davidson diagonalization with overlap
     ethr =  1.32E-13,  avg # of iterations =  2.5

     total cpu time spent up to now is    37241.3 secs

     End of self-consistent calculation

          k = 0.0000 0.0000 0.0000 ( 64071 PWs)   bands (ev):

   -17.4749 -17.4685 -17.4683 -17.4645 -17.4619 -17.4527 -17.4511 -17.4499
   -17.4468 -17.4453 -17.4447 -17.4394 -17.4371 -17.4353 -17.4339 -17.4310
   -17.4266 -17.4247 -17.4238 -17.4207 -17.4191 -17.4151 -17.4142 -17.4062
   -17.4047 -17.4031 -17.4006 -17.3942 -17.3936 -17.3885 -17.3868 -17.3808
   -17.3782 -17.3777 -17.3752 -17.3744 -17.3706 -17.3683 -17.3674 -17.3656
   -17.3633 -17.3609 -17.3595 -17.3585 -17.3578 -17.3572 -17.3537 -17.3530
   -17.3508 -17.3492 -17.3457 -17.3395 -17.3388 -17.3368 -17.3357 -17.3335
   -17.3327 -17.3319 -17.3294 -17.3214 -17.3209 -17.3205 -17.3150 -17.3113
   -17.3113 -17.3075 -17.3057 -17.3043 -17.3024 -17.3023 -17.2964 -17.2941
   -17.2934 -17.2921 -17.2887 -17.2872 -17.2864 -17.2851 -17.2845 -17.2826
   -17.2823 -17.2815 -17.2813 -17.2800 -17.2786 -17.2770 -17.2765 -17.2740
   -17.2739 -17.2734 -17.2726 -17.2724 -17.2721 -17.2716 -17.2713 -17.2701
   -17.2699 -17.2689 -17.2684 -17.2670 -17.2659 -17.2644 -17.2598 -17.2563
   -17.2555 -17.2553 -17.2543 -17.2541 -17.2507 -17.2501 -17.2451 -17.2433
   -17.2431 -17.2405 -17.2378 -17.2350 -17.2341 -17.2331 -17.2311 -17.2275
   -17.2224 -17.2209 -17.2205 -17.2196 -17.2192 -17.2184 -17.2170 -17.2168
   -17.2146 -17.2117 -17.2115 -17.2109 -17.2106 -17.2100 -17.2080 -17.2063
   -17.2061 -17.2050 -17.2030 -17.2027 -17.2023 -17.2018 -17.2009 -17.2008
   -17.2005 -17.2002 -17.1998 -17.1992 -17.1988 -17.1986 -17.1982 -17.1976
   -17.1967 -17.1964 -17.1961 -17.1957 -17.1954 -17.1944 -17.1938 -17.1932
   -17.1926 -17.1920 -17.1915 -17.1901 -17.1898 -17.1894 -17.1892 -17.1881
   -17.1878 -17.1873 -17.1870 -17.1863 -17.1854 -17.1848 -17.1839 -17.1831
   -17.1828 -17.1822 -17.1799 -17.1795 -17.1787 -17.1781 -17.1779 -17.1764
   -17.1760 -17.1750 -17.1749 -17.1744 -17.1740 -17.1739 -17.1733 -17.1714
   -17.1712 -17.1703 -17.1697 -17.1684 -17.1680 -17.1668 -17.1661 -17.1655
   -17.1650 -17.1644 -17.1643 -17.1638 -17.1632 -17.1627 -17.1625 -17.1623
   -17.1617 -17.1601 -17.1601 -17.1595 -17.1586 -17.1583 -17.1576 -17.1574
   -17.1571 -17.1569 -17.1569 -17.1563 -17.1558 -17.1551 -17.1546 -17.1539
   -17.1532 -17.1531 -17.1524 -17.1519 -17.1515 -17.1509 -17.1506 -17.1503
   -17.1495 -17.1492 -17.1490 -17.1488 -17.1485 -17.1476 -17.1474 -17.1468
   -17.1462 -17.1459 -17.1413 -17.1409 -17.1403 -17.1402 -17.1398 -17.1390
   -17.1389 -17.1352 -17.1333 -17.1332 -17.1308 -17.1272 -17.1230 -17.1213
   -17.1194 -17.1191 -17.1190 -17.1183 -17.1174 -17.1146 -17.1134 -17.1099
   -17.1071 -17.1032 -17.1005 -17.0974 -17.0959 -17.0954 -17.0948 -17.0926
   -17.0903 -17.0902 -17.0898 -17.0858 -17.0837 -17.0826 -17.0811 -17.0801
   -17.0796 -17.0777 -17.0766 -17.0759 -17.0752 -17.0748 -17.0737 -17.0720
   -17.0714 -17.0665  -5.2566  -4.7111  -4.6530  -4.5728  -4.5429  -4.4950
    -4.4439  -4.4075  -4.3628  -4.3196  -4.2757  -4.1783  -4.1019  -4.0488
    -3.9395  -3.5750  -3.5307  -3.5057  -3.4202  -3.3312  -3.2643  -3.2485
    -3.2221  -3.1957  -3.1629  -3.1430  -3.1000  -3.0691  -3.0144  -2.9505
    -2.9124  -2.8400  -2.8213  -2.8079  -2.7425  -2.7110  -2.6656  -2.6399
    -2.6191  -2.5742  -2.5388  -2.5292  -2.5009  -2.4508  -2.4495  -2.4062
    -2.3906  -2.3482  -2.3222  -2.3078  -2.2936  -2.2549  -2.2275  -2.2068
    -2.1961  -1.3448  -1.2599  -1.2460  -1.1968  -1.1736  -1.1694  -1.0784
    -1.0449  -1.0319  -1.0161  -0.9876  -0.9734  -0.8929  -0.8732  -0.7944
    -0.7621  -0.7524  -0.7287  -0.1313  -0.1294  -0.0427  -0.0274   0.0856
     0.1177   0.1375   0.1651   0.2344   0.2414   0.2546   0.2978   0.3310
     0.3531   0.3628   0.4012   0.4034   0.4235   0.4525   0.4741   0.4768
     0.5069   0.5124   0.5449   0.5780   0.5905   0.6073   0.6168   1.0298
     1.0843   1.1421   1.2404   1.2549   1.2815   1.3447   1.3613   1.3744
     1.4056   1.4393   1.4733   2.8288   2.8583   2.8896   2.9240   2.9384
     2.9576   2.9857   3.0002   3.0834   3.1214   3.1500   3.2258   3.2497
     3.2570   3.2627   3.2638   3.2683   3.2727   3.2749   3.2776   3.2825
     3.2838   3.2876   3.2899   3.2975   3.3245   3.3258   3.3263   3.3316
     3.3415   3.3460   3.3481   3.3485   3.3553   3.3589   3.3643   3.3684
     3.3756   3.4954   3.5017   3.5035   3.5134   3.5145   3.5195   3.5215
     3.5273   3.5295   3.5311   3.5348   3.5386   3.5399   3.5431   3.5445
     3.5491   3.5532   3.5553   3.5583   3.5631   3.5636   3.5691   3.5704
     3.5788   4.2106   4.2143   4.2154   4.2174   4.2187   4.2226   4.8587
     4.8608   4.8636   4.8664   4.8670   4.8691   4.8711   4.8718   4.8751
     4.8763   4.8775   4.8788   4.8799   4.8809   4.8831   4.8845   4.8863
     4.8881   4.8898   4.8921   4.8949   4.8955   4.8999   4.9037   5.1898
     5.1973   5.2031   5.2114   5.2176   5.2183   5.2239   5.2260   5.2289
     5.2357   5.2421   5.2488   5.7461   5.7527   5.7564   5.7593   5.7658
     5.7723   5.7781   5.7794   5.7837   5.7877   5.7935   5.8003   5.8656
     5.8695   5.8784   5.8804   5.9025   5.9058   5.9161   5.9172   6.3347
     6.3400   6.3485   6.3516   6.3554   6.3615   6.3641   6.3658   6.3722
     6.3769   6.3793   6.3873   6.3992   6.4060   6.4184   6.4199   7.1919
     7.1986   7.2023   7.7431   7.8057   7.8202   7.8369   7.8576   7.8861
     7.9009   7.9441   8.0516   8.0958   8.1243   8.1415   8.1721   8.1938
     8.2045   8.2830   8.3946   8.4198   8.4445   8.4746   8.4851   8.5021
     8.5083   8.5206   8.5326   8.5434   8.5490   8.5579   8.5627   8.5719
     8.5823   8.5875   8.5914   8.5968   8.6143   8.6270   8.6403   8.6444
     8.6589   8.6658   8.6754   8.6992   8.7025   8.7153   8.7326   8.7334
     8.7536   8.7783   8.9655   9.2647   9.3133   9.3381   9.3556   9.4014
     9.4293   9.4561   9.4719   9.4797   9.4902   9.4911   9.5287   9.7083
     9.7095   9.7145  10.0869  10.0992  10.1132  10.1761  10.1970  10.2252
    10.5445  10.5669  10.5903  10.6000  10.6140  10.6271  10.6398  10.6485
    10.6551  10.6637  10.6699  10.6770  10.6883  10.6915  10.7018  10.7099
    10.7187  10.7284  10.7470  10.7613  10.7811  10.7844  10.7950  10.8102
    11.4192  11.4337  11.4555  11.4592  11.4654  11.4682  11.4733  11.4776
    11.4790  11.4907  11.5014  11.5067  11.5131  11.5141  11.5204

     occupation numbers 
     1.0000   1.0000   1.0000   1.0000   1.0000   1.0000   1.0000   1.0000
     1.0000   1.0000   1.0000   1.0000   1.0000   1.0000   1.0000   1.0000
     1.0000   1.0000   1.0000   1.0000   1.0000   1.0000   1.0000   1.0000
     1.0000   1.0000   1.0000   1.0000   1.0000   1.0000   1.0000   1.0000
     1.0000   1.0000   1.0000   1.0000   1.0000   1.0000   1.0000   1.0000
     1.0000   1.0000   1.0000   1.0000   1.0000   1.0000   1.0000   1.0000
     1.0000   1.0000   1.0000   1.0000   1.0000   1.0000   1.0000   1.0000
     1.0000   1.0000   1.0000   1.0000   1.0000   1.0000   1.0000   1.0000
     1.0000   1.0000   1.0000   1.0000   1.0000   1.0000   1.0000   1.0000
     1.0000   1.0000   1.0000   1.0000   1.0000   1.0000   1.0000   1.0000
     1.0000   1.0000   1.0000   1.0000   1.0000   1.0000   1.0000   1.0000
     1.0000   1.0000   1.0000   1.0000   1.0000   1.0000   1.0000   1.0000
     1.0000   1.0000   1.0000   1.0000   1.0000   1.0000   1.0000   1.0000
     1.0000   1.0000   1.0000   1.0000   1.0000   1.0000   1.0000   1.0000
     1.0000   1.0000   1.0000   1.0000   1.0000   1.0000   1.0000   1.0000
     1.0000   1.0000   1.0000   1.0000   1.0000   1.0000   1.0000   1.0000
     1.0000   1.0000   1.0000   1.0000   1.0000   1.0000   1.0000   1.0000
     1.0000   1.0000   1.0000   1.0000   1.0000   1.0000   1.0000   1.0000
     1.0000   1.0000   1.0000   1.0000   1.0000   1.0000   1.0000   1.0000
     1.0000   1.0000   1.0000   1.0000   1.0000   1.0000   1.0000   1.0000
     1.0000   1.0000   1.0000   1.0000   1.0000   1.0000   1.0000   1.0000
     1.0000   1.0000   1.0000   1.0000   1.0000   1.0000   1.0000   1.0000
     1.0000   1.0000   1.0000   1.0000   1.0000   1.0000   1.0000   1.0000
     1.0000   1.0000   1.0000   1.0000   1.0000   1.0000   1.0000   1.0000
     1.0000   1.0000   1.0000   1.0000   1.0000   1.0000   1.0000   1.0000
     1.0000   1.0000   1.0000   1.0000   1.0000   1.0000   1.0000   1.0000
     1.0000   1.0000   1.0000   1.0000   1.0000   1.0000   1.0000   1.0000
     1.0000   1.0000   1.0000   1.0000   1.0000   1.0000   1.0000   1.0000
     1.0000   1.0000   1.0000   1.0000   1.0000   1.0000   1.0000   1.0000
     1.0000   1.0000   1.0000   1.0000   1.0000   1.0000   1.0000   1.0000
     1.0000   1.0000   1.0000   1.0000   1.0000   1.0000   1.0000   1.0000
     1.0000   1.0000   1.0000   1.0000   1.0000   1.0000   1.0000   1.0000
     1.0000   1.0000   1.0000   1.0000   1.0000   1.0000   1.0000   1.0000
     1.0000   1.0000   1.0000   1.0000   1.0000   1.0000   1.0000   1.0000
     1.0000   1.0000   1.0000   1.0000   1.0000   1.0000   1.0000   1.0000
     1.0000   1.0000   1.0000   1.0000   1.0000   1.0000   1.0000   1.0000
     1.0000   1.0000   1.0000   1.0000   1.0000   1.0000   1.0000   1.0000
     1.0000   1.0000   1.0000   1.0000   1.0000   1.0000   1.0000   1.0000
     1.0000   1.0000   1.0000   1.0000   1.0000   1.0000   1.0000   1.0000
     1.0000   1.0000   1.0000   1.0000   1.0000   1.0000   1.0000   1.0000
     1.0000   1.0000   1.0000   1.0000   1.0000   1.0000   1.0000   1.0000
     1.0000   1.0000   1.0000   1.0000   1.0000   1.0000   1.0000   1.0000
     1.0000   1.0000   1.0000   1.0000   1.0000   1.0000   1.0000   1.0000
     1.0000   1.0000   1.0000   1.0000   1.0000   1.0000   1.0000   1.0000
     1.0000   1.0000   1.0000   1.0000   1.0000   1.0000   1.0000   1.0000
     1.0000   1.0000   1.0000   1.0000   1.0000   1.0000   1.0000   1.0000
     1.0000   1.0000   1.0000   1.0000   1.0000   1.0000   1.0000   1.0000
     1.0000   1.0000   1.0000   1.0000   1.0000   1.0000   1.0000   1.0000
     1.0000   1.0000   1.0000   1.0000   1.0000   1.0000   1.0000   1.0000
     1.0000   1.0000   1.0000   1.0000   1.0000   1.0000   1.0000   1.0000
     1.0000   1.0000   1.0000   1.0000   1.0000   1.0000   1.0000   1.0000
     1.0000   1.0000   1.0000   1.0000   1.0000   1.0000   1.0000   1.0000
     1.0000   1.0000   1.0000   1.0000   1.0000   1.0000   1.0000   1.0000
     1.0000   1.0000   1.0000   1.0000   1.0000   1.0000   1.0000   1.0000
     1.0000   1.0000   1.0000   1.0000   1.0000   1.0000   1.0000   1.0000
     1.0000   1.0000   1.0000   1.0000   1.0000   1.0000   1.0000   1.0000
     1.0000   1.0000   1.0000   1.0000   1.0000   1.0000   1.0000   1.0000
     1.0000   1.0000   1.0000   1.0000   1.0000   1.0000   1.0000   1.0000
     1.0000   1.0000   1.0000   1.0000   1.0000   1.0000   1.0000   1.0000
     1.0000   1.0000   1.0000   1.0000   1.0000   1.0000   1.0000   1.0000
     1.0000   1.0000   1.0000   1.0000   1.0000   1.0000   1.0000   1.0000
     1.0000   1.0000   1.0000   1.0000   1.0000   1.0000   1.0000   1.0000
     1.0000   1.0000   1.0000   1.0000   1.0000   1.0000   1.0000   1.0000
     1.0000   1.0000   1.0000   1.0000   1.0000   1.0000   1.0000   1.0000
     1.0000   1.0000   1.0000   1.0000   1.0000   1.0000   1.0000   1.0000
     1.0000   1.0000   1.0000   1.0000   1.0000   1.0000   1.0000   1.0000
     1.0000   1.0000   1.0000   1.0000   1.0000   1.0000   1.0000   1.0000
     1.0000   1.0000   1.0000   1.0000   1.0000   1.0000   1.0000   0.9433
     0.9379   0.9347   0.0127   0.0038   0.0028   0.0020   0.0012   0.0006
     0.0004   0.0001   0.0000   0.0000   0.0000   0.0000   0.0000   0.0000
     0.0000   0.0000   0.0000   0.0000   0.0000   0.0000   0.0000   0.0000
     0.0000   0.0000   0.0000   0.0000   0.0000   0.0000   0.0000   0.0000
     0.0000   0.0000   0.0000   0.0000   0.0000   0.0000   0.0000   0.0000
     0.0000   0.0000   0.0000   0.0000   0.0000   0.0000   0.0000   0.0000
     0.0000   0.0000   0.0000   0.0000   0.0000   0.0000   0.0000   0.0000
     0.0000   0.0000   0.0000   0.0000   0.0000   0.0000   0.0000   0.0000
     0.0000   0.0000   0.0000   0.0000   0.0000   0.0000   0.0000   0.0000
     0.0000   0.0000   0.0000   0.0000   0.0000   0.0000   0.0000   0.0000
     0.0000   0.0000   0.0000   0.0000   0.0000   0.0000   0.0000   0.0000
     0.0000   0.0000   0.0000   0.0000   0.0000   0.0000   0.0000   0.0000
     0.0000   0.0000   0.0000   0.0000   0.0000   0.0000   0.0000   0.0000
     0.0000   0.0000   0.0000   0.0000   0.0000   0.0000   0.0000

          k =-0.3536-0.3536 0.3536 ( 64114 PWs)   bands (ev):

   -17.4750 -17.4685 -17.4683 -17.4645 -17.4619 -17.4527 -17.4512 -17.4500
   -17.4470 -17.4453 -17.4448 -17.4394 -17.4372 -17.4352 -17.4340 -17.4310
   -17.4267 -17.4248 -17.4237 -17.4207 -17.4191 -17.4153 -17.4144 -17.4062
   -17.4049 -17.4029 -17.4005 -17.3942 -17.3937 -17.3887 -17.3869 -17.3808
   -17.3778 -17.3775 -17.3752 -17.3748 -17.3705 -17.3683 -17.3673 -17.3658
   -17.3629 -17.3609 -17.3595 -17.3585 -17.3582 -17.3571 -17.3539 -17.3531
   -17.3510 -17.3492 -17.3459 -17.3393 -17.3389 -17.3368 -17.3357 -17.3335
   -17.3327 -17.3319 -17.3295 -17.3214 -17.3209 -17.3205 -17.3148 -17.3115
   -17.3113 -17.3076 -17.3057 -17.3043 -17.3024 -17.3023 -17.2964 -17.2945
   -17.2933 -17.2922 -17.2886 -17.2873 -17.2865 -17.2851 -17.2846 -17.2825
   -17.2823 -17.2816 -17.2811 -17.2799 -17.2787 -17.2770 -17.2767 -17.2742
   -17.2739 -17.2735 -17.2727 -17.2725 -17.2719 -17.2716 -17.2712 -17.2698
   -17.2696 -17.2690 -17.2685 -17.2671 -17.2666 -17.2645 -17.2599 -17.2562
   -17.2556 -17.2555 -17.2541 -17.2539 -17.2507 -17.2497 -17.2454 -17.2436
   -17.2432 -17.2402 -17.2379 -17.2350 -17.2341 -17.2332 -17.2311 -17.2277
   -17.2224 -17.2210 -17.2206 -17.2202 -17.2190 -17.2181 -17.2172 -17.2171
   -17.2149 -17.2117 -17.2114 -17.2113 -17.2109 -17.2100 -17.2082 -17.2063
   -17.2057 -17.2051 -17.2032 -17.2029 -17.2020 -17.2019 -17.2011 -17.2005
   -17.2004 -17.1998 -17.1997 -17.1991 -17.1988 -17.1985 -17.1981 -17.1976
   -17.1969 -17.1963 -17.1962 -17.1957 -17.1953 -17.1945 -17.1937 -17.1930
   -17.1925 -17.1921 -17.1917 -17.1902 -17.1898 -17.1896 -17.1893 -17.1883
   -17.1878 -17.1873 -17.1871 -17.1862 -17.1860 -17.1852 -17.1842 -17.1832
   -17.1829 -17.1816 -17.1798 -17.1797 -17.1782 -17.1780 -17.1774 -17.1770
   -17.1759 -17.1753 -17.1749 -17.1745 -17.1742 -17.1741 -17.1736 -17.1716
   -17.1713 -17.1704 -17.1694 -17.1686 -17.1681 -17.1668 -17.1663 -17.1654
   -17.1650 -17.1645 -17.1644 -17.1640 -17.1634 -17.1626 -17.1625 -17.1623
   -17.1622 -17.1604 -17.1599 -17.1594 -17.1586 -17.1583 -17.1576 -17.1574
   -17.1571 -17.1570 -17.1568 -17.1564 -17.1557 -17.1550 -17.1546 -17.1541
   -17.1532 -17.1529 -17.1526 -17.1519 -17.1515 -17.1508 -17.1506 -17.1504
   -17.1497 -17.1492 -17.1490 -17.1488 -17.1485 -17.1475 -17.1474 -17.1468
   -17.1463 -17.1460 -17.1415 -17.1410 -17.1403 -17.1402 -17.1400 -17.1390
   -17.1388 -17.1356 -17.1333 -17.1332 -17.1309 -17.1270 -17.1229 -17.1214
   -17.1194 -17.1191 -17.1190 -17.1179 -17.1172 -17.1148 -17.1133 -17.1100
   -17.1072 -17.1033 -17.1009 -17.0976 -17.0958 -17.0953 -17.0950 -17.0928
   -17.0903 -17.0902 -17.0901 -17.0856 -17.0837 -17.0825 -17.0813 -17.0802
   -17.0795 -17.0779 -17.0766 -17.0761 -17.0752 -17.0748 -17.0736 -17.0723
   -17.0714 -17.0663  -5.0879  -5.0551  -4.6907  -4.6605  -4.5718  -4.5668
    -4.4880  -4.3994  -4.1759  -4.1529  -4.0858  -4.0000  -3.9530  -3.8909
    -3.7202  -3.6723  -3.6480  -3.5717  -3.5590  -3.4868  -3.4230  -3.3820
    -3.3059  -3.2665  -3.2546  -3.2002  -3.1388  -3.0802  -3.0416  -3.0323
    -2.9975  -2.9504  -2.9132  -2.8967  -2.8317  -2.7737  -2.7339  -2.7199
    -2.6840  -2.6559  -2.5167  -2.4301  -2.3960  -2.3260  -2.3014  -2.2356
    -2.1326  -2.0528  -2.0425  -2.0183  -1.9713  -1.9336  -1.9199  -1.8914
    -1.8475  -1.8006  -1.7514  -1.7312  -1.6856  -1.6540  -1.6169  -1.6002
    -1.5608  -1.4728  -0.5113  -0.4732  -0.4382  -0.3955  -0.3560  -0.3389
    -0.2877  -0.2820  -0.2341  -0.2221  -0.2019  -0.1667  -0.1398  -0.1105
    -0.0826  -0.0463  -0.0195   0.0381   0.0543   0.0656   0.0960   0.1156
     0.1472   0.1912   0.1943   0.2132   0.2363   0.2495   0.2933   0.3336
     0.7329   0.7764   0.8036   0.8613   0.8947   0.9209   0.9445   0.9631
     0.9878   1.0306   1.0354   1.0725   1.1039   1.1275   1.6785   1.7186
     1.7454   1.8085   1.8547   1.8759   2.1538   2.1642   2.1839   2.2282
     2.2572   2.3081   3.0333   3.0365   3.0413   3.0429   3.0481   3.0508
     3.0537   3.0560   3.0591   3.0625   3.0663   3.0679   3.0785   3.0832
     3.0864   3.0902   3.0949   3.1078   3.5058   3.5274   3.5730   3.5916
     3.6246   3.6575   3.6595   3.6639   3.6647   3.6693   3.6714   3.6727
     3.7102   3.7138   3.7196   3.7248   3.7303   3.7344   3.7386   3.7482
     3.7515   3.7598   3.7637   3.7745   4.1361   4.1389   4.1404   4.1421
     4.1438   4.1464   4.1478   4.1504   4.1519   4.1536   4.1561   4.1585
     4.3808   4.3867   4.3901   4.3920   4.3940   4.3955   4.3970   4.3986
     4.4075   4.4123   4.4171   4.4293   4.6866   4.7024   4.7102   4.7224
     4.7244   4.7312   4.7360   4.7491   4.7500   4.7618   4.7646   4.7704
     4.8747   4.8768   4.8828   4.8888   4.8917   4.8957   5.1435   5.1465
     5.1564   5.1625   5.1631   5.1664   5.1707   5.1725   5.1745   5.1809
     5.1822   5.1904   5.1992   5.2021   5.2029   5.2052   5.2100   5.2142
     5.3255   5.3483   5.5115   5.5172   5.5233   5.5262   5.5419   5.5530
     5.7789   5.7812   5.7975   5.8006   5.8051   5.8074   5.8120   5.8169
     5.8237   5.8283   5.8365   5.8437   6.0104   6.0135   6.0188   6.0215
     6.3134   6.3381   6.3456   6.3502   6.3559   6.3694   6.8709   6.8783
     6.8897   6.8980   7.9410   7.9723   7.9926   8.0007   8.0364   8.0595
     8.1535   8.1649   8.3847   8.4001   8.4137   8.4251   8.4420   8.4672
     8.8015   8.8387   8.8424   8.8552   8.8677   8.8800   8.8977   8.9305
     8.9680   8.9748   8.9919   9.0209   9.0368   9.0608   9.0766   9.0813
     9.0872   9.1059   9.1366   9.1541   9.1704   9.1875   9.2083   9.2207
     9.2282   9.2325   9.3190   9.3408   9.3637   9.4021   9.4108   9.4254
     9.4429   9.4456   9.4572   9.4639   9.4818   9.4905   9.4973   9.5244
     9.5357   9.5524   9.5751   9.5926   9.8267   9.8348   9.8476   9.8632
     9.8846   9.8898   9.8922   9.9087   9.9175   9.9284   9.9372   9.9460
     9.9702   9.9753   9.9919  10.0079  10.0280  10.0760  10.1242  10.1339
    10.1544  10.1679  10.3430  10.3526  10.3668  10.3694  10.3838  10.4028
    10.4659  10.5170  10.5369  10.5478  10.5579  10.5726  10.5922  10.5990
    10.6025  10.6090  10.6401  10.6426  10.6538  10.6569  10.6731  10.6921
    10.7225  10.7314  10.7368  10.7479  10.7558  10.7586  10.8148

     occupation numbers 
     1.0000   1.0000   1.0000   1.0000   1.0000   1.0000   1.0000   1.0000
     1.0000   1.0000   1.0000   1.0000   1.0000   1.0000   1.0000   1.0000
     1.0000   1.0000   1.0000   1.0000   1.0000   1.0000   1.0000   1.0000
     1.0000   1.0000   1.0000   1.0000   1.0000   1.0000   1.0000   1.0000
     1.0000   1.0000   1.0000   1.0000   1.0000   1.0000   1.0000   1.0000
     1.0000   1.0000   1.0000   1.0000   1.0000   1.0000   1.0000   1.0000
     1.0000   1.0000   1.0000   1.0000   1.0000   1.0000   1.0000   1.0000
     1.0000   1.0000   1.0000   1.0000   1.0000   1.0000   1.0000   1.0000
     1.0000   1.0000   1.0000   1.0000   1.0000   1.0000   1.0000   1.0000
     1.0000   1.0000   1.0000   1.0000   1.0000   1.0000   1.0000   1.0000
     1.0000   1.0000   1.0000   1.0000   1.0000   1.0000   1.0000   1.0000
     1.0000   1.0000   1.0000   1.0000   1.0000   1.0000   1.0000   1.0000
     1.0000   1.0000   1.0000   1.0000   1.0000   1.0000   1.0000   1.0000
     1.0000   1.0000   1.0000   1.0000   1.0000   1.0000   1.0000   1.0000
     1.0000   1.0000   1.0000   1.0000   1.0000   1.0000   1.0000   1.0000
     1.0000   1.0000   1.0000   1.0000   1.0000   1.0000   1.0000   1.0000
     1.0000   1.0000   1.0000   1.0000   1.0000   1.0000   1.0000   1.0000
     1.0000   1.0000   1.0000   1.0000   1.0000   1.0000   1.0000   1.0000
     1.0000   1.0000   1.0000   1.0000   1.0000   1.0000   1.0000   1.0000
     1.0000   1.0000   1.0000   1.0000   1.0000   1.0000   1.0000   1.0000
     1.0000   1.0000   1.0000   1.0000   1.0000   1.0000   1.0000   1.0000
     1.0000   1.0000   1.0000   1.0000   1.0000   1.0000   1.0000   1.0000
     1.0000   1.0000   1.0000   1.0000   1.0000   1.0000   1.0000   1.0000
     1.0000   1.0000   1.0000   1.0000   1.0000   1.0000   1.0000   1.0000
     1.0000   1.0000   1.0000   1.0000   1.0000   1.0000   1.0000   1.0000
     1.0000   1.0000   1.0000   1.0000   1.0000   1.0000   1.0000   1.0000
     1.0000   1.0000   1.0000   1.0000   1.0000   1.0000   1.0000   1.0000
     1.0000   1.0000   1.0000   1.0000   1.0000   1.0000   1.0000   1.0000
     1.0000   1.0000   1.0000   1.0000   1.0000   1.0000   1.0000   1.0000
     1.0000   1.0000   1.0000   1.0000   1.0000   1.0000   1.0000   1.0000
     1.0000   1.0000   1.0000   1.0000   1.0000   1.0000   1.0000   1.0000
     1.0000   1.0000   1.0000   1.0000   1.0000   1.0000   1.0000   1.0000
     1.0000   1.0000   1.0000   1.0000   1.0000   1.0000   1.0000   1.0000
     1.0000   1.0000   1.0000   1.0000   1.0000   1.0000   1.0000   1.0000
     1.0000   1.0000   1.0000   1.0000   1.0000   1.0000   1.0000   1.0000
     1.0000   1.0000   1.0000   1.0000   1.0000   1.0000   1.0000   1.0000
     1.0000   1.0000   1.0000   1.0000   1.0000   1.0000   1.0000   1.0000
     1.0000   1.0000   1.0000   1.0000   1.0000   1.0000   1.0000   1.0000
     1.0000   1.0000   1.0000   1.0000   1.0000   1.0000   1.0000   1.0000
     1.0000   1.0000   1.0000   1.0000   1.0000   1.0000   1.0000   1.0000
     1.0000   1.0000   1.0000   1.0000   1.0000   1.0000   1.0000   1.0000
     1.0000   1.0000   1.0000   1.0000   1.0000   1.0000   1.0000   1.0000
     1.0000   1.0000   1.0000   1.0000   1.0000   1.0000   1.0000   1.0000
     1.0000   1.0000   1.0000   1.0000   1.0000   1.0000   1.0000   1.0000
     1.0000   1.0000   1.0000   1.0000   1.0000   1.0000   1.0000   1.0000
     1.0000   1.0000   1.0000   1.0000   1.0000   1.0000   1.0000   1.0000
     1.0000   1.0000   1.0000   1.0000   1.0000   1.0000   1.0000   1.0000
     1.0000   1.0000   1.0000   1.0000   1.0000   1.0000   1.0000   1.0000
     1.0000   1.0000   1.0000   1.0000   1.0000   1.0000   1.0000   1.0000
     1.0000   1.0000   1.0000   1.0000   1.0000   1.0000   1.0000   1.0000
     1.0000   1.0000   1.0000   1.0000   1.0000   1.0000   1.0000   1.0000
     1.0000   1.0000   1.0000   1.0000   1.0000   1.0000   1.0000   1.0000
     1.0000   1.0000   1.0000   1.0000   1.0000   1.0000   1.0000   1.0000
     1.0000   1.0000   1.0000   1.0000   1.0000   1.0000   1.0000   1.0000
     1.0000   1.0000   1.0000   1.0000   1.0000   1.0000   1.0000   1.0000
     1.0000   1.0000   1.0000   1.0000   1.0000   1.0000   1.0000   1.0000
     1.0000   1.0000   1.0000   1.0000   1.0000   1.0000   1.0000   1.0000
     1.0000   1.0000   1.0000   1.0000   1.0000   1.0000   1.0000   1.0000
     1.0000   1.0000   1.0000   1.0000   1.0000   1.0000   1.0000   1.0000
     1.0000   1.0000   1.0000   1.0000   1.0000   1.0000   1.0000   1.0000
     1.0000   1.0000   1.0000   1.0000   1.0000   1.0000   1.0000   1.0000
     1.0000   1.0000   1.0000   1.0000   1.0000   1.0000   1.0000   1.0000
     1.0000   1.0000   1.0000   1.0000   1.0000   1.0000   1.0000   1.0000
     1.0000   1.0000   1.0000   1.0000   1.0000   1.0000   1.0000   1.0000
     1.0000   1.0000   1.0000   1.0000   1.0000   1.0000   1.0000   1.0000
     1.0000   1.0000   1.0000   1.0000   1.0000   1.0000   1.0000   1.0000
     1.0000   1.0000   1.0000   1.0000   1.0000   1.0000   1.0000   1.0000
     1.0000   1.0000   1.0000   1.0000   1.0000   1.0000   0.9999   0.9999
     0.9999   0.9999   0.0002   0.0001   0.0000   0.0000   0.0000   0.0000
     0.0000   0.0000   0.0000   0.0000   0.0000   0.0000   0.0000   0.0000
     0.0000   0.0000   0.0000   0.0000   0.0000   0.0000   0.0000   0.0000
     0.0000   0.0000   0.0000   0.0000   0.0000   0.0000   0.0000   0.0000
     0.0000   0.0000   0.0000   0.0000   0.0000   0.0000   0.0000   0.0000
     0.0000   0.0000   0.0000   0.0000   0.0000   0.0000   0.0000   0.0000
     0.0000   0.0000   0.0000   0.0000   0.0000   0.0000   0.0000   0.0000
     0.0000   0.0000   0.0000   0.0000   0.0000   0.0000   0.0000   0.0000
     0.0000   0.0000   0.0000   0.0000   0.0000   0.0000   0.0000   0.0000
     0.0000   0.0000   0.0000   0.0000   0.0000   0.0000   0.0000   0.0000
     0.0000   0.0000   0.0000   0.0000   0.0000   0.0000   0.0000   0.0000
     0.0000   0.0000   0.0000   0.0000   0.0000   0.0000   0.0000   0.0000
     0.0000   0.0000   0.0000   0.0000   0.0000   0.0000   0.0000   0.0000
     0.0000   0.0000   0.0000   0.0000   0.0000   0.0000   0.0000

          k =-0.7071 0.0000 0.0000 ( 64192 PWs)   bands (ev):

   -17.4750 -17.4685 -17.4684 -17.4645 -17.4618 -17.4527 -17.4513 -17.4500
   -17.4470 -17.4453 -17.4448 -17.4394 -17.4371 -17.4352 -17.4340 -17.4310
   -17.4267 -17.4248 -17.4237 -17.4207 -17.4192 -17.4154 -17.4143 -17.4062
   -17.4048 -17.4029 -17.4005 -17.3943 -17.3936 -17.3887 -17.3869 -17.3808
   -17.3777 -17.3775 -17.3754 -17.3747 -17.3705 -17.3683 -17.3674 -17.3658
   -17.3629 -17.3609 -17.3596 -17.3585 -17.3582 -17.3571 -17.3539 -17.3531
   -17.3509 -17.3492 -17.3458 -17.3393 -17.3389 -17.3368 -17.3358 -17.3335
   -17.3328 -17.3320 -17.3295 -17.3215 -17.3210 -17.3205 -17.3148 -17.3115
   -17.3112 -17.3075 -17.3057 -17.3043 -17.3024 -17.3023 -17.2964 -17.2946
   -17.2933 -17.2922 -17.2887 -17.2873 -17.2865 -17.2852 -17.2846 -17.2826
   -17.2824 -17.2815 -17.2811 -17.2799 -17.2787 -17.2771 -17.2767 -17.2741
   -17.2740 -17.2736 -17.2726 -17.2724 -17.2721 -17.2717 -17.2712 -17.2698
   -17.2696 -17.2690 -17.2685 -17.2671 -17.2665 -17.2645 -17.2598 -17.2563
   -17.2555 -17.2552 -17.2545 -17.2541 -17.2507 -17.2497 -17.2454 -17.2437
   -17.2432 -17.2400 -17.2379 -17.2350 -17.2341 -17.2333 -17.2312 -17.2275
   -17.2224 -17.2209 -17.2206 -17.2202 -17.2192 -17.2181 -17.2172 -17.2170
   -17.2147 -17.2117 -17.2115 -17.2111 -17.2108 -17.2100 -17.2082 -17.2066
   -17.2058 -17.2051 -17.2032 -17.2032 -17.2021 -17.2018 -17.2016 -17.2007
   -17.2004 -17.1998 -17.1996 -17.1993 -17.1987 -17.1983 -17.1979 -17.1973
   -17.1967 -17.1965 -17.1962 -17.1954 -17.1953 -17.1945 -17.1937 -17.1931
   -17.1926 -17.1922 -17.1917 -17.1902 -17.1900 -17.1897 -17.1893 -17.1881
   -17.1878 -17.1874 -17.1872 -17.1867 -17.1854 -17.1848 -17.1840 -17.1832
   -17.1826 -17.1821 -17.1798 -17.1796 -17.1786 -17.1781 -17.1777 -17.1765
   -17.1760 -17.1751 -17.1750 -17.1744 -17.1743 -17.1739 -17.1736 -17.1716
   -17.1713 -17.1706 -17.1695 -17.1686 -17.1682 -17.1669 -17.1661 -17.1655
   -17.1649 -17.1645 -17.1644 -17.1639 -17.1633 -17.1627 -17.1626 -17.1624
   -17.1622 -17.1604 -17.1600 -17.1594 -17.1585 -17.1583 -17.1576 -17.1574
   -17.1571 -17.1569 -17.1567 -17.1562 -17.1557 -17.1551 -17.1547 -17.1540
   -17.1533 -17.1528 -17.1527 -17.1518 -17.1515 -17.1508 -17.1506 -17.1503
   -17.1496 -17.1491 -17.1490 -17.1488 -17.1485 -17.1476 -17.1475 -17.1468
   -17.1464 -17.1460 -17.1415 -17.1407 -17.1404 -17.1403 -17.1400 -17.1390
   -17.1388 -17.1356 -17.1333 -17.1332 -17.1309 -17.1271 -17.1229 -17.1214
   -17.1192 -17.1192 -17.1190 -17.1180 -17.1172 -17.1149 -17.1133 -17.1100
   -17.1072 -17.1034 -17.1011 -17.0975 -17.0960 -17.0953 -17.0948 -17.0926
   -17.0906 -17.0902 -17.0900 -17.0857 -17.0837 -17.0826 -17.0810 -17.0801
   -17.0797 -17.0780 -17.0766 -17.0760 -17.0752 -17.0748 -17.0738 -17.0723
   -17.0714 -17.0664  -5.0619  -4.9462  -4.8347  -4.8011  -4.7089  -4.6530
    -4.2157  -4.1663  -4.1057  -4.0165  -3.9740  -3.9457  -3.9405  -3.8518
    -3.8231  -3.8019  -3.7686  -3.7141  -3.6561  -3.6290  -3.5835  -3.4618
    -3.3344  -3.2514  -3.1949  -3.1740  -3.1526  -3.0569  -3.0382  -2.9874
    -2.9527  -2.8921  -2.8269  -2.8031  -2.7212  -2.6970  -2.6256  -2.6040
    -2.5762  -2.5337  -2.5011  -2.4682  -2.4365  -2.3869  -2.3740  -2.3451
    -2.3084  -2.2386  -2.2083  -2.1750  -2.1139  -2.0755  -2.0280  -2.0013
    -1.9717  -1.9283  -1.5843  -1.5656  -1.5357  -1.4570  -1.1480  -1.1114
    -1.0836  -1.0736  -1.0432  -1.0129  -0.9476  -0.8645  -0.5894  -0.5603
    -0.4845  -0.4531  -0.1378  -0.1105  -0.0812  -0.0667  -0.0347   0.0012
     0.0266   0.0390   0.0498   0.1011   0.1290   0.1625   0.1819   0.2399
     0.2421   0.2930   0.4184   0.4274   0.4371   0.4735   0.5098   0.5418
     0.5653   0.5899   0.6648   0.6772   0.7436   0.7596   0.7807   0.7953
     0.8212   0.8706   1.0224   1.0470   1.4794   1.4982   1.5345   1.5584
     1.5695   1.5926   1.6289   1.6396   2.2979   2.3865   2.4226   2.4583
     2.5003   2.5099   2.5447   2.5924   2.8244   2.8297   2.8347   2.8361
     2.8825   2.8878   2.8906   2.8913   2.8961   2.8970   2.9045   2.9058
     3.5535   3.5626   3.5707   3.5761   3.5811   3.5881   3.5915   3.5947
     3.6773   3.6789   3.6804   3.6867   3.6878   3.6887   3.6910   3.6965
     3.7234   3.7267   3.7291   3.7310   3.7345   3.7383   3.7387   3.7425
     4.0845   4.1066   4.1575   4.1870   4.3392   4.3401   4.3430   4.3453
     4.3455   4.3483   4.3513   4.3541   4.3617   4.3680   4.3781   4.3853
     4.3874   4.3888   4.3966   4.4078   4.4628   4.4683   4.4761   4.4805
     4.5126   4.5149   4.5154   4.5172   4.5179   4.5212   4.5239   4.5271
     4.5377   4.5382   4.5547   4.5606   4.5644   4.5681   4.5784   4.5835
     4.6494   4.6516   4.6557   4.6601   4.9330   4.9351   4.9400   4.9415
     4.9435   4.9464   4.9506   4.9536   5.1444   5.1571   5.1634   5.1733
     5.1797   5.1933   5.1963   5.2010   5.4355   5.4755   5.4818   5.4961
     5.5001   5.5017   5.5083   5.5117   5.5145   5.5184   5.5202   5.5255
     5.5351   5.5371   5.6492   5.6597   5.6600   5.6656   5.6665   5.6747
     5.6814   5.6929   5.8151   5.8185   5.8226   5.8295   5.8342   5.8389
     5.8470   5.8509   6.3350   6.3359   6.3595   6.3684   6.8429   6.8454
     6.8738   6.8843   7.6906   7.7095   8.2637   8.2722   8.3047   8.3194
     8.6560   8.6618   8.9253   8.9319   8.9426   8.9524   8.9550   8.9646
     8.9788   8.9938   9.0003   9.0124   9.0231   9.0299   9.0377   9.0417
     9.0499   9.0564   9.0627   9.0756   9.0859   9.0929   9.1071   9.1087
     9.1248   9.1384   9.1505   9.1642   9.1663   9.1748   9.1843   9.1982
     9.2112   9.2238   9.2416   9.2721   9.4515   9.4671   9.5048   9.5131
     9.5349   9.5550   9.5638   9.5873   9.6162   9.6264   9.6451   9.6603
     9.7064   9.7360   9.7513   9.7604   9.7679   9.7750   9.7889   9.8117
     9.8510   9.8760   9.8883   9.8999   9.9070   9.9169   9.9311   9.9419
     9.9558   9.9652   9.9758   9.9952  10.0034  10.0111  10.0294  10.0433
    10.2249  10.2409  10.2536  10.2652  10.3121  10.3409  10.3481  10.3604
    10.3762  10.3912  10.4038  10.4089  10.4339  10.4464  10.4529  10.4665
    10.4893  10.5007  10.5062  10.5198  10.5435  10.5665  10.5782  10.5871
    10.6079  10.6182  10.6280  10.6403  10.6529  10.6662  10.6668

     occupation numbers 
     1.0000   1.0000   1.0000   1.0000   1.0000   1.0000   1.0000   1.0000
     1.0000   1.0000   1.0000   1.0000   1.0000   1.0000   1.0000   1.0000
     1.0000   1.0000   1.0000   1.0000   1.0000   1.0000   1.0000   1.0000
     1.0000   1.0000   1.0000   1.0000   1.0000   1.0000   1.0000   1.0000
     1.0000   1.0000   1.0000   1.0000   1.0000   1.0000   1.0000   1.0000
     1.0000   1.0000   1.0000   1.0000   1.0000   1.0000   1.0000   1.0000
     1.0000   1.0000   1.0000   1.0000   1.0000   1.0000   1.0000   1.0000
     1.0000   1.0000   1.0000   1.0000   1.0000   1.0000   1.0000   1.0000
     1.0000   1.0000   1.0000   1.0000   1.0000   1.0000   1.0000   1.0000
     1.0000   1.0000   1.0000   1.0000   1.0000   1.0000   1.0000   1.0000
     1.0000   1.0000   1.0000   1.0000   1.0000   1.0000   1.0000   1.0000
     1.0000   1.0000   1.0000   1.0000   1.0000   1.0000   1.0000   1.0000
     1.0000   1.0000   1.0000   1.0000   1.0000   1.0000   1.0000   1.0000
     1.0000   1.0000   1.0000   1.0000   1.0000   1.0000   1.0000   1.0000
     1.0000   1.0000   1.0000   1.0000   1.0000   1.0000   1.0000   1.0000
     1.0000   1.0000   1.0000   1.0000   1.0000   1.0000   1.0000   1.0000
     1.0000   1.0000   1.0000   1.0000   1.0000   1.0000   1.0000   1.0000
     1.0000   1.0000   1.0000   1.0000   1.0000   1.0000   1.0000   1.0000
     1.0000   1.0000   1.0000   1.0000   1.0000   1.0000   1.0000   1.0000
     1.0000   1.0000   1.0000   1.0000   1.0000   1.0000   1.0000   1.0000
     1.0000   1.0000   1.0000   1.0000   1.0000   1.0000   1.0000   1.0000
     1.0000   1.0000   1.0000   1.0000   1.0000   1.0000   1.0000   1.0000
     1.0000   1.0000   1.0000   1.0000   1.0000   1.0000   1.0000   1.0000
     1.0000   1.0000   1.0000   1.0000   1.0000   1.0000   1.0000   1.0000
     1.0000   1.0000   1.0000   1.0000   1.0000   1.0000   1.0000   1.0000
     1.0000   1.0000   1.0000   1.0000   1.0000   1.0000   1.0000   1.0000
     1.0000   1.0000   1.0000   1.0000   1.0000   1.0000   1.0000   1.0000
     1.0000   1.0000   1.0000   1.0000   1.0000   1.0000   1.0000   1.0000
     1.0000   1.0000   1.0000   1.0000   1.0000   1.0000   1.0000   1.0000
     1.0000   1.0000   1.0000   1.0000   1.0000   1.0000   1.0000   1.0000
     1.0000   1.0000   1.0000   1.0000   1.0000   1.0000   1.0000   1.0000
     1.0000   1.0000   1.0000   1.0000   1.0000   1.0000   1.0000   1.0000
     1.0000   1.0000   1.0000   1.0000   1.0000   1.0000   1.0000   1.0000
     1.0000   1.0000   1.0000   1.0000   1.0000   1.0000   1.0000   1.0000
     1.0000   1.0000   1.0000   1.0000   1.0000   1.0000   1.0000   1.0000
     1.0000   1.0000   1.0000   1.0000   1.0000   1.0000   1.0000   1.0000
     1.0000   1.0000   1.0000   1.0000   1.0000   1.0000   1.0000   1.0000
     1.0000   1.0000   1.0000   1.0000   1.0000   1.0000   1.0000   1.0000
     1.0000   1.0000   1.0000   1.0000   1.0000   1.0000   1.0000   1.0000
     1.0000   1.0000   1.0000   1.0000   1.0000   1.0000   1.0000   1.0000
     1.0000   1.0000   1.0000   1.0000   1.0000   1.0000   1.0000   1.0000
     1.0000   1.0000   1.0000   1.0000   1.0000   1.0000   1.0000   1.0000
     1.0000   1.0000   1.0000   1.0000   1.0000   1.0000   1.0000   1.0000
     1.0000   1.0000   1.0000   1.0000   1.0000   1.0000   1.0000   1.0000
     1.0000   1.0000   1.0000   1.0000   1.0000   1.0000   1.0000   1.0000
     1.0000   1.0000   1.0000   1.0000   1.0000   1.0000   1.0000   1.0000
     1.0000   1.0000   1.0000   1.0000   1.0000   1.0000   1.0000   1.0000
     1.0000   1.0000   1.0000   1.0000   1.0000   1.0000   1.0000   1.0000
     1.0000   1.0000   1.0000   1.0000   1.0000   1.0000   1.0000   1.0000
     1.0000   1.0000   1.0000   1.0000   1.0000   1.0000   1.0000   1.0000
     1.0000   1.0000   1.0000   1.0000   1.0000   1.0000   1.0000   1.0000
     1.0000   1.0000   1.0000   1.0000   1.0000   1.0000   1.0000   1.0000
     1.0000   1.0000   1.0000   1.0000   1.0000   1.0000   1.0000   1.0000
     1.0000   1.0000   1.0000   1.0000   1.0000   1.0000   1.0000   1.0000
     1.0000   1.0000   1.0000   1.0000   1.0000   1.0000   1.0000   1.0000
     1.0000   1.0000   1.0000   1.0000   1.0000   1.0000   1.0000   1.0000
     1.0000   1.0000   1.0000   1.0000   1.0000   1.0000   1.0000   1.0000
     1.0000   1.0000   1.0000   1.0000   1.0000   1.0000   1.0000   1.0000
     1.0000   1.0000   1.0000   1.0000   1.0000   1.0000   1.0000   1.0000
     1.0000   1.0000   1.0000   1.0000   1.0000   1.0000   1.0000   1.0000
     1.0000   1.0000   1.0000   1.0000   1.0000   1.0000   1.0000   1.0000
     1.0000   1.0000   1.0000   1.0000   1.0000   1.0000   1.0000   1.0000
     1.0000   1.0000   1.0000   1.0000   1.0000   1.0000   1.0000   1.0000
     1.0000   1.0000   1.0000   1.0000   1.0000   1.0000   1.0000   1.0000
     1.0000   1.0000   1.0000   1.0000   1.0000   1.0000   1.0000   1.0000
     1.0000   1.0000   1.0000   1.0000   1.0000   1.0000   1.0000   1.0000
     1.0000   1.0000   1.0000   1.0000   1.0000   1.0000   1.0000   1.0000
     1.0000   1.0000   1.0000   1.0000   1.0000   1.0000   1.0000   1.0000
     0.9999   0.9999   0.0306   0.0226   0.0000   0.0000   0.0000   0.0000
     0.0000   0.0000   0.0000   0.0000   0.0000   0.0000   0.0000   0.0000
     0.0000   0.0000   0.0000   0.0000   0.0000   0.0000   0.0000   0.0000
     0.0000   0.0000   0.0000   0.0000   0.0000   0.0000   0.0000   0.0000
     0.0000   0.0000   0.0000   0.0000   0.0000   0.0000   0.0000   0.0000
     0.0000   0.0000   0.0000   0.0000   0.0000   0.0000   0.0000   0.0000
     0.0000   0.0000   0.0000   0.0000   0.0000   0.0000   0.0000   0.0000
     0.0000   0.0000   0.0000   0.0000   0.0000   0.0000   0.0000   0.0000
     0.0000   0.0000   0.0000   0.0000   0.0000   0.0000   0.0000   0.0000
     0.0000   0.0000   0.0000   0.0000   0.0000   0.0000   0.0000   0.0000
     0.0000   0.0000   0.0000   0.0000   0.0000   0.0000   0.0000   0.0000
     0.0000   0.0000   0.0000   0.0000   0.0000   0.0000   0.0000   0.0000
     0.0000   0.0000   0.0000   0.0000   0.0000   0.0000   0.0000   0.0000
     0.0000   0.0000   0.0000   0.0000   0.0000   0.0000   0.0000

          k = 0.3536 0.3536 0.3536 ( 64114 PWs)   bands (ev):

   -17.4750 -17.4685 -17.4684 -17.4645 -17.4618 -17.4527 -17.4512 -17.4500
   -17.4469 -17.4454 -17.4447 -17.4394 -17.4372 -17.4352 -17.4339 -17.4310
   -17.4267 -17.4248 -17.4237 -17.4206 -17.4192 -17.4154 -17.4142 -17.4062
   -17.4049 -17.4030 -17.4004 -17.3942 -17.3937 -17.3887 -17.3868 -17.3808
   -17.3777 -17.3775 -17.3753 -17.3749 -17.3706 -17.3682 -17.3673 -17.3658
   -17.3629 -17.3609 -17.3595 -17.3585 -17.3582 -17.3570 -17.3538 -17.3531
   -17.3510 -17.3492 -17.3459 -17.3393 -17.3389 -17.3368 -17.3357 -17.3335
   -17.3327 -17.3319 -17.3295 -17.3214 -17.3210 -17.3205 -17.3148 -17.3115
   -17.3112 -17.3075 -17.3057 -17.3043 -17.3024 -17.3023 -17.2964 -17.2945
   -17.2933 -17.2921 -17.2887 -17.2873 -17.2866 -17.2851 -17.2846 -17.2825
   -17.2822 -17.2817 -17.2812 -17.2799 -17.2787 -17.2770 -17.2766 -17.2742
   -17.2739 -17.2736 -17.2726 -17.2723 -17.2721 -17.2715 -17.2713 -17.2699
   -17.2696 -17.2690 -17.2685 -17.2671 -17.2665 -17.2645 -17.2598 -17.2561
   -17.2556 -17.2554 -17.2544 -17.2541 -17.2507 -17.2497 -17.2454 -17.2436
   -17.2432 -17.2400 -17.2379 -17.2350 -17.2342 -17.2332 -17.2311 -17.2276
   -17.2224 -17.2209 -17.2207 -17.2200 -17.2193 -17.2180 -17.2172 -17.2169
   -17.2147 -17.2117 -17.2115 -17.2111 -17.2108 -17.2101 -17.2082 -17.2063
   -17.2060 -17.2051 -17.2034 -17.2030 -17.2021 -17.2018 -17.2016 -17.2007
   -17.2004 -17.1998 -17.1995 -17.1991 -17.1989 -17.1983 -17.1981 -17.1971
   -17.1968 -17.1965 -17.1963 -17.1955 -17.1953 -17.1945 -17.1938 -17.1931
   -17.1925 -17.1923 -17.1917 -17.1902 -17.1897 -17.1897 -17.1893 -17.1885
   -17.1878 -17.1872 -17.1869 -17.1867 -17.1856 -17.1847 -17.1841 -17.1833
   -17.1825 -17.1821 -17.1798 -17.1797 -17.1786 -17.1781 -17.1777 -17.1764
   -17.1760 -17.1752 -17.1748 -17.1745 -17.1743 -17.1740 -17.1735 -17.1716
   -17.1715 -17.1704 -17.1695 -17.1686 -17.1681 -17.1669 -17.1661 -17.1653
   -17.1651 -17.1647 -17.1643 -17.1640 -17.1633 -17.1626 -17.1625 -17.1622
   -17.1622 -17.1604 -17.1601 -17.1594 -17.1586 -17.1584 -17.1576 -17.1574
   -17.1571 -17.1569 -17.1568 -17.1564 -17.1556 -17.1551 -17.1546 -17.1540
   -17.1533 -17.1528 -17.1527 -17.1517 -17.1517 -17.1508 -17.1506 -17.1503
   -17.1496 -17.1490 -17.1490 -17.1489 -17.1485 -17.1476 -17.1475 -17.1468
   -17.1463 -17.1459 -17.1415 -17.1408 -17.1404 -17.1402 -17.1399 -17.1390
   -17.1389 -17.1355 -17.1333 -17.1332 -17.1309 -17.1271 -17.1229 -17.1214
   -17.1194 -17.1191 -17.1190 -17.1179 -17.1172 -17.1148 -17.1133 -17.1100
   -17.1071 -17.1033 -17.1010 -17.0975 -17.0959 -17.0953 -17.0949 -17.0927
   -17.0904 -17.0902 -17.0901 -17.0856 -17.0837 -17.0825 -17.0812 -17.0802
   -17.0796 -17.0779 -17.0766 -17.0759 -17.0753 -17.0748 -17.0738 -17.0723
   -17.0714 -17.0664  -5.0926  -5.0480  -4.7006  -4.6335  -4.5942  -4.5710
    -4.4934  -4.4035  -4.1731  -4.1172  -4.0924  -3.9968  -3.9372  -3.9168
    -3.7268  -3.7053  -3.6315  -3.6196  -3.4986  -3.4524  -3.4289  -3.3746
    -3.3423  -3.2457  -3.1963  -3.1800  -3.1642  -3.1083  -3.0988  -3.0367
    -2.9874  -2.9434  -2.9208  -2.8966  -2.8331  -2.7945  -2.7511  -2.7082
    -2.6867  -2.6514  -2.4969  -2.4770  -2.4050  -2.3283  -2.2726  -2.2415
    -2.1267  -2.0690  -2.0058  -1.9711  -1.9609  -1.9003  -1.8769  -1.8443
    -1.8089  -1.7885  -1.7658  -1.7519  -1.7369  -1.7194  -1.6661  -1.5732
    -1.5638  -1.5328  -0.5100  -0.4617  -0.4069  -0.3557  -0.3401  -0.3060
    -0.2900  -0.2746  -0.2537  -0.2248  -0.1989  -0.1797  -0.1424  -0.1251
    -0.1013  -0.0527  -0.0233   0.0030   0.0504   0.0670   0.0785   0.1311
     0.1587   0.1701   0.1804   0.2109   0.2554   0.2645   0.2848   0.3114
     0.7348   0.7619   0.8156   0.8854   0.9159   0.9431   0.9461   0.9647
     0.9863   1.0016   1.0445   1.0625   1.0800   1.1381   1.6919   1.7285
     1.7578   1.8029   1.8395   1.8745   2.1428   2.1550   2.2029   2.2371
     2.2631   2.2829   3.0290   3.0382   3.0395   3.0476   3.0488   3.0529
     3.0552   3.0586   3.0605   3.0638   3.0651   3.0713   3.0741   3.0798
     3.0848   3.0900   3.0978   3.1073   3.5138   3.5295   3.5669   3.6043
     3.6381   3.6577   3.6582   3.6607   3.6621   3.6665   3.6676   3.6709
     3.7098   3.7164   3.7199   3.7274   3.7300   3.7331   3.7386   3.7467
     3.7471   3.7573   3.7607   3.7697   4.1378   4.1385   4.1407   4.1415
     4.1438   4.1452   4.1465   4.1480   4.1531   4.1537   4.1572   4.1587
     4.3791   4.3857   4.3892   4.3897   4.3947   4.3969   4.3985   4.4047
     4.4073   4.4154   4.4189   4.4257   4.6867   4.7112   4.7179   4.7224
     4.7242   4.7274   4.7373   4.7428   4.7441   4.7558   4.7639   4.7695
     4.8760   4.8796   4.8854   4.8876   4.8904   4.8939   5.1422   5.1491
     5.1559   5.1603   5.1625   5.1643   5.1663   5.1688   5.1767   5.1803
     5.1849   5.1874   5.1969   5.2020   5.2037   5.2056   5.2111   5.2133
     5.3237   5.3475   5.5094   5.5154   5.5253   5.5375   5.5449   5.5467
     5.7851   5.7869   5.7949   5.8029   5.8043   5.8057   5.8129   5.8150
     5.8193   5.8244   5.8345   5.8373   6.0063   6.0150   6.0208   6.0246
     6.3281   6.3324   6.3379   6.3518   6.3633   6.3661   6.8727   6.8793
     6.8889   6.8971   7.9377   7.9704   7.9994   8.0163   8.0398   8.0431
     8.1523   8.1707   8.3867   8.4074   8.4125   8.4274   8.4398   8.4562
     8.8135   8.8265   8.8333   8.8607   8.8800   8.8833   8.9095   8.9194
[...]
     atom   77 type  1   force =   0.00000000E+00  0.00000000E+00  0.00000000E+00
     atom   78 type  1   force =   0.00000000E+00  0.00000000E+00  0.00000000E+00
     atom   79 type  1   force =   0.00000000E+00  0.00000000E+00  0.00000000E+00
     atom   80 type  2   force =   0.00000000E+00  0.00000000E+00  0.00000000E+00
     atom   81 type  1   force =   0.00000000E+00  0.00000000E+00  0.00000000E+00
     atom   82 type  1   force =   0.00000000E+00  0.00000000E+00  0.00000000E+00
     atom   83 type  1   force =   0.00000000E+00  0.00000000E+00  0.00000000E+00
     atom   84 type  2   force =   0.00000000E+00  0.00000000E+00  0.00000000E+00
     atom   85 type  2   force =   0.00000000E+00  0.00000000E+00  0.00000000E+00
     atom   86 type  2   force =   0.00000000E+00  0.00000000E+00  0.00000000E+00
     atom   87 type  2   force =   0.00000000E+00  0.00000000E+00  0.00000000E+00
     atom   88 type  2   force =   0.00000000E+00  0.00000000E+00  0.00000000E+00
     atom   89 type  1   force =   0.00000000E+00  0.00000000E+00  0.00000000E+00
     atom   90 type  1   force =   0.00000000E+00  0.00000000E+00  0.00000000E+00
     atom   91 type  1   force =   0.00000000E+00  0.00000000E+00  0.00000000E+00
     atom   92 type  1   force =   0.00000000E+00  0.00000000E+00  0.00000000E+00
     atom   93 type  1   force =   0.00000000E+00  0.00000000E+00  0.00000000E+00
     atom   94 type  1   force =   0.00000000E+00  0.00000000E+00  0.00000000E+00
     atom   95 type  2   force =   0.00000000E+00  0.00000000E+00  0.00000000E+00
     atom   96 type  1   force =   0.00000000E+00  0.00000000E+00  0.00000000E+00
     atom   97 type  2   force =   0.00000000E+00  0.00000000E+00  0.00000000E+00
     atom   98 type  1   force =   0.00000000E+00  0.00000000E+00  0.00000000E+00
     atom   99 type  1   force =   0.00000000E+00  0.00000000E+00  0.00000000E+00
     atom  100 type  1   force =   0.00000000E+00  0.00000000E+00  0.00000000E+00
     atom  101 type  1   force =   0.00000000E+00  0.00000000E+00  0.00000000E+00
     atom  102 type  1   force =   0.00000000E+00  0.00000000E+00  0.00000000E+00
     atom  103 type  2   force =   0.00000000E+00  0.00000000E+00  0.00000000E+00
     atom  104 type  1   force =   0.00000000E+00  0.00000000E+00  0.00000000E+00
     atom  105 type  2   force =   0.00000000E+00  0.00000000E+00  0.00000000E+00
     atom  106 type  2   force =   0.00000000E+00  0.00000000E+00  0.00000000E+00
     atom  107 type  1   force =   0.00000000E+00  0.00000000E+00  0.00000000E+00
     atom  108 type  2   force =   0.00000000E+00  0.00000000E+00  0.00000000E+00
     atom  109 type  1   force =   0.00000000E+00  0.00000000E+00  0.00000000E+00
     atom  110 type  1   force =   0.00000000E+00  0.00000000E+00  0.00000000E+00
     atom  111 type  1   force =   0.00000000E+00  0.00000000E+00  0.00000000E+00
     atom  112 type  1   force =   0.00000000E+00  0.00000000E+00  0.00000000E+00
     atom  113 type  1   force =   0.00000000E+00  0.00000000E+00  0.00000000E+00
     atom  114 type  2   force =   0.00000000E+00  0.00000000E+00  0.00000000E+00
     atom  115 type  1   force =   0.00000000E+00  0.00000000E+00  0.00000000E+00
     atom  116 type  2   force =   0.00000000E+00  0.00000000E+00  0.00000000E+00
     atom  117 type  1   force =   0.00000000E+00  0.00000000E+00  0.00000000E+00
     atom  118 type  2   force =   0.00000000E+00  0.00000000E+00  0.00000000E+00
     atom  119 type  1   force =   0.00000000E+00  0.00000000E+00  0.00000000E+00
     atom  120 type  2   force =   0.00000000E+00  0.00000000E+00  0.00000000E+00
     atom  121 type  1   force =   0.00000000E+00  0.00000000E+00  0.00000000E+00
     atom  122 type  2   force =   0.00000000E+00  0.00000000E+00  0.00000000E+00
     atom  123 type  2   force =   0.00000000E+00  0.00000000E+00  0.00000000E+00
     atom  124 type  2   force =   0.00000000E+00  0.00000000E+00  0.00000000E+00
     atom  125 type  1   force =   0.00000000E+00  0.00000000E+00  0.00000000E+00
     atom  126 type  2   force =   0.00000000E+00  0.00000000E+00  0.00000000E+00
     atom  127 type  1   force =   0.00000000E+00  0.00000000E+00  0.00000000E+00
     atom  128 type  2   force =   0.00000000E+00  0.00000000E+00  0.00000000E+00
     The SCF correction term to forces
     atom    1 type  2   force =   0.39439619E-06  0.15548250E-05 -0.22274337E-05
     atom    2 type  2   force =  -0.42447279E-05  0.25462005E-05  0.31132218E-05
     atom    3 type  2   force =  -0.88074283E-06 -0.81147177E-07 -0.35624366E-06
     atom    4 type  2   force =  -0.14396224E-05  0.24438825E-06  0.54394651E-05
     atom    5 type  2   force =  -0.19047775E-05 -0.24968696E-05 -0.27084500E-05
     atom    6 type  2   force =  -0.16858534E-05  0.49299038E-05  0.30686394E-05
     atom    7 type  1   force =  -0.16635898E-06  0.80887320E-06 -0.32298716E-06
     atom    8 type  2   force =  -0.22022602E-05  0.21221520E-05 -0.81278756E-06
     atom    9 type  2   force =  -0.22052430E-05  0.15158816E-05  0.34573198E-05
     atom   10 type  2   force =   0.33419041E-05  0.20840533E-05  0.26720018E-05
     atom   11 type  2   force =  -0.79329073E-06  0.23633884E-05  0.63528842E-05
     atom   12 type  1   force =  -0.75638535E-06  0.12785390E-06  0.10498140E-05
     atom   13 type  2   force =  -0.27130209E-05 -0.25977748E-05  0.63870222E-05
     atom   14 type  1   force =  -0.77571866E-06  0.33045195E-06  0.47440203E-06
     atom   15 type  2   force =   0.91651531E-06  0.29169032E-05  0.37467466E-05
     atom   16 type  1   force =  -0.17537013E-06  0.20206250E-06 -0.20155359E-06
     atom   17 type  1   force =   0.51190559E-06  0.65956565E-06 -0.27990112E-06
     atom   18 type  1   force =   0.11446201E-06  0.39716092E-06 -0.21489833E-06
     atom   19 type  1   force =  -0.14109499E-05  0.34589745E-06  0.68607246E-06
     atom   20 type  1   force =  -0.13476112E-05  0.18093382E-06  0.43176392E-06
     atom   21 type  1   force =  -0.12765449E-05  0.43352314E-06  0.50100704E-06
     atom   22 type  2   force =  -0.29023982E-06  0.88304334E-06 -0.65365518E-05
     atom   23 type  1   force =   0.53833498E-06  0.24128995E-06 -0.69541689E-06
     atom   24 type  1   force =   0.12210300E-05 -0.17224390E-06 -0.12348767E-05
     atom   25 type  1   force =  -0.40628514E-06  0.34780308E-06 -0.33126628E-07
     atom   26 type  2   force =  -0.28991140E-05 -0.20536887E-05  0.67871550E-07
     atom   27 type  2   force =  -0.53009350E-05  0.39342871E-05  0.25970100E-05
     atom   28 type  1   force =  -0.81749066E-06 -0.49444814E-06  0.73291849E-06
     atom   29 type  2   force =   0.24862363E-06 -0.50003764E-06  0.46350863E-05
     atom   30 type  1   force =   0.87642731E-06 -0.41242064E-06 -0.16422118E-06
     atom   31 type  1   force =   0.90809174E-06  0.18622362E-07 -0.45795304E-06
     atom   32 type  1   force =   0.81495327E-06  0.46973957E-06 -0.30862048E-06
     atom   33 type  1   force =  -0.22037430E-07  0.77954088E-07 -0.18006387E-06
     atom   34 type  1   force =   0.37796408E-06 -0.48782070E-06 -0.68799336E-06
     atom   35 type  1   force =   0.36909937E-06 -0.11360824E-05  0.75686744E-06
     atom   36 type  1   force =   0.12237274E-05 -0.11207721E-05  0.26327113E-06
     atom   37 type  1   force =   0.89375121E-06 -0.54783115E-06  0.93509656E-06
     atom   38 type  1   force =   0.84257069E-06 -0.61062597E-06 -0.82758758E-06
     atom   39 type  2   force =  -0.31141253E-06  0.25583132E-05  0.33973119E-05
     atom   40 type  1   force =   0.38847243E-07 -0.29231736E-06 -0.13422726E-05
     atom   41 type  1   force =   0.80230951E-06  0.35401486E-06 -0.15435753E-05
     atom   42 type  2   force =   0.88691102E-05 -0.13886001E-05 -0.66905157E-05
     atom   43 type  1   force =   0.60982149E-06 -0.38277110E-06 -0.21868592E-06
     atom   44 type  2   force =   0.19957109E-06 -0.81138409E-05 -0.87399923E-06
     atom   45 type  2   force =  -0.20874257E-05 -0.10975024E-05 -0.43034673E-05
     atom   46 type  2   force =   0.51251495E-07 -0.11516345E-05 -0.78193045E-05
     atom   47 type  1   force =  -0.15378243E-06 -0.52003668E-07 -0.15564058E-05
     atom   48 type  1   force =   0.46455015E-06  0.11015784E-06 -0.22170287E-05
     atom   49 type  1   force =   0.17194205E-05  0.45851124E-06 -0.10050859E-05
     atom   50 type  1   force =   0.64379457E-06  0.29585444E-07 -0.62925656E-06
     atom   51 type  1   force =  -0.59552177E-06 -0.72921972E-06 -0.34429239E-06
     atom   52 type  1   force =  -0.77192327E-06 -0.19583239E-05 -0.59497800E-06
     atom   53 type  2   force =  -0.71531491E-05 -0.75189241E-05 -0.11844128E-05
     atom   54 type  2   force =   0.65112479E-06 -0.70719352E-05 -0.37397948E-05
     atom   55 type  2   force =   0.61446401E-05  0.24345422E-05 -0.83113130E-05
     atom   56 type  1   force =   0.27786422E-05  0.19732512E-06 -0.11192101E-05
     atom   57 type  2   force =  -0.23381400E-05  0.38233966E-06 -0.27086577E-05
     atom   58 type  2   force =   0.47592141E-06 -0.50747707E-06  0.32026508E-05
     atom   59 type  1   force =  -0.56214570E-06 -0.14733306E-05  0.21558627E-07
     atom   60 type  2   force =  -0.13867107E-05 -0.96115637E-05  0.41335478E-05
     atom   61 type  2   force =   0.85324776E-05 -0.43732982E-05  0.20457291E-06
     atom   62 type  1   force =   0.20204633E-05 -0.61098936E-06  0.63007065E-06
     atom   63 type  1   force =   0.22872463E-05  0.86271387E-07 -0.59260134E-07
     atom   64 type  1   force =   0.11894000E-05 -0.55158135E-07  0.12724515E-06
     atom   65 type  1   force =  -0.58986430E-07  0.45329916E-07 -0.14068708E-05
     atom   66 type  2   force =  -0.36068726E-05 -0.25531507E-05 -0.28763640E-05
     atom   67 type  2   force =   0.32110839E-05 -0.50825329E-05 -0.60069622E-05
     atom   68 type  2   force =  -0.74420161E-06 -0.21136636E-05  0.37418187E-05
     atom   69 type  2   force =   0.31105893E-05 -0.23764124E-05 -0.80353443E-05
     atom   70 type  2   force =  -0.62559353E-06  0.22630951E-05 -0.17345390E-05
     atom   71 type  2   force =  -0.63872352E-06  0.52892666E-06 -0.12488861E-04
     atom   72 type  2   force =   0.33573422E-05  0.40170742E-05 -0.50509209E-05
     atom   73 type  2   force =   0.59903069E-05  0.50432078E-05 -0.49744780E-06
     atom   74 type  1   force =   0.10426506E-05 -0.45082741E-07 -0.11012975E-06
     atom   75 type  1   force =   0.20649713E-06 -0.16467039E-05 -0.45267236E-06
     atom   76 type  2   force =  -0.19833166E-05 -0.40806063E-05 -0.15179021E-06
     atom   77 type  1   force =  -0.17149939E-06 -0.65200824E-06 -0.10435514E-05
     atom   78 type  1   force =  -0.10983471E-05  0.49058940E-06 -0.71154334E-06
     atom   79 type  1   force =  -0.35606005E-07  0.42420061E-06 -0.14138862E-05
     atom   80 type  2   force =  -0.38505655E-05  0.58439777E-05 -0.25059734E-05
     atom   81 type  1   force =   0.13619340E-05  0.25098847E-06 -0.35022869E-06
     atom   82 type  1   force =  -0.36010559E-06 -0.72636715E-06  0.54707877E-06
     atom   83 type  1   force =  -0.10873249E-05 -0.19228727E-05  0.34801254E-06
     atom   84 type  2   force =  -0.60087231E-05 -0.63966156E-05  0.60863319E-05
     atom   85 type  2   force =  -0.57251717E-05  0.15480521E-05 -0.35731092E-05
     atom   86 type  2   force =   0.27381143E-05 -0.11309726E-05  0.78933731E-05
     atom   87 type  2   force =   0.75319557E-05  0.23000328E-05 -0.38284649E-05
     atom   88 type  2   force =   0.10545009E-04  0.84190640E-05  0.56590593E-06
     atom   89 type  1   force =  -0.27256774E-06 -0.27992485E-06  0.16276786E-06
     atom   90 type  1   force =  -0.86591697E-06 -0.36510240E-06  0.32768940E-06
     atom   91 type  1   force =  -0.68513631E-06 -0.14588055E-05  0.14371127E-05
     atom   92 type  1   force =  -0.17267952E-06 -0.72929885E-06  0.77840583E-06
     atom   93 type  1   force =   0.11762321E-05 -0.69386878E-06  0.12613212E-05
     atom   94 type  1   force =   0.12554044E-05  0.35641507E-06 -0.12885136E-06
     atom   95 type  2   force =   0.85676894E-05  0.10851184E-06  0.41360044E-05
     atom   96 type  1   force =   0.11915436E-06  0.40151475E-06 -0.60384606E-06
     atom   97 type  2   force =  -0.20097779E-05  0.20221248E-05  0.43152849E-05
     atom   98 type  1   force =  -0.62640561E-06  0.37947868E-06  0.24765353E-06
     atom   99 type  1   force =  -0.73773812E-06 -0.14631967E-06  0.90754235E-06
     atom  100 type  1   force =  -0.88641013E-06  0.30192913E-06  0.81190582E-06
     atom  101 type  1   force =  -0.42819569E-06  0.77272680E-06  0.26277047E-06
     atom  102 type  1   force =  -0.74649891E-06  0.82682452E-06  0.24686325E-06
     atom  103 type  2   force =  -0.24397568E-05  0.36967784E-05  0.32489335E-05
     atom  104 type  1   force =  -0.52885219E-06  0.12803688E-05 -0.17745581E-06
     atom  105 type  2   force =  -0.17177940E-05 -0.71750684E-06 -0.24646100E-05
     atom  106 type  2   force =   0.21756555E-05  0.10423139E-05  0.35430274E-05
     atom  107 type  1   force =  -0.73278938E-06  0.28482001E-06  0.97145162E-06
     atom  108 type  2   force =  -0.35781707E-05  0.30274021E-05  0.30631193E-05
     atom  109 type  1   force =  -0.15181220E-05  0.55674924E-06  0.66902197E-06
     atom  110 type  1   force =  -0.12228615E-05  0.10278823E-05  0.96404599E-06
     atom  111 type  1   force =  -0.35974794E-06  0.14410473E-05  0.10705539E-06
     atom  112 type  1   force =  -0.17188270E-07  0.10776636E-05  0.44249013E-06
     atom  113 type  1   force =   0.52914337E-06 -0.38463967E-06  0.58985913E-06
     atom  114 type  2   force =  -0.30574904E-05 -0.58324299E-06  0.49578220E-05
     atom  115 type  1   force =  -0.16755214E-05  0.20967890E-07  0.15727473E-05
     atom  116 type  2   force =  -0.90522730E-05  0.29506931E-05  0.75541454E-05
     atom  117 type  1   force =  -0.12912467E-05  0.72599848E-06  0.13624383E-05
     atom  118 type  2   force =  -0.47910776E-06  0.44506969E-05  0.49481479E-05
     atom  119 type  1   force =   0.82897892E-06  0.12572592E-05  0.53850759E-06
     atom  120 type  2   force =   0.32535679E-05  0.24167616E-05  0.38179692E-05
     atom  121 type  1   force =  -0.35576274E-06 -0.93747580E-07 -0.19152078E-06
     atom  122 type  2   force =  -0.69884081E-05  0.15467072E-05  0.16993032E-05
     atom  123 type  2   force =  -0.27511452E-05 -0.35848470E-05  0.20502424E-05
     atom  124 type  2   force =  -0.45386236E-06 -0.10326062E-05  0.47992864E-05
     atom  125 type  1   force =   0.49497677E-06  0.34666418E-06  0.39264738E-06
     atom  126 type  2   force =   0.39201593E-05  0.14987421E-05 -0.20718325E-05
     atom  127 type  1   force =   0.78104229E-06  0.49566332E-06 -0.66065158E-06
     atom  128 type  2   force =  -0.31575777E-05  0.47399712E-05 -0.32892300E-05

     Total force =     0.192449     Total SCF correction =     0.000055


     entering subroutine stress ...

          total   stress  (Ry/bohr**3)                   (kbar)     P=   -2.69
  -0.0000182397   0.0000008121  -0.0000008118         -2.68      0.12     -0.12
   0.0000008121  -0.0000182703   0.0000015888          0.12     -2.69      0.23
  -0.0000008118   0.0000015888  -0.0000184480         -0.12      0.23     -2.71

     kinetic stress (kbar)   6000.57     -0.01      0.16
                               -0.01   6000.57     -0.29
                                0.16     -0.29   6000.53

     local   stress (kbar)  -4238.90  -1556.48   -832.48
                            -1556.48  -6141.57    966.83
                             -832.48    966.83  -4209.06

     nonloc. stress (kbar)   2431.55     -0.15     -0.24
                               -0.15   2431.55      0.48
                               -0.24      0.48   2431.53

     hartree stress (kbar)  15357.84    753.00    404.34
                              753.00  16297.81   -467.06
                              404.34   -467.06  15353.48

     exc-cor stress (kbar)  10000.63     -0.00     -0.01
                               -0.00  10000.63      0.01
                               -0.01      0.01  10000.63

     corecor stress (kbar) -15223.54     -0.02      0.01
                               -0.02 -15223.54     -0.01
                                0.01     -0.01 -15223.54

     ewald   stress (kbar) -14330.83    803.77    428.09
                              803.77 -13368.13   -499.73
                              428.09   -499.73 -14356.29

     hubbard stress (kbar)      0.00      0.00      0.00
                                0.00      0.00      0.00
                                0.00      0.00      0.00

     london  stress (kbar)      0.00      0.00      0.00
                                0.00      0.00      0.00
                                0.00      0.00      0.00

     XDM     stress (kbar)      0.00      0.00      0.00
                                0.00      0.00      0.00
                                0.00      0.00      0.00

     dft-nl  stress (kbar)      0.00      0.00      0.00
                                0.00      0.00      0.00
                                0.00      0.00      0.00



     Writing output data file SiGe_zns.scf.in.super.444.a.055.save

     init_run     :    935.82s CPU    685.52s WALL (       1 calls)
     electrons    :  47733.68s CPU  36555.31s WALL (       1 calls)
     forces       :    675.99s CPU    481.37s WALL (       1 calls)
     stress       :   3026.13s CPU   3005.79s WALL (       1 calls)

     Called by init_run:
     wfcinit      :    905.92s CPU    655.43s WALL (       1 calls)
     potinit      :      0.71s CPU      0.72s WALL (       1 calls)

     Called by electrons:
     c_bands      :  42984.96s CPU  32541.08s WALL (      16 calls)
     sum_band     :   4195.97s CPU   3446.13s WALL (      16 calls)
     v_of_rho     :      9.31s CPU      9.56s WALL (      16 calls)
     v_h          :      0.71s CPU      0.75s WALL (      16 calls)
     v_xc         :      9.42s CPU      9.64s WALL (      18 calls)
     newd         :    553.39s CPU    567.18s WALL (      16 calls)
     mix_rho      :     14.91s CPU     15.84s WALL (      16 calls)

     Called by c_bands:
     init_us_2    :     38.66s CPU     40.25s WALL (     280 calls)
     cegterg      :  42676.16s CPU  32219.69s WALL (     128 calls)

     Called by sum_band:
     sum_band:bec :     18.41s CPU     19.06s WALL (     128 calls)
     addusdens    :    386.19s CPU    396.21s WALL (      16 calls)

     Called by *egterg:
     h_psi        :  17154.10s CPU  13281.83s WALL (     483 calls)
     s_psi        :   5279.19s CPU   3206.03s WALL (     483 calls)
     g_psi        :      7.49s CPU      8.20s WALL (     347 calls)
     cdiaghg      :  11108.95s CPU   9564.97s WALL (     467 calls)
     cegterg:over :   4360.15s CPU   2978.47s WALL (     347 calls)
     cegterg:upda :   2202.45s CPU   1346.60s WALL (     347 calls)
     cegterg:last :   1399.89s CPU    855.79s WALL (     128 calls)

     Called by h_psi:
     h_psi:vloc   :   6399.90s CPU   6541.19s WALL (     483 calls)
     h_psi:vnl    :  10739.22s CPU   6725.07s WALL (     483 calls)
     add_vuspsi   :   5215.34s CPU   3202.72s WALL (     483 calls)

     General routines
     calbec       :   8682.67s CPU   5787.75s WALL (     627 calls)
     fft          :    164.82s CPU    168.75s WALL (     281 calls)
     ffts         :      9.51s CPU     10.02s WALL (     454 calls)
     fftw         :   7147.75s CPU   7310.74s WALL (  496272 calls)
     interpolate  :      2.84s CPU      3.06s WALL (      32 calls)

     Parallel routines
     fft_scatter  :   4398.63s CPU   4504.54s WALL (  497007 calls)

     PWSCF        :    14h33m CPU       11h19m WALL


   This run was terminated on:   4:32:33   4Feb2017            

=------------------------------------------------------------------------------=
   JOB DONE.
=------------------------------------------------------------------------------=
