
     Program PWSCF v.5.1 starts on  3Feb2017 at 17:12:55 

     This program is part of the open-source Quantum ESPRESSO suite
     for quantum simulation of materials; please cite
         "P. Giannozzi et al., J. Phys.:Condens. Matter 21 395502 (2009);
          URL http://www.quantum-espresso.org", 
     in publications or presentations arising from this work. More details at
     http://www.quantum-espresso.org/quote

     Parallel version (MPI), running on    16 processors
     R & G space division:  proc/nbgrp/npool/nimage =      16
     Reading input from /tmp/SiGe_zns.scf.in.super.444.a.06.3417/SiGe_zns.scf.in.super.444.a.06.t
Warning: card &IONS ignored
Warning: card   ION_DYNAMICS='BFGS', ignored
Warning: card / ignored
Warning: card &CELL ignored
Warning: card  CELL_DYNAMICS = 'BFGS' ignored
Warning: card / ignored
     Message from routine read_cards :
     DEPRECATED: no units specified in CELL_PARAMETERS card

     Current dimensions of program PWSCF are:
     Max number of different atomic species (ntypx) = 10
     Max number of k-points (npk) =  40000
     Max angular momentum in pseudopotentials (lmaxx) =  3

     Subspace diagonalization in iterative solution of the eigenvalue problem:
     a serial algorithm will be used


     Parallelization info
     --------------------
     sticks:   dense  smooth     PW     G-vecs:    dense   smooth      PW
     Min         756     527    138                54768    32060    4315
     Max         757     528    139                54770    32083    4319
     Sum       12097    8443   2221               876295   513103   69089



     bravais-lattice index     =            0
     lattice parameter (alat)  =    29.598892955  a.u.
     unit-cell volume          =   18336.2874 (a.u.)^3
     number of atoms/cell      =          128
     number of atomic types    =            2
     number of electrons       =      1212.00
     number of Kohn-Sham states=          727
     kinetic-energy cutoff     =      35.0000  Ry
     charge density cutoff     =     200.0000  Ry
     convergence threshold     =      1.0E-09
     mixing beta               =       0.3000
     number of iterations used =            8  local-TF  mixing
     Exchange-correlation      = SLA  PW   PSX  PSC ( 1  4 10  8 0)
     A smooth kinetic-energy cutoff is imposed at      34.5000 Ry
     height of the smooth step-function =             800.0000 Ry
     width of the smooth step-function  =               1.0000 Ry


     celldm(1)=  29.598893  celldm(2)=   0.000000  celldm(3)=   0.000000
     celldm(4)=   0.000000  celldm(5)=   0.000000  celldm(6)=   0.000000

     crystal axes: (cart. coord. in units of alat)
               a(1) = (  -0.000000000000   0.707106781187   0.707106781187 )  
               a(2) = (   0.707106781187   0.000000000000   0.707106781187 )  
               a(3) = (   0.707106781187   0.707106781187   0.000000000000 )  

     reciprocal axes: (cart. coord. in units 2 pi/alat)
               b(1) = ( -0.707107  0.707107  0.707107 )  
               b(2) = (  0.707107 -0.707107  0.707107 )  
               b(3) = (  0.707107  0.707107 -0.707107 )  


     PseudoPot. # 1 for Si read from file:
     /users/kfg/psuedo/gbrv_1.5/si.pbesol.UPF
     MD5 check sum: ef58ba74faed4df802eb8a9742fc00a8
     Pseudo is Ultrasoft + core correction, Zval =  4.0
     Generated by new atomic code, or converted to UPF format
     Using radial grid of  899 points,  6 beta functions with: 
                l(1) =   0
                l(2) =   0
                l(3) =   1
                l(4) =   1
                l(5) =   2
                l(6) =   2
     Q(r) pseudized with  8 coefficients,  rinner =    0.900   0.900   0.900
                                                       0.900   0.900

     PseudoPot. # 2 for Ge read from file:
     /users/kfg/psuedo/gbrv_1.5/ge.pbesol.UPF
     MD5 check sum: 7bed0412183f5e553a4d27ec7023354d
     Pseudo is Ultrasoft + core correction, Zval = 14.0
     Generated by new atomic code, or converted to UPF format
     Using radial grid of  873 points,  6 beta functions with: 
                l(1) =   0
                l(2) =   0
                l(3) =   1
                l(4) =   1
                l(5) =   2
                l(6) =   2
     Q(r) pseudized with  8 coefficients,  rinner =    1.400   1.400   1.400
                                                       1.400   1.400

     atomic species   valence    mass     pseudopotential
        Si             4.00    28.08550     Si( 1.00)
        Ge            14.00    72.64000     Ge( 1.00)

     No symmetry found


                                    s                        frac. trans.

      isym =  1     identity                                     

 cryst.   s( 1) = (     1          0          0      )
                  (     0          1          0      )
                  (     0          0          1      )

 cart.    s( 1) = (  1.0000000  0.0000000  0.0000000 )
                  (  0.0000000  1.0000000  0.0000000 )
                  (  0.0000000  0.0000000  1.0000000 )


     point group C_1 (1)    
     there are  1 classes
     the character table:

       E    
A      1.00

     the symmetry operations in each class:
     E        1

   Cartesian axes

     site n.     atom                  positions (alat units)
         1           Ge  tau(   1) = (   -0.00019986140   -0.00019544030    0.00028800684  )
         2           Si  tau(   2) = (    0.08869423718    0.08821934232    0.08841619211  )
         3           Ge  tau(   3) = (    0.17692824736    0.17677431120   -0.00004049986  )
         4           Ge  tau(   4) = (    0.26524138260    0.26523073891    0.08823088817  )
         5           Ge  tau(   5) = (    0.35357612209    0.35384287127   -0.00028478682  )
         6           Si  tau(   6) = (    0.44196516824    0.44169672294    0.08850645916  )
         7           Si  tau(   7) = (    0.53062473512    0.53021713411    0.00028636716  )
         8           Si  tau(   8) = (    0.61896880986    0.61871500169    0.08824464793  )
         9           Ge  tau(   9) = (    0.17679517291   -0.00025897402    0.17680397820  )
        10           Si  tau(  10) = (    0.26523299498    0.08867192979    0.26523939841  )
        11           Si  tau(  11) = (    0.35330975560    0.17689203385    0.17711133949  )
        12           Ge  tau(  12) = (    0.44192079464    0.26549812989    0.26534008484  )
        13           Ge  tau(  13) = (    0.53018642639    0.35349790668    0.17647147786  )
        14           Si  tau(  14) = (    0.61859327514    0.44172964877    0.26516805053  )
        15           Si  tau(  15) = (    0.70725986013    0.53022206513    0.17701947938  )
        16           Si  tau(  16) = (    0.79523635420    0.61860175198    0.26498619793  )
        17           Ge  tau(  17) = (    0.35348879718    0.00027914258    0.35348654340  )
        18           Ge  tau(  18) = (    0.44219137317    0.08805238035    0.44178343215  )
        19           Si  tau(  19) = (    0.53040072678    0.17692984371    0.35342840548  )
        20           Ge  tau(  20) = (    0.61891896428    0.26547868869    0.44218754203  )
        21           Si  tau(  21) = (    0.70715289596    0.35355657746    0.35360508553  )
        22           Si  tau(  22) = (    0.79561926667    0.44205701718    0.44173496200  )
        23           Ge  tau(  23) = (    0.88399193849    0.53025209357    0.35349881095  )
        24           Si  tau(  24) = (    0.97223353435    0.61881190492    0.44202194479  )
        25           Si  tau(  25) = (    0.53044251492   -0.00018698027    0.53006329510  )
        26           Si  tau(  26) = (    0.61892939502    0.08824716588    0.61905166337  )
        27           Si  tau(  27) = (    0.70709874967    0.17647647950    0.53029080522  )
        28           Si  tau(  28) = (    0.79534888655    0.26499020209    0.61840770654  )
        29           Ge  tau(  29) = (    0.88383300337    0.35348098695    0.53012179376  )
        30           Si  tau(  30) = (    0.97227335013    0.44202055710    0.61846791060  )
        31           Ge  tau(  31) = (    1.06057266040    0.53038079934    0.53048375319  )
        32           Si  tau(  32) = (    1.14923096168    0.61870818093    0.61872500791  )
        33           Si  tau(  33) = (    0.00022934980    0.17682225634    0.17671843098  )
        34           Ge  tau(  34) = (    0.08853766297    0.26505542552    0.26484969595  )
        35           Ge  tau(  35) = (    0.17674946233    0.35379635690    0.17647466226  )
        36           Ge  tau(  36) = (    0.26523987848    0.44173324269    0.26507702065  )
        37           Ge  tau(  37) = (    0.35365668532    0.53062698870    0.17654661644  )
        38           Si  tau(  38) = (    0.44185182224    0.61849687762    0.26528680702  )
        39           Ge  tau(  39) = (    0.53011423930    0.70700817226    0.17674503515  )
        40           Si  tau(  40) = (    0.61887015670    0.79536914376    0.26540773545  )
        41           Ge  tau(  41) = (    0.17670595771    0.17666448245    0.35343658138  )
        42           Ge  tau(  42) = (    0.26495092651    0.26534431481    0.44184927615  )
        43           Si  tau(  43) = (    0.35377219268    0.35346435568    0.35365971287  )
        44           Ge  tau(  44) = (    0.44186213084    0.44205438084    0.44171973233  )
        45           Ge  tau(  45) = (    0.53010056707    0.53001775426    0.35348657605  )
        46           Si  tau(  46) = (    0.61890133061    0.61849812335    0.44171439675  )
        47           Ge  tau(  47) = (    0.70685542007    0.70689014239    0.35356996634  )
        48           Si  tau(  48) = (    0.79565841671    0.79543918227    0.44174963986  )
        49           Si  tau(  49) = (    0.35328873778    0.17709633350    0.53005552244  )
        50           Ge  tau(  50) = (    0.44171064261    0.26499332065    0.61867757008  )
        51           Si  tau(  51) = (    0.53002084304    0.35354042244    0.53007526098  )
        52           Ge  tau(  52) = (    0.61904936759    0.44183658655    0.61903619767  )
        53           Si  tau(  53) = (    0.70706803079    0.53044031994    0.53004591228  )
        54           Ge  tau(  54) = (    0.79527659265    0.61884649144    0.61885502820  )
        55           Si  tau(  55) = (    0.88417135707    0.70681412380    0.53044778879  )
        56           Ge  tau(  56) = (    0.97223398205    0.79521895408    0.61848945490  )
        57           Ge  tau(  57) = (    0.53021322295    0.17685365953    0.70714858490  )
        58           Si  tau(  58) = (    0.61901373869    0.26492201869    0.79573858434  )
        59           Ge  tau(  59) = (    0.70696529454    0.35363452251    0.70690043756  )
        60           Si  tau(  60) = (    0.79548773975    0.44161725191    0.79581979201  )
        61           Ge  tau(  61) = (    0.88388706386    0.53034692163    0.70694815774  )
        62           Si  tau(  62) = (    0.97219926562    0.61877888694    0.79553028806  )
        63           Si  tau(  63) = (    1.06075358264    0.70677887542    0.70722323236  )
        64           Si  tau(  64) = (    1.14908658700    0.79572519025    0.79543768299  )
        65           Ge  tau(  65) = (    0.00027620332    0.35355579831    0.35370060436  )
        66           Si  tau(  66) = (    0.08869126491    0.44186669521    0.44168511626  )
        67           Si  tau(  67) = (    0.17704659625    0.53030878750    0.35355635757  )
        68           Si  tau(  68) = (    0.26520247279    0.61858070141    0.44210261206  )
        69           Ge  tau(  69) = (    0.35337139468    0.70724243525    0.35345237516  )
        70           Ge  tau(  70) = (    0.44227387519    0.79529078035    0.44181835821  )
        71           Si  tau(  71) = (    0.53021053472    0.88376117122    0.35374727507  )
        72           Ge  tau(  72) = (    0.61903923586    0.97217182945    0.44200683343  )
        73           Ge  tau(  73) = (    0.17703504138    0.35331407118    0.53012126772  )
        74           Ge  tau(  74) = (    0.26499279248    0.44204732794    0.61868314225  )
        75           Si  tau(  75) = (    0.35338522519    0.53038170709    0.53009502942  )
        76           Si  tau(  76) = (    0.44224426534    0.61896871729    0.61903113926  )
        77           Si  tau(  77) = (    0.53046693656    0.70699594482    0.53054368498  )
        78           Ge  tau(  78) = (    0.61904344429    0.79576865047    0.61890729450  )
        79           Si  tau(  79) = (    0.70699833459    0.88370511416    0.53059331373  )
        80           Ge  tau(  80) = (    0.79534269673    0.97246903391    0.61872353957  )
        81           Ge  tau(  81) = (    0.35389081212    0.35365944091    0.70684303117  )
        82           Ge  tau(  82) = (    0.44212164908    0.44176002743    0.79548426031  )
        83           Ge  tau(  83) = (    0.53008679769    0.53005271967    0.70694788394  )
        84           Ge  tau(  84) = (    0.61866788464    0.61890601933    0.79555800279  )
        85           Si  tau(  85) = (    0.70686863628    0.70739784083    0.70687553015  )
        86           Ge  tau(  86) = (    0.79525800225    0.79577368256    0.79516194744  )
        87           Si  tau(  87) = (    0.88417698182    0.88387596849    0.70735427769  )
        88           Ge  tau(  88) = (    0.97211700732    0.97198766380    0.79559877448  )
        89           Ge  tau(  89) = (    0.53026972978    0.35355514353    0.88408585151  )
        90           Si  tau(  90) = (    0.61848775592    0.44216155571    0.97254424749  )
        91           Ge  tau(  91) = (    0.70698902028    0.53033678293    0.88365276239  )
        92           Si  tau(  92) = (    0.79573713888    0.61866962215    0.97251558530  )
        93           Ge  tau(  93) = (    0.88396392039    0.70733925823    0.88414666571  )
        94           Ge  tau(  94) = (    0.97245807365    0.79567510149    0.97232950027  )
        95           Ge  tau(  95) = (    1.06061873130    0.88406565271    0.88407575252  )
        96           Ge  tau(  96) = (    1.14935101299    0.97253057819    0.97199495634  )
        97           Ge  tau(  97) = (   -0.00019406676    0.53015897957    0.53043416956  )
        98           Si  tau(  98) = (    0.08850459875    0.61896883927    0.61881991970  )
        99           Si  tau(  99) = (    0.17685804869    0.70693282753    0.53050930473  )
       100           Ge  tau( 100) = (    0.26544229414    0.79519633511    0.61901294948  )
       101           Ge  tau( 101) = (    0.35327604915    0.88398699820    0.53061065974  )
       102           Si  tau( 102) = (    0.44171819314    0.97230704895    0.61861710834  )
       103           Si  tau( 103) = (    0.53039204385    1.06078675408    0.53040525556  )
       104           Si  tau( 104) = (    0.61893546837    1.14889495561    0.61890007374  )
       105           Ge  tau( 105) = (    0.17689959803    0.53028067683    0.70716493116  )
       106           Ge  tau( 106) = (    0.26533758590    0.61865396118    0.79553476488  )
       107           Ge  tau( 107) = (    0.35371733734    0.70710980801    0.70733471044  )
       108           Si  tau( 108) = (    0.44197297597    0.79563721622    0.79563359718  )
       109           Ge  tau( 109) = (    0.53034636297    0.88417587341    0.70709629420  )
       110           Ge  tau( 110) = (    0.61860268722    0.97231346372    0.79569182472  )
       111           Si  tau( 111) = (    0.70698820879    1.06067879071    0.70717012177  )
       112           Ge  tau( 112) = (    0.79538422265    1.14923283893    0.79544009392  )
       113           Si  tau( 113) = (    0.35343138976    0.53064218821    0.88407409101  )
       114           Ge  tau( 114) = (    0.44195403952    0.61870076541    0.97253904534  )
       115           Ge  tau( 115) = (    0.53057490623    0.70717803719    0.88412873845  )
       116           Ge  tau( 116) = (    0.61869095695    0.79530079386    0.97231734712  )
       117           Ge  tau( 117) = (    0.70740357683    0.88417086114    0.88405212739  )
       118           Si  tau( 118) = (    0.79576253710    0.97240330191    0.97254663211  )
       119           Si  tau( 119) = (    0.88401655277    1.06061902147    0.88416499365  )
       120           Ge  tau( 120) = (    0.97243768284    1.14919101029    0.97242168581  )
       121           Ge  tau( 121) = (    0.53057014877    0.53010328192    1.06044045222  )
       122           Ge  tau( 122) = (    0.61885075933    0.61842796328    1.14929068871  )
       123           Ge  tau( 123) = (    0.70678500825    0.70718758204    1.06037301675  )
       124           Ge  tau( 124) = (    0.79554025520    0.79516007997    1.14880793676  )
       125           Ge  tau( 125) = (    0.88359224073    0.88387361619    1.06056473531  )
       126           Ge  tau( 126) = (    0.97246366066    0.97259467217    1.14921563440  )
       127           Si  tau( 127) = (    1.06038342732    1.06055013732    1.06072181837  )
       128           Si  tau( 128) = (    1.14900647123    1.14922005084    1.14916725474  )

   Crystallographic axes

     site n.     atom                  positions (cryst. coord.)
         1           Ge  tau(   1) = (    0.00020677778    0.00020052540   -0.00048317211  )
         2           Si  tau(   2) = (    0.06218388763    0.06285549038    0.06257710275  )
         3           Ge  tau(   3) = (   -0.00013748703    0.00008021158    0.25013411541  )
         4           Ge  tau(   4) = (    0.06238113311    0.06239618556    0.31271177502  )
         5           Ge  tau(   5) = (   -0.00001275454   -0.00038999485    0.50042214204  )
         6           Si  tau(   6) = (    0.06239369795    0.06277333695    0.56225979808  )
         7           Si  tau(   7) = (   -0.00008572528    0.00049070960    0.74992598734  )
         8           Si  tau(   8) = (    0.06221891947    0.06257785843    0.81277622716  )
         9           Ge  tau(   9) = (   -0.00017689601    0.25021547986   -0.00018934857  )
        10           Si  tau(  10) = (    0.06270505077    0.31240010374    0.06269599495  )
        11           Si  tau(  11) = (    0.00049046181    0.24998279654    0.24967265154  )
        12           Ge  tau(  12) = (    0.06287411071    0.31237343591    0.31259694537  )
        13           Ge  tau(  13) = (   -0.00015347176    0.24972182913    0.50007500566  )
        14           Si  tau(  14) = (    0.06244065713    0.31256359623    0.56225940306  )
        15           Si  tau(  15) = (   -0.00001295109    0.25035629964    0.74986018667  )
        16           Si  tau(  16) = (    0.06247401246    0.31227306250    0.81236097490  )
        17           Ge  tau(  17) = (    0.00019578994    0.49970967385    0.00019897727  )
        18           Ge  tau(  18) = (    0.06197397738    0.56280214399    0.06255089311  )
        19           Si  tau(  19) = (   -0.00003003620    0.49985328055    0.25024662076  )
        20           Ge  tau(  20) = (    0.06275379391    0.56259382514    0.31268976815  )
        21           Si  tau(  21) = (    0.00000619923    0.50006690846    0.49999830769  )
        22           Si  tau(  22) = (    0.06234752293    0.56236005130    0.56281550611  )
        23           Ge  tau(  23) = (   -0.00017043676    0.50009324949    0.75006013896  )
        24           Si  tau(  24) = (    0.06264988381    0.56246354538    0.81248230469  )
        25           Si  tau(  25) = (   -0.00040036392    0.75002306477    0.00013593389  )
        26           Si  tau(  26) = (    0.06248662619    0.81298463195    0.06231371264  )
        27           Si  tau(  27) = (   -0.00023438111    0.75017882986    0.24980981187  )
        28           Si  tau(  28) = (    0.06226006059    0.81230050508    0.31249267709  )
        29           Ge  tau(  29) = (   -0.00016279201    0.74986822245    0.50006039779  )
        30           Si  tau(  30) = (    0.06237750784    0.81226819923    0.56273395886  )
        31           Ge  tau(  31) = (    0.00020639891    0.75001091947    0.74986532074  )
        32           Si  tau(  32) = (    0.06236839294    0.81264090462    0.81261710769  )
        33           Si  tau(  33) = (    0.24982884263    0.00008875919    0.00023559041  )
        34           Ge  tau(  34) = (    0.31209392290    0.06246010911    0.06275105465  )
        35           Ge  tau(  35) = (    0.24997749013   -0.00040462935    0.25036611611  )
        36           Ge  tau(  36) = (    0.31223741350    0.06263810418    0.31246772926  )
        37           Ge  tau(  37) = (    0.24997421127   -0.00029959191    0.50044567271  )
        38           Si  tau(  38) = (    0.31249301673    0.06267918368    0.56219365589  )
        39           Ge  tau(  39) = (    0.25006051244   -0.00010528665    0.74980003348  )
        40           Si  tau(  40) = (    0.31247524014    0.06286797890    0.81234659006  )
        41           Ge  tau(  41) = (    0.24988807598    0.24994673086   -0.00004676891  )
        42           Ge  tau(  42) = (    0.31271278697    0.31215645189    0.06254074174  )
        43           Si  tau(  43) = (    0.24985750758    0.25029285483    0.25001657805  )
        44           Ge  tau(  44) = (    0.31247895939    0.31220707684    0.31268034130  )
        45           Ge  tau(  45) = (    0.24989419748    0.25001131249    0.49966409888  )
        46           Si  tau(  46) = (    0.31205413471    0.31262435587    0.56263429964  )
        47           Ge  tau(  47) = (    0.25003627321    0.24998716843    0.74965735327  )
        48           Si  tau(  48) = (    0.31220914377    0.31251918809    0.81271173584  )
        49           Si  tau(  49) = (    0.25021901046    0.49939269819    0.00023302622  )
        50           Ge  tau(  50) = (    0.31251308846    0.56242912189    0.06224405954  )
        51           Si  tau(  51) = (    0.25002930942    0.49961031373    0.24995235084  )
        52           Ge  tau(  52) = (    0.31241633399    0.56303305236    0.31243495907  )
        53           Si  tau(  53) = (    0.24990440682    0.49969371101    0.50025148766  )
        54           Ge  tau(  54) = (    0.31284166604    0.56235150799    0.56233943518  )
        55           Si  tau(  55) = (    0.24967272618    0.50049373085    0.74991339378  )
        56           Ge  tau(  56) = (    0.31216956101    0.56250661430    0.81243986891  )
        57           Ge  tau(  57) = (    0.25016661619    0.74989250318   -0.00005777233  )
        58           Si  tau(  58) = (    0.31229149266    0.81305280542    0.06236481914  )
        59           Ge  tau(  59) = (    0.25001150813    0.74969667793    0.25010322974  )
        60           Si  tau(  60) = (    0.31250534992    0.81295379315    0.31203575711  )
        61           Ge  tau(  61) = (    0.24989720429    0.74987846828    0.50012660504  )
        62           Si  tau(  62) = (    0.31261891495    0.81243080770    0.56246657906  )
        63           Si  tau(  63) = (    0.24978442757    0.75038025926    0.74975184365  )
        64           Si  tau(  64) = (    0.31259513980    0.81232361951    0.81273021617  )
        65           Ge  tau(  65) = (    0.49991049312    0.00029769858    0.00009291190  )
        66           Si  tau(  66) = (    0.56205128257    0.06258579915    0.06284259055  )
        67           Si  tau(  67) = (    0.49979618894    0.00020800700    0.25017369059  )
        68           Si  tau(  68) = (    0.56248989675    0.06273761319    0.31231532060  )
        69           Ge  tau(  69) = (    0.50015318375   -0.00029604115    0.50003866006  )
        70           Ge  tau(  70) = (    0.56203340466    0.06279210963    0.56267760295  )
        71           Si  tau(  71) = (    0.50013514960    0.00013904446    0.74969188465  )
        72           Ge  tau(  72) = (    0.56224848084    0.06284357766    0.81261010533  )
        73           Ge  tau(  73) = (    0.49950044062    0.25020424590    0.00016111063  )
        74           Ge  tau(  74) = (    0.56267150795    0.31227858262    0.06247781844  )
        75           Si  tau(  75) = (    0.49998920258    0.24967837738    0.25008380083  )
        76           Si  tau(  76) = (    0.56268417470    0.31275805796    0.31266977997  )
        77           Si  tau(  77) = (    0.49997589618    0.25032617855    0.49986735753  )
        78           Ge  tau(  78) = (    0.56259713656    0.31266995317    0.56278968144  )
        79           Si  tau(  79) = (    0.50013669231    0.25023556807    0.74961106528  )
        80           Ge  tau(  80) = (    0.56275084466    0.31225637636    0.81252805209  )
        81           Ge  tau(  81) = (    0.49964989642    0.49997710473    0.00050008137  )
        82           Ge  tau(  82) = (    0.56223660967    0.56274801992    0.06250641244  )
        83           Ge  tau(  83) = (    0.49986354589    0.49991173948    0.24974419905  )
        84           Ge  tau(  84) = (    0.56271284525    0.56237607194    0.31255244112  )
        85           Si  tau(  85) = (    0.50021068495    0.49946227671    0.50020093554  )
        86           Ge  tau(  86) = (    0.56262904622    0.56189976413    0.56276488824  )
        87           Si  tau(  87) = (    0.49996215789    0.50038785502    0.75002722421  )
        88           Ge  tau(  88) = (    0.56248182886    0.56266474822    0.81211630775  )
        89           Ge  tau(  89) = (    0.50018701847    0.75009918303   -0.00018453945  )
        90           Si  tau(  90) = (    0.56301118053    0.81237408428    0.06229968831  )
        91           Ge  tau(  91) = (    0.49992486556    0.74974885544    0.25008460548  )
        92           Si  tau(  92) = (    0.56246672337    0.81287800698    0.31246424690  )
        93           Ge  tau(  93) = (    0.50029360655    0.75007859923    0.50003516563  )
        94           Ge  tau(  94) = (    0.56253634478    0.81254522161    0.56271817499  )
        95           Ge  tau(  95) = (    0.50029408057    0.74997783880    0.74996355552  )
        96           Ge  tau(  96) = (    0.56227329641    0.81233515341    0.81309263709  )
        97           Ge  tau(  97) = (    0.75008983375    0.00005736278   -0.00033181463  )
        98           Si  tau(  98) = (    0.81266662320    0.06247689990    0.06268750397  )
        99           Si  tau(  99) = (    0.74994619751    0.00030725620    0.24980779487  )
       100           Ge  tau( 100) = (    0.81230092895    0.06311557948    0.31227651292  )
       101           Ge  tau( 101) = (    0.75046770660   -0.00007091525    0.49967869522  )
       102           Si  tau( 102) = (    0.81261133023    0.06224537430    0.56243848518  )
       103           Si  tau( 103) = (    0.75009884930    0.00000745668    0.75008016511  )
       104           Si  tau( 104) = (    0.81236638620    0.06289049183    0.81241644177  )
       105           Ge  tau( 105) = (    0.74991927540    0.25016296109    0.00001084963  )
       106           Ge  tau( 106) = (    0.81236043178    0.31269562205    0.06254839054  )
       107           Ge  tau( 107) = (    0.75004738275    0.25027495789    0.24995689783  )
       108           Si  tau( 108) = (    0.81267629445    0.31251952936    0.31252464745  )
       109           Ge  tau( 109) = (    0.75018783080    0.24979733837    0.50022568090  )
       110           Ge  tau( 110) = (    0.81275037363    0.31252779636    0.56230851363  )
       111           Si  tau( 111) = (    0.75014179747    0.24994777964    0.74988453367  )
       112           Ge  tau( 112) = (    0.81266984052    0.31225232835    0.81259082662  )
       113           Si  tau( 113) = (    0.75044174212    0.49982782754   -0.00000036278  )
       114           Ge  tau( 114) = (    0.81266776236    0.56271014550    0.06230725114  )
       115           Ge  tau( 115) = (    0.75005069788    0.50029615492    0.25005007332  )
       116           Ge  tau( 116) = (    0.81241420291    0.56265017631    0.31231096593  )
       117           Ge  tau( 117) = (    0.75011259964    0.50012590877    0.50029382365  )
       118           Si  tau( 118) = (    0.81259820122    0.56279043595    0.56258773644  )
       119           Si  tau( 119) = (    0.75007586588    0.50032225951    0.74986593879  )
       120           Ge  tau( 120) = (    0.81258944464    0.56262249177    0.81261206786  )
       121           Ge  tau( 121) = (    0.74951451009    0.75017475953    0.00016474066  )
       122           Ge  tau( 122) = (    0.81237227759    0.81297020150    0.06221693544  )
       123           Ge  tau( 123) = (    0.75008161338    0.74951228808    0.25003265628  )
       124           Ge  tau( 124) = (    0.81206105788    0.81259870684    0.31246511148  )
       125           Ge  tau( 125) = (    0.75013147872    0.74973355373    0.49985457672  )
       126           Ge  tau( 126) = (    0.81271080726    0.81252552900    0.56274576882  )
       127           Si  tau( 127) = (    0.75016147249    0.74992570895    0.74968291528  )
       128           Si  tau( 128) = (    0.81273498213    0.81243293495    0.81250759992  )

     number of k points=     8  gaussian smearing, width (Ry)=  0.0150
                       cart. coord. in units 2pi/alat
        k(    1) = (   0.0000000   0.0000000   0.0000000), wk =   0.2500000
        k(    2) = (  -0.3535534  -0.3535534   0.3535534), wk =   0.2500000
        k(    3) = (  -0.7071068   0.0000000   0.0000000), wk =   0.2500000
        k(    4) = (   0.3535534   0.3535534   0.3535534), wk =   0.2500000
        k(    5) = (   0.3535534  -0.3535534  -0.3535534), wk =   0.2500000
        k(    6) = (  -0.3535534   0.3535534  -0.3535534), wk =   0.2500000
        k(    7) = (   0.0000000  -0.7071068   0.0000000), wk =   0.2500000
        k(    8) = (   0.0000000   0.0000000  -0.7071068), wk =   0.2500000

                       cryst. coord.
        k(    1) = (   0.0000000   0.0000000   0.0000000), wk =   0.2500000
        k(    2) = (   0.0000000   0.0000000  -0.5000000), wk =   0.2500000
        k(    3) = (   0.0000000  -0.5000000  -0.5000000), wk =   0.2500000
        k(    4) = (   0.5000000   0.5000000   0.5000000), wk =   0.2500000
        k(    5) = (  -0.5000000   0.0000000   0.0000000), wk =   0.2500000
        k(    6) = (   0.0000000  -0.5000000   0.0000000), wk =   0.2500000
        k(    7) = (  -0.5000000   0.0000000  -0.5000000), wk =   0.2500000
        k(    8) = (  -0.5000000  -0.5000000   0.0000000), wk =   0.2500000

     Dense  grid:   876295 G-vectors     FFT dimensions: ( 135, 135, 135)

     Smooth grid:   513103 G-vectors     FFT dimensions: ( 120, 120, 120)

     Largest allocated arrays     est. size (Mb)     dimensions
        Kohn-Sham Wavefunctions        44.68 Mb     (    4028,  727)
        NL pseudopotentials           141.61 Mb     (    4028, 2304)
        Each V/rho on FFT grid          2.50 Mb     (  164025)
        Each G-vector array             0.42 Mb     (   54770)
        G-vector shells                 0.02 Mb     (    2932)
     Largest temporary arrays     est. size (Mb)     dimensions
        Auxiliary wavefunctions       178.73 Mb     (    4028, 2908)
        Each subspace H/S matrix      129.04 Mb     (    2908, 2908)
        Each <psi_i|beta_j> matrix     25.56 Mb     (    2304,  727)
        Arrays for rho mixing          20.02 Mb     (  164025,    8)

     Check: negative/imaginary core charge=   -0.000001    0.000000

     Initial potential from superposition of free atoms

     starting charge 1211.90584, renormalised to 1212.00000
     Starting wfc are  862 randomized atomic wfcs

     total cpu time spent up to now is      713.6 secs

     per-process dynamical memory:   606.3 Mb

     Self-consistent Calculation

     iteration #  1     ecut=    35.00 Ry     beta=0.30
     Davidson diagonalization with overlap
     ethr =  1.00E-02,  avg # of iterations =  3.0

     Threshold (ethr) on eigenvalues was too large:
     Diagonalizing with lowered threshold

     Davidson diagonalization with overlap
     ethr =  2.26E-04,  avg # of iterations =  5.3

     total cpu time spent up to now is     6074.9 secs

     total energy              =  -15477.81898696 Ry
     Harris-Foulkes estimate   =  -15478.10834784 Ry
     estimated scf accuracy    <       2.77291632 Ry

     iteration #  2     ecut=    35.00 Ry     beta=0.30
     Davidson diagonalization with overlap
     ethr =  2.29E-04,  avg # of iterations =  1.0

     total cpu time spent up to now is     7924.1 secs

     total energy              =  -15477.27178005 Ry
     Harris-Foulkes estimate   =  -15477.83222980 Ry
     estimated scf accuracy    <       1.70863908 Ry

     iteration #  3     ecut=    35.00 Ry     beta=0.30
     Davidson diagonalization with overlap
     ethr =  1.41E-04,  avg # of iterations =  2.0

     total cpu time spent up to now is     9981.4 secs

     total energy              =  -15477.37585939 Ry
     Harris-Foulkes estimate   =  -15477.37523429 Ry
     estimated scf accuracy    <       0.02510088 Ry

     iteration #  4     ecut=    35.00 Ry     beta=0.30
     Davidson diagonalization with overlap
     ethr =  2.07E-06,  avg # of iterations =  9.3

     total cpu time spent up to now is    16848.2 secs

     total energy              =  -15477.37938112 Ry
     Harris-Foulkes estimate   =  -15477.38039800 Ry
     estimated scf accuracy    <       0.01062531 Ry

     iteration #  5     ecut=    35.00 Ry     beta=0.30
     Davidson diagonalization with overlap
     ethr =  8.77E-07,  avg # of iterations =  2.0

     total cpu time spent up to now is    19335.7 secs

     total energy              =  -15477.38022351 Ry
     Harris-Foulkes estimate   =  -15477.38036896 Ry
     estimated scf accuracy    <       0.00063248 Ry

     iteration #  6     ecut=    35.00 Ry     beta=0.30
     Davidson diagonalization with overlap
     ethr =  5.22E-08,  avg # of iterations =  2.0

     total cpu time spent up to now is    21397.4 secs

     total energy              =  -15477.38019886 Ry
     Harris-Foulkes estimate   =  -15477.38025600 Ry
     estimated scf accuracy    <       0.00016367 Ry

     iteration #  7     ecut=    35.00 Ry     beta=0.30
     Davidson diagonalization with overlap
     ethr =  1.35E-08,  avg # of iterations =  2.0

     total cpu time spent up to now is    23790.2 secs

     total energy              =  -15477.38022407 Ry
     Harris-Foulkes estimate   =  -15477.38021941 Ry
     estimated scf accuracy    <       0.00003216 Ry

     iteration #  8     ecut=    35.00 Ry     beta=0.30
     Davidson diagonalization with overlap
     ethr =  2.65E-09,  avg # of iterations =  2.0

     total cpu time spent up to now is    25864.1 secs

     total energy              =  -15477.38022158 Ry
     Harris-Foulkes estimate   =  -15477.38022573 Ry
     estimated scf accuracy    <       0.00001953 Ry

     iteration #  9     ecut=    35.00 Ry     beta=0.30
     Davidson diagonalization with overlap
     ethr =  1.61E-09,  avg # of iterations =  2.6

     total cpu time spent up to now is    29209.7 secs

     total energy              =  -15477.38022449 Ry
     Harris-Foulkes estimate   =  -15477.38022695 Ry
     estimated scf accuracy    <       0.00000798 Ry

     iteration # 10     ecut=    35.00 Ry     beta=0.30
     Davidson diagonalization with overlap
     ethr =  6.59E-10,  avg # of iterations =  2.0

     total cpu time spent up to now is    31485.7 secs

     total energy              =  -15477.38022477 Ry
     Harris-Foulkes estimate   =  -15477.38022516 Ry
     estimated scf accuracy    <       0.00000162 Ry

     iteration # 11     ecut=    35.00 Ry     beta=0.30
     Davidson diagonalization with overlap
     ethr =  1.34E-10,  avg # of iterations =  2.1

     total cpu time spent up to now is    34359.5 secs

     total energy              =  -15477.38022523 Ry
     Harris-Foulkes estimate   =  -15477.38022509 Ry
     estimated scf accuracy    <       0.00000018 Ry

     iteration # 12     ecut=    35.00 Ry     beta=0.30
     Davidson diagonalization with overlap
     ethr =  1.45E-11,  avg # of iterations =  2.3

     total cpu time spent up to now is    36593.2 secs

     total energy              =  -15477.38022533 Ry
     Harris-Foulkes estimate   =  -15477.38022525 Ry
     estimated scf accuracy    <       0.00000002 Ry

     iteration # 13     ecut=    35.00 Ry     beta=0.30
     Davidson diagonalization with overlap
     ethr =  1.41E-12,  avg # of iterations =  3.0

     total cpu time spent up to now is    39939.0 secs

     total energy              =  -15477.38022538 Ry
     Harris-Foulkes estimate   =  -15477.38022534 Ry
     estimated scf accuracy    <          4.0E-09 Ry

     iteration # 14     ecut=    35.00 Ry     beta=0.30
     Davidson diagonalization with overlap
     ethr =  3.27E-13,  avg # of iterations =  2.0

     total cpu time spent up to now is    42319.6 secs

     total energy              =  -15477.38022540 Ry
     Harris-Foulkes estimate   =  -15477.38022538 Ry
     estimated scf accuracy    <          1.2E-09 Ry

     iteration # 15     ecut=    35.00 Ry     beta=0.30
     Davidson diagonalization with overlap
     ethr =  1.00E-13,  avg # of iterations =  2.6

     total cpu time spent up to now is    44763.0 secs

     End of self-consistent calculation

          k = 0.0000 0.0000 0.0000 ( 64071 PWs)   bands (ev):

   -17.1848 -17.1829 -17.1786 -17.1765 -17.1742 -17.1715 -17.1694 -17.1665
   -17.1660 -17.1644 -17.1617 -17.1603 -17.1561 -17.1546 -17.1522 -17.1508
   -17.1498 -17.1487 -17.1480 -17.1469 -17.1431 -17.1421 -17.1414 -17.1382
   -17.1300 -17.1293 -17.1269 -17.1245 -17.1192 -17.1111 -17.1081 -17.1052
   -17.1021 -17.1003 -17.0979 -17.0962 -17.0951 -17.0942 -17.0869 -17.0848
   -17.0829 -17.0812 -17.0791 -17.0779 -17.0769 -17.0757 -17.0736 -17.0725
   -17.0713 -17.0699 -17.0663 -17.0659 -17.0616 -17.0614 -17.0600 -17.0598
   -17.0575 -17.0563 -17.0562 -17.0559 -17.0549 -17.0544 -17.0523 -17.0473
   -17.0472 -17.0456 -17.0435 -17.0422 -17.0385 -17.0367 -17.0361 -17.0336
   -17.0304 -17.0292 -17.0286 -17.0275 -17.0261 -17.0239 -17.0227 -17.0210
   -17.0172 -17.0141 -17.0111 -17.0087 -17.0066 -17.0049 -17.0012 -16.9995
   -16.9980 -16.9972 -16.9964 -16.9945 -16.9929 -16.9924 -16.9891 -16.9868
   -16.9850 -16.9829 -16.9803 -16.9783 -16.9771 -16.9766 -16.9751 -16.9747
   -16.9739 -16.9733 -16.9727 -16.9719 -16.9706 -16.9701 -16.9698 -16.9686
   -16.9664 -16.9651 -16.9650 -16.9637 -16.9628 -16.9619 -16.9606 -16.9593
   -16.9587 -16.9569 -16.9557 -16.9545 -16.9544 -16.9539 -16.9539 -16.9535
   -16.9501 -16.9480 -16.9479 -16.9476 -16.9473 -16.9471 -16.9461 -16.9435
   -16.9419 -16.9397 -16.9385 -16.9358 -16.9348 -16.9328 -16.9313 -16.9311
   -16.9298 -16.9279 -16.9261 -16.9255 -16.9253 -16.9229 -16.9222 -16.9202
   -16.9190 -16.9169 -16.9156 -16.9144 -16.9132 -16.9125 -16.9112 -16.9088
   -16.9080 -16.9071 -16.9068 -16.9062 -16.9060 -16.9059 -16.9054 -16.9031
   -16.9028 -16.9019 -16.9013 -16.9011 -16.9008 -16.9001 -16.8992 -16.8980
   -16.8973 -16.8972 -16.8971 -16.8966 -16.8960 -16.8957 -16.8952 -16.8951
   -16.8946 -16.8943 -16.8935 -16.8935 -16.8933 -16.8928 -16.8916 -16.8912
   -16.8906 -16.8905 -16.8900 -16.8897 -16.8887 -16.8884 -16.8883 -16.8880
   -16.8880 -16.8876 -16.8873 -16.8872 -16.8871 -16.8867 -16.8862 -16.8855
   -16.8840 -16.8836 -16.8830 -16.8827 -16.8822 -16.8821 -16.8818 -16.8809
   -16.8808 -16.8802 -16.8799 -16.8795 -16.8791 -16.8783 -16.8774 -16.8764
   -16.8757 -16.8754 -16.8751 -16.8746 -16.8742 -16.8739 -16.8733 -16.8724
   -16.8716 -16.8704 -16.8699 -16.8693 -16.8692 -16.8692 -16.8689 -16.8686
   -16.8683 -16.8680 -16.8677 -16.8676 -16.8672 -16.8671 -16.8656 -16.8647
   -16.8642 -16.8636 -16.8631 -16.8618 -16.8609 -16.8606 -16.8603 -16.8601
   -16.8596 -16.8595 -16.8590 -16.8571 -16.8569 -16.8566 -16.8548 -16.8542
   -16.8538 -16.8536 -16.8528 -16.8524 -16.8520 -16.8515 -16.8514 -16.8508
   -16.8506 -16.8503 -16.8499 -16.8497 -16.8494 -16.8485 -16.8480 -16.8473
   -16.8469 -16.8455 -16.8449 -16.8443 -16.8440 -16.8433 -16.8431 -16.8430
   -16.8427 -16.8425 -16.8421 -16.8410 -16.8408 -16.8402 -16.8397 -16.8395
   -16.8363 -16.8359 -16.8357 -16.8356 -16.8352 -16.8350 -16.8333 -16.8299
   -16.8297 -16.8291 -16.8271 -16.8268 -16.8264 -16.8244 -16.8230 -16.8225
   -16.8198 -16.8176 -16.8174 -16.8149 -16.8136 -16.8125 -16.8117 -16.8086
   -16.8079 -16.8064 -16.8053 -16.7987 -16.7979 -16.7959 -16.7948 -16.7942
   -16.7920 -16.7904 -16.7896 -16.7890 -16.7876 -16.7847 -16.7843 -16.7833
   -16.7825 -16.7813 -16.7810 -16.7807 -16.7799 -16.7787 -16.7784 -16.7779
   -16.7769 -16.7755 -16.7739 -16.7736 -16.7724 -16.7709  -5.0670  -4.4514
    -4.4228  -4.4079  -4.3378  -4.3071  -4.2412  -4.1806  -4.1420  -4.0226
    -3.9832  -3.9704  -3.9558  -3.8996  -3.8735  -3.2595  -3.2424  -3.1843
    -3.1678  -3.1555  -3.1331  -3.0913  -3.0479  -3.0287  -2.9995  -2.9597
    -2.9354  -2.9231  -2.8702  -2.8177  -2.7006  -2.6648  -2.6381  -2.6090
    -2.5808  -2.5500  -2.5127  -2.4858  -2.4240  -2.4209  -2.4077  -2.3695
    -2.3458  -2.3206  -2.2704  -2.2506  -2.2010  -2.1930  -2.1585  -2.1340
    -2.1096  -2.0711  -2.0510  -2.0025  -1.9556  -1.1022  -1.0619  -1.0484
    -0.9813  -0.9662  -0.9072  -0.9026  -0.8705  -0.8405  -0.7985  -0.7741
    -0.7559  -0.7405  -0.6963  -0.6656  -0.6104  -0.5447  -0.5274   0.1008
     0.1247   0.1440   0.1690   0.3304   0.3627   0.3966   0.4308   0.4568
     0.4630   0.4766   0.5105   0.5549   0.5631   0.5815   0.5963   0.6101
     0.6355   0.6489   0.6620   0.7155   0.7348   0.7460   0.7609   0.7768
     0.8009   0.8281   0.8727   1.3661   1.3845   1.4478   1.4757   1.4896
     1.5048   1.5249   1.5395   1.5775   1.5983   1.6325   1.6536   3.0818
     3.1208   3.1295   3.1569   3.1870   3.2102   3.2392   3.2606   3.3345
     3.3958   3.4229   3.4393   3.4595   3.4993   3.5484   3.5548   3.5559
     3.5580   3.5598   3.5622   3.5647   3.5662   3.5668   3.5705   3.5721
     3.5757   3.6133   3.6175   3.6234   3.6274   3.6295   3.6367   3.6384
     3.6412   3.6457   3.6469   3.6491   3.6558   3.7776   3.7834   3.7841
     3.7895   3.7916   3.7938   3.8014   3.8054   3.8095   3.8121   3.8178
     3.8206   3.8221   3.8252   3.8297   3.8318   3.8370   3.8388   3.8446
     3.8489   3.8510   3.8526   3.8585   3.8643   4.5002   4.5010   4.5024
     4.5033   4.5048   4.5060   5.1544   5.1572   5.1586   5.1602   5.1627
     5.1638   5.1652   5.1671   5.1684   5.1703   5.1726   5.1757   5.1772
     5.1796   5.1825   5.1832   5.1837   5.1853   5.1876   5.1921   5.1928
     5.1939   5.1955   5.1985   5.5084   5.5107   5.5150   5.5161   5.5207
     5.5214   5.5227   5.5254   5.5307   5.5362   5.5382   5.5418   6.0665
     6.0673   6.0719   6.0740   6.0778   6.0782   6.0842   6.0880   6.0896
     6.0910   6.0949   6.1040   6.1874   6.1909   6.1945   6.1986   6.2028
     6.2041   6.2089   6.2182   6.6570   6.6584   6.6629   6.6663   6.6742
     6.6842   6.6887   6.6925   6.7026   6.7047   6.7068   6.7120   6.7158
     6.7208   6.7226   6.7324   7.5335   7.5402   7.5472   8.0777   8.1181
     8.1227   8.1543   8.1725   8.1900   8.2439   8.2760   8.3130   8.3368
     8.4594   8.4832   8.4947   8.5119   8.5263   8.5358   8.6820   8.7145
     8.7305   8.7725   8.7867   8.8043   8.8166   8.8318   8.8438   8.8546
     8.8657   8.8758   8.8812   8.8841   8.8924   8.9024   8.9114   8.9333
     8.9406   8.9528   8.9586   8.9715   8.9747   8.9799   8.9990   9.0041
     9.0217   9.0394   9.0421   9.0509   9.0728   9.0822   9.1908   9.6493
     9.6642   9.6886   9.7060   9.7068   9.7153   9.7351   9.7557   9.7675
     9.7822   9.7929   9.8150  10.0390  10.0473  10.0504  10.4361  10.4590
    10.4763  10.4920  10.5158  10.5264  10.9365  10.9623  10.9672  10.9811
    10.9888  10.9955  11.0082  11.0226  11.0232  11.0285  11.0466  11.0631
    11.0694  11.0723  11.0844  11.0912  11.0949  11.1070  11.1256  11.1281
    11.1310  11.1455  11.1577  11.1709  11.7593  11.7728  11.7815  11.7858
    11.7968  11.8055  11.8276  11.8302  11.8387  11.8499  11.8543  11.8619
    11.8695  11.8742  11.8917  11.8979  11.9044  11.9102  11.9218  11.9259
    11.9354  11.9374  11.9422  11.9558  11.9598  11.9751  11.9798

     occupation numbers 
     1.0000   1.0000   1.0000   1.0000   1.0000   1.0000   1.0000   1.0000
     1.0000   1.0000   1.0000   1.0000   1.0000   1.0000   1.0000   1.0000
     1.0000   1.0000   1.0000   1.0000   1.0000   1.0000   1.0000   1.0000
     1.0000   1.0000   1.0000   1.0000   1.0000   1.0000   1.0000   1.0000
     1.0000   1.0000   1.0000   1.0000   1.0000   1.0000   1.0000   1.0000
     1.0000   1.0000   1.0000   1.0000   1.0000   1.0000   1.0000   1.0000
     1.0000   1.0000   1.0000   1.0000   1.0000   1.0000   1.0000   1.0000
     1.0000   1.0000   1.0000   1.0000   1.0000   1.0000   1.0000   1.0000
     1.0000   1.0000   1.0000   1.0000   1.0000   1.0000   1.0000   1.0000
     1.0000   1.0000   1.0000   1.0000   1.0000   1.0000   1.0000   1.0000
     1.0000   1.0000   1.0000   1.0000   1.0000   1.0000   1.0000   1.0000
     1.0000   1.0000   1.0000   1.0000   1.0000   1.0000   1.0000   1.0000
     1.0000   1.0000   1.0000   1.0000   1.0000   1.0000   1.0000   1.0000
     1.0000   1.0000   1.0000   1.0000   1.0000   1.0000   1.0000   1.0000
     1.0000   1.0000   1.0000   1.0000   1.0000   1.0000   1.0000   1.0000
     1.0000   1.0000   1.0000   1.0000   1.0000   1.0000   1.0000   1.0000
     1.0000   1.0000   1.0000   1.0000   1.0000   1.0000   1.0000   1.0000
     1.0000   1.0000   1.0000   1.0000   1.0000   1.0000   1.0000   1.0000
     1.0000   1.0000   1.0000   1.0000   1.0000   1.0000   1.0000   1.0000
     1.0000   1.0000   1.0000   1.0000   1.0000   1.0000   1.0000   1.0000
     1.0000   1.0000   1.0000   1.0000   1.0000   1.0000   1.0000   1.0000
     1.0000   1.0000   1.0000   1.0000   1.0000   1.0000   1.0000   1.0000
     1.0000   1.0000   1.0000   1.0000   1.0000   1.0000   1.0000   1.0000
     1.0000   1.0000   1.0000   1.0000   1.0000   1.0000   1.0000   1.0000
     1.0000   1.0000   1.0000   1.0000   1.0000   1.0000   1.0000   1.0000
     1.0000   1.0000   1.0000   1.0000   1.0000   1.0000   1.0000   1.0000
     1.0000   1.0000   1.0000   1.0000   1.0000   1.0000   1.0000   1.0000
     1.0000   1.0000   1.0000   1.0000   1.0000   1.0000   1.0000   1.0000
     1.0000   1.0000   1.0000   1.0000   1.0000   1.0000   1.0000   1.0000
     1.0000   1.0000   1.0000   1.0000   1.0000   1.0000   1.0000   1.0000
     1.0000   1.0000   1.0000   1.0000   1.0000   1.0000   1.0000   1.0000
     1.0000   1.0000   1.0000   1.0000   1.0000   1.0000   1.0000   1.0000
     1.0000   1.0000   1.0000   1.0000   1.0000   1.0000   1.0000   1.0000
     1.0000   1.0000   1.0000   1.0000   1.0000   1.0000   1.0000   1.0000
     1.0000   1.0000   1.0000   1.0000   1.0000   1.0000   1.0000   1.0000
     1.0000   1.0000   1.0000   1.0000   1.0000   1.0000   1.0000   1.0000
     1.0000   1.0000   1.0000   1.0000   1.0000   1.0000   1.0000   1.0000
     1.0000   1.0000   1.0000   1.0000   1.0000   1.0000   1.0000   1.0000
     1.0000   1.0000   1.0000   1.0000   1.0000   1.0000   1.0000   1.0000
     1.0000   1.0000   1.0000   1.0000   1.0000   1.0000   1.0000   1.0000
     1.0000   1.0000   1.0000   1.0000   1.0000   1.0000   1.0000   1.0000
     1.0000   1.0000   1.0000   1.0000   1.0000   1.0000   1.0000   1.0000
     1.0000   1.0000   1.0000   1.0000   1.0000   1.0000   1.0000   1.0000
     1.0000   1.0000   1.0000   1.0000   1.0000   1.0000   1.0000   1.0000
     1.0000   1.0000   1.0000   1.0000   1.0000   1.0000   1.0000   1.0000
     1.0000   1.0000   1.0000   1.0000   1.0000   1.0000   1.0000   1.0000
     1.0000   1.0000   1.0000   1.0000   1.0000   1.0000   1.0000   1.0000
     1.0000   1.0000   1.0000   1.0000   1.0000   1.0000   1.0000   1.0000
     1.0000   1.0000   1.0000   1.0000   1.0000   1.0000   1.0000   1.0000
     1.0000   1.0000   1.0000   1.0000   1.0000   1.0000   1.0000   1.0000
     1.0000   1.0000   1.0000   1.0000   1.0000   1.0000   1.0000   1.0000
     1.0000   1.0000   1.0000   1.0000   1.0000   1.0000   1.0000   1.0000
     1.0000   1.0000   1.0000   1.0000   1.0000   1.0000   1.0000   1.0000
     1.0000   1.0000   1.0000   1.0000   1.0000   1.0000   1.0000   1.0000
     1.0000   1.0000   1.0000   1.0000   1.0000   1.0000   1.0000   1.0000
     1.0000   1.0000   1.0000   1.0000   1.0000   1.0000   1.0000   1.0000
     1.0000   1.0000   1.0000   1.0000   1.0000   1.0000   1.0000   1.0000
     1.0000   1.0000   1.0000   1.0000   1.0000   1.0000   1.0000   1.0000
     1.0000   1.0000   1.0000   1.0000   1.0000   1.0000   1.0000   1.0000
     1.0000   1.0000   1.0000   1.0000   1.0000   1.0000   1.0000   1.0000
     1.0000   1.0000   1.0000   1.0000   1.0000   1.0000   1.0000   1.0000
     1.0000   1.0000   1.0000   1.0000   1.0000   1.0000   1.0000   1.0000
     1.0000   1.0000   1.0000   1.0000   1.0000   1.0000   1.0000   1.0000
     1.0000   1.0000   1.0000   1.0000   1.0000   1.0000   1.0000   1.0000
     1.0000   1.0000   1.0000   1.0000   1.0000   1.0000   1.0000   1.0000
     1.0000   1.0000   1.0000   1.0000   1.0000   1.0000   1.0000   1.0000
     1.0000   1.0000   1.0000   1.0000   1.0000   1.0000   1.0000   1.0000
     1.0000   1.0000   1.0000   1.0000   1.0000   1.0000   1.0000   1.0000
     1.0000   1.0000   1.0000   1.0000   1.0000   1.0000   1.0000   1.0000
     1.0000   1.0000   1.0000   1.0000   1.0000   1.0000   1.0000   1.0000
     1.0000   1.0000   1.0000   1.0000   1.0000   1.0000   1.0000   1.0000
     1.0000   1.0000   1.0000   1.0000   1.0000   1.0000   1.0000   1.0000
     1.0000   1.0000   1.0000   1.0000   1.0000   1.0000   1.0000   1.0000
     1.0000   1.0000   1.0000   1.0000   1.0000   1.0000   1.0000   1.0000
     1.0000   1.0000   1.0000   1.0000   1.0000   1.0000   1.0000   1.0000
     1.0000   1.0000   1.0000   0.9355   0.9295   0.9226   0.0121   0.0057
     0.0052   0.0027   0.0018   0.0012   0.0003   0.0001   0.0001   0.0000
     0.0000   0.0000   0.0000   0.0000   0.0000   0.0000   0.0000   0.0000
     0.0000   0.0000   0.0000   0.0000   0.0000   0.0000   0.0000   0.0000
     0.0000   0.0000   0.0000   0.0000   0.0000   0.0000   0.0000   0.0000
     0.0000   0.0000   0.0000   0.0000   0.0000   0.0000   0.0000   0.0000
     0.0000   0.0000   0.0000   0.0000   0.0000   0.0000   0.0000   0.0000
     0.0000   0.0000   0.0000   0.0000   0.0000   0.0000   0.0000   0.0000
     0.0000   0.0000   0.0000   0.0000   0.0000   0.0000   0.0000   0.0000
     0.0000   0.0000   0.0000   0.0000   0.0000   0.0000   0.0000   0.0000
     0.0000   0.0000   0.0000   0.0000   0.0000   0.0000   0.0000   0.0000
     0.0000   0.0000   0.0000   0.0000   0.0000   0.0000   0.0000   0.0000
     0.0000   0.0000   0.0000   0.0000   0.0000   0.0000   0.0000   0.0000
     0.0000   0.0000   0.0000   0.0000   0.0000   0.0000   0.0000   0.0000
     0.0000   0.0000   0.0000   0.0000   0.0000   0.0000   0.0000   0.0000
     0.0000   0.0000   0.0000   0.0000   0.0000   0.0000   0.0000

          k =-0.3536-0.3536 0.3536 ( 64114 PWs)   bands (ev):

   -17.1849 -17.1829 -17.1785 -17.1768 -17.1743 -17.1716 -17.1691 -17.1667
   -17.1661 -17.1647 -17.1612 -17.1601 -17.1571 -17.1546 -17.1522 -17.1505
   -17.1499 -17.1487 -17.1479 -17.1471 -17.1429 -17.1423 -17.1416 -17.1382
   -17.1299 -17.1292 -17.1269 -17.1247 -17.1194 -17.1114 -17.1077 -17.1051
   -17.1023 -17.1002 -17.0982 -17.0964 -17.0953 -17.0928 -17.0870 -17.0849
   -17.0836 -17.0816 -17.0785 -17.0782 -17.0772 -17.0754 -17.0737 -17.0720
   -17.0717 -17.0697 -17.0666 -17.0652 -17.0614 -17.0613 -17.0605 -17.0594
   -17.0582 -17.0564 -17.0563 -17.0560 -17.0552 -17.0544 -17.0525 -17.0473
   -17.0472 -17.0462 -17.0435 -17.0402 -17.0394 -17.0365 -17.0362 -17.0333
   -17.0308 -17.0293 -17.0284 -17.0274 -17.0262 -17.0232 -17.0225 -17.0208
   -17.0189 -17.0142 -17.0115 -17.0083 -17.0064 -17.0043 -17.0004 -16.9991
   -16.9981 -16.9975 -16.9967 -16.9956 -16.9936 -16.9917 -16.9890 -16.9876
   -16.9854 -16.9819 -16.9797 -16.9777 -16.9768 -16.9763 -16.9754 -16.9747
   -16.9745 -16.9735 -16.9726 -16.9722 -16.9705 -16.9702 -16.9697 -16.9684
   -16.9674 -16.9651 -16.9650 -16.9635 -16.9626 -16.9624 -16.9600 -16.9595
   -16.9588 -16.9567 -16.9560 -16.9545 -16.9544 -16.9541 -16.9539 -16.9539
   -16.9497 -16.9484 -16.9479 -16.9477 -16.9474 -16.9466 -16.9448 -16.9442
   -16.9429 -16.9398 -16.9380 -16.9357 -16.9345 -16.9342 -16.9316 -16.9306
   -16.9287 -16.9282 -16.9269 -16.9260 -16.9250 -16.9237 -16.9221 -16.9203
   -16.9186 -16.9169 -16.9151 -16.9144 -16.9131 -16.9122 -16.9111 -16.9092
   -16.9080 -16.9075 -16.9064 -16.9062 -16.9060 -16.9060 -16.9052 -16.9038
   -16.9034 -16.9020 -16.9018 -16.9010 -16.9009 -16.8997 -16.8993 -16.8985
   -16.8979 -16.8972 -16.8967 -16.8964 -16.8960 -16.8959 -16.8954 -16.8950
   -16.8943 -16.8940 -16.8939 -16.8936 -16.8934 -16.8929 -16.8919 -16.8911
   -16.8907 -16.8903 -16.8899 -16.8893 -16.8891 -16.8888 -16.8884 -16.8879
   -16.8876 -16.8875 -16.8871 -16.8871 -16.8868 -16.8867 -16.8861 -16.8854
   -16.8843 -16.8839 -16.8832 -16.8825 -16.8824 -16.8819 -16.8813 -16.8811
   -16.8808 -16.8803 -16.8799 -16.8796 -16.8789 -16.8782 -16.8778 -16.8768
   -16.8758 -16.8751 -16.8749 -16.8744 -16.8742 -16.8739 -16.8732 -16.8726
   -16.8722 -16.8712 -16.8700 -16.8695 -16.8693 -16.8692 -16.8690 -16.8687
   -16.8682 -16.8681 -16.8677 -16.8673 -16.8672 -16.8670 -16.8654 -16.8650
   -16.8646 -16.8638 -16.8628 -16.8621 -16.8609 -16.8608 -16.8606 -16.8598
   -16.8596 -16.8595 -16.8589 -16.8574 -16.8568 -16.8561 -16.8548 -16.8546
   -16.8536 -16.8532 -16.8528 -16.8524 -16.8521 -16.8518 -16.8514 -16.8508
   -16.8507 -16.8504 -16.8499 -16.8496 -16.8495 -16.8485 -16.8484 -16.8473
   -16.8469 -16.8455 -16.8450 -16.8443 -16.8440 -16.8434 -16.8433 -16.8430
   -16.8427 -16.8425 -16.8421 -16.8410 -16.8408 -16.8403 -16.8398 -16.8397
   -16.8363 -16.8360 -16.8357 -16.8354 -16.8353 -16.8350 -16.8331 -16.8308
   -16.8300 -16.8279 -16.8273 -16.8268 -16.8265 -16.8243 -16.8230 -16.8224
   -16.8199 -16.8183 -16.8175 -16.8151 -16.8137 -16.8124 -16.8114 -16.8087
   -16.8079 -16.8067 -16.8053 -16.7991 -16.7974 -16.7961 -16.7951 -16.7940
   -16.7918 -16.7905 -16.7903 -16.7892 -16.7874 -16.7849 -16.7842 -16.7833
   -16.7823 -16.7814 -16.7810 -16.7806 -16.7802 -16.7789 -16.7783 -16.7779
   -16.7771 -16.7755 -16.7739 -16.7737 -16.7723 -16.7710  -4.9211  -4.8345
    -4.4737  -4.4170  -4.3776  -4.3019  -4.2768  -4.2180  -3.9496  -3.9113
    -3.8597  -3.8373  -3.7874  -3.7486  -3.5075  -3.4143  -3.3870  -3.3531
    -3.3064  -3.2603  -3.2310  -3.1988  -3.0772  -3.0630  -3.0330  -2.9923
    -2.9732  -2.9492  -2.9201  -2.8800  -2.8625  -2.7846  -2.7802  -2.7417
    -2.7081  -2.6446  -2.6218  -2.5719  -2.5067  -2.4762  -2.3322  -2.3046
    -2.2018  -2.1666  -2.1119  -2.0168  -1.9436  -1.8861  -1.8649  -1.8140
    -1.7853  -1.7124  -1.6821  -1.6739  -1.6568  -1.5933  -1.5690  -1.5641
    -1.5186  -1.4757  -1.4681  -1.4071  -1.3552  -1.3088  -0.2820  -0.2406
    -0.1986  -0.1873  -0.1633  -0.1476  -0.1067  -0.0827  -0.0410  -0.0389
     0.0012   0.0386   0.0644   0.0779   0.1084   0.1418   0.1821   0.2517
     0.2904   0.3173   0.3299   0.3576   0.3855   0.3982   0.4220   0.4625
     0.4784   0.4898   0.5107   0.5405   1.0019   1.0481   1.0747   1.1003
     1.1230   1.1480   1.1671   1.1917   1.2223   1.2473   1.2564   1.2727
     1.3017   1.3534   1.9164   1.9343   1.9769   2.0275   2.0431   2.1042
     2.3965   2.4106   2.4342   2.4747   2.4913   2.5312   3.3184   3.3209
     3.3255   3.3287   3.3322   3.3345   3.3352   3.3385   3.3414   3.3446
     3.3488   3.3514   3.3561   3.3580   3.3652   3.3739   3.3772   3.3890
     3.7649   3.7841   3.8222   3.8487   3.8808   3.8971   3.9407   3.9444
     3.9483   3.9533   3.9570   3.9607   3.9886   3.9942   4.0016   4.0087
     4.0123   4.0180   4.0242   4.0335   4.0387   4.0424   4.0478   4.0543
     4.4269   4.4326   4.4336   4.4356   4.4364   4.4386   4.4394   4.4405
     4.4443   4.4463   4.4470   4.4498   4.6715   4.6717   4.6779   4.6832
     4.6864   4.6876   4.6892   4.6934   4.6950   4.7072   4.7101   4.7156
     4.9659   4.9887   4.9965   5.0128   5.0163   5.0253   5.0330   5.0348
     5.0399   5.0488   5.0550   5.0636   5.1689   5.1737   5.1806   5.1884
     5.1899   5.1965   5.4498   5.4523   5.4589   5.4608   5.4658   5.4667
     5.4698   5.4735   5.4782   5.4794   5.4822   5.4846   5.4998   5.5044
     5.5059   5.5071   5.5094   5.5102   5.5716   5.6438   5.8248   5.8272
     5.8296   5.8335   5.8440   5.8523   6.0820   6.0887   6.0982   6.1053
     6.1086   6.1126   6.1272   6.1294   6.1348   6.1366   6.1446   6.1594
     6.3185   6.3220   6.3276   6.3402   6.6484   6.6564   6.6569   6.6695
     6.6763   6.6839   7.2014   7.2032   7.2286   7.2431   8.2961   8.3008
     8.3174   8.3357   8.3596   8.3767   8.4132   8.4349   8.7262   8.7304
     8.7501   8.7559   8.7777   8.7818   9.1243   9.1555   9.1669   9.1743
     9.2071   9.2101   9.2282   9.2407   9.2698   9.2888   9.2945   9.3137
     9.3223   9.3672   9.3991   9.4047   9.4147   9.4240   9.4577   9.4832
     9.5053   9.5092   9.5356   9.5460   9.5658   9.5740   9.6268   9.6387
     9.6482   9.6893   9.6953   9.7326   9.7581   9.7811   9.7884   9.8036
     9.8194   9.8248   9.8472   9.8598   9.8673   9.8921   9.9084   9.9218
    10.1613  10.1744  10.1947  10.2023  10.2094  10.2179  10.2282  10.2362
    10.2406  10.2490  10.2639  10.2706  10.3013  10.3153  10.3417  10.3559
    10.3673  10.3994  10.4612  10.4648  10.5224  10.5312  10.6284  10.6408
    10.6524  10.6712  10.6812  10.6853  10.8613  10.8771  10.8927  10.9109
    10.9210  10.9219  10.9420  10.9488  10.9559  10.9757  10.9808  10.9917
    11.0011  11.0084  11.0165  11.0319  11.0498  11.0595  11.0789  11.0909
    11.1493  11.1647  11.1783  11.2175  11.2262  11.2467  11.2825  11.2865
    11.3191  11.3552  11.3808  11.3911  11.4185  11.4443  11.4494

     occupation numbers 
     1.0000   1.0000   1.0000   1.0000   1.0000   1.0000   1.0000   1.0000
     1.0000   1.0000   1.0000   1.0000   1.0000   1.0000   1.0000   1.0000
     1.0000   1.0000   1.0000   1.0000   1.0000   1.0000   1.0000   1.0000
     1.0000   1.0000   1.0000   1.0000   1.0000   1.0000   1.0000   1.0000
     1.0000   1.0000   1.0000   1.0000   1.0000   1.0000   1.0000   1.0000
     1.0000   1.0000   1.0000   1.0000   1.0000   1.0000   1.0000   1.0000
     1.0000   1.0000   1.0000   1.0000   1.0000   1.0000   1.0000   1.0000
     1.0000   1.0000   1.0000   1.0000   1.0000   1.0000   1.0000   1.0000
     1.0000   1.0000   1.0000   1.0000   1.0000   1.0000   1.0000   1.0000
     1.0000   1.0000   1.0000   1.0000   1.0000   1.0000   1.0000   1.0000
     1.0000   1.0000   1.0000   1.0000   1.0000   1.0000   1.0000   1.0000
     1.0000   1.0000   1.0000   1.0000   1.0000   1.0000   1.0000   1.0000
     1.0000   1.0000   1.0000   1.0000   1.0000   1.0000   1.0000   1.0000
     1.0000   1.0000   1.0000   1.0000   1.0000   1.0000   1.0000   1.0000
     1.0000   1.0000   1.0000   1.0000   1.0000   1.0000   1.0000   1.0000
     1.0000   1.0000   1.0000   1.0000   1.0000   1.0000   1.0000   1.0000
     1.0000   1.0000   1.0000   1.0000   1.0000   1.0000   1.0000   1.0000
     1.0000   1.0000   1.0000   1.0000   1.0000   1.0000   1.0000   1.0000
     1.0000   1.0000   1.0000   1.0000   1.0000   1.0000   1.0000   1.0000
     1.0000   1.0000   1.0000   1.0000   1.0000   1.0000   1.0000   1.0000
     1.0000   1.0000   1.0000   1.0000   1.0000   1.0000   1.0000   1.0000
     1.0000   1.0000   1.0000   1.0000   1.0000   1.0000   1.0000   1.0000
     1.0000   1.0000   1.0000   1.0000   1.0000   1.0000   1.0000   1.0000
     1.0000   1.0000   1.0000   1.0000   1.0000   1.0000   1.0000   1.0000
     1.0000   1.0000   1.0000   1.0000   1.0000   1.0000   1.0000   1.0000
     1.0000   1.0000   1.0000   1.0000   1.0000   1.0000   1.0000   1.0000
     1.0000   1.0000   1.0000   1.0000   1.0000   1.0000   1.0000   1.0000
     1.0000   1.0000   1.0000   1.0000   1.0000   1.0000   1.0000   1.0000
     1.0000   1.0000   1.0000   1.0000   1.0000   1.0000   1.0000   1.0000
     1.0000   1.0000   1.0000   1.0000   1.0000   1.0000   1.0000   1.0000
     1.0000   1.0000   1.0000   1.0000   1.0000   1.0000   1.0000   1.0000
     1.0000   1.0000   1.0000   1.0000   1.0000   1.0000   1.0000   1.0000
     1.0000   1.0000   1.0000   1.0000   1.0000   1.0000   1.0000   1.0000
     1.0000   1.0000   1.0000   1.0000   1.0000   1.0000   1.0000   1.0000
     1.0000   1.0000   1.0000   1.0000   1.0000   1.0000   1.0000   1.0000
     1.0000   1.0000   1.0000   1.0000   1.0000   1.0000   1.0000   1.0000
     1.0000   1.0000   1.0000   1.0000   1.0000   1.0000   1.0000   1.0000
     1.0000   1.0000   1.0000   1.0000   1.0000   1.0000   1.0000   1.0000
     1.0000   1.0000   1.0000   1.0000   1.0000   1.0000   1.0000   1.0000
     1.0000   1.0000   1.0000   1.0000   1.0000   1.0000   1.0000   1.0000
     1.0000   1.0000   1.0000   1.0000   1.0000   1.0000   1.0000   1.0000
     1.0000   1.0000   1.0000   1.0000   1.0000   1.0000   1.0000   1.0000
     1.0000   1.0000   1.0000   1.0000   1.0000   1.0000   1.0000   1.0000
     1.0000   1.0000   1.0000   1.0000   1.0000   1.0000   1.0000   1.0000
     1.0000   1.0000   1.0000   1.0000   1.0000   1.0000   1.0000   1.0000
     1.0000   1.0000   1.0000   1.0000   1.0000   1.0000   1.0000   1.0000
     1.0000   1.0000   1.0000   1.0000   1.0000   1.0000   1.0000   1.0000
     1.0000   1.0000   1.0000   1.0000   1.0000   1.0000   1.0000   1.0000
     1.0000   1.0000   1.0000   1.0000   1.0000   1.0000   1.0000   1.0000
     1.0000   1.0000   1.0000   1.0000   1.0000   1.0000   1.0000   1.0000
     1.0000   1.0000   1.0000   1.0000   1.0000   1.0000   1.0000   1.0000
     1.0000   1.0000   1.0000   1.0000   1.0000   1.0000   1.0000   1.0000
     1.0000   1.0000   1.0000   1.0000   1.0000   1.0000   1.0000   1.0000
     1.0000   1.0000   1.0000   1.0000   1.0000   1.0000   1.0000   1.0000
     1.0000   1.0000   1.0000   1.0000   1.0000   1.0000   1.0000   1.0000
     1.0000   1.0000   1.0000   1.0000   1.0000   1.0000   1.0000   1.0000
     1.0000   1.0000   1.0000   1.0000   1.0000   1.0000   1.0000   1.0000
     1.0000   1.0000   1.0000   1.0000   1.0000   1.0000   1.0000   1.0000
     1.0000   1.0000   1.0000   1.0000   1.0000   1.0000   1.0000   1.0000
     1.0000   1.0000   1.0000   1.0000   1.0000   1.0000   1.0000   1.0000
     1.0000   1.0000   1.0000   1.0000   1.0000   1.0000   1.0000   1.0000
     1.0000   1.0000   1.0000   1.0000   1.0000   1.0000   1.0000   1.0000
     1.0000   1.0000   1.0000   1.0000   1.0000   1.0000   1.0000   1.0000
     1.0000   1.0000   1.0000   1.0000   1.0000   1.0000   1.0000   1.0000
     1.0000   1.0000   1.0000   1.0000   1.0000   1.0000   1.0000   1.0000
     1.0000   1.0000   1.0000   1.0000   1.0000   1.0000   1.0000   1.0000
     1.0000   1.0000   1.0000   1.0000   1.0000   1.0000   1.0000   1.0000
     1.0000   1.0000   1.0000   1.0000   1.0000   1.0000   1.0000   1.0000
     1.0000   1.0000   1.0000   1.0000   1.0000   1.0000   1.0000   1.0000
     1.0000   1.0000   1.0000   1.0000   1.0000   1.0000   1.0000   1.0000
     1.0000   1.0000   1.0000   1.0000   1.0000   1.0000   1.0000   1.0000
     1.0000   1.0000   1.0000   1.0000   1.0000   1.0000   1.0000   1.0000
     1.0000   1.0000   1.0000   1.0000   1.0000   1.0000   1.0000   1.0000
     1.0000   1.0000   1.0000   1.0000   1.0000   1.0000   1.0000   1.0000
     1.0000   1.0000   1.0000   1.0000   1.0000   1.0000   1.0000   1.0000
     1.0000   1.0000   0.9999   0.9999   0.9999   0.9998   0.0001   0.0001
     0.0000   0.0000   0.0000   0.0000   0.0000   0.0000   0.0000   0.0000
     0.0000   0.0000   0.0000   0.0000   0.0000   0.0000   0.0000   0.0000
     0.0000   0.0000   0.0000   0.0000   0.0000   0.0000   0.0000   0.0000
     0.0000   0.0000   0.0000   0.0000   0.0000   0.0000   0.0000   0.0000
     0.0000   0.0000   0.0000   0.0000   0.0000   0.0000   0.0000   0.0000
     0.0000   0.0000   0.0000   0.0000   0.0000   0.0000   0.0000   0.0000
     0.0000   0.0000   0.0000   0.0000   0.0000   0.0000   0.0000   0.0000
     0.0000   0.0000   0.0000   0.0000   0.0000   0.0000   0.0000   0.0000
     0.0000   0.0000   0.0000   0.0000   0.0000   0.0000   0.0000   0.0000
     0.0000   0.0000   0.0000   0.0000   0.0000   0.0000   0.0000   0.0000
     0.0000   0.0000   0.0000   0.0000   0.0000   0.0000   0.0000   0.0000
     0.0000   0.0000   0.0000   0.0000   0.0000   0.0000   0.0000   0.0000
     0.0000   0.0000   0.0000   0.0000   0.0000   0.0000   0.0000   0.0000
     0.0000   0.0000   0.0000   0.0000   0.0000   0.0000   0.0000   0.0000
     0.0000   0.0000   0.0000   0.0000   0.0000   0.0000   0.0000

          k =-0.7071 0.0000 0.0000 ( 64192 PWs)   bands (ev):

   -17.1849 -17.1829 -17.1786 -17.1767 -17.1743 -17.1717 -17.1691 -17.1665
   -17.1658 -17.1652 -17.1616 -17.1597 -17.1560 -17.1553 -17.1525 -17.1505
   -17.1498 -17.1491 -17.1477 -17.1472 -17.1434 -17.1418 -17.1414 -17.1384
   -17.1300 -17.1293 -17.1269 -17.1247 -17.1195 -17.1110 -17.1079 -17.1051
   -17.1021 -17.1003 -17.0982 -17.0966 -17.0952 -17.0929 -17.0870 -17.0850
   -17.0834 -17.0815 -17.0790 -17.0780 -17.0773 -17.0753 -17.0734 -17.0723
   -17.0709 -17.0700 -17.0667 -17.0657 -17.0615 -17.0613 -17.0610 -17.0588
   -17.0584 -17.0565 -17.0562 -17.0557 -17.0549 -17.0543 -17.0524 -17.0473
   -17.0472 -17.0461 -17.0435 -17.0407 -17.0402 -17.0369 -17.0353 -17.0330
   -17.0315 -17.0295 -17.0280 -17.0269 -17.0264 -17.0246 -17.0224 -17.0209
   -17.0175 -17.0142 -17.0115 -17.0079 -17.0066 -17.0051 -17.0011 -16.9994
   -16.9987 -16.9972 -16.9964 -16.9945 -16.9931 -16.9920 -16.9888 -16.9875
   -16.9853 -16.9829 -16.9792 -16.9779 -16.9770 -16.9767 -16.9751 -16.9749
   -16.9747 -16.9733 -16.9728 -16.9717 -16.9706 -16.9701 -16.9697 -16.9687
   -16.9669 -16.9651 -16.9650 -16.9633 -16.9630 -16.9625 -16.9600 -16.9595
   -16.9592 -16.9568 -16.9562 -16.9545 -16.9543 -16.9541 -16.9540 -16.9538
   -16.9496 -16.9482 -16.9479 -16.9477 -16.9474 -16.9468 -16.9452 -16.9437
   -16.9431 -16.9396 -16.9379 -16.9360 -16.9350 -16.9329 -16.9316 -16.9311
   -16.9288 -16.9277 -16.9275 -16.9257 -16.9251 -16.9236 -16.9219 -16.9205
   -16.9189 -16.9162 -16.9155 -16.9138 -16.9132 -16.9129 -16.9117 -16.9086
   -16.9081 -16.9077 -16.9066 -16.9065 -16.9060 -16.9059 -16.9057 -16.9033
   -16.9031 -16.9021 -16.9014 -16.9011 -16.9009 -16.8999 -16.8993 -16.8986
   -16.8980 -16.8971 -16.8968 -16.8963 -16.8961 -16.8958 -16.8952 -16.8946
   -16.8944 -16.8943 -16.8940 -16.8935 -16.8931 -16.8926 -16.8916 -16.8915
   -16.8907 -16.8902 -16.8900 -16.8898 -16.8890 -16.8886 -16.8883 -16.8881
   -16.8877 -16.8875 -16.8873 -16.8872 -16.8869 -16.8867 -16.8863 -16.8854
   -16.8843 -16.8837 -16.8833 -16.8827 -16.8823 -16.8813 -16.8813 -16.8809
   -16.8806 -16.8805 -16.8799 -16.8796 -16.8791 -16.8788 -16.8781 -16.8767
   -16.8759 -16.8751 -16.8748 -16.8745 -16.8741 -16.8739 -16.8731 -16.8725
   -16.8720 -16.8713 -16.8700 -16.8695 -16.8692 -16.8691 -16.8690 -16.8687
   -16.8684 -16.8678 -16.8677 -16.8672 -16.8672 -16.8665 -16.8656 -16.8648
   -16.8639 -16.8636 -16.8631 -16.8621 -16.8611 -16.8607 -16.8606 -16.8600
   -16.8597 -16.8595 -16.8593 -16.8573 -16.8569 -16.8560 -16.8548 -16.8546
   -16.8538 -16.8534 -16.8527 -16.8524 -16.8521 -16.8515 -16.8512 -16.8511
   -16.8508 -16.8502 -16.8499 -16.8499 -16.8495 -16.8486 -16.8482 -16.8471
   -16.8469 -16.8455 -16.8447 -16.8444 -16.8440 -16.8434 -16.8432 -16.8430
   -16.8428 -16.8425 -16.8421 -16.8410 -16.8408 -16.8403 -16.8399 -16.8397
   -16.8361 -16.8359 -16.8357 -16.8353 -16.8353 -16.8350 -16.8333 -16.8305
   -16.8295 -16.8290 -16.8272 -16.8269 -16.8265 -16.8241 -16.8230 -16.8226
   -16.8201 -16.8178 -16.8173 -16.8151 -16.8137 -16.8124 -16.8115 -16.8087
   -16.8082 -16.8068 -16.8055 -16.7990 -16.7974 -16.7964 -16.7948 -16.7937
   -16.7922 -16.7906 -16.7901 -16.7892 -16.7873 -16.7848 -16.7842 -16.7833
   -16.7825 -16.7818 -16.7811 -16.7807 -16.7801 -16.7787 -16.7782 -16.7778
   -16.7769 -16.7756 -16.7742 -16.7735 -16.7722 -16.7711  -4.8531  -4.8020
    -4.6144  -4.5714  -4.4785  -4.4268  -3.9399  -3.8911  -3.8703  -3.8438
    -3.8108  -3.7686  -3.7091  -3.6669  -3.6084  -3.5693  -3.5373  -3.5208
    -3.5100  -3.4186  -3.4000  -3.3391  -3.0949  -3.0420  -2.9974  -2.9837
    -2.9540  -2.9280  -2.9051  -2.8415  -2.7742  -2.6855  -2.6480  -2.6190
    -2.5620  -2.5536  -2.4984  -2.4401  -2.4103  -2.3867  -2.3323  -2.3081
    -2.2585  -2.2360  -2.1925  -2.1507  -2.0850  -2.0598  -2.0106  -1.9688
    -1.9517  -1.9395  -1.8329  -1.8258  -1.7682  -1.7359  -1.4610  -1.3759
    -1.2892  -1.2460  -1.0046  -0.9392  -0.8759  -0.8480  -0.8297  -0.7998
    -0.7171  -0.7014  -0.4174  -0.3239  -0.2953  -0.2667   0.1085   0.1161
     0.1201   0.1380   0.1812   0.2084   0.2537   0.2647   0.2750   0.3162
     0.3603   0.3797   0.4391   0.4452   0.4913   0.5196   0.6271   0.6707
     0.6932   0.7033   0.7304   0.7517   0.7726   0.7863   0.8372   0.8887
     0.9517   0.9925   1.0107   1.0258   1.0914   1.1505   1.2126   1.2600
     1.7116   1.7267   1.7490   1.7672   1.7994   1.8494   1.8800   1.8941
     2.5785   2.6086   2.6559   2.6747   2.7371   2.7558   2.7641   2.7874
     3.1079   3.1098   3.1176   3.1230   3.1652   3.1703   3.1737   3.1754
     3.1796   3.1826   3.1864   3.1879   3.8265   3.8362   3.8421   3.8474
     3.8602   3.8643   3.8844   3.8905   3.9624   3.9668   3.9694   3.9706
     3.9740   3.9770   3.9778   3.9814   4.0118   4.0134   4.0152   4.0163
     4.0212   4.0243   4.0278   4.0294   4.3454   4.3559   4.4000   4.4530
     4.6277   4.6299   4.6328   4.6352   4.6407   4.6430   4.6465   4.6522
     4.6644   4.6668   4.6724   4.6760   4.6822   4.6880   4.6893   4.6935
     4.7553   4.7612   4.7662   4.7674   4.8088   4.8102   4.8110   4.8147
     4.8149   4.8172   4.8183   4.8203   4.8233   4.8380   4.8399   4.8429
     4.8482   4.8541   4.8598   4.8666   4.9429   4.9463   4.9489   4.9513
     5.2264   5.2285   5.2358   5.2407   5.2509   5.2516   5.2555   5.2611
     5.4329   5.4433   5.4458   5.4624   5.4742   5.4779   5.4941   5.5046
     5.6930   5.7684   5.7810   5.7960   5.8027   5.8113   5.8147   5.8156
     5.8174   5.8240   5.8256   5.8299   5.8407   5.8436   5.9555   5.9608
     5.9638   5.9719   5.9866   5.9883   5.9907   5.9946   6.1263   6.1281
     6.1371   6.1398   6.1423   6.1467   6.1488   6.1574   6.6529   6.6665
     6.6850   6.6860   7.1791   7.1809   7.1949   7.2163   8.0185   8.0328
     8.5870   8.6084   8.6219   8.6743   8.9927   9.0013   9.2162   9.2410
     9.2549   9.2701   9.2775   9.2857   9.2887   9.3132   9.3150   9.3230
     9.3383   9.3507   9.3559   9.3739   9.3877   9.3957   9.3999   9.4059
     9.4115   9.4161   9.4278   9.4302   9.4601   9.4720   9.4783   9.4854
     9.4952   9.4993   9.5122   9.5175   9.5279   9.5521   9.5663   9.6038
     9.8143   9.8271   9.8323   9.8520   9.8628   9.8749   9.8835   9.8938
     9.8999   9.9302   9.9345   9.9733  10.0364  10.0647  10.0816  10.0837
    10.1080  10.1125  10.1236  10.1335  10.1666  10.1814  10.2013  10.2171
    10.2426  10.2450  10.2607  10.2827  10.2944  10.3077  10.3116  10.3262
    10.3495  10.3549  10.3595  10.3918  10.5727  10.5968  10.6128  10.6232
    10.6397  10.6662  10.6902  10.7042  10.7342  10.7406  10.7431  10.7549
    10.7723  10.7817  10.7887  10.8034  10.8060  10.8274  10.8385  10.8391
    10.8762  10.8842  10.8928  10.9008  10.9108  10.9296  10.9342  10.9510
    10.9671  10.9718  10.9814  10.9875  11.0022  11.0136  11.1228  11.1420
    11.1514  11.1617  11.1728  11.1867  11.2028  11.2205  11.2403

     occupation numbers 
     1.0000   1.0000   1.0000   1.0000   1.0000   1.0000   1.0000   1.0000
     1.0000   1.0000   1.0000   1.0000   1.0000   1.0000   1.0000   1.0000
     1.0000   1.0000   1.0000   1.0000   1.0000   1.0000   1.0000   1.0000
     1.0000   1.0000   1.0000   1.0000   1.0000   1.0000   1.0000   1.0000
     1.0000   1.0000   1.0000   1.0000   1.0000   1.0000   1.0000   1.0000
     1.0000   1.0000   1.0000   1.0000   1.0000   1.0000   1.0000   1.0000
     1.0000   1.0000   1.0000   1.0000   1.0000   1.0000   1.0000   1.0000
     1.0000   1.0000   1.0000   1.0000   1.0000   1.0000   1.0000   1.0000
     1.0000   1.0000   1.0000   1.0000   1.0000   1.0000   1.0000   1.0000
     1.0000   1.0000   1.0000   1.0000   1.0000   1.0000   1.0000   1.0000
     1.0000   1.0000   1.0000   1.0000   1.0000   1.0000   1.0000   1.0000
     1.0000   1.0000   1.0000   1.0000   1.0000   1.0000   1.0000   1.0000
     1.0000   1.0000   1.0000   1.0000   1.0000   1.0000   1.0000   1.0000
     1.0000   1.0000   1.0000   1.0000   1.0000   1.0000   1.0000   1.0000
     1.0000   1.0000   1.0000   1.0000   1.0000   1.0000   1.0000   1.0000
     1.0000   1.0000   1.0000   1.0000   1.0000   1.0000   1.0000   1.0000
     1.0000   1.0000   1.0000   1.0000   1.0000   1.0000   1.0000   1.0000
     1.0000   1.0000   1.0000   1.0000   1.0000   1.0000   1.0000   1.0000
     1.0000   1.0000   1.0000   1.0000   1.0000   1.0000   1.0000   1.0000
     1.0000   1.0000   1.0000   1.0000   1.0000   1.0000   1.0000   1.0000
     1.0000   1.0000   1.0000   1.0000   1.0000   1.0000   1.0000   1.0000
     1.0000   1.0000   1.0000   1.0000   1.0000   1.0000   1.0000   1.0000
     1.0000   1.0000   1.0000   1.0000   1.0000   1.0000   1.0000   1.0000
     1.0000   1.0000   1.0000   1.0000   1.0000   1.0000   1.0000   1.0000
     1.0000   1.0000   1.0000   1.0000   1.0000   1.0000   1.0000   1.0000
     1.0000   1.0000   1.0000   1.0000   1.0000   1.0000   1.0000   1.0000
     1.0000   1.0000   1.0000   1.0000   1.0000   1.0000   1.0000   1.0000
     1.0000   1.0000   1.0000   1.0000   1.0000   1.0000   1.0000   1.0000
     1.0000   1.0000   1.0000   1.0000   1.0000   1.0000   1.0000   1.0000
     1.0000   1.0000   1.0000   1.0000   1.0000   1.0000   1.0000   1.0000
     1.0000   1.0000   1.0000   1.0000   1.0000   1.0000   1.0000   1.0000
     1.0000   1.0000   1.0000   1.0000   1.0000   1.0000   1.0000   1.0000
     1.0000   1.0000   1.0000   1.0000   1.0000   1.0000   1.0000   1.0000
     1.0000   1.0000   1.0000   1.0000   1.0000   1.0000   1.0000   1.0000
     1.0000   1.0000   1.0000   1.0000   1.0000   1.0000   1.0000   1.0000
     1.0000   1.0000   1.0000   1.0000   1.0000   1.0000   1.0000   1.0000
     1.0000   1.0000   1.0000   1.0000   1.0000   1.0000   1.0000   1.0000
     1.0000   1.0000   1.0000   1.0000   1.0000   1.0000   1.0000   1.0000
     1.0000   1.0000   1.0000   1.0000   1.0000   1.0000   1.0000   1.0000
     1.0000   1.0000   1.0000   1.0000   1.0000   1.0000   1.0000   1.0000
     1.0000   1.0000   1.0000   1.0000   1.0000   1.0000   1.0000   1.0000
     1.0000   1.0000   1.0000   1.0000   1.0000   1.0000   1.0000   1.0000
     1.0000   1.0000   1.0000   1.0000   1.0000   1.0000   1.0000   1.0000
     1.0000   1.0000   1.0000   1.0000   1.0000   1.0000   1.0000   1.0000
     1.0000   1.0000   1.0000   1.0000   1.0000   1.0000   1.0000   1.0000
     1.0000   1.0000   1.0000   1.0000   1.0000   1.0000   1.0000   1.0000
     1.0000   1.0000   1.0000   1.0000   1.0000   1.0000   1.0000   1.0000
     1.0000   1.0000   1.0000   1.0000   1.0000   1.0000   1.0000   1.0000
     1.0000   1.0000   1.0000   1.0000   1.0000   1.0000   1.0000   1.0000
     1.0000   1.0000   1.0000   1.0000   1.0000   1.0000   1.0000   1.0000
     1.0000   1.0000   1.0000   1.0000   1.0000   1.0000   1.0000   1.0000
     1.0000   1.0000   1.0000   1.0000   1.0000   1.0000   1.0000   1.0000
     1.0000   1.0000   1.0000   1.0000   1.0000   1.0000   1.0000   1.0000
     1.0000   1.0000   1.0000   1.0000   1.0000   1.0000   1.0000   1.0000
     1.0000   1.0000   1.0000   1.0000   1.0000   1.0000   1.0000   1.0000
     1.0000   1.0000   1.0000   1.0000   1.0000   1.0000   1.0000   1.0000
     1.0000   1.0000   1.0000   1.0000   1.0000   1.0000   1.0000   1.0000
     1.0000   1.0000   1.0000   1.0000   1.0000   1.0000   1.0000   1.0000
     1.0000   1.0000   1.0000   1.0000   1.0000   1.0000   1.0000   1.0000
     1.0000   1.0000   1.0000   1.0000   1.0000   1.0000   1.0000   1.0000
     1.0000   1.0000   1.0000   1.0000   1.0000   1.0000   1.0000   1.0000
     1.0000   1.0000   1.0000   1.0000   1.0000   1.0000   1.0000   1.0000
     1.0000   1.0000   1.0000   1.0000   1.0000   1.0000   1.0000   1.0000
     1.0000   1.0000   1.0000   1.0000   1.0000   1.0000   1.0000   1.0000
     1.0000   1.0000   1.0000   1.0000   1.0000   1.0000   1.0000   1.0000
     1.0000   1.0000   1.0000   1.0000   1.0000   1.0000   1.0000   1.0000
     1.0000   1.0000   1.0000   1.0000   1.0000   1.0000   1.0000   1.0000
     1.0000   1.0000   1.0000   1.0000   1.0000   1.0000   1.0000   1.0000
     1.0000   1.0000   1.0000   1.0000   1.0000   1.0000   1.0000   1.0000
     1.0000   1.0000   1.0000   1.0000   1.0000   1.0000   1.0000   1.0000
     1.0000   1.0000   1.0000   1.0000   1.0000   1.0000   1.0000   1.0000
     1.0000   1.0000   1.0000   1.0000   1.0000   1.0000   1.0000   1.0000
     1.0000   1.0000   1.0000   1.0000   1.0000   1.0000   1.0000   1.0000
     1.0000   1.0000   1.0000   1.0000   1.0000   1.0000   1.0000   1.0000
     1.0000   1.0000   1.0000   1.0000   1.0000   1.0000   1.0000   1.0000
     1.0000   1.0000   1.0000   1.0000   0.9999   0.9999   0.0327   0.0261
     0.0000   0.0000   0.0000   0.0000   0.0000   0.0000   0.0000   0.0000
     0.0000   0.0000   0.0000   0.0000   0.0000   0.0000   0.0000   0.0000
     0.0000   0.0000   0.0000   0.0000   0.0000   0.0000   0.0000   0.0000
     0.0000   0.0000   0.0000   0.0000   0.0000   0.0000   0.0000   0.0000
     0.0000   0.0000   0.0000   0.0000   0.0000   0.0000   0.0000   0.0000
     0.0000   0.0000   0.0000   0.0000   0.0000   0.0000   0.0000   0.0000
     0.0000   0.0000   0.0000   0.0000   0.0000   0.0000   0.0000   0.0000
     0.0000   0.0000   0.0000   0.0000   0.0000   0.0000   0.0000   0.0000
     0.0000   0.0000   0.0000   0.0000   0.0000   0.0000   0.0000   0.0000
     0.0000   0.0000   0.0000   0.0000   0.0000   0.0000   0.0000   0.0000
     0.0000   0.0000   0.0000   0.0000   0.0000   0.0000   0.0000   0.0000
     0.0000   0.0000   0.0000   0.0000   0.0000   0.0000   0.0000   0.0000
     0.0000   0.0000   0.0000   0.0000   0.0000   0.0000   0.0000   0.0000
     0.0000   0.0000   0.0000   0.0000   0.0000   0.0000   0.0000   0.0000
     0.0000   0.0000   0.0000   0.0000   0.0000   0.0000   0.0000

          k = 0.3536 0.3536 0.3536 ( 64114 PWs)   bands (ev):

   -17.1849 -17.1829 -17.1786 -17.1767 -17.1743 -17.1717 -17.1691 -17.1665
   -17.1659 -17.1652 -17.1617 -17.1596 -17.1559 -17.1552 -17.1526 -17.1503
   -17.1493 -17.1491 -17.1483 -17.1473 -17.1430 -17.1421 -17.1414 -17.1383
   -17.1299 -17.1291 -17.1271 -17.1247 -17.1194 -17.1109 -17.1079 -17.1051
   -17.1022 -17.1002 -17.0983 -17.0965 -17.0952 -17.0930 -17.0870 -17.0850
   -17.0839 -17.0814 -17.0788 -17.0779 -17.0771 -17.0750 -17.0738 -17.0725
   -17.0709 -17.0700 -17.0668 -17.0657 -17.0617 -17.0613 -17.0605 -17.0590
   -17.0584 -17.0566 -17.0562 -17.0557 -17.0549 -17.0543 -17.0520 -17.0473
   -17.0469 -17.0461 -17.0440 -17.0406 -17.0400 -17.0369 -17.0353 -17.0330
   -17.0316 -17.0292 -17.0278 -17.0270 -17.0262 -17.0246 -17.0223 -17.0209
   -17.0175 -17.0143 -17.0120 -17.0084 -17.0064 -17.0048 -17.0007 -16.9989
   -16.9986 -16.9971 -16.9962 -16.9954 -16.9933 -16.9921 -16.9888 -16.9875
   -16.9853 -16.9831 -16.9789 -16.9779 -16.9769 -16.9767 -16.9751 -16.9748
   -16.9747 -16.9731 -16.9729 -16.9717 -16.9708 -16.9703 -16.9697 -16.9684
   -16.9670 -16.9652 -16.9649 -16.9633 -16.9629 -16.9627 -16.9602 -16.9596
   -16.9589 -16.9568 -16.9563 -16.9545 -16.9544 -16.9540 -16.9540 -16.9537
   -16.9494 -16.9483 -16.9478 -16.9477 -16.9473 -16.9467 -16.9453 -16.9434
[...]
     atom   77 type  1   force =   0.00000000E+00  0.00000000E+00  0.00000000E+00
     atom   78 type  2   force =   0.00000000E+00  0.00000000E+00  0.00000000E+00
     atom   79 type  1   force =   0.00000000E+00  0.00000000E+00  0.00000000E+00
     atom   80 type  2   force =   0.00000000E+00  0.00000000E+00  0.00000000E+00
     atom   81 type  2   force =   0.00000000E+00  0.00000000E+00  0.00000000E+00
     atom   82 type  2   force =   0.00000000E+00  0.00000000E+00  0.00000000E+00
     atom   83 type  2   force =   0.00000000E+00  0.00000000E+00  0.00000000E+00
     atom   84 type  2   force =   0.00000000E+00  0.00000000E+00  0.00000000E+00
     atom   85 type  1   force =   0.00000000E+00  0.00000000E+00  0.00000000E+00
     atom   86 type  2   force =   0.00000000E+00  0.00000000E+00  0.00000000E+00
     atom   87 type  1   force =   0.00000000E+00  0.00000000E+00  0.00000000E+00
     atom   88 type  2   force =   0.00000000E+00  0.00000000E+00  0.00000000E+00
     atom   89 type  2   force =   0.00000000E+00  0.00000000E+00  0.00000000E+00
     atom   90 type  1   force =   0.00000000E+00  0.00000000E+00  0.00000000E+00
     atom   91 type  2   force =   0.00000000E+00  0.00000000E+00  0.00000000E+00
     atom   92 type  1   force =   0.00000000E+00  0.00000000E+00  0.00000000E+00
     atom   93 type  2   force =   0.00000000E+00  0.00000000E+00  0.00000000E+00
     atom   94 type  2   force =   0.00000000E+00  0.00000000E+00  0.00000000E+00
     atom   95 type  2   force =   0.00000000E+00  0.00000000E+00  0.00000000E+00
     atom   96 type  2   force =   0.00000000E+00  0.00000000E+00  0.00000000E+00
     atom   97 type  2   force =   0.00000000E+00  0.00000000E+00  0.00000000E+00
     atom   98 type  1   force =   0.00000000E+00  0.00000000E+00  0.00000000E+00
     atom   99 type  1   force =   0.00000000E+00  0.00000000E+00  0.00000000E+00
     atom  100 type  2   force =   0.00000000E+00  0.00000000E+00  0.00000000E+00
     atom  101 type  2   force =   0.00000000E+00  0.00000000E+00  0.00000000E+00
     atom  102 type  1   force =   0.00000000E+00  0.00000000E+00  0.00000000E+00
     atom  103 type  1   force =   0.00000000E+00  0.00000000E+00  0.00000000E+00
     atom  104 type  1   force =   0.00000000E+00  0.00000000E+00  0.00000000E+00
     atom  105 type  2   force =   0.00000000E+00  0.00000000E+00  0.00000000E+00
     atom  106 type  2   force =   0.00000000E+00  0.00000000E+00  0.00000000E+00
     atom  107 type  2   force =   0.00000000E+00  0.00000000E+00  0.00000000E+00
     atom  108 type  1   force =   0.00000000E+00  0.00000000E+00  0.00000000E+00
     atom  109 type  2   force =   0.00000000E+00  0.00000000E+00  0.00000000E+00
     atom  110 type  2   force =   0.00000000E+00  0.00000000E+00  0.00000000E+00
     atom  111 type  1   force =   0.00000000E+00  0.00000000E+00  0.00000000E+00
     atom  112 type  2   force =   0.00000000E+00  0.00000000E+00  0.00000000E+00
     atom  113 type  1   force =   0.00000000E+00  0.00000000E+00  0.00000000E+00
     atom  114 type  2   force =   0.00000000E+00  0.00000000E+00  0.00000000E+00
     atom  115 type  2   force =   0.00000000E+00  0.00000000E+00  0.00000000E+00
     atom  116 type  2   force =   0.00000000E+00  0.00000000E+00  0.00000000E+00
     atom  117 type  2   force =   0.00000000E+00  0.00000000E+00  0.00000000E+00
     atom  118 type  1   force =   0.00000000E+00  0.00000000E+00  0.00000000E+00
     atom  119 type  1   force =   0.00000000E+00  0.00000000E+00  0.00000000E+00
     atom  120 type  2   force =   0.00000000E+00  0.00000000E+00  0.00000000E+00
     atom  121 type  2   force =   0.00000000E+00  0.00000000E+00  0.00000000E+00
     atom  122 type  2   force =   0.00000000E+00  0.00000000E+00  0.00000000E+00
     atom  123 type  2   force =   0.00000000E+00  0.00000000E+00  0.00000000E+00
     atom  124 type  2   force =   0.00000000E+00  0.00000000E+00  0.00000000E+00
     atom  125 type  2   force =   0.00000000E+00  0.00000000E+00  0.00000000E+00
     atom  126 type  2   force =   0.00000000E+00  0.00000000E+00  0.00000000E+00
     atom  127 type  1   force =   0.00000000E+00  0.00000000E+00  0.00000000E+00
     atom  128 type  1   force =   0.00000000E+00  0.00000000E+00  0.00000000E+00
     The SCF correction term to forces
     atom    1 type  2   force =  -0.39284847E-05 -0.31874000E-05 -0.37409100E-05
     atom    2 type  1   force =  -0.12227667E-05 -0.97054996E-06 -0.98447688E-06
     atom    3 type  2   force =  -0.77103948E-05 -0.49696984E-06 -0.56727185E-05
     atom    4 type  2   force =   0.16977344E-05 -0.10903535E-05 -0.46562652E-05
     atom    5 type  2   force =   0.35023429E-05  0.53830642E-05 -0.89173452E-05
     atom    6 type  1   force =   0.17090324E-05  0.12452095E-05 -0.21827461E-05
     atom    7 type  1   force =   0.55495100E-06  0.27010186E-06 -0.12361090E-05
     atom    8 type  1   force =  -0.29067874E-07 -0.83328381E-06 -0.83520374E-06
     atom    9 type  2   force =  -0.35898546E-05 -0.54939840E-05  0.24556748E-05
     atom   10 type  1   force =   0.10073405E-05 -0.26663248E-05  0.65529895E-06
     atom   11 type  1   force =   0.13346747E-05 -0.18659043E-05  0.89825656E-08
     atom   12 type  2   force =   0.66790746E-05 -0.67345130E-05  0.24550809E-05
     atom   13 type  2   force =   0.83933213E-05  0.63110139E-05 -0.25421638E-05
     atom   14 type  1   force =   0.22268665E-05  0.27750039E-06 -0.17789890E-06
     atom   15 type  1   force =   0.40120804E-06 -0.38379225E-06 -0.49572466E-07
     atom   16 type  1   force =   0.13372652E-06 -0.17566436E-05  0.60991496E-06
     atom   17 type  2   force =   0.34011575E-05 -0.10334973E-04  0.32525685E-05
     atom   18 type  2   force =   0.76768496E-05 -0.73508637E-05  0.27673720E-05
     atom   19 type  1   force =   0.19319978E-05 -0.21083789E-05  0.83039899E-06
     atom   20 type  2   force =   0.62124105E-05 -0.21068047E-05 -0.96525247E-06
     atom   21 type  1   force =   0.15184903E-05 -0.11008113E-06  0.14555884E-06
     atom   22 type  1   force =   0.72561455E-06  0.10935014E-06  0.72534688E-08
     atom   23 type  2   force =   0.11559901E-05 -0.22600763E-05  0.40498136E-05
     atom   24 type  1   force =   0.63165170E-06 -0.16069605E-05  0.65044783E-07
     atom   25 type  1   force =   0.63074810E-06 -0.10125174E-05 -0.91691956E-06
     atom   26 type  1   force =  -0.10020649E-06 -0.10358835E-05 -0.14899753E-05
     atom   27 type  1   force =  -0.18155568E-06 -0.60924955E-06 -0.75929247E-06
     atom   28 type  1   force =  -0.54438546E-06  0.57629115E-06 -0.16807112E-05
     atom   29 type  2   force =  -0.24916993E-05  0.51239868E-05 -0.43837613E-05
     atom   30 type  1   force =   0.75388362E-07  0.70508999E-06 -0.23829278E-05
     atom   31 type  2   force =   0.36256978E-05  0.11940427E-05 -0.51017200E-05
     atom   32 type  1   force =   0.68452039E-06 -0.40520587E-06 -0.12650345E-05
     atom   33 type  1   force =  -0.15167656E-05 -0.73806358E-06 -0.92616866E-06
     atom   34 type  2   force =  -0.92256214E-05 -0.23976598E-05 -0.40698250E-05
     atom   35 type  2   force =  -0.65361632E-05  0.39260797E-05 -0.89180130E-05
     atom   36 type  2   force =  -0.27683431E-05  0.50647608E-05  0.82050065E-06
     atom   37 type  2   force =   0.54417135E-05  0.69591114E-05 -0.77961891E-05
     atom   38 type  1   force =   0.13397577E-05  0.10035514E-05 -0.90302632E-06
     atom   39 type  2   force =   0.31945042E-05  0.26029123E-06 -0.27974471E-05
     atom   40 type  1   force =  -0.79632826E-06 -0.40973141E-06  0.42340603E-07
     atom   41 type  2   force =  -0.22065574E-05 -0.11663126E-04  0.21390603E-05
     atom   42 type  2   force =   0.54440677E-05 -0.50067060E-05  0.67268576E-05
     atom   43 type  1   force =   0.16258961E-05 -0.43952235E-06  0.44045724E-06
     atom   44 type  2   force =   0.52888704E-05 -0.71675431E-06  0.44740715E-05
     atom   45 type  2   force =   0.10517234E-04  0.32629295E-05 -0.43330568E-05
     atom   46 type  1   force =   0.16368822E-05 -0.48888938E-06  0.42646227E-06
     atom   47 type  2   force =  -0.12757879E-05 -0.43289083E-05 -0.28022050E-06
     atom   48 type  1   force =  -0.34081858E-06 -0.21725650E-05  0.10367628E-05
     atom   49 type  1   force =   0.15608949E-05 -0.21209786E-05  0.62313546E-06
     atom   50 type  2   force =   0.16386921E-05 -0.23761775E-05 -0.24655768E-05
     atom   51 type  1   force =   0.20861332E-05 -0.77352411E-06  0.22871776E-06
     atom   52 type  2   force =   0.56445852E-05  0.31258586E-05 -0.45488926E-05
     atom   53 type  1   force =   0.11778009E-05 -0.31842520E-06 -0.29808799E-06
     atom   54 type  2   force =  -0.27702103E-05 -0.39916328E-06 -0.51015668E-05
     atom   55 type  1   force =   0.30144354E-06 -0.18950954E-05  0.40224131E-07
     atom   56 type  2   force =   0.38374175E-06 -0.58265116E-05  0.11550465E-05
     atom   57 type  2   force =   0.29663533E-05 -0.57184958E-05 -0.16488403E-06
     atom   58 type  1   force =  -0.28939018E-06  0.12149557E-06 -0.47700349E-06
     atom   59 type  2   force =   0.21023333E-06  0.91574675E-06 -0.30817104E-05
     atom   60 type  1   force =  -0.15339935E-05  0.13722113E-05 -0.13851930E-05
     atom   61 type  2   force =  -0.57983358E-06  0.13577098E-05 -0.36657175E-05
     atom   62 type  1   force =  -0.26254596E-06  0.11063947E-05 -0.14286686E-05
     atom   63 type  1   force =   0.61846235E-06 -0.42481336E-06 -0.66182725E-06
     atom   64 type  1   force =  -0.12488110E-07 -0.48961204E-06 -0.46619769E-06
     atom   65 type  2   force =  -0.82868982E-05  0.95840979E-05  0.20678336E-05
     atom   66 type  1   force =  -0.26363010E-05  0.22155976E-05  0.96437578E-06
     atom   67 type  1   force =  -0.26094418E-05  0.18492915E-05  0.40072571E-06
     atom   68 type  1   force =  -0.14483731E-05  0.10857105E-05  0.42147044E-06
     atom   69 type  2   force =  -0.11642978E-05  0.25349650E-06 -0.26524890E-05
     atom   70 type  2   force =   0.59691374E-05  0.55139238E-05 -0.31453093E-07
     atom   71 type  1   force =  -0.45181316E-06  0.80087297E-06 -0.61289197E-07
     atom   72 type  2   force =  -0.98573020E-05  0.27192539E-05  0.51043789E-05
     atom   73 type  2   force =  -0.71308945E-05  0.42562792E-05  0.43163167E-05
     atom   74 type  2   force =  -0.50643666E-07  0.22043441E-05  0.40788550E-05
     atom   75 type  1   force =   0.29663240E-06  0.64436385E-06  0.96222334E-06
     atom   76 type  1   force =   0.13462229E-05 -0.45933637E-07  0.72296275E-06
     atom   77 type  1   force =   0.12285638E-05 -0.28991784E-06  0.10315317E-06
     atom   78 type  2   force =   0.35286355E-05 -0.24733898E-05 -0.85428905E-06
     atom   79 type  1   force =  -0.61723101E-06 -0.30374236E-06  0.76154232E-06
     atom   80 type  2   force =  -0.52239720E-05 -0.82603093E-06  0.70960643E-05
     atom   81 type  2   force =   0.19164144E-07 -0.14028625E-05  0.59524578E-05
     atom   82 type  2   force =  -0.21496223E-05  0.48789250E-05  0.75306070E-05
     atom   83 type  2   force =   0.32924184E-05  0.19037921E-05  0.26240442E-05
     atom   84 type  2   force =   0.35491798E-06  0.25635047E-05  0.29191759E-05
     atom   85 type  1   force =   0.44312813E-06 -0.64836602E-06  0.43043574E-06
     atom   86 type  2   force =  -0.37721001E-05  0.76346738E-06 -0.67018611E-06
     atom   87 type  1   force =  -0.41947519E-06 -0.43422613E-06  0.94173018E-06
     atom   88 type  2   force =  -0.40481240E-05  0.14668427E-05  0.52083304E-05
     atom   89 type  2   force =   0.18684339E-06  0.39027480E-05  0.27589490E-05
     atom   90 type  1   force =  -0.19041030E-05  0.20912315E-05  0.72065192E-06
     atom   91 type  2   force =  -0.27537222E-05  0.45222831E-05  0.18284134E-05
     atom   92 type  1   force =  -0.24371339E-05  0.12350637E-05  0.17328202E-06
     atom   93 type  2   force =  -0.47676137E-05 -0.28784736E-05 -0.91087201E-06
     atom   94 type  2   force =  -0.30778828E-05  0.63465376E-05 -0.10432869E-05
     atom   95 type  2   force =   0.16538686E-05  0.57437191E-07 -0.16025016E-05
     atom   96 type  2   force =  -0.49086955E-05  0.39666719E-05  0.63980338E-05
     atom   97 type  2   force =  -0.78421477E-05  0.36211744E-05  0.21588005E-05
     atom   98 type  1   force =  -0.20189217E-05  0.16221474E-06 -0.74279924E-06
     atom   99 type  1   force =  -0.24754987E-05  0.42410332E-06 -0.25963337E-06
     atom  100 type  2   force =  -0.55057305E-05  0.94900062E-06 -0.60626036E-05
     atom  101 type  2   force =   0.77946195E-06  0.83072607E-05 -0.12701356E-05
     atom  102 type  1   force =   0.60875914E-06  0.14684901E-05 -0.14534428E-05
     atom  103 type  1   force =  -0.85292165E-06  0.15073177E-05 -0.38467553E-06
     atom  104 type  1   force =  -0.43372283E-06  0.94218787E-06 -0.15021882E-06
     atom  105 type  2   force =  -0.81141590E-05  0.18423944E-05  0.12148740E-05
     atom  106 type  2   force =   0.21604698E-05 -0.85982789E-05  0.72014031E-05
     atom  107 type  2   force =   0.61277534E-05 -0.12633441E-05  0.28123867E-05
     atom  108 type  1   force =   0.16224504E-05 -0.12983948E-05  0.89971987E-06
     atom  109 type  2   force =  -0.15417064E-05  0.17774782E-05  0.56979178E-06
     atom  110 type  2   force =   0.92734518E-05  0.45919849E-06 -0.10154332E-05
     atom  111 type  1   force =  -0.35230767E-06  0.10653502E-05  0.27883884E-06
     atom  112 type  2   force =  -0.28986744E-05 -0.24233755E-05  0.43051518E-05
     atom  113 type  1   force =   0.61692924E-06 -0.59765489E-06  0.24071166E-05
     atom  114 type  2   force =   0.28974742E-05 -0.56144516E-05  0.21547800E-05
     atom  115 type  2   force =   0.15497456E-05 -0.23756576E-05  0.61253995E-05
     atom  116 type  2   force =   0.21999304E-05 -0.40427385E-05  0.35037288E-05
     atom  117 type  2   force =   0.24801153E-05  0.37995066E-06  0.74920390E-05
     atom  118 type  1   force =   0.16492743E-06  0.28821647E-06  0.19120496E-06
     atom  119 type  1   force =  -0.31621961E-06  0.21942183E-06  0.12884545E-05
     atom  120 type  2   force =   0.36488682E-05 -0.14205021E-05  0.22486627E-05
     atom  121 type  2   force =  -0.36340085E-05  0.93933646E-06  0.36332101E-05
     atom  122 type  2   force =  -0.52758427E-05  0.40737755E-05 -0.49867827E-06
     atom  123 type  2   force =  -0.62285491E-05 -0.16107070E-05  0.10538466E-07
     atom  124 type  2   force =  -0.62141020E-05  0.42070230E-06 -0.14686805E-06
     atom  125 type  2   force =  -0.66411481E-05  0.60340577E-05 -0.18410405E-05
     atom  126 type  2   force =   0.71706744E-07  0.77642470E-05 -0.47303697E-05
     atom  127 type  1   force =  -0.34475120E-07  0.18318398E-05  0.34810391E-06
     atom  128 type  1   force =  -0.44243042E-06  0.82614337E-06 -0.75730908E-06

     Total force =     0.189843     Total SCF correction =     0.000066


     entering subroutine stress ...

          total   stress  (Ry/bohr**3)                   (kbar)     P=    6.79
   0.0000462848  -0.0000011013  -0.0000000862          6.81     -0.16     -0.01
  -0.0000011013   0.0000461807  -0.0000026839         -0.16      6.79     -0.39
  -0.0000000862  -0.0000026839   0.0000460404         -0.01     -0.39      6.77

     kinetic stress (kbar)   6824.37      0.17     -0.04
                                0.17   6824.34      0.35
                               -0.04      0.35   6824.33

     local   stress (kbar)  -4584.69   -839.99  -1618.94
                             -839.99  -3989.43   -402.90
                            -1618.94   -402.90  -4923.04

     nonloc. stress (kbar)   2561.44     -0.18      0.21
                               -0.18   2561.44     -0.25
                                0.21     -0.25   2561.42

     hartree stress (kbar)  18281.75    416.00    810.38
                              416.00  17989.55    203.09
                              810.38    203.09  18448.24

     exc-cor stress (kbar)  11873.90     -0.01      0.01
                               -0.01  11873.90     -0.01
                                0.01     -0.01  11873.90

     corecor stress (kbar) -17985.90      0.01      0.01
                                0.01 -17985.90      0.03
                                0.01      0.03 -17985.90

     ewald   stress (kbar) -16964.06    423.84    808.37
                              423.84 -17267.10    199.28
                              808.37    199.28 -16792.17

     hubbard stress (kbar)      0.00      0.00      0.00
                                0.00      0.00      0.00
                                0.00      0.00      0.00

     london  stress (kbar)      0.00      0.00      0.00
                                0.00      0.00      0.00
                                0.00      0.00      0.00

     XDM     stress (kbar)      0.00      0.00      0.00
                                0.00      0.00      0.00
                                0.00      0.00      0.00

     dft-nl  stress (kbar)      0.00      0.00      0.00
                                0.00      0.00      0.00
                                0.00      0.00      0.00



     Writing output data file SiGe_zns.scf.in.super.444.a.066.save

     init_run     :    997.81s CPU    712.88s WALL (       1 calls)
     electrons    :  57037.38s CPU  44049.57s WALL (       1 calls)
     forces       :    759.97s CPU    526.88s WALL (       1 calls)
     stress       :   3250.97s CPU   3224.66s WALL (       1 calls)

     Called by init_run:
     wfcinit      :    966.94s CPU    681.50s WALL (       1 calls)
     potinit      :      0.73s CPU      0.74s WALL (       1 calls)

     Called by electrons:
     c_bands      :  51675.28s CPU  39515.39s WALL (      16 calls)
     sum_band     :   4780.60s CPU   3941.49s WALL (      16 calls)
     v_of_rho     :     11.55s CPU     12.04s WALL (      16 calls)
     v_h          :      0.73s CPU      0.76s WALL (      16 calls)
     v_xc         :     11.98s CPU     12.44s WALL (      18 calls)
     newd         :    577.70s CPU    586.93s WALL (      16 calls)
     mix_rho      :     18.43s CPU     19.56s WALL (      16 calls)

     Called by c_bands:
     init_us_2    :     41.79s CPU     42.84s WALL (     280 calls)
     cegterg      :  51303.09s CPU  39128.63s WALL (     128 calls)

     Called by sum_band:
     sum_band:bec :     20.44s CPU     21.06s WALL (     128 calls)
     addusdens    :    458.95s CPU    465.19s WALL (      16 calls)

     Called by *egterg:
     h_psi        :  19006.57s CPU  14848.17s WALL (     497 calls)
     s_psi        :   5767.92s CPU   3480.29s WALL (     497 calls)
     g_psi        :      8.01s CPU      8.68s WALL (     361 calls)
     cdiaghg      :  15414.73s CPU  13324.76s WALL (     481 calls)
     cegterg:over :   5342.55s CPU   3608.56s WALL (     361 calls)
     cegterg:upda :   2475.66s CPU   1515.00s WALL (     361 calls)
     cegterg:last :   1689.64s CPU   1008.35s WALL (     128 calls)

     Called by h_psi:
     h_psi:vloc   :   7213.05s CPU   7386.87s WALL (     497 calls)
     h_psi:vnl    :  11776.71s CPU   7443.84s WALL (     497 calls)
     add_vuspsi   :   5696.30s CPU   3481.95s WALL (     497 calls)

     General routines
     calbec       :   9433.77s CPU   6315.25s WALL (     641 calls)
     fft          :    213.22s CPU    215.93s WALL (     281 calls)
     ffts         :     11.00s CPU     11.62s WALL (     454 calls)
     fftw         :   8163.72s CPU   8369.26s WALL (  540040 calls)
     interpolate  :      2.68s CPU      2.73s WALL (      32 calls)

     Parallel routines
     fft_scatter  :   5170.56s CPU   5304.96s WALL (  540775 calls)

     PWSCF        :    17h14m CPU       13h29m WALL


   This run was terminated on:   6:42:25   4Feb2017            

=------------------------------------------------------------------------------=
   JOB DONE.
=------------------------------------------------------------------------------=
