
     Program PWSCF v.5.1 starts on  3Feb2017 at 18:32:16 

     This program is part of the open-source Quantum ESPRESSO suite
     for quantum simulation of materials; please cite
         "P. Giannozzi et al., J. Phys.:Condens. Matter 21 395502 (2009);
          URL http://www.quantum-espresso.org", 
     in publications or presentations arising from this work. More details at
     http://www.quantum-espresso.org/quote

     Parallel version (MPI), running on    16 processors
     R & G space division:  proc/nbgrp/npool/nimage =      16
     Reading input from /tmp/SiGe_zns.scf.in.super.444.b.01.17434/SiGe_zns.scf.in.super.444.b.01.t
Warning: card &IONS ignored
Warning: card   ION_DYNAMICS='BFGS', ignored
Warning: card / ignored
Warning: card &CELL ignored
Warning: card  CELL_DYNAMICS = 'BFGS' ignored
Warning: card / ignored
     Message from routine read_cards :
     DEPRECATED: no units specified in CELL_PARAMETERS card

     Current dimensions of program PWSCF are:
     Max number of different atomic species (ntypx) = 10
     Max number of k-points (npk) =  40000
     Max angular momentum in pseudopotentials (lmaxx) =  3

     Subspace diagonalization in iterative solution of the eigenvalue problem:
     a serial algorithm will be used


     Parallelization info
     --------------------
     sticks:   dense  smooth     PW     G-vecs:    dense   smooth      PW
     Min         756     527    138                54768    32060    4315
     Max         757     528    139                54770    32083    4319
     Sum       12097    8443   2221               876295   513103   69089



     bravais-lattice index     =            0
     lattice parameter (alat)  =    29.598892955  a.u.
     unit-cell volume          =   18336.2874 (a.u.)^3
     number of atoms/cell      =          128
     number of atomic types    =            2
     number of electrons       =      1172.00
     number of Kohn-Sham states=          703
     kinetic-energy cutoff     =      35.0000  Ry
     charge density cutoff     =     200.0000  Ry
     convergence threshold     =      1.0E-09
     mixing beta               =       0.3000
     number of iterations used =            8  local-TF  mixing
     Exchange-correlation      = SLA  PW   PSX  PSC ( 1  4 10  8 0)
     A smooth kinetic-energy cutoff is imposed at      34.5000 Ry
     height of the smooth step-function =             800.0000 Ry
     width of the smooth step-function  =               1.0000 Ry


     celldm(1)=  29.598893  celldm(2)=   0.000000  celldm(3)=   0.000000
     celldm(4)=   0.000000  celldm(5)=   0.000000  celldm(6)=   0.000000

     crystal axes: (cart. coord. in units of alat)
               a(1) = (  -0.000000000000   0.707106781187   0.707106781187 )  
               a(2) = (   0.707106781187   0.000000000000   0.707106781187 )  
               a(3) = (   0.707106781187   0.707106781187   0.000000000000 )  

     reciprocal axes: (cart. coord. in units 2 pi/alat)
               b(1) = ( -0.707107  0.707107  0.707107 )  
               b(2) = (  0.707107 -0.707107  0.707107 )  
               b(3) = (  0.707107  0.707107 -0.707107 )  


     PseudoPot. # 1 for Si read from file:
     /users/kfg/psuedo/gbrv_1.5/si.pbesol.UPF
     MD5 check sum: ef58ba74faed4df802eb8a9742fc00a8
     Pseudo is Ultrasoft + core correction, Zval =  4.0
     Generated by new atomic code, or converted to UPF format
     Using radial grid of  899 points,  6 beta functions with: 
                l(1) =   0
                l(2) =   0
                l(3) =   1
                l(4) =   1
                l(5) =   2
                l(6) =   2
     Q(r) pseudized with  8 coefficients,  rinner =    0.900   0.900   0.900
                                                       0.900   0.900

     PseudoPot. # 2 for Ge read from file:
     /users/kfg/psuedo/gbrv_1.5/ge.pbesol.UPF
     MD5 check sum: 7bed0412183f5e553a4d27ec7023354d
     Pseudo is Ultrasoft + core correction, Zval = 14.0
     Generated by new atomic code, or converted to UPF format
     Using radial grid of  873 points,  6 beta functions with: 
                l(1) =   0
                l(2) =   0
                l(3) =   1
                l(4) =   1
                l(5) =   2
                l(6) =   2
     Q(r) pseudized with  8 coefficients,  rinner =    1.400   1.400   1.400
                                                       1.400   1.400

     atomic species   valence    mass     pseudopotential
        Si             4.00    28.08550     Si( 1.00)
        Ge            14.00    72.64000     Ge( 1.00)

     No symmetry found


                                    s                        frac. trans.

      isym =  1     identity                                     

 cryst.   s( 1) = (     1          0          0      )
                  (     0          1          0      )
                  (     0          0          1      )

 cart.    s( 1) = (  1.0000000  0.0000000  0.0000000 )
                  (  0.0000000  1.0000000  0.0000000 )
                  (  0.0000000  0.0000000  1.0000000 )


     point group C_1 (1)    
     there are  1 classes
     the character table:

       E    
A      1.00

     the symmetry operations in each class:
     E        1

   Cartesian axes

     site n.     atom                  positions (alat units)
         1           Ge  tau(   1) = (   -0.00052744324   -0.00044198153   -0.00027204817  )
         2           Ge  tau(   2) = (    0.08980420802    0.08902975544    0.08923634161  )
         3           Si  tau(   3) = (    0.17746151804    0.17629622140   -0.00064268817  )
         4           Ge  tau(   4) = (    0.26438968311    0.26538857960    0.08785743267  )
         5           Si  tau(   5) = (    0.35432626644    0.35319484182   -0.00019036208  )
         6           Si  tau(   6) = (    0.44122075100    0.44139739624    0.08985449769  )
         7           Ge  tau(   7) = (    0.52947075337    0.52959324439   -0.00072961108  )
         8           Si  tau(   8) = (    0.61956568862    0.61760122283    0.08891668854  )
         9           Si  tau(   9) = (    0.17583452519   -0.00035549232    0.17608757636  )
        10           Si  tau(  10) = (    0.26619274444    0.08942720738    0.26354252534  )
        11           Si  tau(  11) = (    0.35453990350    0.17634767839    0.17667197435  )
        12           Ge  tau(  12) = (    0.44075100221    0.26685252756    0.26670804315  )
        13           Ge  tau(  13) = (    0.53091022056    0.35193288740    0.17651991006  )
        14           Ge  tau(  14) = (    0.61943523278    0.44233909968    0.26616435923  )
        15           Si  tau(  15) = (    0.70777972863    0.53022835335    0.17772737164  )
        16           Ge  tau(  16) = (    0.79663938846    0.62018396899    0.26571994823  )
        17           Ge  tau(  17) = (    0.35512155794    0.00092095107    0.35319836842  )
        18           Si  tau(  18) = (    0.44352358548    0.08873928918    0.44269272043  )
        19           Ge  tau(  19) = (    0.53157366218    0.17733805490    0.35268847371  )
        20           Si  tau(  20) = (    0.62022047781    0.26597164995    0.44069002873  )
        21           Si  tau(  21) = (    0.70602776159    0.35411540138    0.35514169186  )
        22           Si  tau(  22) = (    0.79575021582    0.44098744652    0.44300354383  )
        23           Si  tau(  23) = (    0.88331636489    0.53019065126    0.35327230428  )
        24           Ge  tau(  24) = (    0.97263447617    0.61721616539    0.44271385673  )
        25           Si  tau(  25) = (    0.52886599187   -0.00060911435    0.52943701765  )
        26           Ge  tau(  26) = (    0.61810421449    0.08904693323    0.61859742733  )
        27           Si  tau(  27) = (    0.70769072101    0.17846273533    0.53085758251  )
        28           Si  tau(  28) = (    0.79699399288    0.26550304758    0.61726415752  )
        29           Ge  tau(  29) = (    0.88422027241    0.35465371803    0.52953501906  )
        30           Ge  tau(  30) = (    0.97288120599    0.44124504782    0.61949778050  )
        31           Si  tau(  31) = (    1.06072822741    0.53153833052    0.52873088290  )
        32           Si  tau(  32) = (    1.15020588051    0.62022466512    0.61916628277  )
        33           Ge  tau(  33) = (   -0.00044453050    0.17642138885    0.17667300782  )
        34           Si  tau(  34) = (    0.08911245897    0.26658230602    0.26574361206  )
        35           Ge  tau(  35) = (    0.17571864375    0.35307469640    0.17806326422  )
        36           Ge  tau(  36) = (    0.26521199818    0.44268855114    0.26430134172  )
        37           Si  tau(  37) = (    0.35419314311    0.53060007366    0.17696268445  )
        38           Ge  tau(  38) = (    0.44340741985    0.61815404825    0.26572761496  )
        39           Si  tau(  39) = (    0.52892073500    0.70673131416    0.17596756301  )
        40           Si  tau(  40) = (    0.61929266712    0.79594141626    0.26537541562  )
        41           Si  tau(  41) = (    0.17842178929    0.17534889344    0.35309755390  )
        42           Si  tau(  42) = (    0.26375900008    0.26397805422    0.44237792032  )
        43           Si  tau(  43) = (    0.35505665882    0.35244298251    0.35507111341  )
        44           Si  tau(  44) = (    0.44152207845    0.44323782284    0.44163995289  )
        45           Ge  tau(  45) = (    0.53091285966    0.52893821026    0.35412765281  )
        46           Ge  tau(  46) = (    0.61748850152    0.61959476964    0.44208021153  )
        47           Si  tau(  47) = (    0.70785344446    0.70828032709    0.35400109802  )
        48           Si  tau(  48) = (    0.79579748905    0.79478742211    0.44311652702  )
        49           Ge  tau(  49) = (    0.35413117134    0.17548032801    0.52987535122  )
        50           Ge  tau(  50) = (    0.44290480225    0.26395040335    0.62036067568  )
        51           Si  tau(  51) = (    0.52885953852    0.35515766418    0.53146401763  )
        52           Si  tau(  52) = (    0.61745394911    0.44187971963    0.61724856721  )
        53           Ge  tau(  53) = (    0.70728882472    0.53138700333    0.53017110061  )
        54           Ge  tau(  54) = (    0.79422278696    0.61751983831    0.61898125398  )
        55           Ge  tau(  55) = (    0.88407259530    0.70671304975    0.53001471268  )
        56           Ge  tau(  56) = (    0.97329217540    0.79590103099    0.61825253870  )
        57           Ge  tau(  57) = (    0.53138907517    0.17592962342    0.70837798067  )
        58           Ge  tau(  58) = (    0.61789420151    0.26559161714    0.79665477147  )
        59           Ge  tau(  59) = (    0.70619017359    0.35309785178    0.70866154460  )
        60           Ge  tau(  60) = (    0.79709248771    0.44243286359    0.79447391026  )
        61           Ge  tau(  61) = (    0.88543711142    0.53031972721    0.70656248578  )
        62           Si  tau(  62) = (    0.97068089176    0.61955612518    0.79547629550  )
        63           Ge  tau(  63) = (    1.05911230953    0.70779208136    0.70588127585  )
        64           Ge  tau(  64) = (    1.14862834009    0.79607247960    0.79462059221  )
        65           Ge  tau(  65) = (   -0.00044594054    0.35342231053    0.35355861446  )
        66           Ge  tau(  66) = (    0.08854451592    0.44091727540    0.44154471714  )
        67           Ge  tau(  67) = (    0.17846376826    0.53034210591    0.35336462439  )
        68           Ge  tau(  68) = (    0.26360525907    0.61850893840    0.44323997168  )
        69           Si  tau(  69) = (    0.35240352841    0.70559034067    0.35332053329  )
        70           Si  tau(  70) = (    0.44160022289    0.79686806260    0.44236227495  )
        71           Si  tau(  71) = (    0.52977087409    0.88412483780    0.35202421732  )
        72           Ge  tau(  72) = (    0.61889920554    0.97262538638    0.44238817497  )
        73           Si  tau(  73) = (    0.17810545983    0.35238575466    0.52901966845  )
        74           Ge  tau(  74) = (    0.26557835215    0.44166014915    0.61892072413  )
        75           Si  tau(  75) = (    0.35485030815    0.53076326302    0.52986241459  )
        76           Ge  tau(  76) = (    0.44072281495    0.61842196202    0.61872862474  )
        77           Ge  tau(  77) = (    0.52931857740    0.70743019851    0.53141199456  )
        78           Si  tau(  78) = (    0.61944142834    0.79577375252    0.61821227913  )
        79           Ge  tau(  79) = (    0.70852346653    0.88501627669    0.52868756628  )
        80           Ge  tau(  80) = (    0.79598972113    0.97392979396    0.61850236591  )
        81           Ge  tau(  81) = (    0.35324145368    0.35241628942    0.70763318832  )
        82           Ge  tau(  82) = (    0.44356583229    0.44175459998    0.79569175566  )
        83           Si  tau(  83) = (    0.52944960825    0.52871704933    0.70785658023  )
        84           Ge  tau(  84) = (    0.61837837430    0.61933625751    0.79618249539  )
        85           Ge  tau(  85) = (    0.70820169461    0.70582480929    0.70595162767  )
        86           Si  tau(  86) = (    0.79551988959    0.79547846824    0.79586419143  )
        87           Si  tau(  87) = (    0.88382178501    0.88421110784    0.70826602016  )
        88           Si  tau(  88) = (    0.97102360298    0.97274491209    0.79666330132  )
        89           Ge  tau(  89) = (    0.52941876620    0.35423218665    0.88530562477  )
        90           Si  tau(  90) = (    0.61839099204    0.44141138863    0.97204678096  )
        91           Ge  tau(  91) = (    0.70614436430    0.53062479809    0.88314995687  )
        92           Ge  tau(  92) = (    0.79692954127    0.61838732381    0.97251294792  )
        93           Ge  tau(  93) = (    0.88259876467    0.70624711641    0.88237435551  )
        94           Si  tau(  94) = (    0.97130502200    0.79431502994    0.97208053901  )
        95           Si  tau(  95) = (    1.06100601833    0.88372417285    0.88527353581  )
        96           Si  tau(  96) = (    1.14941062261    0.97236188498    0.97380042840  )
        97           Si  tau(  97) = (    0.00020878267    0.52904633872    0.53172942069  )
        98           Ge  tau(  98) = (    0.08895990253    0.61824645286    0.61792282722  )
        99           Si  tau(  99) = (    0.17588953410    0.70852420014    0.53105019368  )
       100           Si  tau( 100) = (    0.26518608266    0.79415204792    0.61806365199  )
       101           Ge  tau( 101) = (    0.35495988999    0.88454813683    0.53164700294  )
       102           Si  tau( 102) = (    0.44162957902    0.97125067667    0.61742773302  )
       103           Si  tau( 103) = (    0.52904179990    1.05953984296    0.52951476848  )
       104           Si  tau( 104) = (    0.61798826810    1.14945254139    0.61795192584  )
       105           Ge  tau( 105) = (    0.17509417566    0.52893744515    0.70743245687  )
       106           Ge  tau( 106) = (    0.26640317360    0.61923178559    0.79698804081  )
       107           Si  tau( 107) = (    0.35404129176    0.70679737087    0.70815308695  )
       108           Si  tau( 108) = (    0.44061387528    0.79390383792    0.79485931747  )
       109           Si  tau( 109) = (    0.52927824515    0.88391608556    0.70559862947  )
       110           Ge  tau( 110) = (    0.61990826286    0.97143171695    0.79409212568  )
       111           Si  tau( 111) = (    0.70598117421    1.06182719847    0.70748456346  )
       112           Si  tau( 112) = (    0.79404838505    1.14923550964    0.79668559217  )
       113           Si  tau( 113) = (    0.35426714145    0.53035491143    0.88556927930  )
       114           Ge  tau( 114) = (    0.44053311239    0.62034840521    0.97125295557  )
       115           Ge  tau( 115) = (    0.53145210686    0.70602967283    0.88302577071  )
       116           Ge  tau( 116) = (    0.61902011405    0.79452761542    0.97383933493  )
       117           Ge  tau( 117) = (    0.70701377700    0.88376250829    0.88515868030  )
       118           Si  tau( 118) = (    0.79398796000    0.97347264108    0.97238885033  )
       119           Si  tau( 119) = (    0.88512787728    1.06052269144    0.88229818785  )
       120           Si  tau( 120) = (    0.97318535312    1.14814173237    0.97346150237  )
       121           Ge  tau( 121) = (    0.53022944021    0.53123217755    1.06222035001  )
       122           Si  tau( 122) = (    0.61720233546    0.61739248498    1.14817669757  )
       123           Ge  tau( 123) = (    0.70831650823    0.70641291626    1.05986930213  )
       124           Ge  tau( 124) = (    0.79552623815    0.79687733892    1.15064513640  )
       125           Ge  tau( 125) = (    0.88465455831    0.88521240760    1.06165242072  )
       126           Ge  tau( 126) = (    0.97107467769    0.97192125766    1.14880430078  )
       127           Ge  tau( 127) = (    1.05965437729    1.06092075520    1.05960372237  )
       128           Si  tau( 128) = (    1.14913051361    1.14997668369    1.15005389047  )

   Crystallographic axes

     site n.     atom                  positions (cryst. coord.)
         1           Ge  tau(   1) = (   -0.00013193656   -0.00025279766   -0.00049311972  )
         2           Ge  tau(   2) = (    0.06255200160    0.06364724295    0.06335508599  )
         3           Si  tau(   3) = (   -0.00127843832    0.00036953999    0.25059894561  )
         4           Ge  tau(   4) = (    0.06283091290    0.06141825994    0.31248521567  )
         5           Si  tau(   5) = (   -0.00093464434    0.00066543171    0.50042757980  )
         6           Si  tau(   6) = (    0.06366163168    0.06341181759    0.56056855248  )
         7           Ge  tau(   7) = (   -0.00042929871   -0.00060252717    0.74938724746  )
         8           Si  tau(   8) = (    0.06148450635    0.06426268051    0.81193551912  )
         9           Si  tau(   9) = (   -0.00007243683    0.24909787549   -0.00043030524  )
        10           Si  tau(  10) = (    0.06136059687    0.31134481673    0.06510857266  )
        11           Si  tau(  11) = (   -0.00107497962    0.25092688184    0.25046825809  )
        12           Ge  tau(  12) = (    0.06562627524    0.31155585657    0.31176018839  )
        13           Ge  tau(  13) = (   -0.00173766054    0.25137451137    0.49944592295  )
        14           Ge  tau(  14) = (    0.06298074669    0.31343249996    0.56258120725  )
        15           Si  tau(  15) = (    0.00012444822    0.25122001116    0.74973168024  )
        16           Ge  tau(  16) = (    0.06311955361    0.31266520097    0.81395302650  )
        17           Ge  tau(  17) = (   -0.00070868960    0.50020661243    0.00201111110  )
        18           Si  tau(  18) = (    0.06216064283    0.56390140637    0.06333566345  )
        19           Ge  tau(  19) = (   -0.00109398865    0.49987081145    0.25188787100  )
        20           Si  tau(  20) = (    0.06112315931    0.56210665612    0.31501755526  )
        21           Si  tau(  21) = (    0.00228348230    0.49996271488    0.49851132098  )
        22           Si  tau(  22) = (    0.06239565004    0.56410596982    0.56125477766  )
        23           Si  tau(  23) = (    0.00010365524    0.49949882869    0.74969915441  )
        24           Ge  tau(  24) = (    0.06172727251    0.56436466793    0.81114819951  )
        25           Si  tau(  25) = (   -0.00002693268    0.74876394346   -0.00083448509  )
        26           Ge  tau(  26) = (    0.06331444447    0.81151442690    0.06261693619  )
        27           Si  tau(  27) = (    0.00115229897    0.74959369391    0.25123212172  )
        28           Si  tau(  28) = (    0.06065082000    0.81229252313    0.31482719073  )
        29           Ge  tau(  29) = (   -0.00002229883    0.74889790455    0.50157839682  )
        30           Ge  tau(  30) = (    0.06212754895    0.81397461409    0.56188718200  )
        31           Si  tau(  31) = (   -0.00032457191    0.74806295735    0.75203328785  )
        32           Si  tau(  32) = (    0.06306336592    0.81256998853    0.81406676721  )
        33           Ge  tau(  33) = (    0.24998977282   -0.00013640906   -0.00049225201  )
        34           Si  tau(  34) = (    0.31339924246    0.06241897784    0.06360507021  )
        35           Ge  tau(  35) = (    0.25131940913    0.00050007410    0.24800361506  )
        36           Ge  tau(  36) = (    0.31238414510    0.06139439691    0.31367200782  )
        37           Si  tau(  37) = (    0.24987005103    0.00039297735    0.50051176934  )
        38           Ge  tau(  38) = (    0.31146232442    0.06433327256    0.56273951425  )
        39           Si  tau(  39) = (    0.25015892337   -0.00130320922    0.74931008607  )
        40           Si  tau(  40) = (    0.31255828435    0.06273922754    0.81307286138  )
        41           Si  tau(  41) = (    0.24750480929    0.25185054027    0.00047597396  )
        42           Si  tau(  42) = (    0.31296332197    0.31265353265    0.06035802247  )
        43           Si  tau(  43) = (    0.24922504385    0.25292134034    0.24920460198  )
        44           Si  tau(  44) = (    0.31349982002    0.31107339104    0.31333312040  )
        45           Ge  tau(  45) = (    0.24900977673    0.25180235269    0.49902181388  )
        46           Ge  tau(  46) = (    0.31408727187    0.31110855893    0.56215205452  )
        47           Si  tau(  47) = (    0.25061842855    0.25001472536    0.75104121597  )
        48           Si  tau(  48) = (    0.31261647593    0.31404492629    0.81138267562  )
        49           Ge  tau(  49) = (    0.24835323125    0.50100367681   -0.00018657144  )
        50           Ge  tau(  50) = (    0.31212137157    0.56520110954    0.06116086864  )
        51           Si  tau(  51) = (    0.25297603757    0.49862758408    0.24929274789  )
        52           Si  tau(  52) = (    0.31231091929    0.56061037582    0.31260137316  )
        53           Ge  tau(  53) = (    0.25050620970    0.49926895116    0.50098849727  )
        54           Ge  tau(  54) = (    0.31273798887    0.56263369536    0.56056694151  )
        55           Ge  tau(  55) = (    0.24936486010    0.50018913483    0.75007831956  )
        56           Ge  tau(  56) = (    0.31173608147    0.56260504374    0.81383795087  )
        57           Ge  tau(  57) = (    0.24955108501    0.75224666255   -0.00074902554  )
        58           Ge  tau(  58) = (    0.31420444474    0.81243553761    0.06139882228  )
        59           Ge  tau(  59) = (    0.25142540861    0.75077335889    0.24793036221  )
        60           Ge  tau(  60) = (    0.31099566419    0.81256011465    0.31469889193  )
        61           Ge  tau(  61) = (    0.24850921454    0.75072103552    0.50147613608  )
        62           Si  tau(  62) = (    0.31420397933    0.81076938631    0.56198069555  )
        63           Ge  tau(  63) = (    0.25071252116    0.74755435257    0.75025663964  )
        64           Ge  tau(  64) = (    0.31258696952    0.81117624893    0.81322952776  )
        65           Ge  tau(  65) = (    0.50022633381   -0.00021894614   -0.00041170901  )
        66           Ge  tau(  66) = (    0.56138443143    0.06305409595    0.06216675933  )
        67           Ge  tau(  67) = (    0.49868208085    0.00105096343    0.25133491803  )
        68           Ge  tau(  68) = (    0.56437278799    0.06246319135    0.31033094114  )
        69           Si  tau(  69) = (    0.49957613499    0.00009455505    0.49827929426  )
        70           Si  tau(  70) = (    0.56400966296    0.06158506576    0.56293195859  )
        71           Si  tau(  71) = (    0.49948480189   -0.00164737947    0.75085653456  )
        72           Ge  tau(  72) = (    0.56293785959    0.06269349728    0.81256215293  )
        73           Si  tau(  73) = (    0.49730817324    0.25083861664    0.00104054018  )
        74           Ge  tau(  74) = (    0.56215167375    0.31313440834    0.06245009914  )
        75           Si  tau(  75) = (    0.49905854974    0.25028006316    0.25155405524  )
        76           Ge  tau(  76) = (    0.56315947817    0.31185493437    0.31142124778  )
        77           Ge  tau(  77) = (    0.50170896005    0.24982108986    0.49874842112  )
        78           Si  tau(  78) = (    0.56182787696    0.31245631261    0.56356615644  )
        79           Ge  tau(  79) = (    0.49863782614    0.24903930035    0.75296419528  )
        80           Ge  tau(  80) = (    0.56316984926    0.31152458497    0.81417487416  )
        81           Ge  tau(  81) = (    0.49978874681    0.50095570530   -0.00139685072  )
        82           Ge  tau(  82) = (    0.56135830151    0.56391977082    0.06337704502  )
        83           Si  tau(  83) = (    0.50001219061    0.50104818537    0.24770663121  )
        84           Ge  tau(  84) = (    0.56366336727    0.56230871584    0.31221036777  )
        85           Ge  tau(  85) = (    0.49750247139    0.50086389483    0.50068454657  )
        86           Si  tau(  86) = (    0.56273167735    0.56279025598    0.56224476101  )
        87           Si  tau(  87) = (    0.50109499855    0.50054441292    0.74936834216  )
        88           Si  tau(  88) = (    0.56454317203    0.56210887334    0.81112587538  )
        89           Ge  tau(  89) = (    0.50212999232    0.74988122908   -0.00117002974  )
        90           Si  tau(  90) = (    0.56219739275    0.81248434815    0.06205257964  )
        91           Ge  tau(  91) = (    0.50037024781    0.74859239880    0.25004653818  )
        92           Ge  tau(  92) = (    0.56142208757    0.81391891296    0.31310965256  )
        93           Ge  tau(  93) = (    0.49923344396    0.74863233669    0.49955080645  )
        94           Si  tau(  94) = (    0.56221391740    0.81251556459    0.56111717073  )
        95           Si  tau(  95) = (    0.50062572525    0.75134011549    0.74914898538  )
        96           Si  tau(  96) = (    0.56338852347    0.81377324942    0.81173884181  )
        97           Si  tau(  97) = (    0.74993410116    0.00204485710   -0.00174959381  )
        98           Ge  tau(  98) = (    0.81119953031    0.06267531245    0.06313298822  )
        99           Si  tau(  99) = (    0.75213877735   -0.00112039115    0.24986575576  )
       100           Si  tau( 100) = (    0.81107242058    0.06300157848    0.31202817617  )
       101           Ge  tau( 101) = (    0.75040664155    0.00145576039    0.50053333012  )
       102           Si  tau( 102) = (    0.81108600652    0.06208866730    0.56246987289  )
       103           Si  tau( 103) = (    0.74954224719   -0.00069528012    0.74887336860  )
       104           Si  tau( 104) = (    0.81275998881    0.06115600560    0.81281138453  )
       105           Ge  tau( 105) = (    0.75043526282    0.25002531215   -0.00240475424  )
       106           Ge  tau( 106) = (    0.81304315231    0.31406814405    0.06268283712  )
       107           Si  tau( 107) = (    0.75017606554    0.25130363426    0.24938636219  )
       108           Si  tau( 108) = (    0.81186414178    0.31223668516    0.31088543303  )
       109           Si  tau( 109) = (    0.74970039751    0.24816675388    0.50034571868  )
       110           Ge  tau( 110) = (    0.81007254509    0.31294330882    0.56373936395  )
       111           Si  tau( 111) = (    0.75188826922    0.24864599560    0.74976215575  )
       112           Si  tau( 112) = (    0.81449700908    0.31218656032    0.81076743501  )
       113           Si  tau( 113) = (    0.75070489884    0.50167918637   -0.00066979023  )
       114           Ge  tau( 114) = (    0.81392816404    0.55963093822    0.06337696400  )
       115           Ge  tau( 115) = (    0.74783849116    0.50094852969    0.25063824759  )
       116           Ge  tau( 116) = (    0.81271094188    0.56450585315    0.31092078752  )
       117           Ge  tau( 117) = (    0.75088193173    0.50092147881    0.49894699341  )
       118           Si  tau( 118) = (    0.81449758513    0.56066791490    0.56220062649  )
       119           Si  tau( 119) = (    0.74790189414    0.49985616918    0.75190367930  )
       120           Si  tau( 120) = (    0.81205407173    0.56462838737    0.81166353772  )
       121           Ge  tau( 121) = (    0.75181225498    0.75039417023   -0.00053650472  )
       122           Si  tau( 122) = (    0.81201798486    0.81174907284    0.06110684071  )
       123           Ge  tau( 123) = (    0.74809472792    0.75078681350    0.25092399889  )
       124           Ge  tau( 124) = (    0.81458435121    0.81267360617    0.31237038904  )
       125           Ge  tau( 125) = (    0.75109608497    0.75030716694    0.50078330743  )
       126           Ge  tau( 126) = (    0.81292593378    0.81172868890    0.56157829037  )
       127           Ge  tau( 127) = (    0.75014844187    0.74835751305    0.75022007874  )
       128           Si  tau( 128) = (    0.81380923729    0.81261257207    0.81250338521  )

     number of k points=     8  gaussian smearing, width (Ry)=  0.0150
                       cart. coord. in units 2pi/alat
        k(    1) = (   0.0000000   0.0000000   0.0000000), wk =   0.2500000
        k(    2) = (  -0.3535534  -0.3535534   0.3535534), wk =   0.2500000
        k(    3) = (  -0.7071068   0.0000000   0.0000000), wk =   0.2500000
        k(    4) = (   0.3535534   0.3535534   0.3535534), wk =   0.2500000
        k(    5) = (   0.3535534  -0.3535534  -0.3535534), wk =   0.2500000
        k(    6) = (  -0.3535534   0.3535534  -0.3535534), wk =   0.2500000
        k(    7) = (   0.0000000  -0.7071068   0.0000000), wk =   0.2500000
        k(    8) = (   0.0000000   0.0000000  -0.7071068), wk =   0.2500000

                       cryst. coord.
        k(    1) = (   0.0000000   0.0000000   0.0000000), wk =   0.2500000
        k(    2) = (   0.0000000   0.0000000  -0.5000000), wk =   0.2500000
        k(    3) = (   0.0000000  -0.5000000  -0.5000000), wk =   0.2500000
        k(    4) = (   0.5000000   0.5000000   0.5000000), wk =   0.2500000
        k(    5) = (  -0.5000000   0.0000000   0.0000000), wk =   0.2500000
        k(    6) = (   0.0000000  -0.5000000   0.0000000), wk =   0.2500000
        k(    7) = (  -0.5000000   0.0000000  -0.5000000), wk =   0.2500000
        k(    8) = (  -0.5000000  -0.5000000   0.0000000), wk =   0.2500000

     Dense  grid:   876295 G-vectors     FFT dimensions: ( 135, 135, 135)

     Smooth grid:   513103 G-vectors     FFT dimensions: ( 120, 120, 120)

     Largest allocated arrays     est. size (Mb)     dimensions
        Kohn-Sham Wavefunctions        43.21 Mb     (    4028,  703)
        NL pseudopotentials           141.61 Mb     (    4028, 2304)
        Each V/rho on FFT grid          2.50 Mb     (  164025)
        Each G-vector array             0.42 Mb     (   54770)
        G-vector shells                 0.02 Mb     (    2932)
     Largest temporary arrays     est. size (Mb)     dimensions
        Auxiliary wavefunctions       172.83 Mb     (    4028, 2812)
        Each subspace H/S matrix      120.66 Mb     (    2812, 2812)
        Each <psi_i|beta_j> matrix     24.71 Mb     (    2304,  703)
        Arrays for rho mixing          20.02 Mb     (  164025,    8)

     Check: negative/imaginary core charge=   -0.000001    0.000000

     Initial potential from superposition of free atoms

     starting charge 1171.90648, renormalised to 1172.00000
     Starting wfc are  842 randomized atomic wfcs

     total cpu time spent up to now is      685.6 secs

     Self-consistent Calculation

     iteration #  1     ecut=    35.00 Ry     beta=0.30
     Davidson diagonalization with overlap
     ethr =  1.00E-02,  avg # of iterations =  3.0

     Threshold (ethr) on eigenvalues was too large:
     Diagonalizing with lowered threshold

     Davidson diagonalization with overlap
     ethr =  2.38E-04,  avg # of iterations =  4.8

     total cpu time spent up to now is     5435.0 secs

     total energy              =  -14663.28338125 Ry
     Harris-Foulkes estimate   =  -14663.57617909 Ry
     estimated scf accuracy    <       2.81164965 Ry

     iteration #  2     ecut=    35.00 Ry     beta=0.30
     Davidson diagonalization with overlap
     ethr =  2.40E-04,  avg # of iterations =  1.0

     total cpu time spent up to now is     7030.6 secs

     total energy              =  -14662.72624430 Ry
     Harris-Foulkes estimate   =  -14663.29690087 Ry
     estimated scf accuracy    <       1.73449138 Ry

     iteration #  3     ecut=    35.00 Ry     beta=0.30
     Davidson diagonalization with overlap
     ethr =  1.48E-04,  avg # of iterations =  2.0

     total cpu time spent up to now is     8902.3 secs

     total energy              =  -14662.83337794 Ry
     Harris-Foulkes estimate   =  -14662.83244344 Ry
     estimated scf accuracy    <       0.02409420 Ry

     iteration #  4     ecut=    35.00 Ry     beta=0.30
     Davidson diagonalization with overlap
     ethr =  2.06E-06,  avg # of iterations = 10.0

     total cpu time spent up to now is    14905.6 secs

     total energy              =  -14662.83733261 Ry
     Harris-Foulkes estimate   =  -14662.83772153 Ry
     estimated scf accuracy    <       0.01050146 Ry

     iteration #  5     ecut=    35.00 Ry     beta=0.30
     Davidson diagonalization with overlap
     ethr =  8.96E-07,  avg # of iterations =  2.0

     total cpu time spent up to now is    16973.3 secs

     total energy              =  -14662.83822576 Ry
     Harris-Foulkes estimate   =  -14662.83837235 Ry
     estimated scf accuracy    <       0.00067118 Ry

     iteration #  6     ecut=    35.00 Ry     beta=0.30
     Davidson diagonalization with overlap
     ethr =  5.73E-08,  avg # of iterations =  2.0

     total cpu time spent up to now is    18752.3 secs

     total energy              =  -14662.83820327 Ry
     Harris-Foulkes estimate   =  -14662.83826191 Ry
     estimated scf accuracy    <       0.00017445 Ry

     iteration #  7     ecut=    35.00 Ry     beta=0.30
     Davidson diagonalization with overlap
     ethr =  1.49E-08,  avg # of iterations =  2.0

     total cpu time spent up to now is    20705.4 secs

     total energy              =  -14662.83822756 Ry
     Harris-Foulkes estimate   =  -14662.83822382 Ry
     estimated scf accuracy    <       0.00002796 Ry

     iteration #  8     ecut=    35.00 Ry     beta=0.30
     Davidson diagonalization with overlap
     ethr =  2.39E-09,  avg # of iterations =  2.0

     total cpu time spent up to now is    22601.9 secs

     total energy              =  -14662.83822678 Ry
     Harris-Foulkes estimate   =  -14662.83823016 Ry
     estimated scf accuracy    <       0.00001549 Ry

     iteration #  9     ecut=    35.00 Ry     beta=0.30
     Davidson diagonalization with overlap
     ethr =  1.32E-09,  avg # of iterations =  2.0

     total cpu time spent up to now is    24985.5 secs

     total energy              =  -14662.83823016 Ry
     Harris-Foulkes estimate   =  -14662.83822986 Ry
     estimated scf accuracy    <       0.00000321 Ry

     iteration # 10     ecut=    35.00 Ry     beta=0.30
     Davidson diagonalization with overlap
     ethr =  2.74E-10,  avg # of iterations =  1.9

     total cpu time spent up to now is    26709.7 secs

     total energy              =  -14662.83822955 Ry
     Harris-Foulkes estimate   =  -14662.83823027 Ry
     estimated scf accuracy    <       0.00000196 Ry

     iteration # 11     ecut=    35.00 Ry     beta=0.30
     Davidson diagonalization with overlap
     ethr =  1.67E-10,  avg # of iterations =  2.0

     total cpu time spent up to now is    29119.0 secs

     total energy              =  -14662.83823014 Ry
     Harris-Foulkes estimate   =  -14662.83823000 Ry
     estimated scf accuracy    <       0.00000021 Ry

     iteration # 12     ecut=    35.00 Ry     beta=0.30
     Davidson diagonalization with overlap
     ethr =  1.78E-11,  avg # of iterations =  2.0

     total cpu time spent up to now is    30902.7 secs

     total energy              =  -14662.83823020 Ry
     Harris-Foulkes estimate   =  -14662.83823015 Ry
     estimated scf accuracy    <       0.00000010 Ry

     iteration # 13     ecut=    35.00 Ry     beta=0.30
     Davidson diagonalization with overlap
     ethr =  8.22E-12,  avg # of iterations =  2.3

     total cpu time spent up to now is    33129.5 secs

     total energy              =  -14662.83823025 Ry
     Harris-Foulkes estimate   =  -14662.83823021 Ry
     estimated scf accuracy    <          4.4E-09 Ry

     iteration # 14     ecut=    35.00 Ry     beta=0.30
     Davidson diagonalization with overlap
     ethr =  3.74E-13,  avg # of iterations =  2.5

     total cpu time spent up to now is    35579.7 secs

     total energy              =  -14662.83823027 Ry
     Harris-Foulkes estimate   =  -14662.83823025 Ry
     estimated scf accuracy    <          1.8E-09 Ry

     iteration # 15     ecut=    35.00 Ry     beta=0.30
     Davidson diagonalization with overlap
     ethr =  1.51E-13,  avg # of iterations =  2.0

     total cpu time spent up to now is    37506.8 secs

     End of self-consistent calculation

          k = 0.0000 0.0000 0.0000 ( 64071 PWs)   bands (ev):

   -17.3066 -17.3035 -17.2998 -17.2986 -17.2976 -17.2926 -17.2902 -17.2883
   -17.2875 -17.2812 -17.2767 -17.2759 -17.2757 -17.2746 -17.2696 -17.2675
   -17.2635 -17.2622 -17.2593 -17.2579 -17.2566 -17.2561 -17.2511 -17.2496
   -17.2482 -17.2463 -17.2453 -17.2366 -17.2352 -17.2351 -17.2302 -17.2268
   -17.2266 -17.2236 -17.2205 -17.2170 -17.2133 -17.2120 -17.2098 -17.2069
   -17.2050 -17.2015 -17.1995 -17.1973 -17.1963 -17.1947 -17.1923 -17.1920
   -17.1869 -17.1850 -17.1832 -17.1814 -17.1802 -17.1782 -17.1750 -17.1740
   -17.1738 -17.1717 -17.1708 -17.1704 -17.1676 -17.1673 -17.1640 -17.1629
   -17.1624 -17.1603 -17.1584 -17.1571 -17.1528 -17.1499 -17.1480 -17.1463
   -17.1453 -17.1411 -17.1389 -17.1379 -17.1378 -17.1352 -17.1309 -17.1284
   -17.1269 -17.1264 -17.1238 -17.1232 -17.1213 -17.1194 -17.1191 -17.1177
   -17.1141 -17.1122 -17.1114 -17.1104 -17.1079 -17.1058 -17.1051 -17.1030
   -17.1024 -17.1014 -17.1005 -17.0988 -17.0973 -17.0940 -17.0933 -17.0923
   -17.0904 -17.0902 -17.0898 -17.0855 -17.0840 -17.0834 -17.0824 -17.0809
   -17.0798 -17.0778 -17.0768 -17.0764 -17.0747 -17.0736 -17.0728 -17.0712
   -17.0703 -17.0696 -17.0691 -17.0689 -17.0669 -17.0646 -17.0629 -17.0614
   -17.0607 -17.0590 -17.0589 -17.0579 -17.0545 -17.0539 -17.0520 -17.0514
   -17.0492 -17.0476 -17.0453 -17.0445 -17.0437 -17.0435 -17.0428 -17.0407
   -17.0402 -17.0376 -17.0361 -17.0354 -17.0343 -17.0338 -17.0319 -17.0312
   -17.0292 -17.0290 -17.0275 -17.0260 -17.0255 -17.0247 -17.0236 -17.0229
   -17.0221 -17.0217 -17.0202 -17.0191 -17.0186 -17.0176 -17.0173 -17.0141
   -17.0136 -17.0132 -17.0127 -17.0124 -17.0119 -17.0108 -17.0105 -17.0103
   -17.0101 -17.0097 -17.0089 -17.0075 -17.0063 -17.0061 -17.0056 -17.0050
   -17.0040 -17.0022 -17.0015 -17.0007 -17.0000 -16.9997 -16.9989 -16.9986
   -16.9976 -16.9972 -16.9965 -16.9956 -16.9951 -16.9950 -16.9940 -16.9932
   -16.9929 -16.9926 -16.9917 -16.9912 -16.9904 -16.9898 -16.9895 -16.9892
   -16.9882 -16.9874 -16.9867 -16.9865 -16.9853 -16.9849 -16.9843 -16.9835
   -16.9820 -16.9814 -16.9809 -16.9803 -16.9796 -16.9794 -16.9789 -16.9777
   -16.9766 -16.9759 -16.9754 -16.9746 -16.9738 -16.9733 -16.9724 -16.9723
   -16.9718 -16.9712 -16.9706 -16.9699 -16.9687 -16.9682 -16.9676 -16.9658
   -16.9644 -16.9641 -16.9628 -16.9625 -16.9618 -16.9616 -16.9609 -16.9604
   -16.9602 -16.9592 -16.9590 -16.9588 -16.9578 -16.9570 -16.9568 -16.9562
   -16.9557 -16.9550 -16.9542 -16.9528 -16.9518 -16.9517 -16.9506 -16.9500
   -16.9487 -16.9476 -16.9467 -16.9463 -16.9444 -16.9437 -16.9425 -16.9411
   -16.9407 -16.9401 -16.9390 -16.9384 -16.9371 -16.9354 -16.9346 -16.9343
   -16.9334 -16.9317 -16.9307 -16.9300 -16.9288 -16.9279 -16.9259 -16.9258
   -16.9248 -16.9232 -16.9221 -16.9215 -16.9203 -16.9176 -16.9144 -16.9131
   -16.9113 -16.9098 -16.9087 -16.9076 -16.9053 -16.9048 -16.9034 -16.9018
   -16.9003 -16.8990 -16.8986 -16.8973 -16.8964 -16.8950 -16.8932 -16.8912
   -16.8904 -16.8895 -16.8871 -16.8860 -16.8857 -16.8811 -16.8795 -16.8793
   -16.8782 -16.8774 -16.8764 -16.8734 -16.8685 -16.8651 -16.8634 -16.8632
   -16.8613 -16.8543  -5.1526  -4.5630  -4.5143  -4.4777  -4.4389  -4.3861
    -4.3625  -4.2971  -4.2636  -4.1702  -4.1012  -4.0594  -3.9749  -3.9185
    -3.8381  -3.3669  -3.3100  -3.2980  -3.2687  -3.2402  -3.1954  -3.1629
    -3.1379  -3.1258  -3.0829  -3.0522  -2.9694  -2.9478  -2.8840  -2.8285
    -2.8164  -2.7384  -2.6786  -2.6371  -2.6153  -2.5791  -2.5695  -2.4713
    -2.4655  -2.4358  -2.3985  -2.3959  -2.3205  -2.3175  -2.3054  -2.2929
    -2.2811  -2.2515  -2.2437  -2.1703  -2.1398  -2.1324  -2.1149  -2.1082
    -2.0548  -1.1848  -1.0954  -1.0582  -1.0426  -1.0074  -0.9974  -0.9719
    -0.9363  -0.9035  -0.8691  -0.8472  -0.8085  -0.7944  -0.7483  -0.7454
    -0.6910  -0.6577  -0.6205   0.0158   0.0351   0.0580   0.0795   0.2824
     0.2901   0.3097   0.3561   0.3647   0.3815   0.4194   0.4562   0.4816
     0.4990   0.5035   0.5203   0.5366   0.5545   0.5592   0.5786   0.6021
     0.6129   0.6312   0.6769   0.6966   0.7221   0.7542   0.7885   1.2798
     1.3143   1.3460   1.3551   1.4028   1.4282   1.4715   1.4793   1.5102
     1.5338   1.5484   1.6352   2.9921   3.0258   3.0399   3.0841   3.0959
     3.1129   3.1605   3.1655   3.2334   3.2948   3.3234   3.3531   3.3965
     3.4308   3.4431   3.4457   3.4488   3.4537   3.4567   3.4632   3.4644
     3.4712   3.4813   3.4856   3.4933   3.5022   3.5123   3.5143   3.5227
     3.5243   3.5279   3.5325   3.5450   3.5497   3.5519   3.5618   3.5671
     3.5786   3.6784   3.6863   3.6924   3.6976   3.7013   3.7027   3.7071
     3.7111   3.7169   3.7215   3.7251   3.7274   3.7302   3.7334   3.7394
     3.7412   3.7466   3.7490   3.7529   3.7597   3.7652   3.7665   3.7734
     3.7830   4.3973   4.4020   4.4076   4.4124   4.4145   4.4151   5.0305
     5.0415   5.0419   5.0466   5.0499   5.0552   5.0574   5.0588   5.0630
     5.0701   5.0723   5.0744   5.0765   5.0774   5.0863   5.0885   5.0913
     5.0950   5.0972   5.1023   5.1057   5.1110   5.1117   5.1174   5.3828
     5.3960   5.4043   5.4101   5.4156   5.4214   5.4281   5.4335   5.4405
     5.4469   5.4575   5.4641   5.9377   5.9484   5.9546   5.9579   5.9645
     5.9750   5.9814   5.9869   5.9906   5.9949   6.0075   6.0206   6.0659
     6.0851   6.0899   6.1014   6.1069   6.1101   6.1242   6.1333   6.5253
     6.5439   6.5570   6.5645   6.5703   6.5731   6.5797   6.5872   6.6007
     6.6038   6.6096   6.6207   6.6233   6.6282   6.6439   6.6544   7.4140
     7.4353   7.4494   7.9956   8.0032   8.0209   8.0323   8.0565   8.0846
     8.0980   8.1360   8.2114   8.2615   8.3440   8.3476   8.3574   8.3919
     8.3984   8.4175   8.5802   8.6003   8.6389   8.6532   8.6843   8.6967
     8.7104   8.7261   8.7330   8.7493   8.7609   8.7633   8.7690   8.7785
     8.7911   8.7980   8.8044   8.8184   8.8255   8.8335   8.8430   8.8579
     8.8605   8.8668   8.8828   8.8908   8.9076   8.9218   8.9365   8.9405
     8.9502   8.9775   9.1516   9.5332   9.5516   9.5745   9.5818   9.6039
     9.6247   9.6467   9.6490   9.6628   9.6805   9.6826   9.7475   9.9181
     9.9378   9.9497  10.2981  10.3393  10.3431  10.3571  10.3973  10.4351
    10.7670  10.7883  10.8130  10.8288  10.8405  10.8498  10.8657  10.8784
    10.8909  10.9014  10.9114  10.9205  10.9298  10.9423  10.9500  10.9507
    10.9725  10.9968  11.0091  11.0209  11.0283  11.0426  11.0787  11.0927
    11.6037  11.6195  11.6373  11.6576  11.6698  11.6769  11.6815  11.6867
    11.7071  11.7142  11.7302  11.7328  11.7415  11.7496  11.7620  11.7717
    11.7731  11.7782  11.7882  11.7982  11.8039  11.8062  11.8201

     occupation numbers 
     1.0000   1.0000   1.0000   1.0000   1.0000   1.0000   1.0000   1.0000
     1.0000   1.0000   1.0000   1.0000   1.0000   1.0000   1.0000   1.0000
     1.0000   1.0000   1.0000   1.0000   1.0000   1.0000   1.0000   1.0000
     1.0000   1.0000   1.0000   1.0000   1.0000   1.0000   1.0000   1.0000
     1.0000   1.0000   1.0000   1.0000   1.0000   1.0000   1.0000   1.0000
     1.0000   1.0000   1.0000   1.0000   1.0000   1.0000   1.0000   1.0000
     1.0000   1.0000   1.0000   1.0000   1.0000   1.0000   1.0000   1.0000
     1.0000   1.0000   1.0000   1.0000   1.0000   1.0000   1.0000   1.0000
     1.0000   1.0000   1.0000   1.0000   1.0000   1.0000   1.0000   1.0000
     1.0000   1.0000   1.0000   1.0000   1.0000   1.0000   1.0000   1.0000
     1.0000   1.0000   1.0000   1.0000   1.0000   1.0000   1.0000   1.0000
     1.0000   1.0000   1.0000   1.0000   1.0000   1.0000   1.0000   1.0000
     1.0000   1.0000   1.0000   1.0000   1.0000   1.0000   1.0000   1.0000
     1.0000   1.0000   1.0000   1.0000   1.0000   1.0000   1.0000   1.0000
     1.0000   1.0000   1.0000   1.0000   1.0000   1.0000   1.0000   1.0000
     1.0000   1.0000   1.0000   1.0000   1.0000   1.0000   1.0000   1.0000
     1.0000   1.0000   1.0000   1.0000   1.0000   1.0000   1.0000   1.0000
     1.0000   1.0000   1.0000   1.0000   1.0000   1.0000   1.0000   1.0000
     1.0000   1.0000   1.0000   1.0000   1.0000   1.0000   1.0000   1.0000
     1.0000   1.0000   1.0000   1.0000   1.0000   1.0000   1.0000   1.0000
     1.0000   1.0000   1.0000   1.0000   1.0000   1.0000   1.0000   1.0000
     1.0000   1.0000   1.0000   1.0000   1.0000   1.0000   1.0000   1.0000
     1.0000   1.0000   1.0000   1.0000   1.0000   1.0000   1.0000   1.0000
     1.0000   1.0000   1.0000   1.0000   1.0000   1.0000   1.0000   1.0000
     1.0000   1.0000   1.0000   1.0000   1.0000   1.0000   1.0000   1.0000
     1.0000   1.0000   1.0000   1.0000   1.0000   1.0000   1.0000   1.0000
     1.0000   1.0000   1.0000   1.0000   1.0000   1.0000   1.0000   1.0000
     1.0000   1.0000   1.0000   1.0000   1.0000   1.0000   1.0000   1.0000
     1.0000   1.0000   1.0000   1.0000   1.0000   1.0000   1.0000   1.0000
     1.0000   1.0000   1.0000   1.0000   1.0000   1.0000   1.0000   1.0000
     1.0000   1.0000   1.0000   1.0000   1.0000   1.0000   1.0000   1.0000
     1.0000   1.0000   1.0000   1.0000   1.0000   1.0000   1.0000   1.0000
     1.0000   1.0000   1.0000   1.0000   1.0000   1.0000   1.0000   1.0000
     1.0000   1.0000   1.0000   1.0000   1.0000   1.0000   1.0000   1.0000
     1.0000   1.0000   1.0000   1.0000   1.0000   1.0000   1.0000   1.0000
     1.0000   1.0000   1.0000   1.0000   1.0000   1.0000   1.0000   1.0000
     1.0000   1.0000   1.0000   1.0000   1.0000   1.0000   1.0000   1.0000
     1.0000   1.0000   1.0000   1.0000   1.0000   1.0000   1.0000   1.0000
     1.0000   1.0000   1.0000   1.0000   1.0000   1.0000   1.0000   1.0000
     1.0000   1.0000   1.0000   1.0000   1.0000   1.0000   1.0000   1.0000
     1.0000   1.0000   1.0000   1.0000   1.0000   1.0000   1.0000   1.0000
     1.0000   1.0000   1.0000   1.0000   1.0000   1.0000   1.0000   1.0000
     1.0000   1.0000   1.0000   1.0000   1.0000   1.0000   1.0000   1.0000
     1.0000   1.0000   1.0000   1.0000   1.0000   1.0000   1.0000   1.0000
     1.0000   1.0000   1.0000   1.0000   1.0000   1.0000   1.0000   1.0000
     1.0000   1.0000   1.0000   1.0000   1.0000   1.0000   1.0000   1.0000
     1.0000   1.0000   1.0000   1.0000   1.0000   1.0000   1.0000   1.0000
     1.0000   1.0000   1.0000   1.0000   1.0000   1.0000   1.0000   1.0000
     1.0000   1.0000   1.0000   1.0000   1.0000   1.0000   1.0000   1.0000
     1.0000   1.0000   1.0000   1.0000   1.0000   1.0000   1.0000   1.0000
     1.0000   1.0000   1.0000   1.0000   1.0000   1.0000   1.0000   1.0000
     1.0000   1.0000   1.0000   1.0000   1.0000   1.0000   1.0000   1.0000
     1.0000   1.0000   1.0000   1.0000   1.0000   1.0000   1.0000   1.0000
     1.0000   1.0000   1.0000   1.0000   1.0000   1.0000   1.0000   1.0000
     1.0000   1.0000   1.0000   1.0000   1.0000   1.0000   1.0000   1.0000
     1.0000   1.0000   1.0000   1.0000   1.0000   1.0000   1.0000   1.0000
     1.0000   1.0000   1.0000   1.0000   1.0000   1.0000   1.0000   1.0000
     1.0000   1.0000   1.0000   1.0000   1.0000   1.0000   1.0000   1.0000
     1.0000   1.0000   1.0000   1.0000   1.0000   1.0000   1.0000   1.0000
     1.0000   1.0000   1.0000   1.0000   1.0000   1.0000   1.0000   1.0000
     1.0000   1.0000   1.0000   1.0000   1.0000   1.0000   1.0000   1.0000
     1.0000   1.0000   1.0000   1.0000   1.0000   1.0000   1.0000   1.0000
     1.0000   1.0000   1.0000   1.0000   1.0000   1.0000   1.0000   1.0000
     1.0000   1.0000   1.0000   1.0000   1.0000   1.0000   1.0000   1.0000
     1.0000   1.0000   1.0000   1.0000   1.0000   1.0000   1.0000   1.0000
     1.0000   1.0000   1.0000   1.0000   1.0000   1.0000   1.0000   1.0000
     1.0000   1.0000   1.0000   1.0000   1.0000   1.0000   1.0000   1.0000
     1.0000   1.0000   1.0000   1.0000   1.0000   1.0000   1.0000   1.0000
     1.0000   1.0000   1.0000   1.0000   1.0000   1.0000   1.0000   1.0000
     1.0000   1.0000   1.0000   1.0000   1.0000   1.0000   1.0000   1.0000
     1.0000   1.0000   1.0000   1.0000   1.0000   1.0000   1.0000   1.0000
     1.0000   1.0000   1.0000   1.0000   1.0000   1.0000   1.0000   1.0000
     1.0000   1.0000   1.0000   1.0000   1.0000   1.0000   1.0000   0.9438
     0.9251   0.9103   0.0073   0.0063   0.0044   0.0035   0.0021   0.0011
     0.0008   0.0003   0.0000   0.0000   0.0000   0.0000   0.0000   0.0000
     0.0000   0.0000   0.0000   0.0000   0.0000   0.0000   0.0000   0.0000
     0.0000   0.0000   0.0000   0.0000   0.0000   0.0000   0.0000   0.0000
     0.0000   0.0000   0.0000   0.0000   0.0000   0.0000   0.0000   0.0000
     0.0000   0.0000   0.0000   0.0000   0.0000   0.0000   0.0000   0.0000
     0.0000   0.0000   0.0000   0.0000   0.0000   0.0000   0.0000   0.0000
     0.0000   0.0000   0.0000   0.0000   0.0000   0.0000   0.0000   0.0000
     0.0000   0.0000   0.0000   0.0000   0.0000   0.0000   0.0000   0.0000
     0.0000   0.0000   0.0000   0.0000   0.0000   0.0000   0.0000   0.0000
     0.0000   0.0000   0.0000   0.0000   0.0000   0.0000   0.0000   0.0000
     0.0000   0.0000   0.0000   0.0000   0.0000   0.0000   0.0000   0.0000
     0.0000   0.0000   0.0000   0.0000   0.0000   0.0000   0.0000   0.0000
     0.0000   0.0000   0.0000   0.0000   0.0000   0.0000   0.0000   0.0000
     0.0000   0.0000   0.0000   0.0000   0.0000   0.0000   0.0000

          k =-0.3536-0.3536 0.3536 ( 64114 PWs)   bands (ev):

   -17.3066 -17.3035 -17.2998 -17.2988 -17.2975 -17.2926 -17.2900 -17.2884
   -17.2877 -17.2811 -17.2771 -17.2760 -17.2757 -17.2745 -17.2697 -17.2675
   -17.2635 -17.2623 -17.2598 -17.2579 -17.2566 -17.2562 -17.2512 -17.2497
   -17.2482 -17.2463 -17.2454 -17.2358 -17.2352 -17.2351 -17.2304 -17.2281
   -17.2264 -17.2237 -17.2204 -17.2176 -17.2145 -17.2124 -17.2100 -17.2062
   -17.2033 -17.2009 -17.1992 -17.1975 -17.1960 -17.1950 -17.1922 -17.1912
   -17.1870 -17.1852 -17.1829 -17.1818 -17.1809 -17.1781 -17.1749 -17.1744
   -17.1734 -17.1714 -17.1707 -17.1704 -17.1681 -17.1674 -17.1639 -17.1630
   -17.1611 -17.1594 -17.1582 -17.1571 -17.1530 -17.1503 -17.1478 -17.1467
   -17.1454 -17.1411 -17.1391 -17.1380 -17.1378 -17.1348 -17.1313 -17.1286
   -17.1271 -17.1260 -17.1246 -17.1234 -17.1222 -17.1201 -17.1192 -17.1182
   -17.1144 -17.1124 -17.1112 -17.1101 -17.1079 -17.1075 -17.1047 -17.1031
   -17.1017 -17.1015 -17.1002 -17.0999 -17.0982 -17.0944 -17.0935 -17.0928
   -17.0905 -17.0902 -17.0899 -17.0850 -17.0838 -17.0833 -17.0817 -17.0807
   -17.0793 -17.0780 -17.0765 -17.0761 -17.0751 -17.0725 -17.0717 -17.0712
   -17.0698 -17.0697 -17.0693 -17.0673 -17.0665 -17.0647 -17.0630 -17.0617
   -17.0609 -17.0601 -17.0590 -17.0589 -17.0550 -17.0538 -17.0518 -17.0517
   -17.0492 -17.0474 -17.0459 -17.0453 -17.0441 -17.0436 -17.0424 -17.0402
   -17.0397 -17.0377 -17.0361 -17.0353 -17.0342 -17.0339 -17.0320 -17.0303
   -17.0295 -17.0290 -17.0285 -17.0260 -17.0259 -17.0250 -17.0247 -17.0234
   -17.0225 -17.0206 -17.0203 -17.0192 -17.0181 -17.0176 -17.0169 -17.0140
   -17.0136 -17.0132 -17.0125 -17.0125 -17.0120 -17.0109 -17.0106 -17.0105
   -17.0102 -17.0096 -17.0087 -17.0075 -17.0061 -17.0059 -17.0056 -17.0047
   -17.0040 -17.0022 -17.0014 -17.0009 -16.9997 -16.9992 -16.9989 -16.9987
   -16.9978 -16.9976 -16.9962 -16.9956 -16.9952 -16.9941 -16.9939 -16.9935
   -16.9928 -16.9923 -16.9916 -16.9910 -16.9904 -16.9899 -16.9897 -16.9889
   -16.9884 -16.9872 -16.9868 -16.9866 -16.9862 -16.9851 -16.9844 -16.9831
   -16.9818 -16.9814 -16.9810 -16.9805 -16.9799 -16.9798 -16.9791 -16.9779
   -16.9772 -16.9763 -16.9760 -16.9746 -16.9742 -16.9738 -16.9729 -16.9722
   -16.9715 -16.9711 -16.9708 -16.9704 -16.9692 -16.9678 -16.9666 -16.9656
   -16.9647 -16.9641 -16.9634 -16.9627 -16.9617 -16.9616 -16.9608 -16.9605
   -16.9594 -16.9593 -16.9585 -16.9583 -16.9580 -16.9573 -16.9568 -16.9567
   -16.9561 -16.9554 -16.9546 -16.9530 -16.9525 -16.9519 -16.9504 -16.9495
   -16.9487 -16.9474 -16.9468 -16.9463 -16.9448 -16.9434 -16.9425 -16.9419
   -16.9411 -16.9402 -16.9392 -16.9379 -16.9372 -16.9354 -16.9346 -16.9343
   -16.9331 -16.9325 -16.9313 -16.9296 -16.9291 -16.9280 -16.9264 -16.9255
   -16.9239 -16.9231 -16.9225 -16.9214 -16.9196 -16.9178 -16.9144 -16.9129
   -16.9114 -16.9102 -16.9089 -16.9073 -16.9053 -16.9046 -16.9033 -16.9019
   -16.9002 -16.8988 -16.8984 -16.8970 -16.8970 -16.8949 -16.8935 -16.8916
   -16.8907 -16.8895 -16.8870 -16.8859 -16.8858 -16.8812 -16.8796 -16.8794
   -16.8783 -16.8776 -16.8767 -16.8733 -16.8686 -16.8651 -16.8635 -16.8633
   -16.8614 -16.8543  -5.0210  -4.9044  -4.5642  -4.5190  -4.4782  -4.4154
    -4.3811  -4.2435  -4.1050  -4.0304  -3.9852  -3.9673  -3.8300  -3.7219
    -3.5521  -3.5459  -3.4547  -3.4468  -3.3655  -3.3169  -3.2891  -3.2661
    -3.1871  -3.1321  -3.0994  -3.0778  -3.0389  -2.9845  -2.9742  -2.9354
    -2.8597  -2.8338  -2.7894  -2.7703  -2.7185  -2.6839  -2.6637  -2.5915
    -2.5535  -2.5259  -2.3898  -2.3114  -2.2766  -2.1533  -2.1476  -2.1066
    -2.0211  -1.9588  -1.8763  -1.8624  -1.8348  -1.8086  -1.8023  -1.7074
    -1.6821  -1.6666  -1.6244  -1.5968  -1.5766  -1.5294  -1.5023  -1.4495
    -1.4117  -1.3882  -0.3619  -0.3367  -0.3254  -0.2708  -0.2387  -0.1947
    -0.1826  -0.1466  -0.1211  -0.0740  -0.0597  -0.0180  -0.0009   0.0384
     0.0561   0.0797   0.1194   0.1338   0.1698   0.2007   0.2274   0.2581
     0.2887   0.2986   0.3456   0.3704   0.3815   0.4227   0.4512   0.4944
     0.9245   0.9351   1.0008   1.0068   1.0589   1.0737   1.0810   1.0885
     1.1309   1.1561   1.1900   1.2173   1.2277   1.2966   1.7741   1.8224
     1.8650   1.9666   2.0222   2.0934   2.2680   2.3211   2.3567   2.4046
     2.4345   2.4965   3.2074   3.2089   3.2196   3.2255   3.2307   3.2331
     3.2416   3.2478   3.2505   3.2507   3.2543   3.2577   3.2611   3.2656
     3.2801   3.2827   3.2895   3.3027   3.6742   3.7104   3.7433   3.7562
     3.7671   3.8353   3.8379   3.8431   3.8560   3.8620   3.8648   3.8728
     3.8831   3.8966   3.9014   3.9101   3.9172   3.9250   3.9303   3.9344
     3.9441   3.9492   3.9608   3.9715   4.3166   4.3193   4.3245   4.3299
     4.3338   4.3365   4.3395   4.3470   4.3518   4.3558   4.3629   4.3795
     4.5579   4.5675   4.5708   4.5754   4.5833   4.5874   4.5947   4.6003
     4.6057   4.6216   4.6260   4.6313   4.8685   4.8847   4.9064   4.9090
     4.9137   4.9254   4.9303   4.9338   4.9397   4.9619   4.9631   4.9806
     5.0517   5.0675   5.0839   5.0875   5.0993   5.1117   5.3269   5.3353
     5.3400   5.3470   5.3524   5.3674   5.3699   5.3770   5.3813   5.3843
     5.3906   5.3960   5.3990   5.4049   5.4116   5.4214   5.4223   5.4320
     5.5009   5.5544   5.7009   5.7228   5.7298   5.7440   5.7536   5.7620
     5.9664   5.9810   5.9857   6.0024   6.0105   6.0160   6.0245   6.0340
     6.0382   6.0463   6.0475   6.0607   6.1910   6.2153   6.2476   6.2597
     6.5176   6.5301   6.5590   6.5707   6.5972   6.6115   7.0576   7.0982
     7.1345   7.1587   8.1485   8.1848   8.2131   8.2250   8.2412   8.2502
     8.3057   8.3406   8.5862   8.6159   8.6296   8.6441   8.6551   8.6793
     8.9962   9.0250   9.0297   9.0460   9.0776   9.0883   9.1156   9.1554
     9.1810   9.1919   9.2003   9.2125   9.2183   9.2279   9.2630   9.2809
     9.3117   9.3297   9.3331   9.3508   9.3809   9.3972   9.4158   9.4238
     9.4436   9.4717   9.5036   9.5265   9.5740   9.5865   9.6194   9.6334
     9.6544   9.6635   9.6739   9.7041   9.7079   9.7221   9.7290   9.7435
     9.7668   9.7712   9.7864   9.8075  10.0240  10.0483  10.0624  10.0742
    10.0907  10.0986  10.1017  10.1173  10.1276  10.1336  10.1585  10.1638
    10.1819  10.1889  10.2091  10.2148  10.2633  10.2905  10.3233  10.3588
    10.3861  10.4342  10.5379  10.5489  10.5599  10.5711  10.5925  10.6069
    10.7032  10.7348  10.7637  10.7831  10.7893  10.8008  10.8072  10.8120
    10.8165  10.8418  10.8593  10.8642  10.8871  10.8924  10.9100  10.9207
    10.9444  10.9547  10.9724  10.9830  10.9977  11.0444  11.0680  11.1096
    11.1338  11.1401  11.1746  11.1937  11.2005  11.2170  11.2534

     occupation numbers 
     1.0000   1.0000   1.0000   1.0000   1.0000   1.0000   1.0000   1.0000
     1.0000   1.0000   1.0000   1.0000   1.0000   1.0000   1.0000   1.0000
     1.0000   1.0000   1.0000   1.0000   1.0000   1.0000   1.0000   1.0000
     1.0000   1.0000   1.0000   1.0000   1.0000   1.0000   1.0000   1.0000
     1.0000   1.0000   1.0000   1.0000   1.0000   1.0000   1.0000   1.0000
     1.0000   1.0000   1.0000   1.0000   1.0000   1.0000   1.0000   1.0000
     1.0000   1.0000   1.0000   1.0000   1.0000   1.0000   1.0000   1.0000
     1.0000   1.0000   1.0000   1.0000   1.0000   1.0000   1.0000   1.0000
     1.0000   1.0000   1.0000   1.0000   1.0000   1.0000   1.0000   1.0000
     1.0000   1.0000   1.0000   1.0000   1.0000   1.0000   1.0000   1.0000
     1.0000   1.0000   1.0000   1.0000   1.0000   1.0000   1.0000   1.0000
     1.0000   1.0000   1.0000   1.0000   1.0000   1.0000   1.0000   1.0000
     1.0000   1.0000   1.0000   1.0000   1.0000   1.0000   1.0000   1.0000
     1.0000   1.0000   1.0000   1.0000   1.0000   1.0000   1.0000   1.0000
     1.0000   1.0000   1.0000   1.0000   1.0000   1.0000   1.0000   1.0000
     1.0000   1.0000   1.0000   1.0000   1.0000   1.0000   1.0000   1.0000
     1.0000   1.0000   1.0000   1.0000   1.0000   1.0000   1.0000   1.0000
     1.0000   1.0000   1.0000   1.0000   1.0000   1.0000   1.0000   1.0000
     1.0000   1.0000   1.0000   1.0000   1.0000   1.0000   1.0000   1.0000
     1.0000   1.0000   1.0000   1.0000   1.0000   1.0000   1.0000   1.0000
     1.0000   1.0000   1.0000   1.0000   1.0000   1.0000   1.0000   1.0000
     1.0000   1.0000   1.0000   1.0000   1.0000   1.0000   1.0000   1.0000
     1.0000   1.0000   1.0000   1.0000   1.0000   1.0000   1.0000   1.0000
     1.0000   1.0000   1.0000   1.0000   1.0000   1.0000   1.0000   1.0000
     1.0000   1.0000   1.0000   1.0000   1.0000   1.0000   1.0000   1.0000
     1.0000   1.0000   1.0000   1.0000   1.0000   1.0000   1.0000   1.0000
     1.0000   1.0000   1.0000   1.0000   1.0000   1.0000   1.0000   1.0000
     1.0000   1.0000   1.0000   1.0000   1.0000   1.0000   1.0000   1.0000
     1.0000   1.0000   1.0000   1.0000   1.0000   1.0000   1.0000   1.0000
     1.0000   1.0000   1.0000   1.0000   1.0000   1.0000   1.0000   1.0000
     1.0000   1.0000   1.0000   1.0000   1.0000   1.0000   1.0000   1.0000
     1.0000   1.0000   1.0000   1.0000   1.0000   1.0000   1.0000   1.0000
     1.0000   1.0000   1.0000   1.0000   1.0000   1.0000   1.0000   1.0000
     1.0000   1.0000   1.0000   1.0000   1.0000   1.0000   1.0000   1.0000
     1.0000   1.0000   1.0000   1.0000   1.0000   1.0000   1.0000   1.0000
     1.0000   1.0000   1.0000   1.0000   1.0000   1.0000   1.0000   1.0000
     1.0000   1.0000   1.0000   1.0000   1.0000   1.0000   1.0000   1.0000
     1.0000   1.0000   1.0000   1.0000   1.0000   1.0000   1.0000   1.0000
     1.0000   1.0000   1.0000   1.0000   1.0000   1.0000   1.0000   1.0000
     1.0000   1.0000   1.0000   1.0000   1.0000   1.0000   1.0000   1.0000
     1.0000   1.0000   1.0000   1.0000   1.0000   1.0000   1.0000   1.0000
     1.0000   1.0000   1.0000   1.0000   1.0000   1.0000   1.0000   1.0000
     1.0000   1.0000   1.0000   1.0000   1.0000   1.0000   1.0000   1.0000
     1.0000   1.0000   1.0000   1.0000   1.0000   1.0000   1.0000   1.0000
     1.0000   1.0000   1.0000   1.0000   1.0000   1.0000   1.0000   1.0000
     1.0000   1.0000   1.0000   1.0000   1.0000   1.0000   1.0000   1.0000
     1.0000   1.0000   1.0000   1.0000   1.0000   1.0000   1.0000   1.0000
     1.0000   1.0000   1.0000   1.0000   1.0000   1.0000   1.0000   1.0000
     1.0000   1.0000   1.0000   1.0000   1.0000   1.0000   1.0000   1.0000
     1.0000   1.0000   1.0000   1.0000   1.0000   1.0000   1.0000   1.0000
     1.0000   1.0000   1.0000   1.0000   1.0000   1.0000   1.0000   1.0000
     1.0000   1.0000   1.0000   1.0000   1.0000   1.0000   1.0000   1.0000
     1.0000   1.0000   1.0000   1.0000   1.0000   1.0000   1.0000   1.0000
     1.0000   1.0000   1.0000   1.0000   1.0000   1.0000   1.0000   1.0000
     1.0000   1.0000   1.0000   1.0000   1.0000   1.0000   1.0000   1.0000
     1.0000   1.0000   1.0000   1.0000   1.0000   1.0000   1.0000   1.0000
     1.0000   1.0000   1.0000   1.0000   1.0000   1.0000   1.0000   1.0000
     1.0000   1.0000   1.0000   1.0000   1.0000   1.0000   1.0000   1.0000
     1.0000   1.0000   1.0000   1.0000   1.0000   1.0000   1.0000   1.0000
     1.0000   1.0000   1.0000   1.0000   1.0000   1.0000   1.0000   1.0000
     1.0000   1.0000   1.0000   1.0000   1.0000   1.0000   1.0000   1.0000
     1.0000   1.0000   1.0000   1.0000   1.0000   1.0000   1.0000   1.0000
     1.0000   1.0000   1.0000   1.0000   1.0000   1.0000   1.0000   1.0000
     1.0000   1.0000   1.0000   1.0000   1.0000   1.0000   1.0000   1.0000
     1.0000   1.0000   1.0000   1.0000   1.0000   1.0000   1.0000   1.0000
     1.0000   1.0000   1.0000   1.0000   1.0000   1.0000   1.0000   1.0000
     1.0000   1.0000   1.0000   1.0000   1.0000   1.0000   1.0000   1.0000
     1.0000   1.0000   1.0000   1.0000   1.0000   1.0000   1.0000   1.0000
     1.0000   1.0000   1.0000   1.0000   1.0000   1.0000   1.0000   1.0000
     1.0000   1.0000   1.0000   1.0000   1.0000   1.0000   1.0000   1.0000
     1.0000   1.0000   1.0000   1.0000   1.0000   1.0000   1.0000   1.0000
     1.0000   1.0000   1.0000   1.0000   1.0000   1.0000   1.0000   1.0000
     1.0000   1.0000   1.0000   1.0000   1.0000   1.0000   1.0000   0.9999
     0.9998   0.9996   0.0002   0.0001   0.0000   0.0000   0.0000   0.0000
     0.0000   0.0000   0.0000   0.0000   0.0000   0.0000   0.0000   0.0000
     0.0000   0.0000   0.0000   0.0000   0.0000   0.0000   0.0000   0.0000
     0.0000   0.0000   0.0000   0.0000   0.0000   0.0000   0.0000   0.0000
     0.0000   0.0000   0.0000   0.0000   0.0000   0.0000   0.0000   0.0000
     0.0000   0.0000   0.0000   0.0000   0.0000   0.0000   0.0000   0.0000
     0.0000   0.0000   0.0000   0.0000   0.0000   0.0000   0.0000   0.0000
     0.0000   0.0000   0.0000   0.0000   0.0000   0.0000   0.0000   0.0000
     0.0000   0.0000   0.0000   0.0000   0.0000   0.0000   0.0000   0.0000
     0.0000   0.0000   0.0000   0.0000   0.0000   0.0000   0.0000   0.0000
     0.0000   0.0000   0.0000   0.0000   0.0000   0.0000   0.0000   0.0000
     0.0000   0.0000   0.0000   0.0000   0.0000   0.0000   0.0000   0.0000
     0.0000   0.0000   0.0000   0.0000   0.0000   0.0000   0.0000   0.0000
     0.0000   0.0000   0.0000   0.0000   0.0000   0.0000   0.0000   0.0000
     0.0000   0.0000   0.0000   0.0000   0.0000   0.0000   0.0000

          k =-0.7071 0.0000 0.0000 ( 64192 PWs)   bands (ev):

   -17.3067 -17.3035 -17.2998 -17.2988 -17.2975 -17.2926 -17.2900 -17.2884
   -17.2878 -17.2811 -17.2772 -17.2760 -17.2757 -17.2745 -17.2696 -17.2675
   -17.2635 -17.2623 -17.2598 -17.2579 -17.2566 -17.2563 -17.2512 -17.2497
   -17.2482 -17.2463 -17.2454 -17.2359 -17.2352 -17.2350 -17.2304 -17.2282
   -17.2269 -17.2239 -17.2203 -17.2158 -17.2142 -17.2126 -17.2102 -17.2070
   -17.2061 -17.2022 -17.1991 -17.1974 -17.1956 -17.1944 -17.1920 -17.1910
   -17.1859 -17.1840 -17.1828 -17.1817 -17.1795 -17.1782 -17.1754 -17.1750
   -17.1735 -17.1715 -17.1706 -17.1704 -17.1687 -17.1675 -17.1639 -17.1629
   -17.1611 -17.1594 -17.1582 -17.1571 -17.1530 -17.1502 -17.1471 -17.1466
   -17.1452 -17.1410 -17.1392 -17.1379 -17.1372 -17.1350 -17.1313 -17.1287
   -17.1275 -17.1262 -17.1244 -17.1234 -17.1214 -17.1200 -17.1184 -17.1171
   -17.1147 -17.1125 -17.1116 -17.1112 -17.1100 -17.1075 -17.1048 -17.1031
   -17.1020 -17.1016 -17.1005 -17.1001 -17.0990 -17.0942 -17.0937 -17.0933
   -17.0906 -17.0902 -17.0892 -17.0852 -17.0838 -17.0833 -17.0823 -17.0811
   -17.0794 -17.0786 -17.0770 -17.0763 -17.0760 -17.0727 -17.0715 -17.0703
   -17.0697 -17.0693 -17.0676 -17.0670 -17.0665 -17.0646 -17.0641 -17.0617
   -17.0608 -17.0601 -17.0590 -17.0584 -17.0554 -17.0539 -17.0522 -17.0516
   -17.0491 -17.0474 -17.0460 -17.0453 -17.0440 -17.0435 -17.0426 -17.0397
   -17.0390 -17.0377 -17.0361 -17.0351 -17.0343 -17.0340 -17.0320 -17.0304
   -17.0295 -17.0287 -17.0285 -17.0263 -17.0259 -17.0254 -17.0240 -17.0229
   -17.0224 -17.0207 -17.0203 -17.0194 -17.0183 -17.0178 -17.0163 -17.0141
   -17.0137 -17.0132 -17.0127 -17.0123 -17.0120 -17.0109 -17.0105 -17.0105
   -17.0100 -17.0092 -17.0083 -17.0076 -17.0069 -17.0057 -17.0055 -17.0051
   -17.0040 -17.0024 -17.0014 -17.0009 -16.9998 -16.9996 -16.9990 -16.9983
   -16.9978 -16.9977 -16.9966 -16.9956 -16.9954 -16.9941 -16.9940 -16.9936
   -16.9930 -16.9922 -16.9912 -16.9909 -16.9908 -16.9898 -16.9894 -16.9889
   -16.9883 -16.9875 -16.9867 -16.9866 -16.9861 -16.9848 -16.9844 -16.9832
   -16.9817 -16.9815 -16.9809 -16.9808 -16.9799 -16.9797 -16.9787 -16.9779
   -16.9768 -16.9766 -16.9759 -16.9752 -16.9744 -16.9739 -16.9724 -16.9722
   -16.9714 -16.9710 -16.9706 -16.9700 -16.9693 -16.9678 -16.9665 -16.9660
   -16.9644 -16.9639 -16.9633 -16.9625 -16.9617 -16.9612 -16.9608 -16.9605
   -16.9593 -16.9592 -16.9584 -16.9579 -16.9576 -16.9571 -16.9569 -16.9564
   -16.9562 -16.9555 -16.9545 -16.9537 -16.9527 -16.9521 -16.9504 -16.9491
   -16.9487 -16.9476 -16.9470 -16.9465 -16.9448 -16.9435 -16.9425 -16.9418
   -16.9406 -16.9401 -16.9392 -16.9378 -16.9375 -16.9360 -16.9347 -16.9344
   -16.9338 -16.9332 -16.9324 -16.9299 -16.9291 -16.9281 -16.9270 -16.9255
   -16.9237 -16.9231 -16.9226 -16.9213 -16.9194 -16.9179 -16.9144 -16.9130
   -16.9112 -16.9101 -16.9087 -16.9069 -16.9054 -16.9053 -16.9035 -16.9003
   -16.8994 -16.8989 -16.8984 -16.8974 -16.8972 -16.8953 -16.8934 -16.8920
   -16.8912 -16.8895 -16.8868 -16.8860 -16.8852 -16.8814 -16.8795 -16.8792
   -16.8782 -16.8768 -16.8756 -16.8733 -16.8686 -16.8656 -16.8643 -16.8635
   -16.8615 -16.8544  -4.9678  -4.8538  -4.6748  -4.6477  -4.6161  -4.5520
    -4.0359  -4.0120  -3.9759  -3.9750  -3.9094  -3.8508  -3.7819  -3.7283
    -3.6673  -3.6346  -3.6218  -3.5764  -3.5272  -3.5008  -3.4579  -3.4278
    -3.1393  -3.1086  -3.0887  -3.0506  -3.0017  -2.9710  -2.8887  -2.8473
    -2.8312  -2.8035  -2.6879  -2.6581  -2.6297  -2.5551  -2.5251  -2.4960
    -2.4619  -2.4168  -2.3810  -2.3309  -2.2853  -2.2764  -2.2540  -2.1915
    -2.1636  -2.1391  -2.0903  -2.0107  -2.0054  -1.9395  -1.8991  -1.8625
    -1.8089  -1.7889  -1.4769  -1.4169  -1.3827  -1.3559  -1.0218  -0.9976
    -0.9405  -0.9275  -0.9033  -0.8722  -0.8138  -0.7552  -0.4684  -0.4254
    -0.3559  -0.3400   0.0077   0.0419   0.0714   0.0926   0.0980   0.1128
     0.1337   0.1799   0.2113   0.2577   0.2914   0.3025   0.3452   0.3618
     0.3744   0.4157   0.5329   0.5764   0.5944   0.6134   0.6497   0.6614
     0.6910   0.7378   0.7902   0.8166   0.8397   0.8954   0.9308   0.9689
     1.0030   1.0208   1.1687   1.2383   1.6141   1.6710   1.6868   1.7098
     1.7422   1.7476   1.7751   1.7995   2.5168   2.5599   2.6007   2.6054
     2.6324   2.6370   2.6717   2.7368   3.0137   3.0182   3.0213   3.0255
     3.0647   3.0712   3.0774   3.0795   3.0824   3.0903   3.0970   3.0977
     3.7391   3.7422   3.7459   3.7497   3.7614   3.7741   3.7785   3.7861
     3.8624   3.8673   3.8696   3.8762   3.8789   3.8818   3.8862   3.8903
     3.9134   3.9152   3.9175   3.9198   3.9206   3.9347   3.9358   3.9413
     4.2663   4.2822   4.3092   4.3422   4.5138   4.5175   4.5216   4.5270
     4.5324   4.5401   4.5476   4.5485   4.5676   4.5706   4.5708   4.5764
     4.5831   4.5865   4.5927   4.6048   4.6593   4.6648   4.6703   4.6735
     4.6871   4.6970   4.7056   4.7118   4.7181   4.7226   4.7279   4.7297
     4.7386   4.7455   4.7480   4.7601   4.7667   4.7683   4.7794   4.7851
     4.8416   4.8439   4.8587   4.8664   5.1230   5.1307   5.1424   5.1446
     5.1495   5.1519   5.1535   5.1589   5.3311   5.3478   5.3559   5.3717
     5.3836   5.3854   5.3898   5.3999   5.6134   5.6563   5.6697   5.6795
     5.6915   5.7033   5.7101   5.7112   5.7156   5.7220   5.7245   5.7349
     5.7438   5.7675   5.8452   5.8578   5.8614   5.8757   5.8805   5.8889
     5.9016   5.9136   6.0081   6.0168   6.0275   6.0393   6.0574   6.0624
     6.0720   6.0825   6.5465   6.5577   6.5806   6.5887   7.0748   7.0816
     7.0921   7.1039   7.8923   7.9278   8.4777   8.4967   8.5152   8.5185
     8.8651   8.8885   9.1120   9.1255   9.1366   9.1424   9.1503   9.1749
     9.1817   9.1865   9.2001   9.2056   9.2125   9.2321   9.2485   9.2530
     9.2635   9.2765   9.2821   9.2860   9.2999   9.3038   9.3158   9.3234
     9.3331   9.3388   9.3465   9.3564   9.3641   9.3821   9.3885   9.4039
     9.4358   9.4473   9.4696   9.4725   9.6833   9.7038   9.7346   9.7425
     9.7535   9.7568   9.7625   9.7721   9.7857   9.8180   9.8377   9.8805
     9.9105   9.9435   9.9581   9.9642   9.9833   9.9993  10.0018  10.0184
    10.0706  10.0859  10.0975  10.1023  10.1216  10.1323  10.1448  10.1502
    10.1593  10.1835  10.1870  10.1945  10.2087  10.2336  10.2522  10.2676
    10.4494  10.4728  10.4834  10.5087  10.5554  10.5571  10.5747  10.5922
    10.5994  10.6212  10.6265  10.6406  10.6509  10.6687  10.6773  10.6882
    10.7014  10.7117  10.7293  10.7530  10.7681  10.7773  10.7852  10.8094
    10.8153  10.8217  10.8303  10.8364  10.8489  10.8601  10.8695  10.8804
    10.9127  10.9268  10.9888  11.0039  11.0204  11.0378  11.0642

     occupation numbers 
     1.0000   1.0000   1.0000   1.0000   1.0000   1.0000   1.0000   1.0000
     1.0000   1.0000   1.0000   1.0000   1.0000   1.0000   1.0000   1.0000
     1.0000   1.0000   1.0000   1.0000   1.0000   1.0000   1.0000   1.0000
     1.0000   1.0000   1.0000   1.0000   1.0000   1.0000   1.0000   1.0000
     1.0000   1.0000   1.0000   1.0000   1.0000   1.0000   1.0000   1.0000
     1.0000   1.0000   1.0000   1.0000   1.0000   1.0000   1.0000   1.0000
     1.0000   1.0000   1.0000   1.0000   1.0000   1.0000   1.0000   1.0000
     1.0000   1.0000   1.0000   1.0000   1.0000   1.0000   1.0000   1.0000
     1.0000   1.0000   1.0000   1.0000   1.0000   1.0000   1.0000   1.0000
     1.0000   1.0000   1.0000   1.0000   1.0000   1.0000   1.0000   1.0000
     1.0000   1.0000   1.0000   1.0000   1.0000   1.0000   1.0000   1.0000
     1.0000   1.0000   1.0000   1.0000   1.0000   1.0000   1.0000   1.0000
     1.0000   1.0000   1.0000   1.0000   1.0000   1.0000   1.0000   1.0000
     1.0000   1.0000   1.0000   1.0000   1.0000   1.0000   1.0000   1.0000
     1.0000   1.0000   1.0000   1.0000   1.0000   1.0000   1.0000   1.0000
     1.0000   1.0000   1.0000   1.0000   1.0000   1.0000   1.0000   1.0000
     1.0000   1.0000   1.0000   1.0000   1.0000   1.0000   1.0000   1.0000
     1.0000   1.0000   1.0000   1.0000   1.0000   1.0000   1.0000   1.0000
     1.0000   1.0000   1.0000   1.0000   1.0000   1.0000   1.0000   1.0000
     1.0000   1.0000   1.0000   1.0000   1.0000   1.0000   1.0000   1.0000
     1.0000   1.0000   1.0000   1.0000   1.0000   1.0000   1.0000   1.0000
     1.0000   1.0000   1.0000   1.0000   1.0000   1.0000   1.0000   1.0000
     1.0000   1.0000   1.0000   1.0000   1.0000   1.0000   1.0000   1.0000
     1.0000   1.0000   1.0000   1.0000   1.0000   1.0000   1.0000   1.0000
     1.0000   1.0000   1.0000   1.0000   1.0000   1.0000   1.0000   1.0000
     1.0000   1.0000   1.0000   1.0000   1.0000   1.0000   1.0000   1.0000
     1.0000   1.0000   1.0000   1.0000   1.0000   1.0000   1.0000   1.0000
     1.0000   1.0000   1.0000   1.0000   1.0000   1.0000   1.0000   1.0000
     1.0000   1.0000   1.0000   1.0000   1.0000   1.0000   1.0000   1.0000
     1.0000   1.0000   1.0000   1.0000   1.0000   1.0000   1.0000   1.0000
     1.0000   1.0000   1.0000   1.0000   1.0000   1.0000   1.0000   1.0000
     1.0000   1.0000   1.0000   1.0000   1.0000   1.0000   1.0000   1.0000
     1.0000   1.0000   1.0000   1.0000   1.0000   1.0000   1.0000   1.0000
     1.0000   1.0000   1.0000   1.0000   1.0000   1.0000   1.0000   1.0000
     1.0000   1.0000   1.0000   1.0000   1.0000   1.0000   1.0000   1.0000
     1.0000   1.0000   1.0000   1.0000   1.0000   1.0000   1.0000   1.0000
     1.0000   1.0000   1.0000   1.0000   1.0000   1.0000   1.0000   1.0000
     1.0000   1.0000   1.0000   1.0000   1.0000   1.0000   1.0000   1.0000
     1.0000   1.0000   1.0000   1.0000   1.0000   1.0000   1.0000   1.0000
     1.0000   1.0000   1.0000   1.0000   1.0000   1.0000   1.0000   1.0000
     1.0000   1.0000   1.0000   1.0000   1.0000   1.0000   1.0000   1.0000
     1.0000   1.0000   1.0000   1.0000   1.0000   1.0000   1.0000   1.0000
     1.0000   1.0000   1.0000   1.0000   1.0000   1.0000   1.0000   1.0000
     1.0000   1.0000   1.0000   1.0000   1.0000   1.0000   1.0000   1.0000
     1.0000   1.0000   1.0000   1.0000   1.0000   1.0000   1.0000   1.0000
     1.0000   1.0000   1.0000   1.0000   1.0000   1.0000   1.0000   1.0000
     1.0000   1.0000   1.0000   1.0000   1.0000   1.0000   1.0000   1.0000
     1.0000   1.0000   1.0000   1.0000   1.0000   1.0000   1.0000   1.0000
     1.0000   1.0000   1.0000   1.0000   1.0000   1.0000   1.0000   1.0000
     1.0000   1.0000   1.0000   1.0000   1.0000   1.0000   1.0000   1.0000
     1.0000   1.0000   1.0000   1.0000   1.0000   1.0000   1.0000   1.0000
     1.0000   1.0000   1.0000   1.0000   1.0000   1.0000   1.0000   1.0000
     1.0000   1.0000   1.0000   1.0000   1.0000   1.0000   1.0000   1.0000
     1.0000   1.0000   1.0000   1.0000   1.0000   1.0000   1.0000   1.0000
     1.0000   1.0000   1.0000   1.0000   1.0000   1.0000   1.0000   1.0000
     1.0000   1.0000   1.0000   1.0000   1.0000   1.0000   1.0000   1.0000
     1.0000   1.0000   1.0000   1.0000   1.0000   1.0000   1.0000   1.0000
     1.0000   1.0000   1.0000   1.0000   1.0000   1.0000   1.0000   1.0000
     1.0000   1.0000   1.0000   1.0000   1.0000   1.0000   1.0000   1.0000
     1.0000   1.0000   1.0000   1.0000   1.0000   1.0000   1.0000   1.0000
     1.0000   1.0000   1.0000   1.0000   1.0000   1.0000   1.0000   1.0000
     1.0000   1.0000   1.0000   1.0000   1.0000   1.0000   1.0000   1.0000
     1.0000   1.0000   1.0000   1.0000   1.0000   1.0000   1.0000   1.0000
     1.0000   1.0000   1.0000   1.0000   1.0000   1.0000   1.0000   1.0000
     1.0000   1.0000   1.0000   1.0000   1.0000   1.0000   1.0000   1.0000
     1.0000   1.0000   1.0000   1.0000   1.0000   1.0000   1.0000   1.0000
     1.0000   1.0000   1.0000   1.0000   1.0000   1.0000   1.0000   1.0000
     1.0000   1.0000   1.0000   1.0000   1.0000   1.0000   1.0000   1.0000
     1.0000   1.0000   1.0000   1.0000   1.0000   1.0000   1.0000   1.0000
     1.0000   1.0000   1.0000   1.0000   1.0000   1.0000   1.0000   1.0000
     1.0000   1.0000   1.0000   1.0000   1.0000   1.0000   1.0000   1.0000
     1.0000   1.0000   1.0000   1.0000   1.0000   1.0000   1.0000   1.0000
     1.0000   1.0000   1.0000   1.0000   1.0000   1.0000   1.0000   1.0000
     0.9999   0.9999   0.0421   0.0243   0.0000   0.0000   0.0000   0.0000
     0.0000   0.0000   0.0000   0.0000   0.0000   0.0000   0.0000   0.0000
     0.0000   0.0000   0.0000   0.0000   0.0000   0.0000   0.0000   0.0000
     0.0000   0.0000   0.0000   0.0000   0.0000   0.0000   0.0000   0.0000
     0.0000   0.0000   0.0000   0.0000   0.0000   0.0000   0.0000   0.0000
     0.0000   0.0000   0.0000   0.0000   0.0000   0.0000   0.0000   0.0000
     0.0000   0.0000   0.0000   0.0000   0.0000   0.0000   0.0000   0.0000
     0.0000   0.0000   0.0000   0.0000   0.0000   0.0000   0.0000   0.0000
     0.0000   0.0000   0.0000   0.0000   0.0000   0.0000   0.0000   0.0000
     0.0000   0.0000   0.0000   0.0000   0.0000   0.0000   0.0000   0.0000
     0.0000   0.0000   0.0000   0.0000   0.0000   0.0000   0.0000   0.0000
     0.0000   0.0000   0.0000   0.0000   0.0000   0.0000   0.0000   0.0000
     0.0000   0.0000   0.0000   0.0000   0.0000   0.0000   0.0000   0.0000
     0.0000   0.0000   0.0000   0.0000   0.0000   0.0000   0.0000   0.0000
     0.0000   0.0000   0.0000   0.0000   0.0000   0.0000   0.0000

          k = 0.3536 0.3536 0.3536 ( 64114 PWs)   bands (ev):

   -17.3067 -17.3035 -17.2998 -17.2988 -17.2975 -17.2926 -17.2904 -17.2885
   -17.2873 -17.2811 -17.2774 -17.2759 -17.2753 -17.2746 -17.2699 -17.2671
   -17.2636 -17.2624 -17.2597 -17.2578 -17.2566 -17.2562 -17.2511 -17.2495
   -17.2483 -17.2464 -17.2456 -17.2359 -17.2352 -17.2351 -17.2304 -17.2271
   -17.2266 -17.2237 -17.2203 -17.2174 -17.2130 -17.2122 -17.2091 -17.2070
   -17.2049 -17.2019 -17.1995 -17.1977 -17.1969 -17.1943 -17.1922 -17.1911
   -17.1869 -17.1858 -17.1837 -17.1809 -17.1800 -17.1779 -17.1748 -17.1744
   -17.1732 -17.1719 -17.1711 -17.1705 -17.1682 -17.1665 -17.1642 -17.1631
   -17.1612 -17.1607 -17.1585 -17.1574 -17.1524 -17.1490 -17.1486 -17.1470
   -17.1448 -17.1411 -17.1388 -17.1380 -17.1374 -17.1355 -17.1323 -17.1280
   -17.1273 -17.1256 -17.1244 -17.1227 -17.1218 -17.1201 -17.1190 -17.1177
   -17.1144 -17.1121 -17.1116 -17.1102 -17.1079 -17.1055 -17.1043 -17.1031
   -17.1027 -17.1016 -17.1011 -17.0984 -17.0979 -17.0942 -17.0931 -17.0923
   -17.0903 -17.0903 -17.0899 -17.0857 -17.0841 -17.0835 -17.0819 -17.0813
   -17.0797 -17.0778 -17.0766 -17.0758 -17.0753 -17.0739 -17.0721 -17.0710
   -17.0704 -17.0697 -17.0687 -17.0684 -17.0674 -17.0652 -17.0631 -17.0612
   -17.0611 -17.0593 -17.0590 -17.0585 -17.0545 -17.0531 -17.0517 -17.0509
   -17.0501 -17.0473 -17.0460 -17.0452 -17.0441 -17.0437 -17.0413 -17.0411
   -17.0403 -17.0393 -17.0361 -17.0345 -17.0343 -17.0333 -17.0321 -17.0310
   -17.0294 -17.0285 -17.0281 -17.0262 -17.0255 -17.0248 -17.0235 -17.0230
   -17.0223 -17.0213 -17.0199 -17.0195 -17.0181 -17.0176 -17.0169 -17.0145
   -17.0136 -17.0128 -17.0128 -17.0125 -17.0118 -17.0115 -17.0106 -17.0105
   -17.0102 -17.0099 -17.0088 -17.0084 -17.0061 -17.0058 -17.0055 -17.0049
   -17.0044 -17.0023 -17.0016 -17.0011 -17.0001 -16.9995 -16.9989 -16.9986
   -16.9981 -16.9975 -16.9958 -16.9953 -16.9949 -16.9943 -16.9941 -16.9937
   -16.9933 -16.9925 -16.9913 -16.9911 -16.9906 -16.9898 -16.9896 -16.9892
   -16.9887 -16.9869 -16.9867 -16.9865 -16.9854 -16.9850 -16.9840 -16.9828
   -16.9823 -16.9815 -16.9810 -16.9806 -16.9800 -16.9797 -16.9791 -16.9783
   -16.9770 -16.9758 -16.9755 -16.9753 -16.9741 -16.9734 -16.9727 -16.9722
   -16.9719 -16.9710 -16.9704 -16.9696 -16.9693 -16.9685 -16.9668 -16.9656
   -16.9647 -16.9641 -16.9637 -16.9625 -16.9617 -16.9613 -16.9607 -16.9598
   -16.9596 -16.9593 -16.9590 -16.9582 -16.9578 -16.9571 -16.9569 -16.9564
   -16.9560 -16.9556 -16.9541 -16.9530 -16.9523 -16.9512 -16.9504 -16.9498
   -16.9486 -16.9473 -16.9469 -16.9464 -16.9454 -16.9440 -16.9425 -16.9412
   -16.9405 -16.9399 -16.9389 -16.9382 -16.9370 -16.9354 -16.9346 -16.9343
   -16.9336 -16.9317 -16.9315 -16.9301 -16.9285 -16.9282 -16.9267 -16.9252
[...]
     atom   77 type  2   force =   0.00000000E+00  0.00000000E+00  0.00000000E+00
     atom   78 type  1   force =   0.00000000E+00  0.00000000E+00  0.00000000E+00
     atom   79 type  2   force =   0.00000000E+00  0.00000000E+00  0.00000000E+00
     atom   80 type  2   force =   0.00000000E+00  0.00000000E+00  0.00000000E+00
     atom   81 type  2   force =   0.00000000E+00  0.00000000E+00  0.00000000E+00
     atom   82 type  2   force =   0.00000000E+00  0.00000000E+00  0.00000000E+00
     atom   83 type  1   force =   0.00000000E+00  0.00000000E+00  0.00000000E+00
     atom   84 type  2   force =   0.00000000E+00  0.00000000E+00  0.00000000E+00
     atom   85 type  2   force =   0.00000000E+00  0.00000000E+00  0.00000000E+00
     atom   86 type  1   force =   0.00000000E+00  0.00000000E+00  0.00000000E+00
     atom   87 type  1   force =   0.00000000E+00  0.00000000E+00  0.00000000E+00
     atom   88 type  1   force =   0.00000000E+00  0.00000000E+00  0.00000000E+00
     atom   89 type  2   force =   0.00000000E+00  0.00000000E+00  0.00000000E+00
     atom   90 type  1   force =   0.00000000E+00  0.00000000E+00  0.00000000E+00
     atom   91 type  2   force =   0.00000000E+00  0.00000000E+00  0.00000000E+00
     atom   92 type  2   force =   0.00000000E+00  0.00000000E+00  0.00000000E+00
     atom   93 type  2   force =   0.00000000E+00  0.00000000E+00  0.00000000E+00
     atom   94 type  1   force =   0.00000000E+00  0.00000000E+00  0.00000000E+00
     atom   95 type  1   force =   0.00000000E+00  0.00000000E+00  0.00000000E+00
     atom   96 type  1   force =   0.00000000E+00  0.00000000E+00  0.00000000E+00
     atom   97 type  1   force =   0.00000000E+00  0.00000000E+00  0.00000000E+00
     atom   98 type  2   force =   0.00000000E+00  0.00000000E+00  0.00000000E+00
     atom   99 type  1   force =   0.00000000E+00  0.00000000E+00  0.00000000E+00
     atom  100 type  1   force =   0.00000000E+00  0.00000000E+00  0.00000000E+00
     atom  101 type  2   force =   0.00000000E+00  0.00000000E+00  0.00000000E+00
     atom  102 type  1   force =   0.00000000E+00  0.00000000E+00  0.00000000E+00
     atom  103 type  1   force =   0.00000000E+00  0.00000000E+00  0.00000000E+00
     atom  104 type  1   force =   0.00000000E+00  0.00000000E+00  0.00000000E+00
     atom  105 type  2   force =   0.00000000E+00  0.00000000E+00  0.00000000E+00
     atom  106 type  2   force =   0.00000000E+00  0.00000000E+00  0.00000000E+00
     atom  107 type  1   force =   0.00000000E+00  0.00000000E+00  0.00000000E+00
     atom  108 type  1   force =   0.00000000E+00  0.00000000E+00  0.00000000E+00
     atom  109 type  1   force =   0.00000000E+00  0.00000000E+00  0.00000000E+00
     atom  110 type  2   force =   0.00000000E+00  0.00000000E+00  0.00000000E+00
     atom  111 type  1   force =   0.00000000E+00  0.00000000E+00  0.00000000E+00
     atom  112 type  1   force =   0.00000000E+00  0.00000000E+00  0.00000000E+00
     atom  113 type  1   force =   0.00000000E+00  0.00000000E+00  0.00000000E+00
     atom  114 type  2   force =   0.00000000E+00  0.00000000E+00  0.00000000E+00
     atom  115 type  2   force =   0.00000000E+00  0.00000000E+00  0.00000000E+00
     atom  116 type  2   force =   0.00000000E+00  0.00000000E+00  0.00000000E+00
     atom  117 type  2   force =   0.00000000E+00  0.00000000E+00  0.00000000E+00
     atom  118 type  1   force =   0.00000000E+00  0.00000000E+00  0.00000000E+00
     atom  119 type  1   force =   0.00000000E+00  0.00000000E+00  0.00000000E+00
     atom  120 type  1   force =   0.00000000E+00  0.00000000E+00  0.00000000E+00
     atom  121 type  2   force =   0.00000000E+00  0.00000000E+00  0.00000000E+00
     atom  122 type  1   force =   0.00000000E+00  0.00000000E+00  0.00000000E+00
     atom  123 type  2   force =   0.00000000E+00  0.00000000E+00  0.00000000E+00
     atom  124 type  2   force =   0.00000000E+00  0.00000000E+00  0.00000000E+00
     atom  125 type  2   force =   0.00000000E+00  0.00000000E+00  0.00000000E+00
     atom  126 type  2   force =   0.00000000E+00  0.00000000E+00  0.00000000E+00
     atom  127 type  2   force =   0.00000000E+00  0.00000000E+00  0.00000000E+00
     atom  128 type  1   force =   0.00000000E+00  0.00000000E+00  0.00000000E+00
     The SCF correction term to forces
     atom    1 type  2   force =  -0.59343086E-06 -0.41822953E-05  0.23802150E-05
     atom    2 type  2   force =   0.43653035E-05 -0.40166460E-05 -0.21657703E-05
     atom    3 type  1   force =   0.22320811E-05 -0.77591001E-07 -0.83293174E-06
     atom    4 type  2   force =   0.77148074E-05  0.74258859E-06 -0.67335041E-05
     atom    5 type  1   force =   0.92643989E-06  0.40653727E-06 -0.16544903E-05
     atom    6 type  1   force =  -0.13829263E-06 -0.62237636E-06 -0.16891259E-05
     atom    7 type  2   force =  -0.60580750E-05 -0.39058798E-05 -0.15110860E-05
     atom    8 type  1   force =  -0.45422091E-06 -0.93269460E-06 -0.32362615E-06
     atom    9 type  1   force =   0.71979387E-06 -0.18394384E-07  0.79241806E-06
     atom   10 type  1   force =   0.11354537E-05 -0.17528652E-05  0.40011390E-06
     atom   11 type  1   force =  -0.14214264E-06  0.10359985E-06 -0.40673939E-06
     atom   12 type  2   force =   0.18682305E-05 -0.41513649E-06 -0.69064005E-05
     atom   13 type  2   force =  -0.51301837E-05  0.60838214E-05 -0.37729214E-05
     atom   14 type  2   force =  -0.88460138E-06 -0.81477095E-06 -0.64658797E-05
     atom   15 type  1   force =  -0.84855367E-06  0.12536863E-06 -0.13741957E-06
     atom   16 type  2   force =   0.45357602E-05 -0.21865036E-05  0.15961524E-05
     atom   17 type  2   force =  -0.19359516E-05 -0.79589242E-05  0.44951300E-05
     atom   18 type  1   force =  -0.13295299E-05 -0.27566321E-05 -0.10350422E-05
     atom   19 type  2   force =  -0.61351647E-05 -0.54274321E-05 -0.24642906E-05
     atom   20 type  1   force =   0.76993858E-06 -0.76958169E-06 -0.17736592E-05
     atom   21 type  1   force =   0.15484481E-05  0.84253636E-06 -0.73407423E-06
     atom   22 type  1   force =   0.38008191E-05 -0.48730476E-06 -0.10737616E-05
     atom   23 type  1   force =   0.29589175E-05 -0.79110697E-07  0.14633280E-05
     atom   24 type  2   force =   0.70373971E-05 -0.36887765E-05  0.10842416E-05
     atom   25 type  1   force =  -0.21859434E-05 -0.17605669E-05 -0.52552456E-06
     atom   26 type  2   force =  -0.16060972E-05 -0.83555344E-05  0.15315067E-05
     atom   27 type  1   force =   0.16982988E-05 -0.60284432E-06 -0.27981966E-06
     atom   28 type  1   force =   0.39511955E-05 -0.73597291E-06 -0.19193324E-05
     atom   29 type  2   force =   0.15796643E-04 -0.19537030E-05 -0.89932767E-05
     atom   30 type  2   force =   0.12745254E-04 -0.44861874E-05 -0.99771862E-05
     atom   31 type  1   force =   0.62530503E-07 -0.92270190E-06 -0.15223645E-05
     atom   32 type  1   force =  -0.10495936E-05 -0.23560813E-05 -0.16242061E-05
     atom   33 type  2   force =   0.60406415E-06 -0.47107507E-05  0.58451963E-05
     atom   34 type  1   force =  -0.74135021E-06  0.16974167E-06  0.14954695E-05
     atom   35 type  2   force =   0.63878230E-05 -0.43946559E-05  0.12881334E-05
     atom   36 type  2   force =   0.87725120E-06  0.40155192E-05 -0.58818120E-06
     atom   37 type  1   force =   0.11188284E-05 -0.88322002E-06 -0.13602748E-05
     atom   38 type  2   force =  -0.16850154E-05  0.31716033E-05 -0.13519110E-05
     atom   39 type  1   force =   0.76865285E-08 -0.44123397E-06  0.27265310E-06
     atom   40 type  1   force =  -0.12311157E-05  0.41901904E-06  0.15372126E-05
     atom   41 type  1   force =  -0.26212126E-06 -0.11431863E-05  0.33316718E-07
     atom   42 type  1   force =  -0.93900347E-06 -0.52004678E-06  0.10734871E-06
     atom   43 type  1   force =  -0.16723571E-06 -0.11234220E-06 -0.16259282E-05
     atom   44 type  1   force =  -0.98277272E-06  0.12004264E-05 -0.11277237E-05
     atom   45 type  2   force =   0.24366543E-05  0.12112561E-05 -0.57485412E-05
     atom   46 type  2   force =  -0.30172355E-05  0.81883363E-05 -0.31830542E-05
     atom   47 type  1   force =   0.85723492E-07  0.69737898E-06  0.18046445E-06
     atom   48 type  1   force =   0.24262854E-07 -0.34700484E-06  0.69371351E-06
     atom   49 type  2   force =  -0.95806083E-06 -0.10759432E-04 -0.19951030E-05
     atom   50 type  2   force =  -0.51112282E-05 -0.42285602E-05  0.37609485E-05
     atom   51 type  1   force =  -0.72972229E-06 -0.25525023E-06 -0.73779973E-06
     atom   52 type  1   force =  -0.42579406E-06  0.92190998E-06 -0.49506022E-06
     atom   53 type  2   force =   0.84691174E-05  0.29888616E-05 -0.94354345E-05
     atom   54 type  2   force =   0.11684503E-04  0.64848728E-05 -0.77615757E-05
     atom   55 type  2   force =   0.92681876E-05 -0.34072022E-05 -0.82316501E-05
     atom   56 type  2   force =  -0.36311516E-05 -0.66630313E-05 -0.40728030E-05
     atom   57 type  2   force =  -0.30631498E-05 -0.56244789E-05  0.63632068E-06
     atom   58 type  2   force =  -0.69206587E-05 -0.42703174E-05  0.80924665E-05
     atom   59 type  2   force =   0.59662636E-05 -0.54052586E-05  0.28973625E-06
     atom   60 type  2   force =   0.87102209E-05  0.18689897E-05  0.48450733E-05
     atom   61 type  2   force =   0.12919041E-04 -0.16862280E-05 -0.78840596E-05
     atom   62 type  1   force =   0.22624628E-05 -0.98693282E-06 -0.10519506E-05
     atom   63 type  2   force =   0.15904372E-05 -0.48749408E-05 -0.73923017E-05
     atom   64 type  2   force =  -0.10405169E-05 -0.26557236E-05  0.33017431E-05
     atom   65 type  2   force =  -0.75975769E-05 -0.19226381E-05  0.72912542E-05
     atom   66 type  2   force =  -0.42498494E-05 -0.19578699E-05 -0.17492045E-05
     atom   67 type  2   force =   0.62170770E-06 -0.15168566E-05  0.38157461E-05
     atom   68 type  2   force =  -0.45415376E-07  0.32123719E-05 -0.30972856E-05
     atom   69 type  1   force =   0.57972575E-06  0.18674533E-05  0.11780140E-05
     atom   70 type  1   force =  -0.60867033E-06  0.25209172E-05  0.61802060E-07
     atom   71 type  1   force =  -0.12706553E-05  0.13685491E-05  0.21075234E-05
     atom   72 type  2   force =  -0.74687787E-05  0.19037329E-05  0.21142022E-06
     atom   73 type  1   force =  -0.15475036E-05  0.26655155E-06 -0.11818868E-06
     atom   74 type  2   force =  -0.19063761E-05 -0.56998598E-06 -0.12252702E-05
     atom   75 type  1   force =  -0.12614022E-05  0.12081035E-05 -0.57842306E-06
     atom   76 type  2   force =  -0.21806263E-05  0.64062381E-05 -0.45313615E-05
     atom   77 type  2   force =  -0.31787238E-05  0.12905174E-04 -0.67958837E-05
     atom   78 type  1   force =  -0.10554367E-05  0.20526584E-05 -0.19304456E-05
     atom   79 type  2   force =  -0.70695546E-05  0.37752910E-05 -0.48717593E-05
     atom   80 type  2   force =  -0.32552628E-05 -0.14246413E-05 -0.44914333E-05
     atom   81 type  2   force =  -0.38616140E-05  0.94648943E-06  0.26726383E-05
     atom   82 type  2   force =  -0.53576941E-05  0.13621102E-05  0.91760248E-05
     atom   83 type  1   force =  -0.15089358E-05  0.96218664E-06  0.12401417E-05
     atom   84 type  2   force =  -0.52547521E-05  0.23213328E-05  0.54815245E-05
     atom   85 type  2   force =  -0.23336455E-05  0.52292679E-05 -0.51533770E-05
     atom   86 type  1   force =   0.54617893E-06  0.12181220E-05 -0.12300259E-05
     atom   87 type  1   force =  -0.69584849E-07 -0.27964803E-06 -0.96193276E-06
     atom   88 type  1   force =   0.24529981E-06 -0.19136161E-06  0.65598419E-06
     atom   89 type  2   force =  -0.67783714E-05  0.23485837E-06  0.13884076E-04
     atom   90 type  1   force =  -0.14772406E-05 -0.11049772E-05  0.26906995E-05
     atom   91 type  2   force =  -0.54416480E-05 -0.12301201E-05  0.81629081E-05
     atom   92 type  2   force =   0.11073428E-05 -0.59201853E-05  0.80969585E-05
     atom   93 type  2   force =   0.58173385E-05  0.14433361E-05  0.20095942E-05
     atom   94 type  1   force =   0.20441355E-05  0.14362876E-05  0.22223430E-05
     atom   95 type  1   force =   0.62583883E-06  0.46420134E-06  0.23731722E-05
     atom   96 type  1   force =  -0.65291530E-06  0.45014484E-06  0.33896389E-05
     atom   97 type  1   force =  -0.10637371E-05 -0.12669838E-05 -0.50725507E-07
     atom   98 type  2   force =  -0.26220992E-05  0.13877470E-05 -0.18694008E-06
     atom   99 type  1   force =   0.14060207E-05  0.78043275E-06  0.48993299E-07
     atom  100 type  1   force =   0.89539379E-06  0.19976759E-05 -0.15017778E-05
     atom  101 type  2   force =   0.29673048E-06  0.79404865E-05 -0.73800397E-05
     atom  102 type  1   force =  -0.10885330E-05  0.11902279E-05 -0.19199405E-05
     atom  103 type  1   force =  -0.16880399E-05 -0.32077363E-06 -0.12260985E-05
     atom  104 type  1   force =  -0.21331032E-05 -0.49891763E-06 -0.90369527E-06
     atom  105 type  2   force =  -0.17755960E-05 -0.24155710E-07 -0.14141319E-05
     atom  106 type  2   force =   0.18138737E-05  0.10822542E-05  0.66972107E-05
     atom  107 type  1   force =  -0.54740666E-06  0.16244029E-05 -0.24948664E-06
     atom  108 type  1   force =  -0.76215841E-06  0.90895658E-06  0.16682237E-06
     atom  109 type  1   force =  -0.11394529E-05  0.15063771E-05 -0.20316796E-05
     atom  110 type  2   force =  -0.84645456E-05  0.58559882E-05 -0.32262795E-05
     atom  111 type  1   force =  -0.14374374E-05  0.33170044E-06 -0.11867332E-05
     atom  112 type  1   force =  -0.95043131E-06  0.58764851E-06  0.30227289E-06
     atom  113 type  1   force =   0.38883993E-07  0.60926204E-07  0.29348835E-05
     atom  114 type  2   force =  -0.87306244E-05 -0.15873345E-06  0.63703186E-05
     atom  115 type  2   force =  -0.74316041E-05 -0.13201814E-05  0.56630116E-05
     atom  116 type  2   force =  -0.71721088E-05 -0.13942070E-05  0.20493372E-05
     atom  117 type  2   force =  -0.19901476E-05  0.25072375E-05  0.17781973E-05
     atom  118 type  1   force =   0.14196127E-05  0.90215862E-06  0.13947903E-05
     atom  119 type  1   force =   0.10386468E-05  0.58223132E-06  0.17528364E-05
     atom  120 type  1   force =   0.17231323E-05  0.34970186E-06  0.29609164E-05
     atom  121 type  2   force =  -0.99882859E-05 -0.50669118E-05  0.47983395E-05
     atom  122 type  1   force =  -0.20364037E-05 -0.14974992E-05  0.50517193E-06
     atom  123 type  2   force =  -0.34560903E-05 -0.13180270E-05  0.12516198E-05
     atom  124 type  2   force =   0.88780488E-05  0.22446763E-05  0.57252698E-06
     atom  125 type  2   force =   0.13155078E-04  0.88407173E-05  0.78926706E-05
     atom  126 type  2   force =   0.74334754E-05  0.43183994E-05  0.27148430E-05
     atom  127 type  2   force =  -0.47944021E-06 -0.15686870E-05  0.10310060E-04
     atom  128 type  1   force =  -0.18254786E-05 -0.73443715E-06  0.82313032E-06

     Total force =     0.246890     Total SCF correction =     0.000078


     entering subroutine stress ...

          total   stress  (Ry/bohr**3)                   (kbar)     P=    4.45
   0.0000299937  -0.0000074260  -0.0000067827          4.41     -1.09     -1.00
  -0.0000074260   0.0000303449   0.0000020728         -1.09      4.46      0.30
  -0.0000067827   0.0000020728   0.0000304001         -1.00      0.30      4.47

     kinetic stress (kbar)   6550.00      0.88      1.04
                                0.88   6550.01     -0.13
                                1.04     -0.13   6550.00

     local   stress (kbar)  -5755.49    885.97  -1468.86
                              885.97  -6381.77  -2939.82
                            -1468.86  -2939.82  -4592.39

     nonloc. stress (kbar)   2518.30     -0.57     -1.04
                               -0.57   2518.36     -0.11
                               -1.04     -0.11   2518.30

     hartree stress (kbar)  17944.06   -413.00    728.64
                             -413.00  18257.45   1434.71
                              728.64   1434.71  17377.59

     exc-cor stress (kbar)  11249.46     -0.03     -0.04
                               -0.03  11249.45     -0.00
                               -0.04     -0.00  11249.46

     corecor stress (kbar) -17065.20      0.06      0.06
                                0.06 -17065.21     -0.03
                                0.06     -0.03 -17065.20

     ewald   stress (kbar) -15436.72   -474.40    739.19
                             -474.40 -15123.83   1505.69
                              739.19   1505.69 -16033.29

     hubbard stress (kbar)      0.00      0.00      0.00
                                0.00      0.00      0.00
                                0.00      0.00      0.00

     london  stress (kbar)      0.00      0.00      0.00
                                0.00      0.00      0.00
                                0.00      0.00      0.00

     XDM     stress (kbar)      0.00      0.00      0.00
                                0.00      0.00      0.00
                                0.00      0.00      0.00

     dft-nl  stress (kbar)      0.00      0.00      0.00
                                0.00      0.00      0.00
                                0.00      0.00      0.00



     Writing output data file SiGe_zns.scf.in.super.444.b.011.save

     init_run     :    819.75s CPU    685.19s WALL (       1 calls)
     electrons    :  42722.49s CPU  36821.49s WALL (       1 calls)
     forces       :    575.65s CPU    444.48s WALL (       1 calls)
     stress       :   2679.46s CPU   2657.20s WALL (       1 calls)

     Called by init_run:
     wfcinit      :    792.27s CPU    657.26s WALL (       1 calls)
     potinit      :      0.65s CPU      0.72s WALL (       1 calls)

     Called by electrons:
     c_bands      :  38371.43s CPU  32725.76s WALL (      16 calls)
     sum_band     :   3824.08s CPU   3558.89s WALL (      16 calls)
     v_of_rho     :      6.89s CPU      7.93s WALL (      16 calls)
     v_h          :      0.48s CPU      0.61s WALL (      16 calls)
     v_xc         :      7.08s CPU      8.15s WALL (      18 calls)
     newd         :    531.47s CPU    538.80s WALL (      16 calls)
     mix_rho      :     12.36s CPU     13.92s WALL (      16 calls)

     Called by c_bands:
     init_us_2    :     45.55s CPU     46.55s WALL (     280 calls)
     cegterg      :  38099.27s CPU  32444.87s WALL (     128 calls)

     Called by sum_band:
     sum_band:bec :     16.61s CPU     16.68s WALL (     128 calls)
     addusdens    :    377.87s CPU    380.12s WALL (      16 calls)

     Called by *egterg:
     h_psi        :  14551.66s CPU  12989.02s WALL (     483 calls)
     s_psi        :   4056.64s CPU   2759.82s WALL (     483 calls)
     g_psi        :      6.95s CPU      8.31s WALL (     347 calls)
     cdiaghg      :  11689.01s CPU  11027.61s WALL (     467 calls)
     cegterg:over :   3802.69s CPU   2741.95s WALL (     347 calls)
     cegterg:upda :   1787.61s CPU   1250.99s WALL (     347 calls)
     cegterg:last :   1185.66s CPU    801.61s WALL (     128 calls)

     Called by h_psi:
     h_psi:vloc   :   6119.83s CPU   7168.16s WALL (     483 calls)
     h_psi:vnl    :   8413.80s CPU   5802.46s WALL (     483 calls)
     add_vuspsi   :   4049.91s CPU   2751.29s WALL (     483 calls)

     General routines
     calbec       :   7146.38s CPU   5222.65s WALL (     627 calls)
     fft          :     95.03s CPU     96.92s WALL (     281 calls)
     ffts         :      7.87s CPU      8.98s WALL (     460 calls)
     fftw         :   6766.75s CPU   8045.29s WALL (  525116 calls)
     interpolate  :      1.68s CPU      2.16s WALL (      32 calls)

     Parallel routines
     fft_scatter  :   3868.40s CPU   4646.32s WALL (  525857 calls)

     PWSCF        :    13h 0m CPU       11h17m WALL


   This run was terminated on:   5:49:55   4Feb2017            

=------------------------------------------------------------------------------=
   JOB DONE.
=------------------------------------------------------------------------------=
