
     Program PWSCF v.5.1 starts on  5Oct2017 at 14:15:24 

     This program is part of the open-source Quantum ESPRESSO suite
     for quantum simulation of materials; please cite
         "P. Giannozzi et al., J. Phys.:Condens. Matter 21 395502 (2009);
          URL http://www.quantum-espresso.org", 
     in publications or presentations arising from this work. More details at
     http://www.quantum-espresso.org/quote

     Parallel version (MPI), running on     4 processors
     R & G space division:  proc/nbgrp/npool/nimage =       4
     Reading input from /tmp/SiGe_zns.scf.in.30770/SiGe_zns.scf.in.t
Warning: card &IONS ignored
Warning: card   ION_DYNAMICS='BFGS', ignored
Warning: card / ignored
Warning: card &CELL ignored
Warning: card  CELL_DYNAMICS = 'BFGS' ignored
Warning: card / ignored
     Message from routine read_cards :
     DEPRECATED: no units specified in CELL_PARAMETERS card

     Current dimensions of program PWSCF are:
     Max number of different atomic species (ntypx) = 10
     Max number of k-points (npk) =  40000
     Max angular momentum in pseudopotentials (lmaxx) =  3
 kfg - two_fermi_energies  F

     Subspace diagonalization in iterative solution of the eigenvalue problem:
     a serial algorithm will be used


     Parallelization info
     --------------------
     sticks:   dense  smooth     PW     G-vecs:    dense   smooth      PW
     Min         186     129     40                 3407     1993     362
     Max         187     130     41                 3412     2003     366
     Sum         745     517    163                13635     7991    1459



     bravais-lattice index     =            0
     lattice parameter (alat)  =     7.399723239  a.u.
     unit-cell volume          =     286.5045 (a.u.)^3
     number of atoms/cell      =            2
     number of atomic types    =            2
     number of electrons       =        18.00
     number of Kohn-Sham states=           13
     kinetic-energy cutoff     =      35.0000  Ry
     charge density cutoff     =     200.0000  Ry
     convergence threshold     =      1.0E-09
     mixing beta               =       0.3000
     number of iterations used =            8  local-TF  mixing
     Exchange-correlation      = SLA  PW   PSX  PSC ( 1  4 10  8 0)
     A smooth kinetic-energy cutoff is imposed at      34.5000 Ry
     height of the smooth step-function =             800.0000 Ry
     width of the smooth step-function  =               1.0000 Ry


     celldm(1)=   7.399723  celldm(2)=   0.000000  celldm(3)=   0.000000
     celldm(4)=   0.000000  celldm(5)=   0.000000  celldm(6)=   0.000000

     crystal axes: (cart. coord. in units of alat)
               a(1) = (  -0.000000000000   0.707106781187   0.707106781187 )  
               a(2) = (   0.707106781187  -0.000000000000   0.707106781187 )  
               a(3) = (   0.707106781187   0.707106781187  -0.000000000000 )  

     reciprocal axes: (cart. coord. in units 2 pi/alat)
               b(1) = ( -0.707107  0.707107  0.707107 )  
               b(2) = (  0.707107 -0.707107  0.707107 )  
               b(3) = (  0.707107  0.707107 -0.707107 )  


     PseudoPot. # 1 for Si read from file:
     /users/kfg/psuedo/gbrv_1.5/si.pbesol.UPF
     MD5 check sum: ef58ba74faed4df802eb8a9742fc00a8
     Pseudo is Ultrasoft + core correction, Zval =  4.0
     Generated by new atomic code, or converted to UPF format
     Using radial grid of  899 points,  6 beta functions with: 
                l(1) =   0
                l(2) =   0
                l(3) =   1
                l(4) =   1
                l(5) =   2
                l(6) =   2
     Q(r) pseudized with  8 coefficients,  rinner =    0.900   0.900   0.900
                                                       0.900   0.900

     PseudoPot. # 2 for Ge read from file:
     /users/kfg/psuedo/gbrv_1.5/ge.pbesol.UPF
     MD5 check sum: 7bed0412183f5e553a4d27ec7023354d
     Pseudo is Ultrasoft + core correction, Zval = 14.0
     Generated by new atomic code, or converted to UPF format
     Using radial grid of  873 points,  6 beta functions with: 
                l(1) =   0
                l(2) =   0
                l(3) =   1
                l(4) =   1
                l(5) =   2
                l(6) =   2
     Q(r) pseudized with  8 coefficients,  rinner =    1.400   1.400   1.400
                                                       1.400   1.400

     atomic species   valence    mass     pseudopotential
        Si             4.00    28.08550     Si( 1.00)
        Ge            14.00    72.64000     Ge( 1.00)

     24 Sym. Ops. (no inversion) found


                                    s                        frac. trans.

      isym =  1     identity                                     

 cryst.   s( 1) = (     1          0          0      )
                  (     0          1          0      )
                  (     0          0          1      )

 cart.    s( 1) = (  1.0000000  0.0000000  0.0000000 )
                  (  0.0000000  1.0000000  0.0000000 )
                  (  0.0000000  0.0000000  1.0000000 )


      isym =  2     180 deg rotation - cart. axis [0,0,1]        

 cryst.   s( 2) = (     0          1         -1      )
                  (     1          0         -1      )
                  (     0          0         -1      )

 cart.    s( 2) = ( -1.0000000  0.0000000  0.0000000 )
                  (  0.0000000 -1.0000000  0.0000000 )
                  (  0.0000000  0.0000000  1.0000000 )


      isym =  3     180 deg rotation - cart. axis [0,1,0]        

 cryst.   s( 3) = (     0         -1          1      )
                  (     0         -1          0      )
                  (     1         -1          0      )

 cart.    s( 3) = ( -1.0000000  0.0000000  0.0000000 )
                  (  0.0000000  1.0000000  0.0000000 )
                  (  0.0000000  0.0000000 -1.0000000 )


      isym =  4     180 deg rotation - cart. axis [1,0,0]        

 cryst.   s( 4) = (    -1          0          0      )
                  (    -1          0          1      )
                  (    -1          1          0      )

 cart.    s( 4) = (  1.0000000  0.0000000  0.0000000 )
                  (  0.0000000 -1.0000000  0.0000000 )
                  (  0.0000000  0.0000000 -1.0000000 )


      isym =  5     120 deg rotation - cart. axis [-1,-1,-1]     

 cryst.   s( 5) = (     0          0          1      )
                  (     1          0          0      )
                  (     0          1          0      )

 cart.    s( 5) = (  0.0000000  1.0000000  0.0000000 )
                  (  0.0000000  0.0000000  1.0000000 )
                  (  1.0000000  0.0000000  0.0000000 )


      isym =  6     120 deg rotation - cart. axis [-1,1,1]       

 cryst.   s( 6) = (     1         -1          0      )
                  (     0         -1          1      )
                  (     0         -1          0      )

 cart.    s( 6) = (  0.0000000 -1.0000000  0.0000000 )
                  (  0.0000000  0.0000000  1.0000000 )
                  ( -1.0000000  0.0000000  0.0000000 )


      isym =  7     120 deg rotation - cart. axis [1,1,-1]       

 cryst.   s( 7) = (    -1          1          0      )
                  (    -1          0          0      )
                  (    -1          0          1      )

 cart.    s( 7) = (  0.0000000  1.0000000  0.0000000 )
                  (  0.0000000  0.0000000 -1.0000000 )
                  ( -1.0000000  0.0000000  0.0000000 )


      isym =  8     120 deg rotation - cart. axis [1,-1,1]       

 cryst.   s( 8) = (     0          0         -1      )
                  (     0          1         -1      )
                  (     1          0         -1      )

 cart.    s( 8) = (  0.0000000 -1.0000000  0.0000000 )
                  (  0.0000000  0.0000000 -1.0000000 )
                  (  1.0000000  0.0000000  0.0000000 )


      isym =  9     120 deg rotation - cart. axis [1,1,1]        

 cryst.   s( 9) = (     0          1          0      )
                  (     0          0          1      )
                  (     1          0          0      )

 cart.    s( 9) = (  0.0000000  0.0000000  1.0000000 )
                  (  1.0000000  0.0000000  0.0000000 )
                  (  0.0000000  1.0000000  0.0000000 )


      isym = 10     120 deg rotation - cart. axis [-1,1,-1]      

 cryst.   s(10) = (    -1          0          1      )
                  (    -1          1          0      )
                  (    -1          0          0      )

 cart.    s(10) = (  0.0000000  0.0000000  1.0000000 )
                  ( -1.0000000  0.0000000  0.0000000 )
                  (  0.0000000 -1.0000000  0.0000000 )


      isym = 11     120 deg rotation - cart. axis [1,-1,-1]      

 cryst.   s(11) = (     1          0         -1      )
                  (     0          0         -1      )
                  (     0          1         -1      )

 cart.    s(11) = (  0.0000000  0.0000000 -1.0000000 )
                  ( -1.0000000  0.0000000  0.0000000 )
                  (  0.0000000  1.0000000  0.0000000 )


      isym = 12     120 deg rotation - cart. axis [-1,-1,1]      

 cryst.   s(12) = (     0         -1          0      )
                  (     1         -1          0      )
                  (     0         -1          1      )

 cart.    s(12) = (  0.0000000  0.0000000 -1.0000000 )
                  (  1.0000000  0.0000000  0.0000000 )
                  (  0.0000000 -1.0000000  0.0000000 )


      isym = 13     inv. 180 deg rotation - cart. axis [1,1,0]   

 cryst.   s(13) = (     1          0         -1      )
                  (     0          1         -1      )
                  (     0          0         -1      )

 cart.    s(13) = (  0.0000000 -1.0000000  0.0000000 )
                  ( -1.0000000  0.0000000  0.0000000 )
                  (  0.0000000  0.0000000  1.0000000 )


      isym = 14     inv. 180 deg rotation - cart. axis [1,-1,0]  

 cryst.   s(14) = (     0          1          0      )
                  (     1          0          0      )
                  (     0          0          1      )

 cart.    s(14) = (  0.0000000  1.0000000  0.0000000 )
                  (  1.0000000  0.0000000  0.0000000 )
                  (  0.0000000  0.0000000  1.0000000 )


      isym = 15     inv.  90 deg rotation - cart. axis [0,0,-1]  

 cryst.   s(15) = (     0         -1          0      )
                  (     0         -1          1      )
                  (     1         -1          0      )

 cart.    s(15) = (  0.0000000 -1.0000000  0.0000000 )
                  (  1.0000000  0.0000000  0.0000000 )
                  (  0.0000000  0.0000000 -1.0000000 )


      isym = 16     inv.  90 deg rotation - cart. axis [0,0,1]   

 cryst.   s(16) = (    -1          0          1      )
                  (    -1          0          0      )
                  (    -1          1          0      )

 cart.    s(16) = (  0.0000000  1.0000000  0.0000000 )
                  ( -1.0000000  0.0000000  0.0000000 )
                  (  0.0000000  0.0000000 -1.0000000 )


      isym = 17     inv. 180 deg rotation - cart. axis [1,0,1]   

 cryst.   s(17) = (     1         -1          0      )
                  (     0         -1          0      )
                  (     0         -1          1      )

 cart.    s(17) = (  0.0000000  0.0000000 -1.0000000 )
                  (  0.0000000  1.0000000  0.0000000 )
                  ( -1.0000000  0.0000000  0.0000000 )


      isym = 18     inv. 180 deg rotation - cart. axis [-1,0,1]  

 cryst.   s(18) = (     0          0          1      )
                  (     0          1          0      )
                  (     1          0          0      )

 cart.    s(18) = (  0.0000000  0.0000000  1.0000000 )
                  (  0.0000000  1.0000000  0.0000000 )
                  (  1.0000000  0.0000000  0.0000000 )


      isym = 19     inv.  90 deg rotation - cart. axis [0,1,0]   

 cryst.   s(19) = (     0          0         -1      )
                  (     1          0         -1      )
                  (     0          1         -1      )

 cart.    s(19) = (  0.0000000  0.0000000 -1.0000000 )
                  (  0.0000000 -1.0000000  0.0000000 )
                  (  1.0000000  0.0000000  0.0000000 )


      isym = 20     inv.  90 deg rotation - cart. axis [0,-1,0]  

 cryst.   s(20) = (    -1          1          0      )
                  (    -1          0          1      )
                  (    -1          0          0      )

 cart.    s(20) = (  0.0000000  0.0000000  1.0000000 )
                  (  0.0000000 -1.0000000  0.0000000 )
                  ( -1.0000000  0.0000000  0.0000000 )


      isym = 21     inv. 180 deg rotation - cart. axis [0,1,1]   

 cryst.   s(21) = (    -1          0          0      )
                  (    -1          1          0      )
                  (    -1          0          1      )

 cart.    s(21) = (  1.0000000  0.0000000  0.0000000 )
                  (  0.0000000  0.0000000 -1.0000000 )
                  (  0.0000000 -1.0000000  0.0000000 )


      isym = 22     inv. 180 deg rotation - cart. axis [0,1,-1]  

 cryst.   s(22) = (     1          0          0      )
                  (     0          0          1      )
                  (     0          1          0      )

 cart.    s(22) = (  1.0000000  0.0000000  0.0000000 )
                  (  0.0000000  0.0000000  1.0000000 )
                  (  0.0000000  1.0000000  0.0000000 )


      isym = 23     inv.  90 deg rotation - cart. axis [-1,0,0]  

 cryst.   s(23) = (     0          1         -1      )
                  (     0          0         -1      )
                  (     1          0         -1      )

 cart.    s(23) = ( -1.0000000  0.0000000  0.0000000 )
                  (  0.0000000  0.0000000 -1.0000000 )
                  (  0.0000000  1.0000000  0.0000000 )


      isym = 24     inv.  90 deg rotation - cart. axis [1,0,0]   

 cryst.   s(24) = (     0         -1          1      )
                  (     1         -1          0      )
                  (     0         -1          0      )

 cart.    s(24) = ( -1.0000000  0.0000000  0.0000000 )
                  (  0.0000000  0.0000000  1.0000000 )
                  (  0.0000000 -1.0000000  0.0000000 )


     point group T_d (-43m) 
     there are  5 classes
     the character table:

       E     8C3   3C2   6S4   6s_d 
A_1    1.00  1.00  1.00  1.00  1.00
A_2    1.00  1.00  1.00 -1.00 -1.00
E      2.00 -1.00  2.00  0.00  0.00
T_1    3.00  0.00 -1.00  1.00 -1.00
T_2    3.00  0.00 -1.00 -1.00  1.00

     the symmetry operations in each class:
     E        1
     3C2      2    3    4
     8C3      5    7    8    6   12    9   10   11
     6s_d    13   14   17   18   21   22
     6S4     15   16   20   19   23   24

   Cartesian axes

     site n.     atom                  positions (alat units)
         1           Si  tau(   1) = (    0.00000000000    0.00000000000    0.00000000000  )
         2           Ge  tau(   2) = (    0.35355339059    0.35355339059    0.35355339059  )

   Crystallographic axes

     site n.     atom                  positions (cryst. coord.)
         1           Si  tau(   1) = (    0.00000000000    0.00000000000    0.00000000000  )
         2           Ge  tau(   2) = (    0.25000000000    0.25000000000    0.25000000000  )

     number of k points=    29  gaussian smearing, width (Ry)=  0.0150
                       cart. coord. in units 2pi/alat
        k(    1) = (   0.0000000   0.0000000   0.0000000), wk =   0.0039063
        k(    2) = (   0.0883883   0.0883883  -0.0883883), wk =   0.0312500
        k(    3) = (   0.1767767   0.1767767  -0.1767767), wk =   0.0312500
        k(    4) = (   0.2651650   0.2651650  -0.2651650), wk =   0.0312500
        k(    5) = (  -0.3535534  -0.3535534   0.3535534), wk =   0.0156250
        k(    6) = (   0.1767767   0.0000000   0.0000000), wk =   0.0234375
        k(    7) = (   0.2651650   0.0883883  -0.0883883), wk =   0.0937500
        k(    8) = (   0.3535534   0.1767767  -0.1767767), wk =   0.0937500
        k(    9) = (  -0.2651650  -0.4419417   0.4419417), wk =   0.0937500
        k(   10) = (  -0.1767767  -0.3535534   0.3535534), wk =   0.0937500
        k(   11) = (  -0.0883883  -0.2651650   0.2651650), wk =   0.0937500
        k(   12) = (   0.0000000  -0.1767767   0.1767767), wk =   0.0468750
        k(   13) = (   0.3535534   0.0000000   0.0000000), wk =   0.0234375
        k(   14) = (   0.4419417   0.0883883  -0.0883883), wk =   0.0937500
        k(   15) = (  -0.1767767  -0.5303301   0.5303301), wk =   0.0937500
        k(   16) = (  -0.0883883  -0.4419417   0.4419417), wk =   0.0937500
        k(   17) = (   0.0000000  -0.3535534   0.3535534), wk =   0.0468750
        k(   18) = (   0.5303301   0.0000000   0.0000000), wk =   0.0234375
        k(   19) = (  -0.0883883  -0.6187184   0.6187184), wk =   0.0937500
        k(   20) = (   0.0000000  -0.5303301   0.5303301), wk =   0.0468750
        k(   21) = (  -0.7071068   0.0000000   0.0000000), wk =   0.0117188
        k(   22) = (   0.3535534   0.1767767   0.0000000), wk =   0.0937500
        k(   23) = (  -0.2651650  -0.4419417   0.6187184), wk =   0.1875000
        k(   24) = (  -0.1767767  -0.3535534   0.5303301), wk =   0.0937500
        k(   25) = (  -0.1767767  -0.5303301   0.7071068), wk =   0.0937500
        k(   26) = (  -0.0883883  -0.4419417   0.6187184), wk =   0.1875000
        k(   27) = (   0.0000000  -0.3535534   0.5303301), wk =   0.0937500
        k(   28) = (  -0.7071068   0.1767767   0.0000000), wk =   0.0468750
        k(   29) = (  -0.7071068   0.3535534   0.0000000), wk =   0.0234375

                       cryst. coord.
        k(    1) = (   0.0000000   0.0000000   0.0000000), wk =   0.0039063
        k(    2) = (   0.0000000   0.0000000   0.1250000), wk =   0.0312500
        k(    3) = (   0.0000000   0.0000000   0.2500000), wk =   0.0312500
        k(    4) = (   0.0000000   0.0000000   0.3750000), wk =   0.0312500
        k(    5) = (   0.0000000   0.0000000  -0.5000000), wk =   0.0156250
        k(    6) = (   0.0000000   0.1250000   0.1250000), wk =   0.0234375
        k(    7) = (   0.0000000   0.1250000   0.2500000), wk =   0.0937500
        k(    8) = (   0.0000000   0.1250000   0.3750000), wk =   0.0937500
        k(    9) = (   0.0000000   0.1250000  -0.5000000), wk =   0.0937500
        k(   10) = (   0.0000000   0.1250000  -0.3750000), wk =   0.0937500
        k(   11) = (   0.0000000   0.1250000  -0.2500000), wk =   0.0937500
        k(   12) = (   0.0000000   0.1250000  -0.1250000), wk =   0.0468750
        k(   13) = (   0.0000000   0.2500000   0.2500000), wk =   0.0234375
        k(   14) = (   0.0000000   0.2500000   0.3750000), wk =   0.0937500
        k(   15) = (   0.0000000   0.2500000  -0.5000000), wk =   0.0937500
        k(   16) = (   0.0000000   0.2500000  -0.3750000), wk =   0.0937500
        k(   17) = (   0.0000000   0.2500000  -0.2500000), wk =   0.0468750
        k(   18) = (   0.0000000   0.3750000   0.3750000), wk =   0.0234375
        k(   19) = (   0.0000000   0.3750000  -0.5000000), wk =   0.0937500
        k(   20) = (   0.0000000   0.3750000  -0.3750000), wk =   0.0468750
        k(   21) = (   0.0000000  -0.5000000  -0.5000000), wk =   0.0117188
        k(   22) = (   0.1250000   0.2500000   0.3750000), wk =   0.0937500
        k(   23) = (   0.1250000   0.2500000  -0.5000000), wk =   0.1875000
        k(   24) = (   0.1250000   0.2500000  -0.3750000), wk =   0.0937500
        k(   25) = (   0.1250000   0.3750000  -0.5000000), wk =   0.0937500
        k(   26) = (   0.1250000   0.3750000  -0.3750000), wk =   0.1875000
        k(   27) = (   0.1250000   0.3750000  -0.2500000), wk =   0.0937500
        k(   28) = (   0.1250000  -0.5000000  -0.3750000), wk =   0.0468750
        k(   29) = (   0.2500000  -0.5000000  -0.2500000), wk =   0.0234375

     Dense  grid:    13635 G-vectors     FFT dimensions: (  36,  36,  36)

     Smooth grid:     7991 G-vectors     FFT dimensions: (  27,  27,  27)

     Largest allocated arrays     est. size (Mb)     dimensions
        Kohn-Sham Wavefunctions         0.05 Mb     (     258,   13)
        NL pseudopotentials             0.14 Mb     (     258,   36)
        Each V/rho on FFT grid          0.18 Mb     (   11664)
        Each G-vector array             0.03 Mb     (    3408)
        G-vector shells                 0.00 Mb     (     185)
     Largest temporary arrays     est. size (Mb)     dimensions
        Auxiliary wavefunctions         0.20 Mb     (     258,   52)
        Each subspace H/S matrix        0.04 Mb     (      52,   52)
        Each <psi_i|beta_j> matrix      0.01 Mb     (      36,   13)
        Arrays for rho mixing           1.42 Mb     (   11664,    8)

     Initial potential from superposition of free atoms

     starting charge   17.99854, renormalised to   18.00000
     Starting wfc are   13 randomized atomic wfcs

     total cpu time spent up to now is        2.2 secs

     Self-consistent Calculation

     iteration #  1     ecut=    35.00 Ry     beta=0.30
     Davidson diagonalization with overlap
     ethr =  1.00E-02,  avg # of iterations =  3.3

     Threshold (ethr) on eigenvalues was too large:
     Diagonalizing with lowered threshold

     Davidson diagonalization with overlap
     ethr =  2.40E-04,  avg # of iterations =  1.3

     total cpu time spent up to now is       11.7 secs

     total energy              =    -222.75127272 Ry
     Harris-Foulkes estimate   =    -222.75575406 Ry
     estimated scf accuracy    <       0.04320643 Ry

     iteration #  2     ecut=    35.00 Ry     beta=0.30
     Davidson diagonalization with overlap
     ethr =  2.40E-04,  avg # of iterations =  1.0

     total cpu time spent up to now is       15.0 secs

     total energy              =    -222.74286781 Ry
     Harris-Foulkes estimate   =    -222.75147559 Ry
     estimated scf accuracy    <       0.02653058 Ry

     iteration #  3     ecut=    35.00 Ry     beta=0.30
     Davidson diagonalization with overlap
     ethr =  1.47E-04,  avg # of iterations =  1.0

     total cpu time spent up to now is       18.4 secs

     total energy              =    -222.74438395 Ry
     Harris-Foulkes estimate   =    -222.74436995 Ry
     estimated scf accuracy    <       0.00038743 Ry

     iteration #  4     ecut=    35.00 Ry     beta=0.30
     Davidson diagonalization with overlap
     ethr =  2.15E-06,  avg # of iterations =  3.5

     total cpu time spent up to now is       24.2 secs

     total energy              =    -222.74445250 Ry
     Harris-Foulkes estimate   =    -222.74450458 Ry
     estimated scf accuracy    <       0.00017276 Ry

     iteration #  5     ecut=    35.00 Ry     beta=0.30
     Davidson diagonalization with overlap
     ethr =  9.60E-07,  avg # of iterations =  2.0

     total cpu time spent up to now is       28.2 secs

     total energy              =    -222.74446114 Ry
     Harris-Foulkes estimate   =    -222.74446510 Ry
     estimated scf accuracy    <       0.00001112 Ry

     iteration #  6     ecut=    35.00 Ry     beta=0.30
     Davidson diagonalization with overlap
     ethr =  6.18E-08,  avg # of iterations =  1.9

     total cpu time spent up to now is       32.4 secs

     total energy              =    -222.74446229 Ry
     Harris-Foulkes estimate   =    -222.74446216 Ry
     estimated scf accuracy    <       0.00000066 Ry

     iteration #  7     ecut=    35.00 Ry     beta=0.30
     Davidson diagonalization with overlap
     ethr =  3.69E-09,  avg # of iterations =  2.0

     total cpu time spent up to now is       37.0 secs

     total energy              =    -222.74446225 Ry
     Harris-Foulkes estimate   =    -222.74446241 Ry
     estimated scf accuracy    <       0.00000044 Ry

     iteration #  8     ecut=    35.00 Ry     beta=0.30
     Davidson diagonalization with overlap
     ethr =  2.42E-09,  avg # of iterations =  2.0

     total cpu time spent up to now is       42.0 secs

     total energy              =    -222.74446235 Ry
     Harris-Foulkes estimate   =    -222.74446234 Ry
     estimated scf accuracy    <       0.00000008 Ry

     iteration #  9     ecut=    35.00 Ry     beta=0.30
     Davidson diagonalization with overlap
     ethr =  4.38E-10,  avg # of iterations =  2.0

     total cpu time spent up to now is       47.2 secs

     End of self-consistent calculation

          k = 0.0000 0.0000 0.0000 (   965 PWs)   bands (ev):

   -17.0096 -17.0096 -17.0096 -16.9801 -16.9801  -5.0839   7.3641   7.3641
     7.3641   9.0004   9.8736   9.8736   9.8736

     occupation numbers 
     1.0000   1.0000   1.0000   1.0000   1.0000   1.0000   0.9322   0.9322
     0.9322   0.0000   0.0000   0.0000   0.0000

          k = 0.0884 0.0884-0.0884 (   980 PWs)   bands (ev):

   -17.0088 -17.0085 -17.0085 -16.9799 -16.9799  -4.8868   5.4565   7.0457
     7.0457   9.2058  10.3136  10.3136  11.2037

     occupation numbers 
     1.0000   1.0000   1.0000   1.0000   1.0000   1.0000   1.0000   0.9999
     0.9999   0.0000   0.0000   0.0000   0.0000

          k = 0.1768 0.1768-0.1768 (   989 PWs)   bands (ev):

   -17.0086 -17.0059 -17.0059 -16.9793 -16.9793  -4.3138   3.0564   6.5290
     6.5290   8.7012  10.8918  10.8918  13.5002

     occupation numbers 
     1.0000   1.0000   1.0000   1.0000   1.0000   1.0000   1.0000   1.0000
     1.0000   0.0000   0.0000   0.0000   0.0000

          k = 0.2652 0.2652-0.2652 (  1002 PWs)   bands (ev):

   -17.0083 -17.0040 -17.0040 -16.9781 -16.9781  -3.4673   1.0510   6.1668
     6.1668   8.3231  10.9368  10.9368  14.7477

     occupation numbers 
     1.0000   1.0000   1.0000   1.0000   1.0000   1.0000   1.0000   1.0000
     1.0000   0.0000   0.0000   0.0000   0.0000

          k =-0.3536-0.3536 0.3536 (  1008 PWs)   bands (ev):

   -17.0089 -17.0029 -17.0029 -16.9769 -16.9769  -2.8906   0.0807   6.0416
     6.0416   8.1916  10.8610  10.8610  14.5979

     occupation numbers 
     1.0000   1.0000   1.0000   1.0000   1.0000   1.0000   1.0000   1.0000
     1.0000   0.0000   0.0000   0.0000   0.0000

          k = 0.1768 0.0000 0.0000 (   986 PWs)   bands (ev):

   -17.0103 -17.0071 -17.0071 -16.9806 -16.9791  -4.8203   5.5891   6.5064
     6.5064   9.2599  10.5844  11.0529  11.0529

     occupation numbers 
     1.0000   1.0000   1.0000   1.0000   1.0000   1.0000   1.0000   1.0000
     1.0000   0.0000   0.0000   0.0000   0.0000

          k = 0.2652 0.0884-0.0884 (   990 PWs)   bands (ev):

   -17.0103 -17.0051 -17.0045 -16.9806 -16.9782  -4.3686   3.7010   5.9612
     5.9624   9.3703  10.5172  11.8511  12.1530

     occupation numbers 
     1.0000   1.0000   1.0000   1.0000   1.0000   1.0000   1.0000   1.0000
     1.0000   0.0000   0.0000   0.0000   0.0000

          k = 0.3536 0.1768-0.1768 (   998 PWs)   bands (ev):

   -17.0091 -17.0036 -17.0024 -16.9794 -16.9775  -3.5911   1.6656   5.3219
     5.6675   9.3165  10.7635  11.9330  12.8532

     occupation numbers 
     1.0000   1.0000   1.0000   1.0000   1.0000   1.0000   1.0000   1.0000
     1.0000   0.0000   0.0000   0.0000   0.0000

          k =-0.2652-0.4419 0.4419 (  1003 PWs)   bands (ev):

   -17.0088 -17.0030 -17.0017 -16.9784 -16.9770  -2.8004   0.2673   4.8649
     5.6791   9.1679  10.7998  11.6077  14.5866

     occupation numbers 
     1.0000   1.0000   1.0000   1.0000   1.0000   1.0000   1.0000   1.0000
     1.0000   0.0000   0.0000   0.0000   0.0000

          k =-0.1768-0.3536 0.3536 (  1008 PWs)   bands (ev):

   -17.0082 -17.0031 -17.0028 -16.9779 -16.9776  -3.0194   0.6139   4.6985
     5.9821   9.2488  10.9810  11.3434  14.9274

     occupation numbers 
     1.0000   1.0000   1.0000   1.0000   1.0000   1.0000   1.0000   1.0000
     1.0000   0.0000   0.0000   0.0000   0.0000

          k =-0.0884-0.2652 0.2652 (   997 PWs)   bands (ev):

   -17.0082 -17.0048 -17.0040 -16.9794 -16.9782  -3.8823   2.3117   4.8925
     6.5010   9.5433  11.0417  11.2203  13.2937

     occupation numbers 
     1.0000   1.0000   1.0000   1.0000   1.0000   1.0000   1.0000   1.0000
     1.0000   0.0000   0.0000   0.0000   0.0000

          k = 0.0000-0.1768 0.1768 (   985 PWs)   bands (ev):

   -17.0087 -17.0074 -17.0060 -16.9803 -16.9791  -4.5626   4.2505   5.6461
     7.0228   9.7775  10.4351  10.6475  12.3894

     occupation numbers 
     1.0000   1.0000   1.0000   1.0000   1.0000   1.0000   1.0000   1.0000
     0.9999   0.0000   0.0000   0.0000   0.0000

          k = 0.3536 0.0000 0.0000 (   998 PWs)   bands (ev):

   -17.0121 -17.0016 -17.0016 -16.9810 -16.9770  -4.0398   3.2811   5.3692
     5.3692   8.3598  10.3445  13.1226  13.1226

     occupation numbers 
     1.0000   1.0000   1.0000   1.0000   1.0000   1.0000   1.0000   1.0000
     1.0000   0.0000   0.0000   0.0000   0.0000

          k = 0.4419 0.0884-0.0884 (  1005 PWs)   bands (ev):

   -17.0126 -16.9999 -16.9994 -16.9813 -16.9762  -3.3602   1.8812   4.5551
     5.0312   8.6019  10.1772  13.1708  13.6900

     occupation numbers 
     1.0000   1.0000   1.0000   1.0000   1.0000   1.0000   1.0000   1.0000
     1.0000   0.0000   0.0000   0.0000   0.0000

          k =-0.1768-0.5303 0.5303 (  1008 PWs)   bands (ev):

   -17.0109 -17.0002 -16.9988 -16.9812 -16.9762  -2.5014   0.5186   3.6732
     5.0259   8.7768  11.7463  12.8129  13.3875

     occupation numbers 
     1.0000   1.0000   1.0000   1.0000   1.0000   1.0000   1.0000   1.0000
     1.0000   0.0000   0.0000   0.0000   0.0000

          k =-0.0884-0.4419 0.4419 (  1001 PWs)   bands (ev):

   -17.0090 -17.0016 -16.9999 -16.9800 -16.9769  -2.3275   0.2943   3.2236
     5.3502   9.0609  12.5682  12.8936  14.2103

     occupation numbers 
     1.0000   1.0000   1.0000   1.0000   1.0000   1.0000   1.0000   1.0000
     1.0000   0.0000   0.0000   0.0000   0.0000

          k = 0.0000-0.3536 0.3536 (  1003 PWs)   bands (ev):

   -17.0077 -17.0030 -17.0020 -16.9784 -16.9781  -3.1294   1.3845   3.4909
     5.9261   9.5710  12.0976  12.3516  13.0912

     occupation numbers 
     1.0000   1.0000   1.0000   1.0000   1.0000   1.0000   1.0000   1.0000
     1.0000   0.0000   0.0000   0.0000   0.0000

          k = 0.5303 0.0000 0.0000 (  1018 PWs)   bands (ev):

   -17.0149 -16.9972 -16.9972 -16.9831 -16.9753  -2.7837   1.0649   4.6164
     4.6164   7.8662   8.8935  15.3565  15.3565

     occupation numbers 
     1.0000   1.0000   1.0000   1.0000   1.0000   1.0000   1.0000   1.0000
     1.0000   0.0235   0.0000   0.0000   0.0000

          k =-0.0884-0.6187 0.6187 (  1003 PWs)   bands (ev):

   -17.0143 -16.9971 -16.9968 -16.9838 -16.9751  -1.9645   0.0414   3.8085
     4.5336   8.1737   9.2949  15.4091  15.5958

     occupation numbers 
     1.0000   1.0000   1.0000   1.0000   1.0000   1.0000   1.0000   1.0000
     1.0000   0.0000   0.0000   0.0000   0.0000

          k = 0.0000-0.5303 0.5303 (   999 PWs)   bands (ev):

   -17.0117 -16.9988 -16.9977 -16.9824 -16.9760  -1.6357  -0.2578   2.9727
     4.7974   8.4783  11.4545  14.7071  14.7643

     occupation numbers 
     1.0000   1.0000   1.0000   1.0000   1.0000   1.0000   1.0000   1.0000
     1.0000   0.0000   0.0000   0.0000   0.0000

          k =-0.7071 0.0000 0.0000 (   998 PWs)   bands (ev):

   -17.0163 -16.9963 -16.9963 -16.9855 -16.9745  -1.4537  -0.5954   4.3578
     4.3578   7.8717   8.1802  16.9912  16.9912

     occupation numbers 
     1.0000   1.0000   1.0000   1.0000   1.0000   1.0000   1.0000   1.0000
     1.0000   0.0215   0.0000   0.0000   0.0000

          k = 0.3536 0.1768 0.0000 (   998 PWs)   bands (ev):

   -17.0106 -17.0030 -17.0021 -16.9802 -16.9774  -3.8043   2.5603   4.5323
     5.8176   9.7019  10.7427  11.7323  12.8553

     occupation numbers 
     1.0000   1.0000   1.0000   1.0000   1.0000   1.0000   1.0000   1.0000
     1.0000   0.0000   0.0000   0.0000   0.0000

          k =-0.2652-0.4419 0.6187 (  1008 PWs)   bands (ev):

   -17.0092 -17.0027 -17.0001 -16.9797 -16.9770  -2.9660   1.0575   3.8739
     5.3182  10.0550  10.7946  12.2399  13.3789

     occupation numbers 
     1.0000   1.0000   1.0000   1.0000   1.0000   1.0000   1.0000   1.0000
     1.0000   0.0000   0.0000   0.0000   0.0000

          k =-0.1768-0.3536 0.5303 (  1010 PWs)   bands (ev):

   -17.0087 -17.0030 -16.9993 -16.9798 -16.9769  -2.3819   0.1891   3.7171
     5.0922  10.0895  10.5661  13.1524  14.5077

     occupation numbers 
     1.0000   1.0000   1.0000   1.0000   1.0000   1.0000   1.0000   1.0000
     1.0000   0.0000   0.0000   0.0000   0.0000

          k =-0.1768-0.5303 0.7071 (  1012 PWs)   bands (ev):

   -17.0124 -16.9994 -16.9973 -16.9821 -16.9758  -2.6041   0.8565   3.8746
     4.4932   9.1941   9.9755  12.9716  15.2901

     occupation numbers 
     1.0000   1.0000   1.0000   1.0000   1.0000   1.0000   1.0000   1.0000
     1.0000   0.0000   0.0000   0.0000   0.0000

          k =-0.0884-0.4419 0.6187 (  1005 PWs)   bands (ev):

   -17.0103 -17.0009 -16.9968 -16.9819 -16.9762  -1.8350  -0.0230   3.1944
     4.2924   9.6590  11.6451  12.4352  14.5861

     occupation numbers 
     1.0000   1.0000   1.0000   1.0000   1.0000   1.0000   1.0000   1.0000
     1.0000   0.0000   0.0000   0.0000   0.0000

          k = 0.0000-0.3536 0.5303 (  1003 PWs)   bands (ev):

   -17.0087 -17.0025 -16.9978 -16.9807 -16.9769  -2.1408   0.3073   3.0327
     4.6660  10.1203  11.8258  12.4286  14.2798

     occupation numbers 
     1.0000   1.0000   1.0000   1.0000   1.0000   1.0000   1.0000   1.0000
     1.0000   0.0000   0.0000   0.0000   0.0000

          k =-0.7071 0.1768 0.0000 (  1004 PWs)   bands (ev):

   -17.0131 -16.9982 -16.9960 -16.9838 -16.9753  -1.4053  -0.5132   3.8132
     3.8453   9.1154   9.4251  14.8364  15.2388

     occupation numbers 
     1.0000   1.0000   1.0000   1.0000   1.0000   1.0000   1.0000   1.0000
     1.0000   0.0000   0.0000   0.0000   0.0000

          k =-0.7071 0.3536 0.0000 (   992 PWs)   bands (ev):

   -17.0089 -17.0020 -16.9959 -16.9817 -16.9766  -1.3543  -0.4226   3.3821
     3.4575  11.7027  11.7502  11.8657  12.2771

     occupation numbers 
     1.0000   1.0000   1.0000   1.0000   1.0000   1.0000   1.0000   1.0000
     1.0000   0.0000   0.0000   0.0000   0.0000

     the Fermi energy is     7.5795 ev

!    total energy              =    -222.74446238 Ry
     Harris-Foulkes estimate   =    -222.74446236 Ry
     estimated scf accuracy    <          8.1E-10 Ry

     The total energy is the sum of the following terms:

     one-electron contribution =    -147.67676239 Ry
     hartree contribution      =      88.29428028 Ry
     xc contribution           =     -61.89715577 Ry
     ewald contribution        =    -101.46478755 Ry
     smearing contrib. (-TS)   =      -0.00003694 Ry

     convergence has been achieved in   9 iterations

     Forces acting on atoms (Ry/au):

     atom    1 type  1   force =   0.00000000E+00  0.00000000E+00  0.00000000E+00
     atom    2 type  2   force =   0.00000000E+00  0.00000000E+00  0.00000000E+00
     The non-local contrib.  to forces
     atom    1 type  1   force =  -0.40887824E-18  0.00000000E+00  0.00000000E+00
     atom    2 type  2   force =   0.00000000E+00  0.40887824E-18  0.00000000E+00
     The ionic contribution  to forces
     atom    1 type  1   force =   0.41910919E-14  0.48849813E-14  0.39968029E-14
     atom    2 type  2   force =  -0.48155924E-14 -0.31086245E-14 -0.35527137E-14
     The local contribution  to forces
     atom    1 type  1   force =  -0.13877788E-16 -0.31086245E-14  0.16875390E-13
     atom    2 type  2   force =  -0.12873036E-12 -0.12889689E-12 -0.11612933E-12
     The core correction contribution to forces
     atom    1 type  1   force =  -0.57679556E-15 -0.54123372E-15 -0.41633363E-15
     atom    2 type  2   force =  -0.15813739E-13 -0.15140666E-13 -0.17985613E-13
     The Hubbard contrib.    to forces
     atom    1 type  1   force =   0.00000000E+00  0.00000000E+00  0.00000000E+00
     atom    2 type  2   force =   0.00000000E+00  0.00000000E+00  0.00000000E+00
     The SCF correction term to forces
     atom    1 type  1   force =  -0.39607949E-16 -0.29682364E-16  0.55964653E-15
     atom    2 type  2   force =   0.25534816E-14  0.22431923E-14 -0.29625079E-14

     Total force =     0.000000     Total SCF correction =     0.000000


     entering subroutine stress ...

          total   stress  (Ry/bohr**3)                   (kbar)     P=    0.22
   0.0000014866   0.0000000000   0.0000000000          0.22      0.00      0.00
   0.0000000000   0.0000014866   0.0000000000          0.00      0.22      0.00
   0.0000000000   0.0000000000   0.0000014866          0.00      0.00      0.22

     kinetic stress (kbar)   6411.99      0.00      0.00
                                0.00   6411.99      0.00
                                0.00      0.00   6411.99

     local   stress (kbar)   -987.53      0.00     -0.00
                                0.00   -987.53      0.00
                               -0.00      0.00   -987.53

     nonloc. stress (kbar)   2496.99     -0.00      0.00
                               -0.00   2496.99      0.00
                                0.00      0.00   2496.99

     hartree stress (kbar)  15111.50      0.00     -0.00
                                0.00  15111.50      0.00
                               -0.00      0.00  15111.50

     exc-cor stress (kbar)  10937.41      0.00     -0.00
                                0.00  10937.41      0.00
                               -0.00      0.00  10937.41

     corecor stress (kbar) -16604.51     -0.00     -0.00
                               -0.00 -16604.51     -0.00
                               -0.00     -0.00 -16604.51

     ewald   stress (kbar) -17365.62     -0.00      0.00
                               -0.00 -17365.62      0.00
                                0.00      0.00 -17365.62

     hubbard stress (kbar)      0.00      0.00      0.00
                                0.00      0.00      0.00
                                0.00      0.00      0.00

     london  stress (kbar)      0.00      0.00      0.00
                                0.00      0.00      0.00
                                0.00      0.00      0.00

     XDM     stress (kbar)      0.00      0.00      0.00
                                0.00      0.00      0.00
                                0.00      0.00      0.00

     dft-nl  stress (kbar)      0.00      0.00      0.00
                                0.00      0.00      0.00
                                0.00      0.00      0.00



     Writing output data file SiGe_zns.scf.in.save

     init_run     :      1.69s CPU      1.98s WALL (       1 calls)
     electrons    :     34.27s CPU     44.99s WALL (       1 calls)
     forces       :      0.62s CPU      0.74s WALL (       1 calls)
     stress       :      0.82s CPU      0.92s WALL (       1 calls)

     Called by init_run:
     wfcinit      :      1.15s CPU      1.40s WALL (       1 calls)
     potinit      :      0.05s CPU      0.06s WALL (       1 calls)

     Called by electrons:
     c_bands      :     29.54s CPU     39.20s WALL (      10 calls)
     sum_band     :      3.84s CPU      4.88s WALL (      10 calls)
     v_of_rho     :      0.25s CPU      0.25s WALL (      10 calls)
     v_h          :      0.02s CPU      0.02s WALL (      10 calls)
     v_xc         :      0.27s CPU      0.28s WALL (      12 calls)
     newd         :      0.46s CPU      0.48s WALL (      10 calls)
     mix_rho      :      0.22s CPU      0.24s WALL (      10 calls)

     Called by c_bands:
     init_us_2    :      0.34s CPU      0.38s WALL (     667 calls)
     cegterg      :     27.97s CPU     37.52s WALL (     290 calls)

     Called by sum_band:
     sum_band:bec :      0.00s CPU      0.01s WALL (     290 calls)
     addusdens    :      0.43s CPU      0.45s WALL (      10 calls)

     Called by *egterg:
     h_psi        :     13.46s CPU     16.97s WALL (     899 calls)
     s_psi        :      0.58s CPU      1.44s WALL (     899 calls)
     g_psi        :      0.02s CPU      0.02s WALL (     580 calls)
     cdiaghg      :      0.76s CPU      0.92s WALL (     841 calls)
     cegterg:over :      6.90s CPU      9.20s WALL (     580 calls)
     cegterg:upda :      0.42s CPU      1.76s WALL (     580 calls)
     cegterg:last :      0.22s CPU      0.63s WALL (     290 calls)

     Called by h_psi:
     h_psi:vloc   :      7.95s CPU      8.53s WALL (     899 calls)
     h_psi:vnl    :      5.49s CPU      8.42s WALL (     899 calls)
     add_vuspsi   :      0.54s CPU      1.54s WALL (     899 calls)

     General routines
     calbec       :      6.83s CPU      9.84s WALL (    1247 calls)
     fft          :      0.26s CPU      0.29s WALL (     185 calls)
     ffts         :      0.13s CPU      0.14s WALL (     250 calls)
     fftw         :      8.78s CPU      9.36s WALL (   22272 calls)
     interpolate  :      0.05s CPU      0.05s WALL (      20 calls)

     Parallel routines
     fft_scatter  :      4.36s CPU      4.65s WALL (   22707 calls)

     PWSCF        :    37.91s CPU        49.20s WALL


   This run was terminated on:  14:16:13   5Oct2017            

=------------------------------------------------------------------------------=
   JOB DONE.
=------------------------------------------------------------------------------=
