
     Program PWSCF v.5.1 starts on  4Feb2017 at  1:57: 9 

     This program is part of the open-source Quantum ESPRESSO suite
     for quantum simulation of materials; please cite
         "P. Giannozzi et al., J. Phys.:Condens. Matter 21 395502 (2009);
          URL http://www.quantum-espresso.org", 
     in publications or presentations arising from this work. More details at
     http://www.quantum-espresso.org/quote

     Parallel version (MPI), running on    16 processors
     R & G space division:  proc/nbgrp/npool/nimage =      16
     Reading input from /tmp/SiGe_zns.scf.in.super.444.b.02.26520/SiGe_zns.scf.in.super.444.b.02.t
Warning: card &IONS ignored
Warning: card   ION_DYNAMICS='BFGS', ignored
Warning: card / ignored
Warning: card &CELL ignored
Warning: card  CELL_DYNAMICS = 'BFGS' ignored
Warning: card / ignored
     Message from routine read_cards :
     DEPRECATED: no units specified in CELL_PARAMETERS card

     Current dimensions of program PWSCF are:
     Max number of different atomic species (ntypx) = 10
     Max number of k-points (npk) =  40000
     Max angular momentum in pseudopotentials (lmaxx) =  3

     Subspace diagonalization in iterative solution of the eigenvalue problem:
     a serial algorithm will be used


     Parallelization info
     --------------------
     sticks:   dense  smooth     PW     G-vecs:    dense   smooth      PW
     Min         756     527    138                54768    32060    4315
     Max         757     528    139                54770    32083    4319
     Sum       12097    8443   2221               876295   513103   69089



     bravais-lattice index     =            0
     lattice parameter (alat)  =    29.598892955  a.u.
     unit-cell volume          =   18336.2874 (a.u.)^3
     number of atoms/cell      =          128
     number of atomic types    =            2
     number of electrons       =      1142.00
     number of Kohn-Sham states=          685
     kinetic-energy cutoff     =      35.0000  Ry
     charge density cutoff     =     200.0000  Ry
     convergence threshold     =      1.0E-09
     mixing beta               =       0.3000
     number of iterations used =            8  local-TF  mixing
     Exchange-correlation      = SLA  PW   PSX  PSC ( 1  4 10  8 0)
     A smooth kinetic-energy cutoff is imposed at      34.5000 Ry
     height of the smooth step-function =             800.0000 Ry
     width of the smooth step-function  =               1.0000 Ry


     celldm(1)=  29.598893  celldm(2)=   0.000000  celldm(3)=   0.000000
     celldm(4)=   0.000000  celldm(5)=   0.000000  celldm(6)=   0.000000

     crystal axes: (cart. coord. in units of alat)
               a(1) = (  -0.000000000000   0.707106781187   0.707106781187 )  
               a(2) = (   0.707106781187  -0.000000000000   0.707106781187 )  
               a(3) = (   0.707106781187   0.707106781187   0.000000000000 )  

     reciprocal axes: (cart. coord. in units 2 pi/alat)
               b(1) = ( -0.707107  0.707107  0.707107 )  
               b(2) = (  0.707107 -0.707107  0.707107 )  
               b(3) = (  0.707107  0.707107 -0.707107 )  


     PseudoPot. # 1 for Si read from file:
     /users/kfg/psuedo/gbrv_1.5/si.pbesol.UPF
     MD5 check sum: ef58ba74faed4df802eb8a9742fc00a8
     Pseudo is Ultrasoft + core correction, Zval =  4.0
     Generated by new atomic code, or converted to UPF format
     Using radial grid of  899 points,  6 beta functions with: 
                l(1) =   0
                l(2) =   0
                l(3) =   1
                l(4) =   1
                l(5) =   2
                l(6) =   2
     Q(r) pseudized with  8 coefficients,  rinner =    0.900   0.900   0.900
                                                       0.900   0.900

     PseudoPot. # 2 for Ge read from file:
     /users/kfg/psuedo/gbrv_1.5/ge.pbesol.UPF
     MD5 check sum: 7bed0412183f5e553a4d27ec7023354d
     Pseudo is Ultrasoft + core correction, Zval = 14.0
     Generated by new atomic code, or converted to UPF format
     Using radial grid of  873 points,  6 beta functions with: 
                l(1) =   0
                l(2) =   0
                l(3) =   1
                l(4) =   1
                l(5) =   2
                l(6) =   2
     Q(r) pseudized with  8 coefficients,  rinner =    1.400   1.400   1.400
                                                       1.400   1.400

     atomic species   valence    mass     pseudopotential
        Si             4.00    28.08550     Si( 1.00)
        Ge            14.00    72.64000     Ge( 1.00)

     No symmetry found


                                    s                        frac. trans.

      isym =  1     identity                                     

 cryst.   s( 1) = (     1          0          0      )
                  (     0          1          0      )
                  (     0          0          1      )

 cart.    s( 1) = (  1.0000000  0.0000000  0.0000000 )
                  (  0.0000000  1.0000000  0.0000000 )
                  (  0.0000000  0.0000000  1.0000000 )


     point group C_1 (1)    
     there are  1 classes
     the character table:

       E    
A      1.00

     the symmetry operations in each class:
     E        1

   Cartesian axes

     site n.     atom                  positions (alat units)
         1           Si  tau(   1) = (   -0.00108617069   -0.00030502448   -0.00162574390  )
         2           Ge  tau(   2) = (    0.08886203022    0.09007464311    0.08793405342  )
         3           Si  tau(   3) = (    0.17794820893    0.17519925951   -0.00127633750  )
         4           Ge  tau(   4) = (    0.26354935345    0.26642007801    0.08767498728  )
         5           Si  tau(   5) = (    0.35211850804    0.35475392921   -0.00010084320  )
         6           Ge  tau(   6) = (    0.44194052335    0.44251420962    0.08914944048  )
         7           Ge  tau(   7) = (    0.52994406698    0.53065884862   -0.00111241255  )
         8           Ge  tau(   8) = (    0.61976518236    0.61885447049    0.08820888447  )
         9           Si  tau(   9) = (    0.17706133506   -0.00072790029    0.17773280721  )
        10           Ge  tau(  10) = (    0.26507687822    0.08885333992    0.26490598826  )
        11           Si  tau(  11) = (    0.35286613044    0.17827660937    0.17656193554  )
        12           Ge  tau(  12) = (    0.44219062031    0.26374739838    0.26385220070  )
        13           Ge  tau(  13) = (    0.52864612663    0.35273444935    0.17525770170  )
        14           Si  tau(  14) = (    0.61989558327    0.44279308948    0.26627246275  )
        15           Si  tau(  15) = (    0.70605343116    0.53083468401    0.17585745539  )
        16           Ge  tau(  16) = (    0.79525168822    0.61963946455    0.26408915667  )
        17           Si  tau(  17) = (    0.35270056721   -0.00048697629    0.35516459224  )
        18           Si  tau(  18) = (    0.44298694250    0.08807672210    0.44242422004  )
        19           Ge  tau(  19) = (    0.53028438214    0.17583895488    0.35208032861  )
        20           Si  tau(  20) = (    0.61704658194    0.26534621753    0.44253088213  )
        21           Ge  tau(  21) = (    0.70691060422    0.35221086102    0.35321665231  )
        22           Ge  tau(  22) = (    0.79410226657    0.44181083848    0.44125202420  )
        23           Ge  tau(  23) = (    0.88405709967    0.53066017047    0.35359021084  )
        24           Si  tau(  24) = (    0.97186946441    0.61998266205    0.44093094440  )
        25           Si  tau(  25) = (    0.52965812964    0.00164102787    0.53189373280  )
        26           Si  tau(  26) = (    0.61876157991    0.08918231027    0.61971854059  )
        27           Si  tau(  27) = (    0.70577535615    0.17752119973    0.53120922468  )
        28           Ge  tau(  28) = (    0.79525847376    0.26444030618    0.62036842861  )
        29           Ge  tau(  29) = (    0.88446583080    0.35274633790    0.53088511418  )
        30           Si  tau(  30) = (    0.97331310289    0.44235379930    0.61831675039  )
        31           Ge  tau(  31) = (    1.06133014443    0.53045254721    0.52955295697  )
        32           Ge  tau(  32) = (    1.14947268700    0.61994709456    0.61709606590  )
        33           Si  tau(  33) = (    0.00072780882    0.17508772969    0.17705186786  )
        34           Ge  tau(  34) = (    0.08876081232    0.26510357848    0.26611501164  )
        35           Si  tau(  35) = (    0.17692617731    0.35265752987    0.17683876008  )
        36           Si  tau(  36) = (    0.26442238870    0.44226251004    0.26645305237  )
        37           Si  tau(  37) = (    0.35258389027    0.52902758465    0.17717090479  )
        38           Si  tau(  38) = (    0.44066249101    0.62006581143    0.26494172025  )
        39           Ge  tau(  39) = (    0.52938881580    0.70868155282    0.17820377073  )
        40           Si  tau(  40) = (    0.61729476439    0.79417070714    0.26404695414  )
        41           Ge  tau(  41) = (    0.17696451612    0.17514096904    0.35477619067  )
        42           Si  tau(  42) = (    0.26541174039    0.26594218919    0.44081659081  )
        43           Ge  tau(  43) = (    0.35396817318    0.35274812516    0.35320386901  )
        44           Si  tau(  44) = (    0.44347905623    0.44227990668    0.44044493948  )
        45           Si  tau(  45) = (    0.53057430875    0.53199702904    0.35270261572  )
        46           Si  tau(  46) = (    0.61977211567    0.61921071401    0.44123098796  )
        47           Ge  tau(  47) = (    0.70736823035    0.70850017716    0.35280349903  )
        48           Si  tau(  48) = (    0.79447272751    0.79458256404    0.44028663830  )
        49           Ge  tau(  49) = (    0.35364348980    0.17674434807    0.52919351173  )
        50           Ge  tau(  50) = (    0.44195372743    0.26532133109    0.61759166635  )
        51           Si  tau(  51) = (    0.53120438513    0.35398937172    0.53134246238  )
        52           Si  tau(  52) = (    0.61927198715    0.44344562849    0.61996182177  )
        53           Si  tau(  53) = (    0.70872148881    0.53094336441    0.52877990116  )
        54           Ge  tau(  54) = (    0.79527366982    0.62002132434    0.61943536423  )
        55           Ge  tau(  55) = (    0.88432537817    0.70762285179    0.53061534177  )
        56           Ge  tau(  56) = (    0.97293293842    0.79714244238    0.61981527510  )
        57           Si  tau(  57) = (    0.53074727997    0.17649859571    0.70805959531  )
        58           Si  tau(  58) = (    0.61863282715    0.26452655065    0.79512130578  )
        59           Ge  tau(  59) = (    0.70704868329    0.35490339400    0.70762139787  )
        60           Ge  tau(  60) = (    0.79480454287    0.44253957769    0.79613696284  )
        61           Ge  tau(  61) = (    0.88304183333    0.53077818573    0.70616345747  )
        62           Ge  tau(  62) = (    0.97387813723    0.61773393828    0.79705006585  )
        63           Ge  tau(  63) = (    1.05906793106    0.70558883595    0.70852881378  )
        64           Si  tau(  64) = (    1.14752706288    0.79542607805    0.79616051442  )
        65           Ge  tau(  65) = (   -0.00159656059    0.35373337499    0.35312860050  )
        66           Si  tau(  66) = (    0.08989401040    0.44347163296    0.44362067467  )
        67           Ge  tau(  67) = (    0.17514248344    0.53098824640    0.35460525236  )
        68           Ge  tau(  68) = (    0.26489322926    0.61975260195    0.44090984413  )
        69           Si  tau(  69) = (    0.35386767624    0.70661126400    0.35497600652  )
        70           Si  tau(  70) = (    0.44049984395    0.79682923292    0.44185464029  )
        71           Si  tau(  71) = (    0.52869638865    0.88445852627    0.35328286553  )
        72           Si  tau(  72) = (    0.61775089579    0.97352000571    0.44325430133  )
        73           Ge  tau(  73) = (    0.17577024191    0.35443779100    0.53111053135  )
        74           Ge  tau(  74) = (    0.26485614903    0.44072488897    0.61903306324  )
        75           Si  tau(  75) = (    0.35219383664    0.52981254312    0.53061040223  )
        76           Ge  tau(  76) = (    0.44050214078    0.62031206799    0.61952415059  )
        77           Si  tau(  77) = (    0.52998395138    0.70844061195    0.53132706410  )
        78           Si  tau(  78) = (    0.61755620989    0.79438883389    0.61880979781  )
        79           Si  tau(  79) = (    0.70568642343    0.88497160901    0.52967802755  )
        80           Ge  tau(  80) = (    0.79544918466    0.97299769734    0.61854555151  )
        81           Si  tau(  81) = (    0.35521979311    0.35270858755    0.70813550638  )
        82           Si  tau(  82) = (    0.44168622857    0.44155392465    0.79596532805  )
        83           Si  tau(  83) = (    0.53135702219    0.52954229214    0.70732299411  )
        84           Ge  tau(  84) = (    0.61929111513    0.61714050526    0.79674011390  )
        85           Si  tau(  85) = (    0.70854018213    0.70728002022    0.70558241674  )
        86           Ge  tau(  86) = (    0.79668733610    0.79547099607    0.79551643618  )
        87           Ge  tau(  87) = (    0.88363240781    0.88453016759    0.70755261565  )
        88           Si  tau(  88) = (    0.97251059235    0.97282603637    0.79487500985  )
        89           Si  tau(  89) = (    0.52976178115    0.35327887522    0.88385229604  )
        90           Ge  tau(  90) = (    0.62038893599    0.44306255455    0.97134799178  )
        91           Ge  tau(  91) = (    0.70717924905    0.53058512424    0.88545465433  )
        92           Ge  tau(  92) = (    0.79582590770    0.62008720338    0.97373199162  )
        93           Ge  tau(  93) = (    0.88296980055    0.70833541189    0.88402866060  )
        94           Ge  tau(  94) = (    0.97228527380    0.79419026684    0.97389444994  )
        95           Si  tau(  95) = (    1.06222507828    0.88488035429    0.88342983002  )
        96           Ge  tau(  96) = (    1.14742047589    0.97203381261    0.97165268202  )
        97           Ge  tau(  97) = (    0.00085759093    0.53120299361    0.53075166888  )
        98           Ge  tau(  98) = (    0.08977526099    0.61939902478    0.61923549174  )
        99           Ge  tau(  99) = (    0.17743122598    0.70817994387    0.53191807542  )
       100           Si  tau( 100) = (    0.26561134798    0.79550947250    0.61899887084  )
       101           Si  tau( 101) = (    0.35355058714    0.88274537213    0.53055384658  )
       102           Si  tau( 102) = (    0.44144903113    0.97324670192    0.62014939450  )
       103           Si  tau( 103) = (    0.53019656331    1.05972692109    0.53098437121  )
       104           Ge  tau( 104) = (    0.61998842442    1.15008439676    0.61815872877  )
       105           Si  tau( 105) = (    0.17803617231    0.53093261207    0.70714228428  )
       106           Ge  tau( 106) = (    0.26404937640    0.61945020168    0.79643985122  )
       107           Si  tau( 107) = (    0.35495709504    0.70562483709    0.70703719411  )
       108           Si  tau( 108) = (    0.44040398516    0.79594754362    0.79563786206  )
       109           Si  tau( 109) = (    0.53189193059    0.88299685406    0.70617564916  )
       110           Si  tau( 110) = (    0.61956958562    0.97275247875    0.79601190165  )
       111           Ge  tau( 111) = (    0.70834618652    1.06154228996    0.70714399278  )
       112           Si  tau( 112) = (    0.79462726684    1.14794034518    0.79406521347  )
       113           Ge  tau( 113) = (    0.35324787214    0.53075421312    0.88436398378  )
       114           Ge  tau( 114) = (    0.44109632012    0.62003609533    0.97142658736  )
       115           Si  tau( 115) = (    0.53117641633    0.70785223382    0.88532473249  )
       116           Ge  tau( 116) = (    0.61887457187    0.79506744375    0.97301723945  )
       117           Si  tau( 117) = (    0.70657890016    0.88527252226    0.88296912332  )
       118           Si  tau( 118) = (    0.79653079039    0.97114843263    0.97331426146  )
       119           Ge  tau( 119) = (    0.88222370366    1.05978856071    0.88526876893  )
       120           Si  tau( 120) = (    0.97280942363    1.14837105181    0.97288637091  )
       121           Si  tau( 121) = (    0.53030183621    0.53051705550    1.06012139368  )
       122           Ge  tau( 122) = (    0.61960527652    0.61809011199    1.15069314538  )
       123           Si  tau( 123) = (    0.70743841169    0.70760777844    1.05924437451  )
       124           Ge  tau( 124) = (    0.79414437788    0.79586817287    1.14992825766  )
       125           Ge  tau( 125) = (    0.88313965165    0.88477692446    1.05952148052  )
       126           Ge  tau( 126) = (    0.97148490776    0.97088699025    1.14794069302  )
       127           Ge  tau( 127) = (    1.06125994622    1.06064378829    1.06065817239  )
       128           Si  tau( 128) = (    1.15013099539    1.15018661082    1.14821168346  )

   Crystallographic axes

     site n.     atom                  positions (cryst. coord.)
         1           Si  tau(   1) = (   -0.00059722075   -0.00170192832    0.00016585100  )
         2           Ge  tau(   2) = (    0.06303621227    0.06132131868    0.06434856964  )
         3           Si  tau(   3) = (   -0.00284630768    0.00104129387    0.25061547660  )
         4           Ge  tau(   4) = (    0.06402548685    0.05996566924    0.31274940076  )
         5           Si  tau(   5) = (    0.00179221728   -0.00193483109    0.49990560072  )
         6           Ge  tau(   6) = (    0.06344383136    0.06263251645    0.56236576543  )
         7           Ge  tau(   7) = (   -0.00028116752   -0.00129202140    0.75074610823  )
         8           Ge  tau(   8) = (    0.06172912983    0.06301707091    0.81346325547  )
         9           Si  tau(   9) = (   -0.00003990072    0.25139204716   -0.00098950574  )
        10           Ge  tau(  10) = (    0.06270796173    0.31192567961    0.06294963665  )
        11           Si  tau(  11) = (    0.00139470766    0.24830157619    0.25072649118  )
        12           Ge  tau(  12) = (    0.06039326806    0.31275009262    0.31260187977  )
        13           Ge  tau(  13) = (   -0.00046243057    0.24831424922    0.49930427276  )
        14           Si  tau(  14) = (    0.06305268973    0.31351343838    0.56315130273  )
        15           Si  tau(  15) = (    0.00045163493    0.24824836353    0.75026197458  )
        16           Ge  tau(  16) = (    0.06256263930    0.31091582774    0.81373989524  )
        17           Si  tau(  17) = (    0.00139798457    0.50088059865   -0.00208667305  )
        18           Si  tau(  18) = (    0.06188174259    0.56380058971    0.06267755233  )
        19           Ge  tau(  19) = (   -0.00167237730    0.49958915306    0.25034621208  )
        20           Si  tau(  20) = (    0.06422687502    0.56160630026    0.31102934453  )
        21           Ge  tau(  21) = (   -0.00104870363    0.50057248378    0.49915008009  )
        22           Ge  tau(  22) = (    0.06290464077    0.56111995628    0.56191023902  )
        23           Ge  tau(  23) = (    0.00013667076    0.49991540093    0.75033013933  )
        24           Si  tau(  24) = (    0.06296371666    0.56060680498    0.81382417244  )
        25           Si  tau(  25) = (    0.00274119209    0.74947013858   -0.00042042822  )
        26           Si  tau(  26) = (    0.06373808974    0.81267627522    0.06238474296  )
        27           Si  tau(  27) = (    0.00208954880    0.74915374120    0.24896333947  )
        28           Ge  tau(  28) = (    0.06332159682    0.81401184858    0.31065347061  )
        29           Ge  tau(  29) = (   -0.00058999485    0.75137492339    0.49944864999  )
        30           Si  tau(  30) = (    0.06177104302    0.81266089123    0.56381169932  )
        31           Ge  tau(  31) = (   -0.00093666211    0.74983763584    0.75110984856  )
        32           Ge  tau(  32) = (    0.06192167562    0.81078395007    0.81481591346  )
        33           Si  tau(  33) = (    0.24848565879    0.00190349397   -0.00087421686  )
        34           Ge  tau(  34) = (    0.31286489507    0.06347856354    0.06204818105  )
        35           Si  tau(  35) = (    0.24930471749    0.00078305536    0.24942834412  )
        36           Si  tau(  36) = (    0.31416271596    0.06265880443    0.31129092386  )
        37           Si  tau(  37) = (    0.25004328100    0.00051421541    0.49811470408  )
        38           Si  tau(  38) = (    0.31419939144    0.06048478258    0.56270608864  )
        39           Ge  tau(  39) = (    0.25278820488   -0.00077001545    0.74943885852  )
        40           Si  tau(  40) = (    0.31177957037    0.06163921327    0.81134741451  )
        41           Ge  tau(  41) = (    0.24957520772    0.25215409273   -0.00188847398  )
        42           Si  tau(  42) = (    0.31207948456    0.31132931668    0.06401956620  )
        43           Ge  tau(  43) = (    0.24889014669    0.25061555515    0.24997103602  )
        44           Si  tau(  44) = (    0.31059367667    0.31228953022    0.31488456573  )
        45           Si  tau(  45) = (    0.25040442648    0.24839239615    0.50195298713  )
        46           Si  tau(  46) = (    0.31160045274    0.31239439457    0.56409573698  )
        47           Ge  tau(  47) = (    0.25027015385    0.24866933933    0.75170040563  )
        48           Si  tau(  48) = (    0.31140733376    0.31125200146    0.81230210473  )
        49           Ge  tau(  49) = (    0.24910973800    0.49928290341    0.00084451611  )
        50           Ge  tau(  50) = (    0.31180529005    0.56160122051    0.06341573476  )
        51           Si  tau(  51) = (    0.25040592058    0.50102579599    0.25021064985  )
        52           Si  tau(  52) = (    0.31405119772    0.56270721877    0.31307562426  )
        53           Si  tau(  53) = (    0.24819573656    0.49961197117    0.50267157025  )
        54           Ge  tau(  54) = (    0.31408482465    0.56192906846    0.56275774120  )
        55           Ge  tau(  55) = (    0.25025415171    0.50014926103    0.75047568233  )
        56           Ge  tau(  56) = (    0.31397293229    0.56257823593    0.81335672086  )
        57           Si  tau(  57) = (    0.25018209446    0.75116538820   -0.00057538667  )
        58           Si  tau(  58) = (    0.31184471781    0.81262661656    0.06225231773  )
        59           Ge  tau(  59) = (    0.25135956692    0.74936821096    0.25054962620  )
        60           Ge  tau(  60) = (    0.31386489953    0.81204279083    0.31198057313  )
        61           Ge  tau(  61) = (    0.25024495542    0.74842098339    0.50038875346  )
        62           Ge  tau(  62) = (    0.31176752835    0.81543148467    0.56184018511  )
        63           Ge  tau(  63) = (    0.25105806373    0.75095299405    0.74679523753  )
        64           Si  tau(  64) = (    0.31399750462    0.81194349270    0.81090484282  )
        65           Ge  tau(  65) = (    0.50095583505   -0.00155657896   -0.00070129868  )
        66           Si  tau(  66) = (    0.56370432192    0.06367005275    0.06345927594  )
        67           Ge  tau(  67) = (    0.50236473064   -0.00087717346    0.24856604889  )
        68           Ge  tau(  68) = (    0.56269380947    0.06084687188    0.31376872552  )
        69           Si  tau(  69) = (    0.50043332430    0.00157855845    0.49886590858  )
        70           Si  tau(  70) = (    0.56440133972    0.06047548517    0.56248536836  )
        71           Si  tau(  71) = (    0.50137052990   -0.00175311011    0.74944271331  )
        72           Si  tau(  72) = (    0.56499487242    0.06186137210    0.81177032290  )
        73           Ge  tau(  73) = (    0.50188889382    0.24921482274   -0.00063816277  )
        74           Ge  tau(  74) = (    0.56208045540    0.31336449818    0.06119865985  )
        75           Si  tau(  75) = (    0.50079360540    0.24960282177    0.24847447860  )
        76           Ge  tau(  76) = (    0.56521454685    0.31092490913    0.31203919261  )
        77           Si  tau(  77) = (    0.50189288489    0.24951705522    0.49999343666  )
        78           Si  tau(  78) = (    0.56260415187    0.31252505673    0.56083131082  )
        79           Si  tau(  79) = (    0.50131269562    0.24776515464    0.75022615616  )
        80           Ge  tau(  80) = (    0.56292351125    0.31183199665    0.81310302848  )
        81           Si  tau(  81) = (    0.49895172808    0.50250310904   -0.00014646001  )
        82           Si  tau(  82) = (    0.56273892806    0.56292603406    0.06171262070  )
        83           Si  tau(  83) = (    0.49886967771    0.50143609355    0.25001621369  )
        84           Ge  tau(  84) = (    0.56185962656    0.56490104821    0.31090884587  )
        85           Si  tau(  85) = (    0.49803104253    0.49981318059    0.50221395446  )
        86           Ge  tau(  86) = (    0.56165498429    0.56337514885    0.56331088683  )
        87           Ge  tau(  87) = (    0.50095006460    0.49968044054    0.74996449473  )
        88           Si  tau(  88) = (    0.56228456227    0.56183845705    0.81349921220  )
        89           Si  tau(  89) = (    0.50018569256    0.74977021164   -0.00057391591  )
        90           Ge  tau(  90) = (    0.56145806508    0.81223543868    0.06512700854  )
        91           Ge  tau(  91) = (    0.50124008734    0.75098189368    0.24912059136  )
        92           Ge  tau(  92) = (    0.56426646479    0.81279852387    0.31266926809  )
        93           Ge  tau(  93) = (    0.50161750022    0.74858782113    0.50012004598  )
        94           Ge  tau(  94) = (    0.56271518259    0.81457955683    0.56043946387  )
        95           Si  tau(  95) = (    0.49927756657    0.75008088045    0.75213223155  )
        96           Ge  tau(  96) = (    0.56304510148    0.81107929935    0.81161829940  )
        97           Ge  tau(  97) = (    0.75030893480    0.00028727359    0.00092554313  )
        98           Ge  tau(  98) = (    0.81236617021    0.06336506051    0.06359633115  )
        99           Ge  tau(  99) = (    0.75141889569    0.00082686063    0.25009878553  )
       100           Si  tau( 100) = (    0.81239285631    0.06300374193    0.31262742869  )
       101           Si  tau( 101) = (    0.74935544373    0.00096100167    0.49903503366  )
       102           Si  tau( 102) = (    0.81454958144    0.06247410296    0.56182910395  )
       103           Si  tau( 103) = (    0.74989715642    0.00102814275    0.74878302780  )
       104           Ge  tau( 104) = (    0.81193868569    0.06226977224    0.81452626609  )
       105           Si  tau( 105) = (    0.74956057009    0.25048963886    0.00129153061  )
       106           Ge  tau( 106) = (    0.81447435320    0.31186168601    0.06156052324  )
       107           Si  tau( 107) = (    0.74791033286    0.25199125616    0.24999388171  )
       108           Si  tau( 108) = (    0.81400818882    0.31119366644    0.31163162230  )
       109           Si  tau( 109) = (    0.74761026252    0.25107291794    0.50113586402  )
       110           Si  tau( 110) = (    0.81260343230    0.31312739483    0.56307631599  )
       111           Ge  tau( 111) = (    0.74977367240    0.25027895274    0.75147383110  )
       112           Si  tau( 112) = (    0.81131897073    0.31165882357    0.81211383422  )
       113           Ge  tau( 113) = (    0.75085570737    0.49982383256   -0.00025590089  )
       114           Ge  tau( 114) = (    0.81343185583    0.56037279886    0.06343159936  )
       115           Si  tau( 115) = (    0.75094779052    0.50109045328    0.25010643870  )
       116           Ge  tau( 116) = (    0.81261426274    0.56343991372    0.31178089922  )
       117           Si  tau( 117) = (    0.75070892662    0.49799798274    0.50125548075  )
       118           Si  tau( 118) = (    0.81171043345    0.56476379556    0.56170085105  )
       119           Ge  tau( 119) = (    0.75153686421    0.50042223516    0.74723049159  )
       120           Si  tau( 120) = (    0.81207536800    0.56379373238    0.81196654811  )
       121           Si  tau( 121) = (    0.74977120938    0.74946684333    0.00049320559  )
       122           Ge  tau( 122) = (    0.81259154305    0.81473430928    0.06151987609  )
       123           Si  tau( 123) = (    0.74911864053    0.74887911977    0.25158987658  )
       124           Ge  tau( 124) = (    0.81434097600    0.81190316174    0.31118658793  )
       125           Ge  tau( 125) = (    0.75035255039    0.74803709698    0.50091097585  )
       126           Ge  tau( 126) = (    0.81129385691    0.81213943996    0.56174769223  )
       127           Ge  tau( 127) = (    0.74956289677    0.75043427566    0.75041393348  )
       128           Si  tau( 128) = (    0.81194759366    0.81186894156    0.81466191063  )

     number of k points=     8  gaussian smearing, width (Ry)=  0.0150
                       cart. coord. in units 2pi/alat
        k(    1) = (   0.0000000   0.0000000   0.0000000), wk =   0.2500000
        k(    2) = (  -0.3535534  -0.3535534   0.3535534), wk =   0.2500000
        k(    3) = (  -0.7071068   0.0000000   0.0000000), wk =   0.2500000
        k(    4) = (   0.3535534   0.3535534   0.3535534), wk =   0.2500000
        k(    5) = (   0.3535534  -0.3535534  -0.3535534), wk =   0.2500000
        k(    6) = (  -0.3535534   0.3535534  -0.3535534), wk =   0.2500000
        k(    7) = (   0.0000000  -0.7071068   0.0000000), wk =   0.2500000
        k(    8) = (   0.0000000   0.0000000  -0.7071068), wk =   0.2500000

                       cryst. coord.
        k(    1) = (   0.0000000   0.0000000   0.0000000), wk =   0.2500000
        k(    2) = (   0.0000000   0.0000000  -0.5000000), wk =   0.2500000
        k(    3) = (   0.0000000  -0.5000000  -0.5000000), wk =   0.2500000
        k(    4) = (   0.5000000   0.5000000   0.5000000), wk =   0.2500000
        k(    5) = (  -0.5000000   0.0000000   0.0000000), wk =   0.2500000
        k(    6) = (   0.0000000  -0.5000000   0.0000000), wk =   0.2500000
        k(    7) = (  -0.5000000   0.0000000  -0.5000000), wk =   0.2500000
        k(    8) = (  -0.5000000  -0.5000000   0.0000000), wk =   0.2500000

     Dense  grid:   876295 G-vectors     FFT dimensions: ( 135, 135, 135)

     Smooth grid:   513103 G-vectors     FFT dimensions: ( 120, 120, 120)

     Largest allocated arrays     est. size (Mb)     dimensions
        Kohn-Sham Wavefunctions        42.10 Mb     (    4028,  685)
        NL pseudopotentials           141.61 Mb     (    4028, 2304)
        Each V/rho on FFT grid          2.50 Mb     (  164025)
        Each G-vector array             0.42 Mb     (   54770)
        G-vector shells                 0.02 Mb     (    2932)
     Largest temporary arrays     est. size (Mb)     dimensions
        Auxiliary wavefunctions       168.41 Mb     (    4028, 2740)
        Each subspace H/S matrix      114.56 Mb     (    2740, 2740)
        Each <psi_i|beta_j> matrix     24.08 Mb     (    2304,  685)
        Arrays for rho mixing          20.02 Mb     (  164025,    8)

     Check: negative/imaginary core charge=   -0.000001    0.000000

     Initial potential from superposition of free atoms

     starting charge 1141.90696, renormalised to 1142.00000
     Starting wfc are  827 randomized atomic wfcs

     total cpu time spent up to now is      700.7 secs

     per-process dynamical memory:   582.3 Mb

     Self-consistent Calculation

     iteration #  1     ecut=    35.00 Ry     beta=0.30
     Davidson diagonalization with overlap
     ethr =  1.00E-02,  avg # of iterations =  3.0

     Threshold (ethr) on eigenvalues was too large:
     Diagonalizing with lowered threshold

     Davidson diagonalization with overlap
     ethr =  2.46E-04,  avg # of iterations =  3.9

     total cpu time spent up to now is     5479.8 secs

     total energy              =  -14052.40193196 Ry
     Harris-Foulkes estimate   =  -14052.69536458 Ry
     estimated scf accuracy    <       2.82562602 Ry

     iteration #  2     ecut=    35.00 Ry     beta=0.30
     Davidson diagonalization with overlap
     ethr =  2.47E-04,  avg # of iterations =  1.0

     total cpu time spent up to now is     7168.7 secs

     total energy              =  -14051.84353396 Ry
     Harris-Foulkes estimate   =  -14052.41601783 Ry
     estimated scf accuracy    <       1.74475462 Ry

     iteration #  3     ecut=    35.00 Ry     beta=0.30
     Davidson diagonalization with overlap
     ethr =  1.53E-04,  avg # of iterations =  2.0

     total cpu time spent up to now is     9129.5 secs

     total energy              =  -14051.95073503 Ry
     Harris-Foulkes estimate   =  -14051.94961969 Ry
     estimated scf accuracy    <       0.02514878 Ry

     iteration #  4     ecut=    35.00 Ry     beta=0.30
     Davidson diagonalization with overlap
     ethr =  2.20E-06,  avg # of iterations =  9.5

     total cpu time spent up to now is    15252.8 secs

     total energy              =  -14051.95489696 Ry
     Harris-Foulkes estimate   =  -14051.95576307 Ry
     estimated scf accuracy    <       0.01110018 Ry

     iteration #  5     ecut=    35.00 Ry     beta=0.30
     Davidson diagonalization with overlap
     ethr =  9.72E-07,  avg # of iterations =  2.0

     total cpu time spent up to now is    17449.2 secs

     total energy              =  -14051.95579040 Ry
     Harris-Foulkes estimate   =  -14051.95592685 Ry
     estimated scf accuracy    <       0.00069637 Ry

     iteration #  6     ecut=    35.00 Ry     beta=0.30
     Davidson diagonalization with overlap
     ethr =  6.10E-08,  avg # of iterations =  2.0

     total cpu time spent up to now is    19167.1 secs

     total energy              =  -14051.95575461 Ry
     Harris-Foulkes estimate   =  -14051.95582388 Ry
     estimated scf accuracy    <       0.00022856 Ry

     iteration #  7     ecut=    35.00 Ry     beta=0.30
     Davidson diagonalization with overlap
     ethr =  2.00E-08,  avg # of iterations =  2.0

     total cpu time spent up to now is    21248.1 secs

     total energy              =  -14051.95578432 Ry
     Harris-Foulkes estimate   =  -14051.95577966 Ry
     estimated scf accuracy    <       0.00005024 Ry

     iteration #  8     ecut=    35.00 Ry     beta=0.30
     Davidson diagonalization with overlap
     ethr =  4.40E-09,  avg # of iterations =  2.0

     total cpu time spent up to now is    23087.4 secs

     total energy              =  -14051.95577998 Ry
     Harris-Foulkes estimate   =  -14051.95578700 Ry
     estimated scf accuracy    <       0.00003091 Ry

     iteration #  9     ecut=    35.00 Ry     beta=0.30
     Davidson diagonalization with overlap
     ethr =  2.71E-09,  avg # of iterations =  2.5

     total cpu time spent up to now is    25754.1 secs

     total energy              =  -14051.95578415 Ry
     Harris-Foulkes estimate   =  -14051.95578606 Ry
     estimated scf accuracy    <       0.00000744 Ry

     iteration # 10     ecut=    35.00 Ry     beta=0.30
     Davidson diagonalization with overlap
     ethr =  6.51E-10,  avg # of iterations =  2.0

     total cpu time spent up to now is    27700.2 secs

     total energy              =  -14051.95578389 Ry
     Harris-Foulkes estimate   =  -14051.95578470 Ry
     estimated scf accuracy    <       0.00000274 Ry

     iteration # 11     ecut=    35.00 Ry     beta=0.30
     Davidson diagonalization with overlap
     ethr =  2.40E-10,  avg # of iterations =  2.3

     total cpu time spent up to now is    29774.7 secs

     total energy              =  -14051.95578446 Ry
     Harris-Foulkes estimate   =  -14051.95578432 Ry
     estimated scf accuracy    <       0.00000017 Ry

     iteration # 12     ecut=    35.00 Ry     beta=0.30
     Davidson diagonalization with overlap
     ethr =  1.50E-11,  avg # of iterations =  3.0

     total cpu time spent up to now is    31930.9 secs

     total energy              =  -14051.95578454 Ry
     Harris-Foulkes estimate   =  -14051.95578448 Ry
     estimated scf accuracy    <       0.00000006 Ry

     iteration # 13     ecut=    35.00 Ry     beta=0.30
     Davidson diagonalization with overlap
     ethr =  5.21E-12,  avg # of iterations =  2.1

     total cpu time spent up to now is    34108.1 secs

     total energy              =  -14051.95578459 Ry
     Harris-Foulkes estimate   =  -14051.95578455 Ry
     estimated scf accuracy    <          4.1E-09 Ry

     iteration # 14     ecut=    35.00 Ry     beta=0.30
     Davidson diagonalization with overlap
     ethr =  3.55E-13,  avg # of iterations =  3.0

     total cpu time spent up to now is    36614.7 secs

     total energy              =  -14051.95578461 Ry
     Harris-Foulkes estimate   =  -14051.95578459 Ry
     estimated scf accuracy    <          1.3E-09 Ry

     iteration # 15     ecut=    35.00 Ry     beta=0.30
     Davidson diagonalization with overlap
     ethr =  1.16E-13,  avg # of iterations =  2.5

     total cpu time spent up to now is    38829.1 secs

     End of self-consistent calculation

          k = 0.0000 0.0000 0.0000 ( 64071 PWs)   bands (ev):

   -17.3921 -17.3821 -17.3738 -17.3643 -17.3626 -17.3598 -17.3589 -17.3542
   -17.3515 -17.3484 -17.3467 -17.3431 -17.3425 -17.3411 -17.3328 -17.3312
   -17.3284 -17.3262 -17.3252 -17.3201 -17.3176 -17.3157 -17.3087 -17.3019
   -17.3008 -17.2956 -17.2940 -17.2930 -17.2889 -17.2864 -17.2848 -17.2822
   -17.2814 -17.2777 -17.2767 -17.2709 -17.2705 -17.2679 -17.2676 -17.2620
   -17.2604 -17.2600 -17.2571 -17.2557 -17.2531 -17.2528 -17.2504 -17.2493
   -17.2454 -17.2435 -17.2424 -17.2398 -17.2377 -17.2359 -17.2329 -17.2320
   -17.2295 -17.2286 -17.2241 -17.2234 -17.2221 -17.2204 -17.2194 -17.2168
   -17.2140 -17.2131 -17.2113 -17.2102 -17.2071 -17.2062 -17.2042 -17.2032
   -17.1978 -17.1974 -17.1949 -17.1931 -17.1929 -17.1916 -17.1902 -17.1894
   -17.1868 -17.1847 -17.1842 -17.1832 -17.1817 -17.1779 -17.1736 -17.1713
   -17.1700 -17.1679 -17.1659 -17.1657 -17.1647 -17.1630 -17.1618 -17.1578
   -17.1570 -17.1563 -17.1535 -17.1522 -17.1509 -17.1490 -17.1465 -17.1435
   -17.1424 -17.1418 -17.1417 -17.1406 -17.1394 -17.1378 -17.1374 -17.1372
   -17.1365 -17.1361 -17.1341 -17.1333 -17.1324 -17.1312 -17.1304 -17.1289
   -17.1284 -17.1276 -17.1261 -17.1255 -17.1247 -17.1235 -17.1234 -17.1213
   -17.1207 -17.1190 -17.1181 -17.1162 -17.1147 -17.1134 -17.1099 -17.1079
   -17.1068 -17.1052 -17.1043 -17.1035 -17.1027 -17.1017 -17.1004 -17.0986
   -17.0980 -17.0965 -17.0962 -17.0948 -17.0939 -17.0934 -17.0931 -17.0921
   -17.0910 -17.0901 -17.0895 -17.0865 -17.0855 -17.0849 -17.0846 -17.0829
   -17.0816 -17.0810 -17.0795 -17.0784 -17.0782 -17.0769 -17.0760 -17.0750
   -17.0739 -17.0732 -17.0728 -17.0721 -17.0717 -17.0695 -17.0689 -17.0686
   -17.0679 -17.0667 -17.0665 -17.0658 -17.0657 -17.0645 -17.0640 -17.0637
   -17.0635 -17.0631 -17.0627 -17.0622 -17.0618 -17.0612 -17.0608 -17.0601
   -17.0596 -17.0590 -17.0588 -17.0581 -17.0577 -17.0571 -17.0568 -17.0561
   -17.0550 -17.0541 -17.0540 -17.0536 -17.0532 -17.0526 -17.0515 -17.0509
   -17.0506 -17.0500 -17.0493 -17.0487 -17.0477 -17.0474 -17.0464 -17.0455
   -17.0450 -17.0445 -17.0441 -17.0427 -17.0423 -17.0419 -17.0409 -17.0396
   -17.0385 -17.0375 -17.0364 -17.0360 -17.0358 -17.0348 -17.0338 -17.0333
   -17.0331 -17.0322 -17.0314 -17.0302 -17.0299 -17.0297 -17.0296 -17.0289
   -17.0281 -17.0276 -17.0267 -17.0259 -17.0251 -17.0250 -17.0244 -17.0243
   -17.0227 -17.0223 -17.0210 -17.0204 -17.0196 -17.0185 -17.0171 -17.0155
   -17.0146 -17.0143 -17.0136 -17.0135 -17.0119 -17.0109 -17.0101 -17.0098
   -17.0086 -17.0070 -17.0069 -17.0068 -17.0065 -17.0063 -17.0049 -17.0047
   -17.0032 -17.0017 -17.0010 -16.9994 -16.9981 -16.9970 -16.9943 -16.9917
   -16.9902 -16.9892 -16.9885 -16.9867 -16.9859 -16.9845 -16.9830 -16.9820
   -16.9815 -16.9812 -16.9791 -16.9776 -16.9748 -16.9739 -16.9720 -16.9683
   -16.9679 -16.9655 -16.9653 -16.9639 -16.9625 -16.9615 -16.9597 -16.9582
   -16.9565 -16.9510 -16.9495 -16.9474 -16.9438 -16.9406 -16.9376 -16.9352
   -16.9344 -16.9324 -16.9292  -5.2077  -4.6057  -4.5809  -4.5664  -4.4972
    -4.4399  -4.3995  -4.2844  -4.2082  -4.1930  -4.1636  -4.0902  -4.0413
    -3.9995  -3.8829  -3.4615  -3.3923  -3.3675  -3.3448  -3.2971  -3.2437
    -3.2090  -3.1819  -3.1371  -3.1072  -3.0576  -3.0135  -2.9784  -2.8731
    -2.8590  -2.8123  -2.8031  -2.7616  -2.7380  -2.6761  -2.6510  -2.6335
    -2.6216  -2.5489  -2.5333  -2.4827  -2.4678  -2.4210  -2.4111  -2.3793
    -2.3414  -2.3195  -2.2980  -2.2523  -2.1949  -2.1545  -2.1112  -2.0846
    -2.0687  -2.0599  -1.3316  -1.2686  -1.1915  -1.1641  -1.0994  -1.0242
    -1.0193  -0.9841  -0.8866  -0.8806  -0.8678  -0.8243  -0.8188  -0.8100
    -0.7406  -0.7140  -0.6674  -0.6373  -0.0523  -0.0302   0.0050   0.0364
     0.1586   0.1694   0.2212   0.3002   0.3069   0.3422   0.3496   0.3651
     0.4126   0.4142   0.4354   0.4524   0.4793   0.4999   0.5296   0.5424
     0.5622   0.6107   0.6169   0.6524   0.6941   0.7033   0.7362   0.7688
     1.2009   1.2544   1.2737   1.3142   1.3254   1.3822   1.4241   1.4581
     1.4685   1.4802   1.5024   1.5474   2.9214   2.9375   2.9656   3.0188
     3.0200   3.0444   3.0942   3.1387   3.1923   3.2366   3.2733   3.3002
     3.3455   3.3577   3.3709   3.3717   3.3764   3.3784   3.3817   3.3891
     3.3938   3.3980   3.4010   3.4065   3.4111   3.4156   3.4493   3.4518
     3.4531   3.4554   3.4596   3.4664   3.4750   3.4790   3.4804   3.4892
     3.4938   3.5062   3.5937   3.6067   3.6107   3.6140   3.6237   3.6310
     3.6367   3.6405   3.6429   3.6485   3.6516   3.6545   3.6592   3.6672
     3.6724   3.6777   3.6800   3.6820   3.6898   3.6960   3.6987   3.7049
     3.7093   3.7242   4.3258   4.3294   4.3339   4.3381   4.3408   4.3462
     4.9546   4.9618   4.9680   4.9705   4.9737   4.9794   4.9813   4.9852
     4.9920   4.9928   4.9962   5.0002   5.0054   5.0071   5.0083   5.0117
     5.0172   5.0226   5.0270   5.0286   5.0370   5.0400   5.0439   5.0495
     5.3108   5.3148   5.3240   5.3323   5.3337   5.3450   5.3494   5.3564
     5.3639   5.3694   5.3712   5.3987   5.8597   5.8700   5.8757   5.8823
     5.8893   5.8936   5.9046   5.9091   5.9120   5.9276   5.9316   5.9408
     5.9988   6.0002   6.0114   6.0257   6.0281   6.0355   6.0465   6.0573
     6.4322   6.4545   6.4608   6.4681   6.4825   6.4848   6.5052   6.5121
     6.5238   6.5245   6.5350   6.5455   6.5486   6.5573   6.5685   6.5811
     7.3345   7.3439   7.3609   7.8880   7.9370   7.9476   7.9618   7.9707
     7.9952   8.0243   8.1162   8.1472   8.1835   8.2717   8.2751   8.2935
     8.3192   8.3406   8.3552   8.4962   8.5145   8.5456   8.5654   8.5900
     8.6153   8.6305   8.6411   8.6517   8.6593   8.6718   8.6821   8.6992
     8.7093   8.7187   8.7242   8.7355   8.7443   8.7608   8.7632   8.7695
     8.7885   8.7928   8.8084   8.8186   8.8270   8.8340   8.8505   8.8574
     8.8618   8.8929   8.9245   9.0886   9.4420   9.4596   9.4780   9.4810
     9.5044   9.5359   9.5465   9.5573   9.5806   9.6051   9.6432   9.6605
     9.8364   9.8496   9.8590  10.2229  10.2526  10.2738  10.2861  10.3295
    10.3603  10.6715  10.7078  10.7333  10.7350  10.7510  10.7698  10.7829
    10.7993  10.8081  10.8139  10.8213  10.8238  10.8369  10.8542  10.8604
    10.8675  10.8907  10.8930  10.9085  10.9291  10.9509  10.9742  10.9854
    11.0094  11.5035  11.5340  11.5436  11.5585  11.5722  11.5806  11.5938
    11.6070  11.6178  11.6254  11.6264  11.6444  11.6463  11.6546  11.6679
    11.6779  11.6870  11.6897  11.7076  11.7102

     occupation numbers 
     1.0000   1.0000   1.0000   1.0000   1.0000   1.0000   1.0000   1.0000
     1.0000   1.0000   1.0000   1.0000   1.0000   1.0000   1.0000   1.0000
     1.0000   1.0000   1.0000   1.0000   1.0000   1.0000   1.0000   1.0000
     1.0000   1.0000   1.0000   1.0000   1.0000   1.0000   1.0000   1.0000
     1.0000   1.0000   1.0000   1.0000   1.0000   1.0000   1.0000   1.0000
     1.0000   1.0000   1.0000   1.0000   1.0000   1.0000   1.0000   1.0000
     1.0000   1.0000   1.0000   1.0000   1.0000   1.0000   1.0000   1.0000
     1.0000   1.0000   1.0000   1.0000   1.0000   1.0000   1.0000   1.0000
     1.0000   1.0000   1.0000   1.0000   1.0000   1.0000   1.0000   1.0000
     1.0000   1.0000   1.0000   1.0000   1.0000   1.0000   1.0000   1.0000
     1.0000   1.0000   1.0000   1.0000   1.0000   1.0000   1.0000   1.0000
     1.0000   1.0000   1.0000   1.0000   1.0000   1.0000   1.0000   1.0000
     1.0000   1.0000   1.0000   1.0000   1.0000   1.0000   1.0000   1.0000
     1.0000   1.0000   1.0000   1.0000   1.0000   1.0000   1.0000   1.0000
     1.0000   1.0000   1.0000   1.0000   1.0000   1.0000   1.0000   1.0000
     1.0000   1.0000   1.0000   1.0000   1.0000   1.0000   1.0000   1.0000
     1.0000   1.0000   1.0000   1.0000   1.0000   1.0000   1.0000   1.0000
     1.0000   1.0000   1.0000   1.0000   1.0000   1.0000   1.0000   1.0000
     1.0000   1.0000   1.0000   1.0000   1.0000   1.0000   1.0000   1.0000
     1.0000   1.0000   1.0000   1.0000   1.0000   1.0000   1.0000   1.0000
     1.0000   1.0000   1.0000   1.0000   1.0000   1.0000   1.0000   1.0000
     1.0000   1.0000   1.0000   1.0000   1.0000   1.0000   1.0000   1.0000
     1.0000   1.0000   1.0000   1.0000   1.0000   1.0000   1.0000   1.0000
     1.0000   1.0000   1.0000   1.0000   1.0000   1.0000   1.0000   1.0000
     1.0000   1.0000   1.0000   1.0000   1.0000   1.0000   1.0000   1.0000
     1.0000   1.0000   1.0000   1.0000   1.0000   1.0000   1.0000   1.0000
     1.0000   1.0000   1.0000   1.0000   1.0000   1.0000   1.0000   1.0000
     1.0000   1.0000   1.0000   1.0000   1.0000   1.0000   1.0000   1.0000
     1.0000   1.0000   1.0000   1.0000   1.0000   1.0000   1.0000   1.0000
     1.0000   1.0000   1.0000   1.0000   1.0000   1.0000   1.0000   1.0000
     1.0000   1.0000   1.0000   1.0000   1.0000   1.0000   1.0000   1.0000
     1.0000   1.0000   1.0000   1.0000   1.0000   1.0000   1.0000   1.0000
     1.0000   1.0000   1.0000   1.0000   1.0000   1.0000   1.0000   1.0000
     1.0000   1.0000   1.0000   1.0000   1.0000   1.0000   1.0000   1.0000
     1.0000   1.0000   1.0000   1.0000   1.0000   1.0000   1.0000   1.0000
     1.0000   1.0000   1.0000   1.0000   1.0000   1.0000   1.0000   1.0000
     1.0000   1.0000   1.0000   1.0000   1.0000   1.0000   1.0000   1.0000
     1.0000   1.0000   1.0000   1.0000   1.0000   1.0000   1.0000   1.0000
     1.0000   1.0000   1.0000   1.0000   1.0000   1.0000   1.0000   1.0000
     1.0000   1.0000   1.0000   1.0000   1.0000   1.0000   1.0000   1.0000
     1.0000   1.0000   1.0000   1.0000   1.0000   1.0000   1.0000   1.0000
     1.0000   1.0000   1.0000   1.0000   1.0000   1.0000   1.0000   1.0000
     1.0000   1.0000   1.0000   1.0000   1.0000   1.0000   1.0000   1.0000
     1.0000   1.0000   1.0000   1.0000   1.0000   1.0000   1.0000   1.0000
     1.0000   1.0000   1.0000   1.0000   1.0000   1.0000   1.0000   1.0000
     1.0000   1.0000   1.0000   1.0000   1.0000   1.0000   1.0000   1.0000
     1.0000   1.0000   1.0000   1.0000   1.0000   1.0000   1.0000   1.0000
     1.0000   1.0000   1.0000   1.0000   1.0000   1.0000   1.0000   1.0000
     1.0000   1.0000   1.0000   1.0000   1.0000   1.0000   1.0000   1.0000
     1.0000   1.0000   1.0000   1.0000   1.0000   1.0000   1.0000   1.0000
     1.0000   1.0000   1.0000   1.0000   1.0000   1.0000   1.0000   1.0000
     1.0000   1.0000   1.0000   1.0000   1.0000   1.0000   1.0000   1.0000
     1.0000   1.0000   1.0000   1.0000   1.0000   1.0000   1.0000   1.0000
     1.0000   1.0000   1.0000   1.0000   1.0000   1.0000   1.0000   1.0000
     1.0000   1.0000   1.0000   1.0000   1.0000   1.0000   1.0000   1.0000
     1.0000   1.0000   1.0000   1.0000   1.0000   1.0000   1.0000   1.0000
     1.0000   1.0000   1.0000   1.0000   1.0000   1.0000   1.0000   1.0000
     1.0000   1.0000   1.0000   1.0000   1.0000   1.0000   1.0000   1.0000
     1.0000   1.0000   1.0000   1.0000   1.0000   1.0000   1.0000   1.0000
     1.0000   1.0000   1.0000   1.0000   1.0000   1.0000   1.0000   1.0000
     1.0000   1.0000   1.0000   1.0000   1.0000   1.0000   1.0000   1.0000
     1.0000   1.0000   1.0000   1.0000   1.0000   1.0000   1.0000   1.0000
     1.0000   1.0000   1.0000   1.0000   1.0000   1.0000   1.0000   1.0000
     1.0000   1.0000   1.0000   1.0000   1.0000   1.0000   1.0000   1.0000
     1.0000   1.0000   1.0000   1.0000   1.0000   1.0000   1.0000   1.0000
     1.0000   1.0000   1.0000   1.0000   1.0000   1.0000   1.0000   1.0000
     1.0000   1.0000   1.0000   1.0000   1.0000   1.0000   1.0000   1.0000
     1.0000   1.0000   1.0000   1.0000   1.0000   1.0000   1.0000   1.0000
     1.0000   1.0000   1.0000   1.0000   1.0000   1.0000   1.0000   1.0000
     1.0000   1.0000   1.0000   1.0000   1.0000   1.0000   1.0000   1.0000
     1.0000   1.0000   1.0000   1.0000   1.0000   1.0000   1.0000   1.0000
     0.9401   0.9319   0.9150   0.0113   0.0044   0.0035   0.0026   0.0022
     0.0012   0.0006   0.0001   0.0000   0.0000   0.0000   0.0000   0.0000
     0.0000   0.0000   0.0000   0.0000   0.0000   0.0000   0.0000   0.0000
     0.0000   0.0000   0.0000   0.0000   0.0000   0.0000   0.0000   0.0000
     0.0000   0.0000   0.0000   0.0000   0.0000   0.0000   0.0000   0.0000
     0.0000   0.0000   0.0000   0.0000   0.0000   0.0000   0.0000   0.0000
     0.0000   0.0000   0.0000   0.0000   0.0000   0.0000   0.0000   0.0000
     0.0000   0.0000   0.0000   0.0000   0.0000   0.0000   0.0000   0.0000
     0.0000   0.0000   0.0000   0.0000   0.0000   0.0000   0.0000   0.0000
     0.0000   0.0000   0.0000   0.0000   0.0000   0.0000   0.0000   0.0000
     0.0000   0.0000   0.0000   0.0000   0.0000   0.0000   0.0000   0.0000
     0.0000   0.0000   0.0000   0.0000   0.0000   0.0000   0.0000   0.0000
     0.0000   0.0000   0.0000   0.0000   0.0000   0.0000   0.0000   0.0000
     0.0000   0.0000   0.0000   0.0000   0.0000   0.0000   0.0000   0.0000
     0.0000   0.0000   0.0000   0.0000   0.0000

          k =-0.3536-0.3536 0.3536 ( 64114 PWs)   bands (ev):

   -17.3922 -17.3822 -17.3738 -17.3644 -17.3626 -17.3598 -17.3589 -17.3541
   -17.3517 -17.3485 -17.3466 -17.3431 -17.3426 -17.3411 -17.3327 -17.3312
   -17.3286 -17.3264 -17.3250 -17.3203 -17.3173 -17.3159 -17.3087 -17.3019
   -17.3008 -17.2957 -17.2942 -17.2931 -17.2889 -17.2864 -17.2846 -17.2819
   -17.2816 -17.2777 -17.2764 -17.2711 -17.2705 -17.2684 -17.2678 -17.2622
   -17.2603 -17.2601 -17.2571 -17.2556 -17.2528 -17.2519 -17.2511 -17.2492
   -17.2457 -17.2433 -17.2422 -17.2400 -17.2378 -17.2359 -17.2333 -17.2314
   -17.2296 -17.2289 -17.2244 -17.2234 -17.2221 -17.2207 -17.2190 -17.2167
   -17.2139 -17.2132 -17.2115 -17.2103 -17.2069 -17.2066 -17.2046 -17.2031
   -17.1986 -17.1970 -17.1948 -17.1939 -17.1919 -17.1905 -17.1900 -17.1895
   -17.1875 -17.1848 -17.1841 -17.1833 -17.1816 -17.1777 -17.1736 -17.1716
   -17.1701 -17.1680 -17.1660 -17.1655 -17.1647 -17.1630 -17.1618 -17.1579
   -17.1570 -17.1563 -17.1536 -17.1522 -17.1508 -17.1490 -17.1466 -17.1438
   -17.1422 -17.1419 -17.1417 -17.1403 -17.1397 -17.1378 -17.1374 -17.1372
   -17.1365 -17.1362 -17.1341 -17.1334 -17.1323 -17.1312 -17.1306 -17.1287
   -17.1282 -17.1280 -17.1261 -17.1253 -17.1249 -17.1235 -17.1234 -17.1213
   -17.1207 -17.1191 -17.1182 -17.1164 -17.1149 -17.1129 -17.1103 -17.1084
   -17.1069 -17.1056 -17.1042 -17.1034 -17.1026 -17.1012 -17.1002 -17.0991
   -17.0977 -17.0969 -17.0962 -17.0948 -17.0940 -17.0935 -17.0931 -17.0922
   -17.0916 -17.0904 -17.0878 -17.0869 -17.0865 -17.0853 -17.0845 -17.0828
   -17.0813 -17.0811 -17.0794 -17.0787 -17.0778 -17.0770 -17.0760 -17.0751
   -17.0740 -17.0731 -17.0727 -17.0721 -17.0714 -17.0691 -17.0690 -17.0686
   -17.0681 -17.0666 -17.0665 -17.0662 -17.0654 -17.0652 -17.0643 -17.0639
   -17.0637 -17.0632 -17.0630 -17.0621 -17.0614 -17.0612 -17.0610 -17.0596
   -17.0595 -17.0592 -17.0589 -17.0580 -17.0578 -17.0570 -17.0568 -17.0558
   -17.0552 -17.0541 -17.0538 -17.0536 -17.0530 -17.0529 -17.0526 -17.0516
   -17.0505 -17.0499 -17.0494 -17.0488 -17.0478 -17.0464 -17.0458 -17.0456
   -17.0451 -17.0448 -17.0443 -17.0428 -17.0420 -17.0418 -17.0411 -17.0396
   -17.0384 -17.0375 -17.0369 -17.0360 -17.0358 -17.0348 -17.0338 -17.0334
   -17.0330 -17.0321 -17.0316 -17.0305 -17.0300 -17.0299 -17.0294 -17.0291
   -17.0282 -17.0273 -17.0262 -17.0259 -17.0252 -17.0246 -17.0245 -17.0243
   -17.0235 -17.0226 -17.0212 -17.0205 -17.0196 -17.0188 -17.0167 -17.0157
   -17.0145 -17.0142 -17.0138 -17.0136 -17.0120 -17.0109 -17.0102 -17.0099
   -17.0086 -17.0071 -17.0070 -17.0069 -17.0064 -17.0060 -17.0049 -17.0047
   -17.0031 -17.0017 -17.0013 -16.9995 -16.9987 -16.9974 -16.9944 -16.9917
   -16.9905 -16.9889 -16.9878 -16.9869 -16.9862 -16.9838 -16.9829 -16.9822
   -16.9820 -16.9815 -16.9789 -16.9784 -16.9740 -16.9739 -16.9722 -16.9686
   -16.9678 -16.9655 -16.9652 -16.9640 -16.9625 -16.9616 -16.9597 -16.9581
   -16.9567 -16.9511 -16.9495 -16.9475 -16.9438 -16.9406 -16.9377 -16.9353
   -16.9344 -16.9325 -16.9293  -5.0447  -5.0058  -4.6198  -4.6049  -4.4746
    -4.4412  -4.3910  -4.3045  -4.1423  -4.0455  -3.9842  -3.9438  -3.8985
    -3.8363  -3.6092  -3.5827  -3.5436  -3.4847  -3.4749  -3.4067  -3.3787
    -3.3108  -3.2564  -3.1901  -3.1026  -3.0739  -3.0531  -3.0343  -3.0186
    -2.9428  -2.9258  -2.8984  -2.8870  -2.8510  -2.7878  -2.7504  -2.7144
    -2.6016  -2.5832  -2.5087  -2.4251  -2.3892  -2.2612  -2.2325  -2.1941
    -2.1507  -2.1362  -2.0675  -2.0153  -1.9173  -1.8584  -1.8321  -1.7819
    -1.7699  -1.7416  -1.7190  -1.7067  -1.6384  -1.6030  -1.5642  -1.5485
    -1.5095  -1.4675  -1.4120  -0.4694  -0.4056  -0.3467  -0.3206  -0.3159
    -0.2557  -0.2331  -0.2174  -0.1376  -0.1154  -0.1055  -0.0924  -0.0705
    -0.0114   0.0129   0.0318   0.0668   0.0983   0.1276   0.1362   0.2081
     0.2216   0.2422   0.2629   0.2908   0.3306   0.3420   0.3730   0.3900
     0.4106   0.8510   0.9053   0.9274   0.9644   0.9869   1.0261   1.0310
     1.0721   1.0852   1.0961   1.1383   1.1460   1.1769   1.1870   1.7934
     1.8201   1.8542   1.8888   1.9350   1.9665   2.2540   2.2823   2.3034
     2.3386   2.3640   2.3820   3.1174   3.1268   3.1446   3.1548   3.1599
     3.1646   3.1727   3.1769   3.1798   3.1856   3.1918   3.1972   3.2022
     3.2064   3.2078   3.2153   3.2270   3.2330   3.5453   3.6206   3.6769
     3.7207   3.7390   3.7572   3.7653   3.7704   3.7739   3.7817   3.7924
     3.7994   3.8231   3.8305   3.8336   3.8466   3.8494   3.8564   3.8655
     3.8738   3.8786   3.8844   3.8896   3.9032   4.2426   4.2485   4.2505
     4.2544   4.2561   4.2600   4.2651   4.2764   4.2775   4.2822   4.2930
     4.3054   4.4842   4.4923   4.5003   4.5116   4.5182   4.5225   4.5266
     4.5317   4.5328   4.5417   4.5494   4.5618   4.7983   4.8013   4.8102
     4.8246   4.8411   4.8464   4.8577   4.8637   4.8764   4.8862   4.8913
     4.9093   4.9908   4.9957   5.0068   5.0133   5.0232   5.0295   5.2595
     5.2637   5.2699   5.2714   5.2790   5.2817   5.2839   5.2985   5.3017
     5.3082   5.3084   5.3133   5.3196   5.3268   5.3296   5.3412   5.3588
     5.3665   5.4347   5.4555   5.6196   5.6415   5.6559   5.6686   5.6846
     5.6916   5.8893   5.8978   5.9086   5.9175   5.9229   5.9312   5.9372
     5.9516   5.9687   5.9740   5.9773   6.0035   6.1200   6.1432   6.1642
     6.1753   6.4425   6.4616   6.4878   6.4961   6.5099   6.5249   6.9928
     7.0295   7.0478   7.0571   8.0506   8.0905   8.1340   8.1552   8.1757
     8.1988   8.2600   8.2804   8.5007   8.5235   8.5546   8.5620   8.5988
     8.6136   8.9215   8.9460   8.9491   8.9723   8.9843   9.0250   9.0568
     9.0594   9.0708   9.1025   9.1266   9.1386   9.1398   9.1709   9.2033
     9.2177   9.2377   9.2523   9.2669   9.2973   9.3078   9.3272   9.3347
     9.3419   9.3563   9.3874   9.4428   9.4672   9.4822   9.5113   9.5306
     9.5650   9.5670   9.5805   9.5977   9.6005   9.6171   9.6300   9.6327
     9.6524   9.6595   9.6786   9.7095   9.7532   9.9471   9.9569   9.9661
     9.9913  10.0079  10.0126  10.0223  10.0417  10.0588  10.0661  10.0742
    10.0940  10.0994  10.1239  10.1352  10.1607  10.1644  10.1903  10.2644
    10.2801  10.2952  10.3157  10.4436  10.4688  10.4761  10.4886  10.5128
    10.5254  10.6240  10.6447  10.6676  10.6762  10.7081  10.7198  10.7275
    10.7417  10.7467  10.7531  10.7713  10.7824  10.7865  10.8074  10.8164
    10.8316  10.8433  10.8539  10.8786  10.8993  10.9137  10.9491  10.9852
    11.0088  11.0155  11.0536  11.0703  11.0874

     occupation numbers 
     1.0000   1.0000   1.0000   1.0000   1.0000   1.0000   1.0000   1.0000
     1.0000   1.0000   1.0000   1.0000   1.0000   1.0000   1.0000   1.0000
     1.0000   1.0000   1.0000   1.0000   1.0000   1.0000   1.0000   1.0000
     1.0000   1.0000   1.0000   1.0000   1.0000   1.0000   1.0000   1.0000
     1.0000   1.0000   1.0000   1.0000   1.0000   1.0000   1.0000   1.0000
     1.0000   1.0000   1.0000   1.0000   1.0000   1.0000   1.0000   1.0000
     1.0000   1.0000   1.0000   1.0000   1.0000   1.0000   1.0000   1.0000
     1.0000   1.0000   1.0000   1.0000   1.0000   1.0000   1.0000   1.0000
     1.0000   1.0000   1.0000   1.0000   1.0000   1.0000   1.0000   1.0000
     1.0000   1.0000   1.0000   1.0000   1.0000   1.0000   1.0000   1.0000
     1.0000   1.0000   1.0000   1.0000   1.0000   1.0000   1.0000   1.0000
     1.0000   1.0000   1.0000   1.0000   1.0000   1.0000   1.0000   1.0000
     1.0000   1.0000   1.0000   1.0000   1.0000   1.0000   1.0000   1.0000
     1.0000   1.0000   1.0000   1.0000   1.0000   1.0000   1.0000   1.0000
     1.0000   1.0000   1.0000   1.0000   1.0000   1.0000   1.0000   1.0000
     1.0000   1.0000   1.0000   1.0000   1.0000   1.0000   1.0000   1.0000
     1.0000   1.0000   1.0000   1.0000   1.0000   1.0000   1.0000   1.0000
     1.0000   1.0000   1.0000   1.0000   1.0000   1.0000   1.0000   1.0000
     1.0000   1.0000   1.0000   1.0000   1.0000   1.0000   1.0000   1.0000
     1.0000   1.0000   1.0000   1.0000   1.0000   1.0000   1.0000   1.0000
     1.0000   1.0000   1.0000   1.0000   1.0000   1.0000   1.0000   1.0000
     1.0000   1.0000   1.0000   1.0000   1.0000   1.0000   1.0000   1.0000
     1.0000   1.0000   1.0000   1.0000   1.0000   1.0000   1.0000   1.0000
     1.0000   1.0000   1.0000   1.0000   1.0000   1.0000   1.0000   1.0000
     1.0000   1.0000   1.0000   1.0000   1.0000   1.0000   1.0000   1.0000
     1.0000   1.0000   1.0000   1.0000   1.0000   1.0000   1.0000   1.0000
     1.0000   1.0000   1.0000   1.0000   1.0000   1.0000   1.0000   1.0000
     1.0000   1.0000   1.0000   1.0000   1.0000   1.0000   1.0000   1.0000
     1.0000   1.0000   1.0000   1.0000   1.0000   1.0000   1.0000   1.0000
     1.0000   1.0000   1.0000   1.0000   1.0000   1.0000   1.0000   1.0000
     1.0000   1.0000   1.0000   1.0000   1.0000   1.0000   1.0000   1.0000
     1.0000   1.0000   1.0000   1.0000   1.0000   1.0000   1.0000   1.0000
     1.0000   1.0000   1.0000   1.0000   1.0000   1.0000   1.0000   1.0000
     1.0000   1.0000   1.0000   1.0000   1.0000   1.0000   1.0000   1.0000
     1.0000   1.0000   1.0000   1.0000   1.0000   1.0000   1.0000   1.0000
     1.0000   1.0000   1.0000   1.0000   1.0000   1.0000   1.0000   1.0000
     1.0000   1.0000   1.0000   1.0000   1.0000   1.0000   1.0000   1.0000
     1.0000   1.0000   1.0000   1.0000   1.0000   1.0000   1.0000   1.0000
     1.0000   1.0000   1.0000   1.0000   1.0000   1.0000   1.0000   1.0000
     1.0000   1.0000   1.0000   1.0000   1.0000   1.0000   1.0000   1.0000
     1.0000   1.0000   1.0000   1.0000   1.0000   1.0000   1.0000   1.0000
     1.0000   1.0000   1.0000   1.0000   1.0000   1.0000   1.0000   1.0000
     1.0000   1.0000   1.0000   1.0000   1.0000   1.0000   1.0000   1.0000
     1.0000   1.0000   1.0000   1.0000   1.0000   1.0000   1.0000   1.0000
     1.0000   1.0000   1.0000   1.0000   1.0000   1.0000   1.0000   1.0000
     1.0000   1.0000   1.0000   1.0000   1.0000   1.0000   1.0000   1.0000
     1.0000   1.0000   1.0000   1.0000   1.0000   1.0000   1.0000   1.0000
     1.0000   1.0000   1.0000   1.0000   1.0000   1.0000   1.0000   1.0000
     1.0000   1.0000   1.0000   1.0000   1.0000   1.0000   1.0000   1.0000
     1.0000   1.0000   1.0000   1.0000   1.0000   1.0000   1.0000   1.0000
     1.0000   1.0000   1.0000   1.0000   1.0000   1.0000   1.0000   1.0000
     1.0000   1.0000   1.0000   1.0000   1.0000   1.0000   1.0000   1.0000
     1.0000   1.0000   1.0000   1.0000   1.0000   1.0000   1.0000   1.0000
     1.0000   1.0000   1.0000   1.0000   1.0000   1.0000   1.0000   1.0000
     1.0000   1.0000   1.0000   1.0000   1.0000   1.0000   1.0000   1.0000
     1.0000   1.0000   1.0000   1.0000   1.0000   1.0000   1.0000   1.0000
     1.0000   1.0000   1.0000   1.0000   1.0000   1.0000   1.0000   1.0000
     1.0000   1.0000   1.0000   1.0000   1.0000   1.0000   1.0000   1.0000
     1.0000   1.0000   1.0000   1.0000   1.0000   1.0000   1.0000   1.0000
     1.0000   1.0000   1.0000   1.0000   1.0000   1.0000   1.0000   1.0000
     1.0000   1.0000   1.0000   1.0000   1.0000   1.0000   1.0000   1.0000
     1.0000   1.0000   1.0000   1.0000   1.0000   1.0000   1.0000   1.0000
     1.0000   1.0000   1.0000   1.0000   1.0000   1.0000   1.0000   1.0000
     1.0000   1.0000   1.0000   1.0000   1.0000   1.0000   1.0000   1.0000
     1.0000   1.0000   1.0000   1.0000   1.0000   1.0000   1.0000   1.0000
     1.0000   1.0000   1.0000   1.0000   1.0000   1.0000   1.0000   1.0000
     1.0000   1.0000   1.0000   1.0000   1.0000   1.0000   1.0000   1.0000
     1.0000   1.0000   1.0000   1.0000   1.0000   1.0000   1.0000   1.0000
     1.0000   1.0000   1.0000   1.0000   1.0000   1.0000   1.0000   1.0000
     1.0000   1.0000   1.0000   1.0000   1.0000   1.0000   1.0000   1.0000
     1.0000   1.0000   1.0000   1.0000   1.0000   1.0000   1.0000   1.0000
     0.9999   0.9998   0.9997   0.0003   0.0001   0.0000   0.0000   0.0000
     0.0000   0.0000   0.0000   0.0000   0.0000   0.0000   0.0000   0.0000
     0.0000   0.0000   0.0000   0.0000   0.0000   0.0000   0.0000   0.0000
     0.0000   0.0000   0.0000   0.0000   0.0000   0.0000   0.0000   0.0000
     0.0000   0.0000   0.0000   0.0000   0.0000   0.0000   0.0000   0.0000
     0.0000   0.0000   0.0000   0.0000   0.0000   0.0000   0.0000   0.0000
     0.0000   0.0000   0.0000   0.0000   0.0000   0.0000   0.0000   0.0000
     0.0000   0.0000   0.0000   0.0000   0.0000   0.0000   0.0000   0.0000
     0.0000   0.0000   0.0000   0.0000   0.0000   0.0000   0.0000   0.0000
     0.0000   0.0000   0.0000   0.0000   0.0000   0.0000   0.0000   0.0000
     0.0000   0.0000   0.0000   0.0000   0.0000   0.0000   0.0000   0.0000
     0.0000   0.0000   0.0000   0.0000   0.0000   0.0000   0.0000   0.0000
     0.0000   0.0000   0.0000   0.0000   0.0000   0.0000   0.0000   0.0000
     0.0000   0.0000   0.0000   0.0000   0.0000   0.0000   0.0000   0.0000
     0.0000   0.0000   0.0000   0.0000   0.0000

          k =-0.7071 0.0000 0.0000 ( 64192 PWs)   bands (ev):

   -17.3922 -17.3821 -17.3738 -17.3637 -17.3627 -17.3600 -17.3590 -17.3532
   -17.3503 -17.3500 -17.3475 -17.3455 -17.3420 -17.3410 -17.3324 -17.3310
   -17.3282 -17.3270 -17.3245 -17.3202 -17.3178 -17.3159 -17.3084 -17.3018
   -17.3009 -17.2957 -17.2939 -17.2930 -17.2889 -17.2865 -17.2846 -17.2818
   -17.2815 -17.2777 -17.2766 -17.2717 -17.2700 -17.2680 -17.2677 -17.2620
   -17.2603 -17.2590 -17.2571 -17.2556 -17.2523 -17.2521 -17.2513 -17.2492
   -17.2460 -17.2431 -17.2417 -17.2400 -17.2383 -17.2362 -17.2334 -17.2317
   -17.2291 -17.2283 -17.2239 -17.2232 -17.2224 -17.2213 -17.2204 -17.2184
   -17.2140 -17.2132 -17.2116 -17.2103 -17.2068 -17.2063 -17.2043 -17.2029
   -17.1978 -17.1970 -17.1952 -17.1942 -17.1917 -17.1911 -17.1900 -17.1898
   -17.1868 -17.1854 -17.1847 -17.1832 -17.1814 -17.1787 -17.1751 -17.1714
   -17.1706 -17.1666 -17.1663 -17.1653 -17.1649 -17.1631 -17.1600 -17.1578
   -17.1571 -17.1559 -17.1535 -17.1533 -17.1509 -17.1497 -17.1468 -17.1426
   -17.1418 -17.1417 -17.1411 -17.1401 -17.1395 -17.1385 -17.1378 -17.1372
   -17.1367 -17.1362 -17.1341 -17.1332 -17.1323 -17.1307 -17.1297 -17.1287
   -17.1278 -17.1274 -17.1262 -17.1255 -17.1250 -17.1244 -17.1234 -17.1217
   -17.1210 -17.1195 -17.1180 -17.1165 -17.1148 -17.1123 -17.1110 -17.1081
   -17.1066 -17.1056 -17.1046 -17.1037 -17.1024 -17.1018 -17.1002 -17.0995
   -17.0987 -17.0977 -17.0964 -17.0948 -17.0940 -17.0934 -17.0933 -17.0922
   -17.0917 -17.0894 -17.0870 -17.0867 -17.0857 -17.0847 -17.0843 -17.0828
   -17.0819 -17.0811 -17.0792 -17.0781 -17.0779 -17.0772 -17.0760 -17.0748
   -17.0737 -17.0732 -17.0729 -17.0725 -17.0716 -17.0696 -17.0691 -17.0684
   -17.0675 -17.0665 -17.0664 -17.0660 -17.0654 -17.0648 -17.0643 -17.0638
   -17.0634 -17.0633 -17.0628 -17.0624 -17.0616 -17.0614 -17.0611 -17.0604
   -17.0596 -17.0591 -17.0589 -17.0586 -17.0579 -17.0572 -17.0569 -17.0559
   -17.0554 -17.0544 -17.0539 -17.0537 -17.0531 -17.0527 -17.0522 -17.0517
   -17.0504 -17.0499 -17.0494 -17.0487 -17.0479 -17.0476 -17.0460 -17.0455
   -17.0451 -17.0450 -17.0440 -17.0424 -17.0422 -17.0419 -17.0412 -17.0394
   -17.0386 -17.0376 -17.0366 -17.0359 -17.0358 -17.0350 -17.0339 -17.0334
   -17.0331 -17.0325 -17.0308 -17.0305 -17.0298 -17.0298 -17.0296 -17.0290
   -17.0282 -17.0271 -17.0266 -17.0259 -17.0252 -17.0248 -17.0244 -17.0243
   -17.0231 -17.0219 -17.0210 -17.0203 -17.0196 -17.0191 -17.0171 -17.0157
   -17.0148 -17.0144 -17.0137 -17.0135 -17.0121 -17.0115 -17.0101 -17.0098
   -17.0087 -17.0071 -17.0070 -17.0069 -17.0065 -17.0063 -17.0050 -17.0047
   -17.0033 -17.0017 -17.0004 -17.0003 -16.9984 -16.9971 -16.9945 -16.9910
   -16.9901 -16.9899 -16.9883 -16.9868 -16.9857 -16.9836 -16.9828 -16.9820
   -16.9815 -16.9804 -16.9790 -16.9785 -16.9750 -16.9740 -16.9724 -16.9684
   -16.9681 -16.9658 -16.9651 -16.9643 -16.9627 -16.9616 -16.9599 -16.9583
   -16.9566 -16.9511 -16.9495 -16.9475 -16.9438 -16.9407 -16.9377 -16.9353
   -16.9345 -16.9325 -16.9293  -5.0540  -4.8758  -4.7292  -4.6870  -4.6255
    -4.6073  -4.1022  -4.0749  -4.0389  -3.9901  -3.9534  -3.8732  -3.8003
    -3.7651  -3.7191  -3.7148  -3.6775  -3.5913  -3.5716  -3.5250  -3.4462
    -3.3867  -3.3305  -3.2480  -3.2108  -3.0948  -3.0591  -2.9616  -2.9492
    -2.9068  -2.8426  -2.7980  -2.7438  -2.7058  -2.7004  -2.6427  -2.6305
    -2.6031  -2.5288  -2.4974  -2.4338  -2.3812  -2.3609  -2.2707  -2.2445
    -2.1991  -2.1682  -2.1512  -2.1034  -2.0676  -2.0468  -1.9968  -1.9762
    -1.9077  -1.8428  -1.8368  -1.5732  -1.4919  -1.4415  -1.3300  -1.2196
    -1.1985  -1.0584  -0.9169  -0.8885  -0.8839  -0.8341  -0.6985  -0.5523
    -0.4685  -0.3708  -0.3450  -0.0625  -0.0431  -0.0204   0.0183   0.0705
     0.0793   0.0939   0.1129   0.1468   0.1741   0.2182   0.2421   0.2772
     0.3069   0.3362   0.3711   0.4541   0.4904   0.5257   0.5573   0.6026
     0.6297   0.6484   0.7022   0.7483   0.7913   0.8353   0.8677   0.9224
     0.9475   0.9702   0.9838   1.0613   1.1480   1.5716   1.6127   1.6298
     1.6419   1.6592   1.7013   1.7210   1.7600   2.4045   2.4428   2.4812
     2.5296   2.5496   2.6446   2.6732   2.7386   2.9265   2.9393   2.9438
     2.9589   2.9964   3.0014   3.0070   3.0118   3.0156   3.0209   3.0315
     3.0361   3.6544   3.6676   3.6807   3.6863   3.6970   3.6997   3.7116
     3.7205   3.7754   3.7819   3.7902   3.7968   3.8100   3.8110   3.8172
     3.8268   3.8428   3.8456   3.8506   3.8530   3.8561   3.8590   3.8678
     3.8740   4.1778   4.2239   4.2521   4.3000   4.4396   4.4459   4.4513
     4.4550   4.4599   4.4662   4.4742   4.4786   4.4834   4.4933   4.4942
     4.5065   4.5083   4.5203   4.5224   4.5342   4.5732   4.5766   4.5997
     4.6034   4.6158   4.6200   4.6258   4.6338   4.6422   4.6476   4.6505
     4.6550   4.6626   4.6652   4.6733   4.6794   4.6934   4.7052   4.7091
     4.7307   4.7726   4.7781   4.7819   4.7888   5.0443   5.0538   5.0607
     5.0625   5.0734   5.0765   5.0883   5.0929   5.2532   5.2671   5.2845
     5.2982   5.3055   5.3118   5.3267   5.3375   5.4914   5.5889   5.6012
     5.6088   5.6170   5.6285   5.6347   5.6434   5.6492   5.6521   5.6593
     5.6672   5.6698   5.6795   5.7671   5.7769   5.7821   5.7921   5.8117
     5.8208   5.8288   5.8331   5.9340   5.9410   5.9553   5.9653   5.9679
     5.9741   5.9973   6.0079   6.4520   6.4583   6.5141   6.5263   6.9847
     6.9963   7.0095   7.0272   7.8267   7.8340   8.3912   8.4099   8.4242
     8.4747   8.7915   8.7979   9.0306   9.0434   9.0602   9.0677   9.0788
     9.0846   9.1005   9.1156   9.1265   9.1336   9.1389   9.1560   9.1584
     9.1720   9.1801   9.1886   9.1952   9.1986   9.2027   9.2236   9.2334
     9.2410   9.2542   9.2710   9.2838   9.3003   9.3083   9.3126   9.3270
     9.3501   9.3642   9.3753   9.4027   9.4164   9.5798   9.6083   9.6355
     9.6485   9.6566   9.6903   9.6963   9.7053   9.7298   9.7340   9.7766
     9.7888   9.8355   9.8493   9.8772   9.8885   9.9097   9.9106   9.9241
     9.9399  10.0041  10.0051  10.0225  10.0370  10.0540  10.0566  10.0626
    10.0768  10.0858  10.1001  10.1133  10.1239  10.1357  10.1376  10.1646
    10.1812  10.3548  10.3639  10.4003  10.4180  10.4460  10.4693  10.4892
    10.5071  10.5119  10.5262  10.5383  10.5425  10.5521  10.5686  10.5885
    10.6121  10.6199  10.6280  10.6449  10.6616  10.6795  10.6927  10.7060
    10.7162  10.7234  10.7392  10.7556  10.7695  10.7830  10.7927  10.8072
    10.8217  10.8392  10.8653  10.8793  10.8902

     occupation numbers 
     1.0000   1.0000   1.0000   1.0000   1.0000   1.0000   1.0000   1.0000
     1.0000   1.0000   1.0000   1.0000   1.0000   1.0000   1.0000   1.0000
     1.0000   1.0000   1.0000   1.0000   1.0000   1.0000   1.0000   1.0000
     1.0000   1.0000   1.0000   1.0000   1.0000   1.0000   1.0000   1.0000
     1.0000   1.0000   1.0000   1.0000   1.0000   1.0000   1.0000   1.0000
     1.0000   1.0000   1.0000   1.0000   1.0000   1.0000   1.0000   1.0000
     1.0000   1.0000   1.0000   1.0000   1.0000   1.0000   1.0000   1.0000
     1.0000   1.0000   1.0000   1.0000   1.0000   1.0000   1.0000   1.0000
     1.0000   1.0000   1.0000   1.0000   1.0000   1.0000   1.0000   1.0000
     1.0000   1.0000   1.0000   1.0000   1.0000   1.0000   1.0000   1.0000
     1.0000   1.0000   1.0000   1.0000   1.0000   1.0000   1.0000   1.0000
     1.0000   1.0000   1.0000   1.0000   1.0000   1.0000   1.0000   1.0000
     1.0000   1.0000   1.0000   1.0000   1.0000   1.0000   1.0000   1.0000
     1.0000   1.0000   1.0000   1.0000   1.0000   1.0000   1.0000   1.0000
     1.0000   1.0000   1.0000   1.0000   1.0000   1.0000   1.0000   1.0000
     1.0000   1.0000   1.0000   1.0000   1.0000   1.0000   1.0000   1.0000
     1.0000   1.0000   1.0000   1.0000   1.0000   1.0000   1.0000   1.0000
     1.0000   1.0000   1.0000   1.0000   1.0000   1.0000   1.0000   1.0000
     1.0000   1.0000   1.0000   1.0000   1.0000   1.0000   1.0000   1.0000
     1.0000   1.0000   1.0000   1.0000   1.0000   1.0000   1.0000   1.0000
     1.0000   1.0000   1.0000   1.0000   1.0000   1.0000   1.0000   1.0000
     1.0000   1.0000   1.0000   1.0000   1.0000   1.0000   1.0000   1.0000
     1.0000   1.0000   1.0000   1.0000   1.0000   1.0000   1.0000   1.0000
     1.0000   1.0000   1.0000   1.0000   1.0000   1.0000   1.0000   1.0000
     1.0000   1.0000   1.0000   1.0000   1.0000   1.0000   1.0000   1.0000
     1.0000   1.0000   1.0000   1.0000   1.0000   1.0000   1.0000   1.0000
     1.0000   1.0000   1.0000   1.0000   1.0000   1.0000   1.0000   1.0000
     1.0000   1.0000   1.0000   1.0000   1.0000   1.0000   1.0000   1.0000
     1.0000   1.0000   1.0000   1.0000   1.0000   1.0000   1.0000   1.0000
     1.0000   1.0000   1.0000   1.0000   1.0000   1.0000   1.0000   1.0000
     1.0000   1.0000   1.0000   1.0000   1.0000   1.0000   1.0000   1.0000
     1.0000   1.0000   1.0000   1.0000   1.0000   1.0000   1.0000   1.0000
     1.0000   1.0000   1.0000   1.0000   1.0000   1.0000   1.0000   1.0000
     1.0000   1.0000   1.0000   1.0000   1.0000   1.0000   1.0000   1.0000
     1.0000   1.0000   1.0000   1.0000   1.0000   1.0000   1.0000   1.0000
     1.0000   1.0000   1.0000   1.0000   1.0000   1.0000   1.0000   1.0000
     1.0000   1.0000   1.0000   1.0000   1.0000   1.0000   1.0000   1.0000
     1.0000   1.0000   1.0000   1.0000   1.0000   1.0000   1.0000   1.0000
     1.0000   1.0000   1.0000   1.0000   1.0000   1.0000   1.0000   1.0000
     1.0000   1.0000   1.0000   1.0000   1.0000   1.0000   1.0000   1.0000
     1.0000   1.0000   1.0000   1.0000   1.0000   1.0000   1.0000   1.0000
     1.0000   1.0000   1.0000   1.0000   1.0000   1.0000   1.0000   1.0000
     1.0000   1.0000   1.0000   1.0000   1.0000   1.0000   1.0000   1.0000
     1.0000   1.0000   1.0000   1.0000   1.0000   1.0000   1.0000   1.0000
     1.0000   1.0000   1.0000   1.0000   1.0000   1.0000   1.0000   1.0000
     1.0000   1.0000   1.0000   1.0000   1.0000   1.0000   1.0000   1.0000
     1.0000   1.0000   1.0000   1.0000   1.0000   1.0000   1.0000   1.0000
     1.0000   1.0000   1.0000   1.0000   1.0000   1.0000   1.0000   1.0000
     1.0000   1.0000   1.0000   1.0000   1.0000   1.0000   1.0000   1.0000
     1.0000   1.0000   1.0000   1.0000   1.0000   1.0000   1.0000   1.0000
     1.0000   1.0000   1.0000   1.0000   1.0000   1.0000   1.0000   1.0000
     1.0000   1.0000   1.0000   1.0000   1.0000   1.0000   1.0000   1.0000
     1.0000   1.0000   1.0000   1.0000   1.0000   1.0000   1.0000   1.0000
     1.0000   1.0000   1.0000   1.0000   1.0000   1.0000   1.0000   1.0000
     1.0000   1.0000   1.0000   1.0000   1.0000   1.0000   1.0000   1.0000
     1.0000   1.0000   1.0000   1.0000   1.0000   1.0000   1.0000   1.0000
     1.0000   1.0000   1.0000   1.0000   1.0000   1.0000   1.0000   1.0000
     1.0000   1.0000   1.0000   1.0000   1.0000   1.0000   1.0000   1.0000
     1.0000   1.0000   1.0000   1.0000   1.0000   1.0000   1.0000   1.0000
     1.0000   1.0000   1.0000   1.0000   1.0000   1.0000   1.0000   1.0000
     1.0000   1.0000   1.0000   1.0000   1.0000   1.0000   1.0000   1.0000
     1.0000   1.0000   1.0000   1.0000   1.0000   1.0000   1.0000   1.0000
     1.0000   1.0000   1.0000   1.0000   1.0000   1.0000   1.0000   1.0000
     1.0000   1.0000   1.0000   1.0000   1.0000   1.0000   1.0000   1.0000
     1.0000   1.0000   1.0000   1.0000   1.0000   1.0000   1.0000   1.0000
     1.0000   1.0000   1.0000   1.0000   1.0000   1.0000   1.0000   1.0000
     1.0000   1.0000   1.0000   1.0000   1.0000   1.0000   1.0000   1.0000
     1.0000   1.0000   1.0000   1.0000   1.0000   1.0000   1.0000   1.0000
     1.0000   1.0000   1.0000   1.0000   1.0000   1.0000   1.0000   1.0000
     1.0000   1.0000   1.0000   1.0000   1.0000   1.0000   1.0000   1.0000
     1.0000   1.0000   1.0000   1.0000   1.0000   1.0000   1.0000   1.0000
     1.0000   0.9999   0.9999   0.0318   0.0283   0.0000   0.0000   0.0000
     0.0000   0.0000   0.0000   0.0000   0.0000   0.0000   0.0000   0.0000
     0.0000   0.0000   0.0000   0.0000   0.0000   0.0000   0.0000   0.0000
     0.0000   0.0000   0.0000   0.0000   0.0000   0.0000   0.0000   0.0000
     0.0000   0.0000   0.0000   0.0000   0.0000   0.0000   0.0000   0.0000
     0.0000   0.0000   0.0000   0.0000   0.0000   0.0000   0.0000   0.0000
     0.0000   0.0000   0.0000   0.0000   0.0000   0.0000   0.0000   0.0000
     0.0000   0.0000   0.0000   0.0000   0.0000   0.0000   0.0000   0.0000
     0.0000   0.0000   0.0000   0.0000   0.0000   0.0000   0.0000   0.0000
     0.0000   0.0000   0.0000   0.0000   0.0000   0.0000   0.0000   0.0000
     0.0000   0.0000   0.0000   0.0000   0.0000   0.0000   0.0000   0.0000
     0.0000   0.0000   0.0000   0.0000   0.0000   0.0000   0.0000   0.0000
     0.0000   0.0000   0.0000   0.0000   0.0000   0.0000   0.0000   0.0000
     0.0000   0.0000   0.0000   0.0000   0.0000   0.0000   0.0000   0.0000
     0.0000   0.0000   0.0000   0.0000   0.0000

          k = 0.3536 0.3536 0.3536 ( 64114 PWs)   bands (ev):

   -17.3921 -17.3821 -17.3738 -17.3643 -17.3627 -17.3598 -17.3589 -17.3542
   -17.3515 -17.3484 -17.3467 -17.3432 -17.3425 -17.3412 -17.3328 -17.3312
   -17.3283 -17.3261 -17.3254 -17.3205 -17.3176 -17.3155 -17.3086 -17.3020
   -17.3008 -17.2956 -17.2943 -17.2926 -17.2891 -17.2865 -17.2844 -17.2829
   -17.2818 -17.2789 -17.2740 -17.2723 -17.2709 -17.2682 -17.2664 -17.2619
   -17.2603 -17.2600 -17.2571 -17.2556 -17.2531 -17.2529 -17.2504 -17.2495
   -17.2456 -17.2436 -17.2425 -17.2400 -17.2365 -17.2358 -17.2340 -17.2320
   -17.2295 -17.2287 -17.2241 -17.2233 -17.2223 -17.2204 -17.2193 -17.2168
   -17.2139 -17.2130 -17.2115 -17.2103 -17.2073 -17.2063 -17.2046 -17.2032
   -17.1979 -17.1970 -17.1948 -17.1933 -17.1930 -17.1916 -17.1901 -17.1891
   -17.1872 -17.1849 -17.1843 -17.1829 -17.1818 -17.1778 -17.1736 -17.1712
   -17.1702 -17.1680 -17.1658 -17.1657 -17.1646 -17.1631 -17.1608 -17.1583
   -17.1570 -17.1558 -17.1544 -17.1532 -17.1503 -17.1493 -17.1466 -17.1437
   -17.1424 -17.1419 -17.1416 -17.1407 -17.1395 -17.1378 -17.1373 -17.1370
   -17.1366 -17.1362 -17.1340 -17.1332 -17.1323 -17.1317 -17.1297 -17.1290
   -17.1285 -17.1278 -17.1261 -17.1257 -17.1250 -17.1236 -17.1234 -17.1215
   -17.1200 -17.1196 -17.1181 -17.1162 -17.1147 -17.1133 -17.1100 -17.1079
   -17.1069 -17.1052 -17.1044 -17.1034 -17.1027 -17.1017 -17.1005 -17.0986
   -17.0979 -17.0966 -17.0961 -17.0948 -17.0945 -17.0934 -17.0931 -17.0922
   -17.0905 -17.0902 -17.0895 -17.0880 -17.0855 -17.0852 -17.0844 -17.0825
   -17.0815 -17.0808 -17.0793 -17.0787 -17.0778 -17.0764 -17.0760 -17.0745
   -17.0737 -17.0733 -17.0730 -17.0719 -17.0716 -17.0700 -17.0696 -17.0689
   -17.0677 -17.0670 -17.0664 -17.0659 -17.0654 -17.0644 -17.0643 -17.0639
   -17.0634 -17.0632 -17.0628 -17.0624 -17.0616 -17.0612 -17.0608 -17.0600
   -17.0597 -17.0591 -17.0589 -17.0582 -17.0578 -17.0572 -17.0569 -17.0558
   -17.0550 -17.0545 -17.0538 -17.0537 -17.0536 -17.0529 -17.0525 -17.0511
   -17.0509 -17.0494 -17.0492 -17.0479 -17.0476 -17.0473 -17.0464 -17.0459
   -17.0454 -17.0448 -17.0442 -17.0428 -17.0421 -17.0419 -17.0407 -17.0398
   -17.0385 -17.0372 -17.0363 -17.0360 -17.0358 -17.0350 -17.0338 -17.0333
   -17.0332 -17.0322 -17.0315 -17.0304 -17.0299 -17.0297 -17.0294 -17.0292
   -17.0280 -17.0273 -17.0267 -17.0258 -17.0251 -17.0245 -17.0244 -17.0241
   -17.0236 -17.0225 -17.0211 -17.0202 -17.0195 -17.0189 -17.0170 -17.0155
   -17.0153 -17.0140 -17.0137 -17.0128 -17.0122 -17.0108 -17.0101 -17.0099
   -17.0093 -17.0071 -17.0070 -17.0069 -17.0066 -17.0063 -17.0052 -17.0048
   -17.0035 -17.0017 -17.0011 -16.9993 -16.9980 -16.9977 -16.9931 -16.9918
   -16.9911 -16.9894 -16.9880 -16.9870 -16.9858 -16.9849 -16.9829 -16.9820
   -16.9816 -16.9814 -16.9789 -16.9775 -16.9748 -16.9739 -16.9721 -16.9686
   -16.9680 -16.9657 -16.9652 -16.9639 -16.9626 -16.9617 -16.9597 -16.9583
   -16.9563 -16.9511 -16.9495 -16.9474 -16.9438 -16.9407 -16.9376 -16.9353
   -16.9344 -16.9325 -16.9293  -5.0982  -4.9234  -4.6135  -4.5632  -4.5391
    -4.4822  -4.3954  -4.3181  -4.1358  -4.0711  -4.0021  -3.9302  -3.8545
    -3.7722  -3.6154  -3.5911  -3.5396  -3.4840  -3.4204  -3.3841  -3.3684
    -3.3112  -3.2392  -3.2347  -3.1819  -3.1140  -3.0854  -3.0481  -3.0343
    -2.9776  -2.9122  -2.8720  -2.8205  -2.8118  -2.8004  -2.7469  -2.7369
    -2.6526  -2.6186  -2.5067  -2.3662  -2.3011  -2.2696  -2.2284  -2.2009
    -2.1547  -2.0716  -2.0347  -1.9734  -1.9495  -1.9208  -1.8998  -1.8745
    -1.7827  -1.7388  -1.6916  -1.6372  -1.6247  -1.5986  -1.5683  -1.5544
    -1.5321  -1.4759  -1.4166  -0.4417  -0.3929  -0.3276  -0.3168  -0.2916
    -0.2541  -0.2237  -0.2155  -0.1891  -0.1478  -0.1251  -0.0788  -0.0307
[...]
     atom   77 type  1   force =   0.00000000E+00  0.00000000E+00  0.00000000E+00
     atom   78 type  1   force =   0.00000000E+00  0.00000000E+00  0.00000000E+00
     atom   79 type  1   force =   0.00000000E+00  0.00000000E+00  0.00000000E+00
     atom   80 type  2   force =   0.00000000E+00  0.00000000E+00  0.00000000E+00
     atom   81 type  1   force =   0.00000000E+00  0.00000000E+00  0.00000000E+00
     atom   82 type  1   force =   0.00000000E+00  0.00000000E+00  0.00000000E+00
     atom   83 type  1   force =   0.00000000E+00  0.00000000E+00  0.00000000E+00
     atom   84 type  2   force =   0.00000000E+00  0.00000000E+00  0.00000000E+00
     atom   85 type  1   force =   0.00000000E+00  0.00000000E+00  0.00000000E+00
     atom   86 type  2   force =   0.00000000E+00  0.00000000E+00  0.00000000E+00
     atom   87 type  2   force =   0.00000000E+00  0.00000000E+00  0.00000000E+00
     atom   88 type  1   force =   0.00000000E+00  0.00000000E+00  0.00000000E+00
     atom   89 type  1   force =   0.00000000E+00  0.00000000E+00  0.00000000E+00
     atom   90 type  2   force =   0.00000000E+00  0.00000000E+00  0.00000000E+00
     atom   91 type  2   force =   0.00000000E+00  0.00000000E+00  0.00000000E+00
     atom   92 type  2   force =   0.00000000E+00  0.00000000E+00  0.00000000E+00
     atom   93 type  2   force =   0.00000000E+00  0.00000000E+00  0.00000000E+00
     atom   94 type  2   force =   0.00000000E+00  0.00000000E+00  0.00000000E+00
     atom   95 type  1   force =   0.00000000E+00  0.00000000E+00  0.00000000E+00
     atom   96 type  2   force =   0.00000000E+00  0.00000000E+00  0.00000000E+00
     atom   97 type  2   force =   0.00000000E+00  0.00000000E+00  0.00000000E+00
     atom   98 type  2   force =   0.00000000E+00  0.00000000E+00  0.00000000E+00
     atom   99 type  2   force =   0.00000000E+00  0.00000000E+00  0.00000000E+00
     atom  100 type  1   force =   0.00000000E+00  0.00000000E+00  0.00000000E+00
     atom  101 type  1   force =   0.00000000E+00  0.00000000E+00  0.00000000E+00
     atom  102 type  1   force =   0.00000000E+00  0.00000000E+00  0.00000000E+00
     atom  103 type  1   force =   0.00000000E+00  0.00000000E+00  0.00000000E+00
     atom  104 type  2   force =   0.00000000E+00  0.00000000E+00  0.00000000E+00
     atom  105 type  1   force =   0.00000000E+00  0.00000000E+00  0.00000000E+00
     atom  106 type  2   force =   0.00000000E+00  0.00000000E+00  0.00000000E+00
     atom  107 type  1   force =   0.00000000E+00  0.00000000E+00  0.00000000E+00
     atom  108 type  1   force =   0.00000000E+00  0.00000000E+00  0.00000000E+00
     atom  109 type  1   force =   0.00000000E+00  0.00000000E+00  0.00000000E+00
     atom  110 type  1   force =   0.00000000E+00  0.00000000E+00  0.00000000E+00
     atom  111 type  2   force =   0.00000000E+00  0.00000000E+00  0.00000000E+00
     atom  112 type  1   force =   0.00000000E+00  0.00000000E+00  0.00000000E+00
     atom  113 type  2   force =   0.00000000E+00  0.00000000E+00  0.00000000E+00
     atom  114 type  2   force =   0.00000000E+00  0.00000000E+00  0.00000000E+00
     atom  115 type  1   force =   0.00000000E+00  0.00000000E+00  0.00000000E+00
     atom  116 type  2   force =   0.00000000E+00  0.00000000E+00  0.00000000E+00
     atom  117 type  1   force =   0.00000000E+00  0.00000000E+00  0.00000000E+00
     atom  118 type  1   force =   0.00000000E+00  0.00000000E+00  0.00000000E+00
     atom  119 type  2   force =   0.00000000E+00  0.00000000E+00  0.00000000E+00
     atom  120 type  1   force =   0.00000000E+00  0.00000000E+00  0.00000000E+00
     atom  121 type  1   force =   0.00000000E+00  0.00000000E+00  0.00000000E+00
     atom  122 type  2   force =   0.00000000E+00  0.00000000E+00  0.00000000E+00
     atom  123 type  1   force =   0.00000000E+00  0.00000000E+00  0.00000000E+00
     atom  124 type  2   force =   0.00000000E+00  0.00000000E+00  0.00000000E+00
     atom  125 type  2   force =   0.00000000E+00  0.00000000E+00  0.00000000E+00
     atom  126 type  2   force =   0.00000000E+00  0.00000000E+00  0.00000000E+00
     atom  127 type  2   force =   0.00000000E+00  0.00000000E+00  0.00000000E+00
     atom  128 type  1   force =   0.00000000E+00  0.00000000E+00  0.00000000E+00
     The SCF correction term to forces
     atom    1 type  1   force =  -0.20660610E-05 -0.57204757E-06  0.42773840E-06
     atom    2 type  2   force =  -0.84363167E-05  0.23589716E-06  0.46118147E-05
     atom    3 type  1   force =  -0.15513309E-07 -0.19347040E-06 -0.79511015E-07
     atom    4 type  2   force =  -0.46768971E-06  0.49995328E-05  0.95111542E-05
     atom    5 type  1   force =   0.32552582E-06  0.18206370E-05  0.95317783E-06
     atom    6 type  2   force =  -0.40027646E-05  0.92088006E-05  0.68512061E-05
     atom    7 type  2   force =  -0.57585931E-06  0.39920056E-05  0.54175692E-05
     atom    8 type  2   force =  -0.16243200E-05 -0.89320943E-06  0.43558660E-05
     atom    9 type  1   force =  -0.28296871E-06  0.30736168E-06  0.53292385E-06
     atom   10 type  2   force =   0.11031070E-05  0.50128440E-05  0.63581533E-05
     atom   11 type  1   force =   0.83836056E-06  0.59684970E-06  0.16543042E-05
     atom   12 type  2   force =  -0.36636718E-05  0.24178116E-05  0.29963755E-05
     atom   13 type  2   force =   0.30604931E-05  0.27203742E-05  0.42664474E-05
     atom   14 type  1   force =  -0.18443157E-05  0.50027570E-06 -0.46201687E-06
     atom   15 type  1   force =  -0.18230272E-05 -0.34640416E-06 -0.95296449E-06
     atom   16 type  2   force =  -0.75380859E-05 -0.81581739E-06 -0.72839535E-05
     atom   17 type  1   force =   0.69854995E-07  0.15256649E-05  0.15920598E-05
     atom   18 type  1   force =  -0.85995123E-06  0.16806911E-05  0.12498155E-05
     atom   19 type  2   force =  -0.28617256E-05  0.22160265E-05  0.74329744E-05
     atom   20 type  1   force =  -0.19365093E-05 -0.19404915E-06  0.39060448E-06
     atom   21 type  2   force =  -0.10152564E-04 -0.45899623E-05 -0.55707170E-05
     atom   22 type  2   force =  -0.55706827E-05  0.51607234E-05  0.53953172E-05
     atom   23 type  2   force =   0.59276201E-05  0.97544120E-06 -0.23924521E-06
     atom   24 type  1   force =   0.34434231E-06  0.22227727E-05  0.11183906E-05
     atom   25 type  1   force =  -0.10960684E-05  0.15064515E-05  0.73993439E-06
     atom   26 type  1   force =  -0.18861579E-05  0.54870915E-06  0.69277663E-06
     atom   27 type  1   force =  -0.17214035E-05 -0.52801225E-06 -0.97555382E-06
     atom   28 type  2   force =  -0.62988773E-05 -0.30669968E-05 -0.23107608E-05
     atom   29 type  2   force =   0.46024368E-05  0.35781703E-06  0.64307102E-06
     atom   30 type  1   force =   0.30382824E-06  0.12615390E-05  0.18817900E-05
     atom   31 type  2   force =   0.98521719E-06  0.33528156E-05  0.67234582E-06
     atom   32 type  2   force =   0.15205942E-05  0.93272225E-05  0.67120319E-05
     atom   33 type  1   force =  -0.24501132E-05  0.68887157E-06  0.12407706E-05
     atom   34 type  2   force =   0.23092166E-05 -0.45817397E-07 -0.70230783E-06
     atom   35 type  1   force =  -0.32505540E-07  0.19012139E-05  0.19768646E-05
     atom   36 type  1   force =   0.63016762E-06  0.40535808E-06  0.82439377E-06
     atom   37 type  1   force =  -0.21966599E-06  0.14049525E-05  0.10502293E-05
     atom   38 type  1   force =  -0.94550347E-06  0.82505997E-06 -0.34183328E-06
     atom   39 type  2   force =  -0.94577007E-05  0.54299523E-05  0.13070919E-05
     atom   40 type  1   force =  -0.22327428E-05  0.19408186E-06 -0.57148717E-06
     atom   41 type  2   force =  -0.79660953E-07  0.49563158E-05  0.11223745E-04
     atom   42 type  1   force =   0.72212715E-06  0.52789931E-06  0.63462505E-06
     atom   43 type  2   force =  -0.46518206E-05  0.56550155E-05  0.78832970E-05
     atom   44 type  1   force =  -0.12704759E-05 -0.24106605E-06  0.87139835E-07
     atom   45 type  1   force =  -0.19131200E-05  0.29805043E-06 -0.15976448E-06
     atom   46 type  1   force =  -0.15921145E-05 -0.33055003E-07  0.45427566E-07
     atom   47 type  2   force =  -0.67132639E-05  0.79939869E-05  0.46103430E-05
     atom   48 type  1   force =   0.54511208E-06  0.13325146E-05  0.96252452E-06
     atom   49 type  2   force =  -0.41225046E-05  0.24874443E-05 -0.21416126E-05
     atom   50 type  2   force =  -0.25060959E-05 -0.13388542E-06  0.24885564E-05
     atom   51 type  1   force =  -0.20407467E-05  0.71364712E-07  0.17543539E-06
     atom   52 type  1   force =  -0.17788500E-05  0.70227755E-07  0.33017985E-06
     atom   53 type  1   force =  -0.20157425E-05  0.11221144E-05  0.10723921E-05
     atom   54 type  2   force =  -0.23479394E-05  0.35871822E-05  0.21955235E-05
     atom   55 type  2   force =   0.20020694E-05  0.96693281E-05  0.22875726E-06
     atom   56 type  2   force =   0.30827828E-05  0.37635903E-05  0.37239386E-05
     atom   57 type  1   force =  -0.25711429E-05  0.28736059E-07  0.14000365E-05
     atom   58 type  1   force =  -0.26105400E-05  0.12528666E-06  0.61551235E-06
     atom   59 type  2   force =  -0.12162632E-04  0.60535161E-05  0.68192081E-05
     atom   60 type  2   force =  -0.30388298E-06  0.20860662E-05  0.72963692E-05
     atom   61 type  2   force =   0.28220066E-05  0.37959936E-05  0.74861836E-05
     atom   62 type  2   force =   0.74383229E-05  0.25664858E-05  0.44711266E-05
     atom   63 type  2   force =  -0.47271966E-06  0.94549477E-05  0.95881293E-05
     atom   64 type  1   force =  -0.11382942E-05  0.66690783E-06  0.88481583E-06
     atom   65 type  2   force =   0.25150926E-06  0.17869014E-06  0.21878788E-05
     atom   66 type  1   force =   0.17395640E-05 -0.90744122E-06 -0.77721035E-06
     atom   67 type  2   force =   0.30720957E-05 -0.65198771E-05 -0.22954489E-05
     atom   68 type  2   force =   0.79118690E-05 -0.36229694E-05 -0.53822065E-05
     atom   69 type  1   force =   0.53150897E-06 -0.41003143E-06 -0.21999467E-05
     atom   70 type  1   force =  -0.10693675E-06 -0.14204558E-05 -0.25128091E-05
     atom   71 type  1   force =  -0.17515205E-06 -0.85968525E-06 -0.20920645E-05
     atom   72 type  1   force =   0.84257897E-06 -0.49391210E-06 -0.95198501E-06
     atom   73 type  2   force =   0.63841488E-05 -0.96159649E-06 -0.78685036E-05
     atom   74 type  2   force =   0.55847234E-05 -0.38121786E-05 -0.99146128E-06
     atom   75 type  1   force =   0.35571933E-06 -0.18464426E-05 -0.13461568E-05
     atom   76 type  2   force =   0.12656684E-05 -0.72233259E-05 -0.19720218E-05
     atom   77 type  1   force =   0.55272631E-06 -0.80692072E-06 -0.11917743E-05
     atom   78 type  1   force =   0.15271534E-05 -0.89234129E-06 -0.17792472E-06
     atom   79 type  1   force =   0.14547053E-05 -0.55850504E-06 -0.56500199E-06
     atom   80 type  2   force =   0.48559570E-05 -0.55857858E-05 -0.23935315E-05
     atom   81 type  1   force =   0.35537242E-06 -0.16598913E-05 -0.39155895E-06
     atom   82 type  1   force =   0.73405816E-06 -0.25186027E-05 -0.10029678E-05
     atom   83 type  1   force =   0.47492186E-06 -0.12005880E-05 -0.20345288E-06
     atom   84 type  2   force =   0.87515601E-06 -0.36042978E-05 -0.16237596E-05
     atom   85 type  1   force =   0.40109220E-06  0.40419088E-07  0.32269652E-06
     atom   86 type  2   force =   0.36566941E-05  0.93296960E-06 -0.85532293E-06
     atom   87 type  2   force =   0.11040130E-04  0.97823035E-06  0.28461554E-05
     atom   88 type  1   force =   0.17257532E-05 -0.17440677E-05 -0.64856403E-06
     atom   89 type  1   force =  -0.47637596E-06 -0.12204725E-05 -0.68213351E-06
     atom   90 type  2   force =  -0.22991689E-05 -0.22891928E-05 -0.71991333E-05
     atom   91 type  2   force =   0.22010890E-05 -0.51016200E-06  0.11465039E-05
     atom   92 type  2   force =   0.61233523E-07  0.13233227E-05 -0.24240079E-05
     atom   93 type  2   force =   0.59794105E-05  0.28627283E-06  0.15808022E-05
     atom   94 type  2   force =   0.80886166E-05  0.52454851E-06 -0.61216170E-05
     atom   95 type  1   force =   0.70754999E-06 -0.13842495E-05 -0.12937987E-05
     atom   96 type  2   force =   0.26569731E-05 -0.88003108E-05 -0.11884794E-04
     atom   97 type  2   force =   0.71747846E-05 -0.70205176E-05 -0.22713602E-05
     atom   98 type  2   force =   0.14361937E-05 -0.25179101E-05  0.34990915E-05
     atom   99 type  2   force =   0.27780263E-05  0.51418595E-07 -0.38925115E-05
     atom  100 type  1   force =   0.23621307E-06 -0.84277698E-06 -0.11409864E-05
     atom  101 type  1   force =   0.20278861E-06 -0.98802404E-06 -0.17122187E-05
     atom  102 type  1   force =   0.52764133E-06  0.40819029E-06 -0.16051108E-06
     atom  103 type  1   force =   0.99258282E-06  0.31861333E-07 -0.79612642E-06
     atom  104 type  2   force =  -0.31840656E-05 -0.56778250E-06  0.34543794E-06
     atom  105 type  1   force =   0.10082310E-06 -0.18778210E-05 -0.89443965E-06
     atom  106 type  2   force =  -0.66916538E-06 -0.28220008E-05 -0.64813263E-05
     atom  107 type  1   force =   0.68478722E-06 -0.60319125E-06 -0.59824959E-06
     atom  108 type  1   force =   0.10057274E-05 -0.44572542E-07  0.94793246E-06
     atom  109 type  1   force =   0.15248687E-05 -0.43586456E-06  0.79006423E-06
     atom  110 type  1   force =   0.95895962E-06 -0.11780619E-06  0.97086146E-06
     atom  111 type  2   force =   0.55770374E-05  0.43027152E-06  0.63383118E-05
     atom  112 type  1   force =   0.20174815E-07 -0.43838220E-06 -0.60449266E-06
     atom  113 type  2   force =   0.47129270E-05 -0.12729216E-04 -0.52671878E-05
     atom  114 type  2   force =   0.53028960E-05  0.31170933E-05  0.25816171E-05
     atom  115 type  1   force =   0.15023147E-05  0.79481767E-07 -0.43246180E-06
     atom  116 type  2   force =   0.30317438E-05 -0.14452470E-05 -0.18601996E-05
     atom  117 type  1   force =   0.84388381E-06 -0.13049510E-06 -0.14788766E-06
     atom  118 type  1   force =   0.32011370E-06 -0.17639166E-05 -0.12889829E-05
     atom  119 type  2   force =   0.32779246E-05 -0.63560884E-05 -0.84501166E-05
     atom  120 type  1   force =   0.81403325E-06 -0.17555680E-05 -0.13208716E-05
     atom  121 type  1   force =   0.80048181E-06 -0.96042685E-06 -0.72786442E-06
     atom  122 type  2   force =  -0.22570052E-05  0.35241698E-05 -0.26168796E-05
     atom  123 type  1   force =   0.10494612E-05  0.24036568E-06 -0.11302691E-05
     atom  124 type  2   force =  -0.27606959E-05  0.10895469E-05 -0.43115937E-05
     atom  125 type  2   force =   0.22828487E-05 -0.44597085E-05 -0.82146780E-05
     atom  126 type  2   force =   0.24406811E-05 -0.84910636E-05 -0.48412610E-05
     atom  127 type  2   force =   0.23410934E-05 -0.23264431E-05 -0.63302818E-05
     atom  128 type  1   force =   0.12094799E-05 -0.29782574E-07 -0.94131892E-06

     Total force =     0.245766     Total SCF correction =     0.000070


     entering subroutine stress ...

          total   stress  (Ry/bohr**3)                   (kbar)     P=    1.87
   0.0000124726  -0.0000019211  -0.0000062171          1.83     -0.28     -0.91
  -0.0000019211   0.0000127957  -0.0000021868         -0.28      1.88     -0.32
  -0.0000062171  -0.0000021868   0.0000127778         -0.91     -0.32      1.88

     kinetic stress (kbar)   6344.08      0.25      0.84
                                0.25   6343.99      0.34
                                0.84      0.34   6344.00

     local   stress (kbar)   -836.20   1426.91   3542.36
                             1426.91  -8464.78   1625.56
                             3542.36   1625.56  -8975.74

     nonloc. stress (kbar)   2485.92      0.00     -0.71
                                0.00   2485.95      0.03
                               -0.71      0.03   2485.93

     hartree stress (kbar)  14826.81   -692.81  -1740.36
                             -692.81  18602.86   -786.93
                            -1740.36   -786.93  18859.60

     exc-cor stress (kbar)  10781.14      0.00     -0.02
                                0.00  10781.15     -0.02
                               -0.02     -0.02  10781.15

     corecor stress (kbar) -16374.58      0.04      0.09
                                0.04 -16374.57     -0.01
                                0.09     -0.01 -16374.57

     ewald   stress (kbar) -17225.35   -734.66  -1803.13
                             -734.66 -13372.71   -839.29
                            -1803.13   -839.29 -13118.48

     hubbard stress (kbar)      0.00      0.00      0.00
                                0.00      0.00      0.00
                                0.00      0.00      0.00

     london  stress (kbar)      0.00      0.00      0.00
                                0.00      0.00      0.00
                                0.00      0.00      0.00

     XDM     stress (kbar)      0.00      0.00      0.00
                                0.00      0.00      0.00
                                0.00      0.00      0.00

     dft-nl  stress (kbar)      0.00      0.00      0.00
                                0.00      0.00      0.00
                                0.00      0.00      0.00



     Writing output data file SiGe_zns.scf.in.super.444.b.022.save

     init_run     :    909.45s CPU    700.26s WALL (       1 calls)
     electrons    :  47348.86s CPU  38128.71s WALL (       1 calls)
     forces       :    709.60s CPU    529.41s WALL (       1 calls)
     stress       :   2871.78s CPU   2826.84s WALL (       1 calls)

     Called by init_run:
     wfcinit      :    881.24s CPU    671.95s WALL (       1 calls)
     potinit      :      0.75s CPU      0.77s WALL (       1 calls)

     Called by electrons:
     c_bands      :  42350.98s CPU  33797.05s WALL (      16 calls)
     sum_band     :   4293.52s CPU   3626.91s WALL (      16 calls)
     v_of_rho     :      9.58s CPU      9.61s WALL (      16 calls)
     v_h          :      0.73s CPU      0.73s WALL (      16 calls)
     v_xc         :      9.73s CPU      9.76s WALL (      18 calls)
     newd         :    701.82s CPU    702.04s WALL (      16 calls)
     mix_rho      :     16.49s CPU     16.53s WALL (      16 calls)

     Called by c_bands:
     init_us_2    :     47.47s CPU     47.89s WALL (     280 calls)
     cegterg      :  42040.09s CPU  33477.98s WALL (     128 calls)

     Called by sum_band:
     sum_band:bec :     18.55s CPU     18.59s WALL (     128 calls)
     addusdens    :    442.39s CPU    442.65s WALL (      16 calls)

     Called by *egterg:
     h_psi        :  16510.76s CPU  13306.26s WALL (     494 calls)
     s_psi        :   4637.11s CPU   3000.49s WALL (     494 calls)
     g_psi        :      7.29s CPU      9.25s WALL (     358 calls)
     cdiaghg      :  12488.45s CPU  11144.33s WALL (     478 calls)
     cegterg:over :   3978.04s CPU   2837.36s WALL (     358 calls)
     cegterg:upda :   1903.01s CPU   1261.26s WALL (     358 calls)
     cegterg:last :   1325.12s CPU    854.89s WALL (     128 calls)

     Called by h_psi:
     h_psi:vloc   :   6937.47s CPU   6960.98s WALL (     494 calls)
     h_psi:vnl    :   9555.43s CPU   6327.11s WALL (     494 calls)
     add_vuspsi   :   4609.13s CPU   2983.30s WALL (     494 calls)

     General routines
     calbec       :   7922.78s CPU   5552.91s WALL (     638 calls)
     fft          :    130.04s CPU    130.19s WALL (     281 calls)
     ffts         :      9.53s CPU      9.57s WALL (     452 calls)
     fftw         :   7652.53s CPU   7679.79s WALL (  505756 calls)
     interpolate  :      2.48s CPU      2.48s WALL (      32 calls)

     Parallel routines
     fft_scatter  :   4724.73s CPU   4746.72s WALL (  506489 calls)

     PWSCF        :    14h24m CPU       11h44m WALL


   This run was terminated on:  13:41:43   4Feb2017            

=------------------------------------------------------------------------------=
   JOB DONE.
=------------------------------------------------------------------------------=
