
     Program PWSCF v.5.1 starts on 10Feb2017 at 19:26:40 

     This program is part of the open-source Quantum ESPRESSO suite
     for quantum simulation of materials; please cite
         "P. Giannozzi et al., J. Phys.:Condens. Matter 21 395502 (2009);
          URL http://www.quantum-espresso.org", 
     in publications or presentations arising from this work. More details at
     http://www.quantum-espresso.org/quote

     Parallel version (MPI), running on    16 processors
     R & G space division:  proc/nbgrp/npool/nimage =      16
     Reading input from /tmp/SiGe_zns.scf.in.super.228.b.04.17071/SiGe_zns.scf.in.super.228.b.04.t
Warning: card &IONS ignored
Warning: card   ION_DYNAMICS='BFGS', ignored
Warning: card / ignored
Warning: card &CELL ignored
Warning: card  CELL_DYNAMICS = 'BFGS' ignored
Warning: card / ignored
     Message from routine read_cards :
     DEPRECATED: no units specified in CELL_PARAMETERS card

     Current dimensions of program PWSCF are:
     Max number of different atomic species (ntypx) = 10
     Max number of k-points (npk) =  40000
     Max angular momentum in pseudopotentials (lmaxx) =  3

     Subspace diagonalization in iterative solution of the eigenvalue problem:
     a serial algorithm will be used

     warning: symmetry operation #  3 not compatible with FFT grid. 
  -1   1   0
   0   1   0
   0   4  -1
     warning: symmetry operation #  4 not compatible with FFT grid. 
   1   0   0
   1  -1   0
   4   0  -1
     warning: symmetry operation #  5 not compatible with FFT grid. 
  -1   1   0
  -1   0   0
  -4   0   1
     warning: symmetry operation #  6 not compatible with FFT grid. 
   0  -1   0
   1  -1   0
   0  -4   1
     warning: symmetry operation #  9 not compatible with FFT grid. 
   1  -1   0
   0  -1   0
   0  -4   1
     warning: symmetry operation # 10 not compatible with FFT grid. 
  -1   0   0
  -1   1   0
  -4   0   1
     warning: symmetry operation # 11 not compatible with FFT grid. 
   1  -1   0
   1   0   0
   4   0  -1
     warning: symmetry operation # 12 not compatible with FFT grid. 
   0   1   0
  -1   1   0
   0   4  -1

     Parallelization info
     --------------------
     sticks:   dense  smooth     PW     G-vecs:    dense   smooth      PW
     Min         189     131     36                27389    16001    2346
     Max         192     132     37                27391    16042    2363
     Sum        3037    2107    583               438235   256383   37657



     bravais-lattice index     =            0
     lattice parameter (alat)  =    14.799446477  a.u.
     unit-cell volume          =    9168.1437 (a.u.)^3
     number of atoms/cell      =           64
     number of atomic types    =            2
     number of electrons       =       536.00
     number of Kohn-Sham states=          322
     kinetic-energy cutoff     =      35.0000  Ry
     charge density cutoff     =     200.0000  Ry
     convergence threshold     =      1.0E-09
     mixing beta               =       0.3000
     number of iterations used =            8  local-TF  mixing
     Exchange-correlation      = SLA  PW   PSX  PSC ( 1  4 10  8 0)
     A smooth kinetic-energy cutoff is imposed at      34.5000 Ry
     height of the smooth step-function =             800.0000 Ry
     width of the smooth step-function  =               1.0000 Ry


     celldm(1)=  14.799446  celldm(2)=   0.000000  celldm(3)=   0.000000
     celldm(4)=   0.000000  celldm(5)=   0.000000  celldm(6)=   0.000000

     crystal axes: (cart. coord. in units of alat)
               a(1) = (  -0.000000000000   0.707106781187   0.707106781187 )  
               a(2) = (   0.707106781187   0.000000000000   0.707106781187 )  
               a(3) = (   2.828427124746   2.828427124746   0.000000000000 )  

     reciprocal axes: (cart. coord. in units 2 pi/alat)
               b(1) = ( -0.707107  0.707107  0.707107 )  
               b(2) = (  0.707107 -0.707107  0.707107 )  
               b(3) = (  0.176777  0.176777 -0.176777 )  


     PseudoPot. # 1 for Si read from file:
     /users/kfg/psuedo/gbrv_1.5/si.pbesol.UPF
     MD5 check sum: ef58ba74faed4df802eb8a9742fc00a8
     Pseudo is Ultrasoft + core correction, Zval =  4.0
     Generated by new atomic code, or converted to UPF format
     Using radial grid of  899 points,  6 beta functions with: 
                l(1) =   0
                l(2) =   0
                l(3) =   1
                l(4) =   1
                l(5) =   2
                l(6) =   2
     Q(r) pseudized with  8 coefficients,  rinner =    0.900   0.900   0.900
                                                       0.900   0.900

     PseudoPot. # 2 for Ge read from file:
     /users/kfg/psuedo/gbrv_1.5/ge.pbesol.UPF
     MD5 check sum: 7bed0412183f5e553a4d27ec7023354d
     Pseudo is Ultrasoft + core correction, Zval = 14.0
     Generated by new atomic code, or converted to UPF format
     Using radial grid of  873 points,  6 beta functions with: 
                l(1) =   0
                l(2) =   0
                l(3) =   1
                l(4) =   1
                l(5) =   2
                l(6) =   2
     Q(r) pseudized with  8 coefficients,  rinner =    1.400   1.400   1.400
                                                       1.400   1.400

     atomic species   valence    mass     pseudopotential
        Si             4.00    28.08550     Si( 1.00)
        Ge            14.00    72.64000     Ge( 1.00)

     No symmetry found


                                    s                        frac. trans.

      isym =  1     identity                                     

 cryst.   s( 1) = (     1          0          0      )
                  (     0          1          0      )
                  (     0          0          1      )

 cart.    s( 1) = (  1.0000000  0.0000000  0.0000000 )
                  (  0.0000000  1.0000000  0.0000000 )
                  (  0.0000000  0.0000000  1.0000000 )


     point group C_1 (1)    
     there are  1 classes
     the character table:

       E    
A      1.00

     the symmetry operations in each class:
     E        1

   Cartesian axes

     site n.     atom                  positions (alat units)
         1           Si  tau(   1) = (    0.00012045192   -0.00118007610   -0.00077854830  )
         2           Ge  tau(   2) = (    0.17759993106    0.17598688754    0.17562294770  )
         3           Si  tau(   3) = (    0.35241316175    0.35311341136    0.00130333143  )
         4           Si  tau(   4) = (    0.53059429103    0.53102140354    0.17650907350  )
         5           Si  tau(   5) = (    0.70734514382    0.70843355273   -0.00019857600  )
         6           Si  tau(   6) = (    0.88355456944    0.88412964864    0.17809449281  )
         7           Ge  tau(   7) = (    1.06153650210    1.06018046005    0.00092078984  )
         8           Ge  tau(   8) = (    1.23761605785    1.23710808755    0.17810306815  )
         9           Ge  tau(   9) = (    1.41529504432    1.41344637707    0.00041795222  )
        10           Ge  tau(  10) = (    1.59178481014    1.59043247325    0.17556969523  )
        11           Si  tau(  11) = (    1.76655310046    1.76754509413    0.00024752677  )
        12           Ge  tau(  12) = (    1.94548496175    1.94447347697    0.17749034426  )
        13           Si  tau(  13) = (    2.12234895248    2.12002644049   -0.00053596876  )
        14           Si  tau(  14) = (    2.29687530634    2.29811998414    0.17583167330  )
        15           Si  tau(  15) = (    2.47466993261    2.47401067384    0.00042573866  )
        16           Ge  tau(  16) = (    2.65045705984    2.65174853765    0.17546095522  )
        17           Si  tau(  17) = (    0.35389374585   -0.00056291876    0.35337530941  )
        18           Ge  tau(  18) = (    0.52928888644    0.17668165168    0.52954388973  )
        19           Si  tau(  19) = (    0.70603396652    0.35298568500    0.35386369518  )
        20           Ge  tau(  20) = (    0.88277145463    0.53126070992    0.53162795187  )
        21           Ge  tau(  21) = (    1.06012725330    0.70681028837    0.35286901002  )
        22           Ge  tau(  22) = (    1.23733765832    0.88499613788    0.52948015909  )
        23           Si  tau(  23) = (    1.41449085225    1.06153731232    0.35312019002  )
        24           Si  tau(  24) = (    1.59097395106    1.23799291426    0.52987089320  )
        25           Si  tau(  25) = (    1.76727562355    1.41491394431    0.35489508997  )
        26           Ge  tau(  26) = (    1.94481933859    1.59108157765    0.52977055686  )
        27           Ge  tau(  27) = (    2.12081737771    1.76714657389    0.35430428036  )
        28           Si  tau(  28) = (    2.29769440752    1.94524287501    0.52913252805  )
        29           Si  tau(  29) = (    2.47470460834    2.12013992896    0.35403885140  )
        30           Si  tau(  30) = (    2.65046453321    2.29677926572    0.52978345467  )
        31           Si  tau(  31) = (    2.82838499106    2.47496449987    0.35348220469  )
        32           Ge  tau(  32) = (    3.00607564347    2.65138060533    0.53111932368  )
        33           Ge  tau(  33) = (    0.00063478424    0.35487618492    0.35443771643  )
        34           Si  tau(  34) = (    0.17566945577    0.53068388623    0.52907732564  )
        35           Ge  tau(  35) = (    0.35280947915    0.70734144472    0.35293343432  )
        36           Si  tau(  36) = (    0.52933116816    0.88421831960    0.53023761087  )
        37           Si  tau(  37) = (    0.70652297391    1.05991144892    0.35312238278  )
        38           Si  tau(  38) = (    0.88496419996    1.23833486763    0.52979941763  )
        39           Ge  tau(  39) = (    1.06128374264    1.41514366826    0.35390685807  )
        40           Ge  tau(  40) = (    1.23741401171    1.59128873233    0.53029221430  )
        41           Ge  tau(  41) = (    1.41328051898    1.76659331632    0.35228046832  )
        42           Ge  tau(  42) = (    1.58981386881    1.94373894489    0.53112314006  )
        43           Si  tau(  43) = (    1.76710992029    2.12056264002    0.35467195472  )
        44           Ge  tau(  44) = (    1.94409211038    2.29844279426    0.53145053079  )
        45           Si  tau(  45) = (    2.12235891171    2.47495481175    0.35222853567  )
        46           Si  tau(  46) = (    2.29792374369    2.65071729134    0.53102532931  )
        47           Ge  tau(  47) = (    2.47599056978    2.82956605303    0.35392342504  )
        48           Si  tau(  48) = (    2.65056564352    3.00573520821    0.52999062720  )
        49           Ge  tau(  49) = (    0.35477854822    0.35351603487    0.70628173314  )
        50           Ge  tau(  50) = (    0.53155703943    0.52946656902    0.88422959443  )
        51           Ge  tau(  51) = (    0.70645712616    0.70780385429    0.70662240632  )
        52           Si  tau(  52) = (    0.88404222946    0.88466641197    0.88397390114  )
        53           Si  tau(  53) = (    1.06182505239    1.06024998403    0.70821215953  )
        54           Ge  tau(  54) = (    1.23646533592    1.23725257567    0.88293693319  )
        55           Si  tau(  55) = (    1.41395255706    1.41378227643    0.70822218365  )
        56           Si  tau(  56) = (    1.58996866645    1.59221070888    0.88435800058  )
        57           Si  tau(  57) = (    1.76715576627    1.76894385275    0.70810410005  )
        58           Ge  tau(  58) = (    1.94390591075    1.94461432930    0.88495490679  )
        59           Ge  tau(  59) = (    2.12055734048    2.12093300245    0.70758141248  )
        60           Si  tau(  60) = (    2.29780202484    2.29935180503    0.88298366992  )
        61           Si  tau(  61) = (    2.47375638878    2.47550315613    0.70744576750  )
        62           Si  tau(  62) = (    2.65159085901    2.65213428382    0.88428476449  )
        63           Si  tau(  63) = (    2.82804404774    2.82736027096    0.70705011983  )
        64           Si  tau(  64) = (    3.00469317861    3.00411069742    0.88411652897  )

   Crystallographic axes

     site n.     atom                  positions (cryst. coord.)
         1           Si  tau(   1) = (   -0.00147012897    0.00036909540   -0.00004968767  )
         2           Ge  tau(   2) = (    0.12304358324    0.12532477127    0.03145986498  )
         3           Si  tau(   3) = (    0.00141674574    0.00042644325    0.12449025742  )
         4           Si  tau(   4) = (    0.12511277697    0.12450874866    0.15646622346  )
         5           Si  tau(   5) = (    0.00062920688   -0.00091003576    0.25031178286  )
         6           Si  tau(   6) = (    0.12633846596    0.12552518115    0.28100241851  )
         7           Ge  tau(   7) = (   -0.00030776979    0.00160996327    0.37490733874  )
         8           Ge  tau(   8) = (    0.12557869800    0.12629707648    0.40598908438  )
         9           Ge  tau(   9) = (   -0.00101166830    0.00160274200    0.49998167611  )
        10           Ge  tau(  10) = (    0.12319027548    0.12510276865    0.53150522456  )
        11           Si  tau(  11) = (    0.00087647331   -0.00052641759    0.62470244273  )
        12           Ge  tau(  12) = (    0.12478939827    0.12621985377    0.65627784113  )
        13           Si  tau(  13) = (   -0.00202125113    0.00126327683    0.75004784896  )
        14           Si  tau(  14) = (    0.12521188865    0.12345164843    0.78120514022  )
        15           Si  tau(  15) = (   -0.00016512365    0.00076720904    0.87473614301  )
        16           Ge  tau(  16) = (    0.12498284399    0.12315641855    0.90628897549  )
        17           Si  tau(  17) = (   -0.00076463359    0.50051278877   -0.00000786344  )
        18           Ge  tau(  18) = (    0.12511310857    0.62377504215    0.03118811987  )
        19           Si  tau(  19) = (    0.00057658453    0.49986225242    0.12465513963  )
        20           Ge  tau(  20) = (    0.12736209859    0.62447336108    0.15598850063  )
        21           Ge  tau(  21) = (   -0.00031675196    0.49934889166    0.24997436195  )
        22           Ge  tau(  22) = (    0.12525593261    0.62354208939    0.28157940206  )
        23           Si  tau(  23) = (    0.00011783941    0.49926952247    0.37528065616  )
        24           Si  tau(  24) = (    0.12508001698    0.62427058649    0.40642658812  )
        25           Si  tau(  25) = (    0.00179139191    0.50010605755    0.49979977443  )
        26           Ge  tau(  26) = (    0.12447398371    0.62473472275    0.53141379056  )
        27           Ge  tau(  27) = (    0.00044793556    0.50061398294    0.62466867898  )
        28           Si  tau(  28) = (    0.12493233006    0.62337406740    0.65651413147  )
        29           Si  tau(  29) = (   -0.00037181653    0.50105836179    0.74967561455  )
        30           Si  tau(  30) = (    0.12452022230    0.62470672441    0.78090404126  )
        31           Si  tau(  31) = (    0.00004363804    0.49985568989    0.87502118102  )
        32           Ge  tau(  32) = (    0.12475080867    0.62636534212    0.90621690060  )
        33           Ge  tau(  33) = (    0.50111180939    0.00013881619    0.00018972607  )
        34           Si  tau(  34) = (    0.62514727593    0.12308105354    0.03133826833  )
        35           Ge  tau(  35) = (    0.50025358171   -0.00113033229    0.12501957066  )
        36           Si  tau(  36) = (    0.62587772163    0.12399149895    0.15614895451  )
        37           Si  tau(  37) = (    0.49957861853   -0.00018815562    0.24984063186  )
        38           Si  tau(  38) = (    0.62449555626    0.12475396549    0.28169360208  )
        39           Ge  tau(  39) = (    0.50046669225    0.00003318625    0.37521216903  )
        40           Ge  tau(  40) = (    0.62520043539    0.12474600610    0.40630541788  )
        41           Ge  tau(  41) = (    0.49892978291   -0.00072996685    0.49985261106  )
        42           Ge  tau(  42) = (    0.62582359532    0.12529795265    0.53075959557  )
        43           Si  tau(  43) = (    0.50071975923    0.00086212933    0.62455217154  )
        44           Ge  tau(  44) = (    0.62635604568    0.12522850270    0.65603323158  )
        45           Si  tau(  45) = (    0.49838613804   -0.00025976584    0.75043213075  )
        46           Si  tau(  46) = (    0.62495432124    0.12602890144    0.78093150555  )
        47           Ge  tau(  47) = (    0.50027727573    0.00024603200    0.87533335303  )
        48           Si  tau(  48) = (    0.62590277412    0.12361715880    0.90621218056  )
        49           Ge  tau(  49) = (    0.49852387117    0.50030933469    0.00035582496  )
        50           Ge  tau(  50) = (    0.62376655655    0.62672292815    0.03125306155  )
        51           Ge  tau(  51) = (    0.50060977584    0.49870521466    0.12509400860  )
        52           Si  tau(  52) = (    0.62550530357    0.62462257620    0.15640048360  )
        53           Si  tau(  53) = (    0.49966787900    0.50189536204    0.24993800698  )
        54           Ge  tau(  54) = (    0.62488735538    0.62377403026    0.28121300430  )
        55           Si  tau(  55) = (    0.50066830206    0.50090911524    0.37468044188  )
        56           Si  tau(  56) = (    0.62692090261    0.62375017580    0.40620126901  )
        57           Si  tau(  57) = (    0.50196957900    0.49944084285    0.49992370216  )
        58           Ge  tau(  58) = (    0.62625854319    0.62525668808    0.53096035372  )
        59           Ge  tau(  59) = (    0.50060124814    0.50006998188    0.62471274220  )
        60           Si  tau(  60) = (    0.62545960076    0.62326788059    0.65657872665  )
        61           Si  tau(  61) = (    0.50147485056    0.49900454848    0.74985382163  )
        62           Si  tau(  62) = (    0.62566801284    0.62489949410    0.78125406514  )
        63           Si  tau(  63) = (    0.49947643117    0.50044343757    0.87475370243  )
        64           Si  tau(  64) = (    0.62475291660    0.62557666940    0.90592529364  )

     number of k points=    10  gaussian smearing, width (Ry)=  0.0150
                       cart. coord. in units 2pi/alat
        k(    1) = (   0.0000000   0.0000000   0.0000000), wk =   0.1250000
        k(    2) = (   0.1767767  -0.1767767   0.1767767), wk =   0.2500000
        k(    3) = (  -0.3535534   0.3535534  -0.3535534), wk =   0.1250000
        k(    4) = (  -0.5303301   0.5303301  -0.1767767), wk =   0.2500000
        k(    5) = (   0.1767767  -0.1767767  -0.1767767), wk =   0.2500000
        k(    6) = (   0.1767767   0.1767767   0.1767767), wk =   0.2500000
        k(    7) = (  -0.3535534   0.3535534   0.3535534), wk =   0.1250000
        k(    8) = (  -0.3535534  -0.3535534  -0.3535534), wk =   0.1250000
        k(    9) = (  -0.5303301   0.5303301   0.1767767), wk =   0.2500000
        k(   10) = (   0.5303301  -0.1767767   0.5303301), wk =   0.2500000

                       cryst. coord.
        k(    1) = (   0.0000000   0.0000000   0.0000000), wk =   0.1250000
        k(    2) = (   0.0000000   0.2500000   0.0000000), wk =   0.2500000
        k(    3) = (   0.0000000  -0.5000000   0.0000000), wk =   0.1250000
        k(    4) = (   0.2500000  -0.5000000   0.0000000), wk =   0.2500000
        k(    5) = (  -0.2500000   0.0000000   0.0000000), wk =   0.2500000
        k(    6) = (   0.2500000   0.2500000   1.0000000), wk =   0.2500000
        k(    7) = (   0.5000000   0.0000000   0.0000000), wk =   0.1250000
        k(    8) = (  -0.5000000  -0.5000000  -2.0000000), wk =   0.1250000
        k(    9) = (   0.5000000  -0.2500000   0.0000000), wk =   0.2500000
        k(   10) = (   0.2500000   0.7500000   1.0000000), wk =   0.2500000

     Dense  grid:   438235 G-vectors     FFT dimensions: (  72,  72, 270)

     Smooth grid:   256383 G-vectors     FFT dimensions: (  60,  60, 225)

     Largest allocated arrays     est. size (Mb)     dimensions
        Kohn-Sham Wavefunctions         9.90 Mb     (    2015,  322)
        NL pseudopotentials            35.42 Mb     (    2015, 1152)
        Each V/rho on FFT grid          1.34 Mb     (   88128)
        Each G-vector array             0.21 Mb     (   27391)
        G-vector shells                 0.04 Mb     (    5735)
     Largest temporary arrays     est. size (Mb)     dimensions
        Auxiliary wavefunctions        39.60 Mb     (    2015, 1288)
        Each subspace H/S matrix       25.31 Mb     (    1288, 1288)
        Each <psi_i|beta_j> matrix      5.66 Mb     (    1152,  322)
        Arrays for rho mixing          10.76 Mb     (   88128,    8)

     Initial potential from superposition of free atoms

     starting charge  535.95404, renormalised to  536.00000
     Starting wfc are  396 randomized atomic wfcs

     total cpu time spent up to now is      115.8 secs

     per-process dynamical memory:   180.2 Mb

     Self-consistent Calculation

     iteration #  1     ecut=    35.00 Ry     beta=0.30
     Davidson diagonalization with overlap
     ethr =  1.00E-02,  avg # of iterations =  3.0

     Threshold (ethr) on eigenvalues was too large:
     Diagonalizing with lowered threshold

     Davidson diagonalization with overlap
     ethr =  2.66E-04,  avg # of iterations =  7.6

     total cpu time spent up to now is      984.3 secs

     total energy              =   -6313.52330891 Ry
     Harris-Foulkes estimate   =   -6313.67136014 Ry
     estimated scf accuracy    <       1.43171918 Ry

     iteration #  2     ecut=    35.00 Ry     beta=0.30
     Davidson diagonalization with overlap
     ethr =  2.67E-04,  avg # of iterations =  1.0

     total cpu time spent up to now is     1262.2 secs

     total energy              =   -6313.24126144 Ry
     Harris-Foulkes estimate   =   -6313.53075226 Ry
     estimated scf accuracy    <       0.88399804 Ry

     iteration #  3     ecut=    35.00 Ry     beta=0.30
     Davidson diagonalization with overlap
     ethr =  1.65E-04,  avg # of iterations =  2.4

     total cpu time spent up to now is     1579.8 secs

     total energy              =   -6313.29530861 Ry
     Harris-Foulkes estimate   =   -6313.29443088 Ry
     estimated scf accuracy    <       0.01271542 Ry

     iteration #  4     ecut=    35.00 Ry     beta=0.30
     Davidson diagonalization with overlap
     ethr =  2.37E-06,  avg # of iterations = 10.4

     total cpu time spent up to now is     2538.4 secs

     total energy              =   -6313.29788521 Ry
     Harris-Foulkes estimate   =   -6313.29832954 Ry
     estimated scf accuracy    <       0.00584219 Ry

     iteration #  5     ecut=    35.00 Ry     beta=0.30
     Davidson diagonalization with overlap
     ethr =  1.09E-06,  avg # of iterations =  2.0

     total cpu time spent up to now is     2896.4 secs

     total energy              =   -6313.29830233 Ry
     Harris-Foulkes estimate   =   -6313.29838477 Ry
     estimated scf accuracy    <       0.00061210 Ry

     iteration #  6     ecut=    35.00 Ry     beta=0.30
     Davidson diagonalization with overlap
     ethr =  1.14E-07,  avg # of iterations =  1.3

     total cpu time spent up to now is     3169.3 secs

     total energy              =   -6313.29826627 Ry
     Harris-Foulkes estimate   =   -6313.29832068 Ry
     estimated scf accuracy    <       0.00030902 Ry

     iteration #  7     ecut=    35.00 Ry     beta=0.30
     Davidson diagonalization with overlap
     ethr =  5.77E-08,  avg # of iterations =  2.0

     total cpu time spent up to now is     3497.8 secs

     total energy              =   -6313.29829578 Ry
     Harris-Foulkes estimate   =   -6313.29829128 Ry
     estimated scf accuracy    <       0.00015076 Ry

     iteration #  8     ecut=    35.00 Ry     beta=0.30
     Davidson diagonalization with overlap
     ethr =  2.81E-08,  avg # of iterations =  1.0

     total cpu time spent up to now is     3761.5 secs

     total energy              =   -6313.29828131 Ry
     Harris-Foulkes estimate   =   -6313.29829869 Ry
     estimated scf accuracy    <       0.00011150 Ry

     iteration #  9     ecut=    35.00 Ry     beta=0.30
     Davidson diagonalization with overlap
     ethr =  2.08E-08,  avg # of iterations =  2.6

     total cpu time spent up to now is     4170.4 secs

     total energy              =   -6313.29828976 Ry
     Harris-Foulkes estimate   =   -6313.29830941 Ry
     estimated scf accuracy    <       0.00007609 Ry

     iteration # 10     ecut=    35.00 Ry     beta=0.30
     Davidson diagonalization with overlap
     ethr =  1.42E-08,  avg # of iterations =  1.0

     total cpu time spent up to now is     4440.3 secs

     total energy              =   -6313.29828217 Ry
     Harris-Foulkes estimate   =   -6313.29829231 Ry
     estimated scf accuracy    <       0.00002812 Ry

     iteration # 11     ecut=    35.00 Ry     beta=0.30
     Davidson diagonalization with overlap
     ethr =  5.25E-09,  avg # of iterations =  2.0

     total cpu time spent up to now is     4786.4 secs

     total energy              =   -6313.29828521 Ry
     Harris-Foulkes estimate   =   -6313.29828567 Ry
     estimated scf accuracy    <       0.00000487 Ry

     iteration # 12     ecut=    35.00 Ry     beta=0.30
     Davidson diagonalization with overlap
     ethr =  9.08E-10,  avg # of iterations =  2.0

     total cpu time spent up to now is     5089.1 secs

     total energy              =   -6313.29828503 Ry
     Harris-Foulkes estimate   =   -6313.29828546 Ry
     estimated scf accuracy    <       0.00000181 Ry

     iteration # 13     ecut=    35.00 Ry     beta=0.30
     Davidson diagonalization with overlap
     ethr =  3.38E-10,  avg # of iterations =  2.4

     total cpu time spent up to now is     5415.7 secs

     total energy              =   -6313.29828518 Ry
     Harris-Foulkes estimate   =   -6313.29828521 Ry
     estimated scf accuracy    <       0.00000039 Ry

     iteration # 14     ecut=    35.00 Ry     beta=0.30
     Davidson diagonalization with overlap
     ethr =  7.24E-11,  avg # of iterations =  2.0

     total cpu time spent up to now is     5718.7 secs

     total energy              =   -6313.29828520 Ry
     Harris-Foulkes estimate   =   -6313.29828520 Ry
     estimated scf accuracy    <       0.00000011 Ry

     iteration # 15     ecut=    35.00 Ry     beta=0.30
     Davidson diagonalization with overlap
     ethr =  2.12E-11,  avg # of iterations =  2.4

     total cpu time spent up to now is     6057.5 secs

     total energy              =   -6313.29828521 Ry
     Harris-Foulkes estimate   =   -6313.29828521 Ry
     estimated scf accuracy    <       0.00000002 Ry

     iteration # 16     ecut=    35.00 Ry     beta=0.30
     Davidson diagonalization with overlap
     ethr =  3.81E-12,  avg # of iterations =  1.5

     total cpu time spent up to now is     6332.6 secs

     total energy              =   -6313.29828521 Ry
     Harris-Foulkes estimate   =   -6313.29828521 Ry
     estimated scf accuracy    <       0.00000001 Ry

     iteration # 17     ecut=    35.00 Ry     beta=0.30
     Davidson diagonalization with overlap
     ethr =  2.18E-12,  avg # of iterations =  2.0

     total cpu time spent up to now is     6641.0 secs

     total energy              =   -6313.29828522 Ry
     Harris-Foulkes estimate   =   -6313.29828522 Ry
     estimated scf accuracy    <          5.8E-09 Ry

     iteration # 18     ecut=    35.00 Ry     beta=0.30
     Davidson diagonalization with overlap
     ethr =  1.09E-12,  avg # of iterations =  1.0

     total cpu time spent up to now is     6902.5 secs

     total energy              =   -6313.29828522 Ry
     Harris-Foulkes estimate   =   -6313.29828522 Ry
     estimated scf accuracy    <          4.5E-09 Ry

     iteration # 19     ecut=    35.00 Ry     beta=0.30
     Davidson diagonalization with overlap
     ethr =  8.47E-13,  avg # of iterations =  1.4

     total cpu time spent up to now is     7190.9 secs

     total energy              =   -6313.29828522 Ry
     Harris-Foulkes estimate   =   -6313.29828522 Ry
     estimated scf accuracy    <          2.3E-09 Ry

     iteration # 20     ecut=    35.00 Ry     beta=0.30
     Davidson diagonalization with overlap
     ethr =  4.32E-13,  avg # of iterations =  1.7

     total cpu time spent up to now is     7469.8 secs

     End of self-consistent calculation

          k = 0.0000 0.0000 0.0000 ( 32017 PWs)   bands (ev):

   -17.5335 -17.5188 -17.5135 -17.5106 -17.4975 -17.4940 -17.4934 -17.4900
   -17.4892 -17.4809 -17.4706 -17.4676 -17.4531 -17.4493 -17.4440 -17.4329
   -17.4278 -17.4234 -17.4180 -17.4147 -17.4085 -17.4044 -17.4023 -17.4013
   -17.3987 -17.3963 -17.3857 -17.3822 -17.3738 -17.3719 -17.3698 -17.3562
   -17.3532 -17.3516 -17.3491 -17.3439 -17.3382 -17.3341 -17.3286 -17.3269
   -17.3242 -17.3191 -17.3130 -17.3097 -17.3083 -17.3079 -17.3074 -17.3066
   -17.3045 -17.3024 -17.2951 -17.2926 -17.2870 -17.2852 -17.2826 -17.2791
   -17.2767 -17.2727 -17.2723 -17.2693 -17.2637 -17.2626 -17.2620 -17.2588
   -17.2578 -17.2574 -17.2573 -17.2565 -17.2522 -17.2517 -17.2508 -17.2500
   -17.2486 -17.2467 -17.2456 -17.2447 -17.2428 -17.2419 -17.2394 -17.2386
   -17.2382 -17.2377 -17.2361 -17.2348 -17.2324 -17.2287 -17.2264 -17.2250
   -17.2235 -17.2212 -17.2199 -17.2192 -17.2184 -17.2183 -17.2181 -17.2177
   -17.2167 -17.2150 -17.2140 -17.2136 -17.2116 -17.2114 -17.2085 -17.2079
   -17.2053 -17.2037 -17.2011 -17.2005 -17.1994 -17.1964 -17.1940 -17.1939
   -17.1937 -17.1933 -17.1930 -17.1926 -17.1918 -17.1916 -17.1882 -17.1823
   -17.1792 -17.1784 -17.1758 -17.1743 -17.1721 -17.1693 -17.1673 -17.1569
   -17.1526 -17.1486 -17.1423 -17.1415 -17.1404 -17.1371 -17.1347 -17.1328
   -17.1252 -17.1203 -17.1175 -17.1150  -5.3568  -5.1837  -4.9464  -4.4953
    -4.4426  -3.7765  -3.5752  -3.4548  -3.1747  -3.1010  -3.0923  -3.0459
    -3.0415  -3.0019  -2.9455  -2.8542  -2.7247  -2.7017  -2.6337  -2.4962
    -2.4460  -2.3603  -2.3146  -2.1446  -2.0346  -1.9351  -1.8998  -1.8691
    -1.7448  -1.3383  -1.1819  -1.1559  -1.1156  -1.0277  -0.9830  -0.4105
    -0.3557  -0.3217  -0.2957  -0.2429  -0.1359  -0.1188  -0.0912  -0.0124
     0.0164   0.0550   0.1131   0.1287   0.1472   0.1519   0.2537   0.3413
     0.4014   0.4203   0.4460   0.4610   0.5601   0.8608   0.9642   2.8747
     2.9041   3.4537   3.4697   3.4733   3.4777   3.4958   3.5064   3.5916
     3.6012   3.6083   3.6251   3.6332   3.6404   4.1597   4.1652   4.1675
     4.1693   4.1718   4.1744   4.3237   4.3306   4.3336   4.3508   4.3553
     4.3677   4.6186   4.6335   4.6585   4.6730   4.7039   4.7234   4.8113
     4.8169   4.8288   4.8379   4.8460   4.8537   5.1991   5.3479   5.4464
     5.4640   5.4780   5.4842   5.4975   5.5163   5.8050   5.8134   5.8312
     5.8393   5.8432   5.8474   5.8573   5.8680   5.9405   5.9583   5.9732
     5.9889   6.3000   6.3158   6.3246   6.3379   6.7681   6.7937   6.8760
     6.8881   7.1292   7.1457   7.1646   7.6675   7.7010   7.7225   7.7507
     7.7830   7.8021   7.8303   7.8640   7.8954   7.9212   7.9461   7.9626
     7.9960   8.0228   8.0868   8.1350   8.1559   8.2256   8.4472   8.4701
     8.5022   8.5158   8.5523   8.5686   8.6159   8.6289   8.8182   8.8482
     8.9166   8.9504   8.9653   8.9795   9.0244   9.0262   9.0463   9.0575
     9.0933   9.1231   9.1377   9.1873   9.2086   9.6298   9.6339   9.6620
    10.0005  10.0086  10.1352  10.1427  10.4206  10.4393  10.4586  10.4819
    10.5051  10.5138

     occupation numbers 
     1.0000   1.0000   1.0000   1.0000   1.0000   1.0000   1.0000   1.0000
     1.0000   1.0000   1.0000   1.0000   1.0000   1.0000   1.0000   1.0000
     1.0000   1.0000   1.0000   1.0000   1.0000   1.0000   1.0000   1.0000
     1.0000   1.0000   1.0000   1.0000   1.0000   1.0000   1.0000   1.0000
     1.0000   1.0000   1.0000   1.0000   1.0000   1.0000   1.0000   1.0000
     1.0000   1.0000   1.0000   1.0000   1.0000   1.0000   1.0000   1.0000
     1.0000   1.0000   1.0000   1.0000   1.0000   1.0000   1.0000   1.0000
     1.0000   1.0000   1.0000   1.0000   1.0000   1.0000   1.0000   1.0000
     1.0000   1.0000   1.0000   1.0000   1.0000   1.0000   1.0000   1.0000
     1.0000   1.0000   1.0000   1.0000   1.0000   1.0000   1.0000   1.0000
     1.0000   1.0000   1.0000   1.0000   1.0000   1.0000   1.0000   1.0000
     1.0000   1.0000   1.0000   1.0000   1.0000   1.0000   1.0000   1.0000
     1.0000   1.0000   1.0000   1.0000   1.0000   1.0000   1.0000   1.0000
     1.0000   1.0000   1.0000   1.0000   1.0000   1.0000   1.0000   1.0000
     1.0000   1.0000   1.0000   1.0000   1.0000   1.0000   1.0000   1.0000
     1.0000   1.0000   1.0000   1.0000   1.0000   1.0000   1.0000   1.0000
     1.0000   1.0000   1.0000   1.0000   1.0000   1.0000   1.0000   1.0000
     1.0000   1.0000   1.0000   1.0000   1.0000   1.0000   1.0000   1.0000
     1.0000   1.0000   1.0000   1.0000   1.0000   1.0000   1.0000   1.0000
     1.0000   1.0000   1.0000   1.0000   1.0000   1.0000   1.0000   1.0000
     1.0000   1.0000   1.0000   1.0000   1.0000   1.0000   1.0000   1.0000
     1.0000   1.0000   1.0000   1.0000   1.0000   1.0000   1.0000   1.0000
     1.0000   1.0000   1.0000   1.0000   1.0000   1.0000   1.0000   1.0000
     1.0000   1.0000   1.0000   1.0000   1.0000   1.0000   1.0000   1.0000
     1.0000   1.0000   1.0000   1.0000   1.0000   1.0000   1.0000   1.0000
     1.0000   1.0000   1.0000   1.0000   1.0000   1.0000   1.0000   1.0000
     1.0000   1.0000   1.0000   1.0000   1.0000   1.0000   1.0000   1.0000
     1.0000   1.0000   1.0000   1.0000   1.0000   1.0000   1.0000   1.0000
     1.0000   1.0000   1.0000   1.0000   1.0000   1.0000   1.0000   1.0000
     1.0000   1.0000   1.0000   1.0000   1.0000   1.0000   1.0000   1.0000
     1.0000   1.0000   1.0000   1.0000   1.0000   1.0000   1.0000   1.0000
     1.0000   1.0000   1.0000   1.0000   1.0000   1.0000   1.0000   1.0000
     1.0000   1.0000   1.0000   1.0000   1.0000   1.0000   1.0000   0.9996
     0.9995   0.9474   0.9340   0.9154   0.0174   0.0096   0.0064   0.0036
     0.0018   0.0012   0.0006   0.0003   0.0001   0.0001   0.0000   0.0000
     0.0000   0.0000   0.0000   0.0000   0.0000   0.0000   0.0000   0.0000
     0.0000   0.0000   0.0000   0.0000   0.0000   0.0000   0.0000   0.0000
     0.0000   0.0000   0.0000   0.0000   0.0000   0.0000   0.0000   0.0000
     0.0000   0.0000   0.0000   0.0000   0.0000   0.0000   0.0000   0.0000
     0.0000   0.0000   0.0000   0.0000   0.0000   0.0000   0.0000   0.0000
     0.0000   0.0000

          k = 0.1768-0.1768 0.1768 ( 32087 PWs)   bands (ev):

   -17.5334 -17.5193 -17.5135 -17.5108 -17.4976 -17.4941 -17.4937 -17.4899
   -17.4895 -17.4808 -17.4705 -17.4675 -17.4530 -17.4492 -17.4440 -17.4327
   -17.4277 -17.4232 -17.4178 -17.4143 -17.4082 -17.4037 -17.4023 -17.4010
   -17.3986 -17.3960 -17.3858 -17.3821 -17.3737 -17.3718 -17.3696 -17.3561
   -17.3526 -17.3513 -17.3490 -17.3439 -17.3381 -17.3341 -17.3286 -17.3264
   -17.3241 -17.3191 -17.3132 -17.3097 -17.3084 -17.3084 -17.3073 -17.3064
   -17.3045 -17.3024 -17.2945 -17.2921 -17.2880 -17.2852 -17.2837 -17.2796
   -17.2778 -17.2728 -17.2724 -17.2687 -17.2636 -17.2626 -17.2618 -17.2590
   -17.2576 -17.2574 -17.2570 -17.2559 -17.2516 -17.2516 -17.2512 -17.2499
   -17.2486 -17.2467 -17.2455 -17.2448 -17.2429 -17.2419 -17.2389 -17.2382
   -17.2381 -17.2375 -17.2361 -17.2351 -17.2328 -17.2277 -17.2251 -17.2244
   -17.2232 -17.2212 -17.2197 -17.2192 -17.2185 -17.2182 -17.2180 -17.2176
   -17.2168 -17.2155 -17.2138 -17.2136 -17.2116 -17.2110 -17.2083 -17.2080
   -17.2052 -17.2037 -17.2009 -17.2001 -17.1991 -17.1961 -17.1940 -17.1937
   -17.1936 -17.1932 -17.1930 -17.1928 -17.1916 -17.1911 -17.1877 -17.1820
   -17.1791 -17.1781 -17.1755 -17.1739 -17.1721 -17.1695 -17.1672 -17.1564
   -17.1529 -17.1486 -17.1423 -17.1414 -17.1405 -17.1374 -17.1346 -17.1331
   -17.1259 -17.1203 -17.1174 -17.1150  -5.1904  -5.0333  -4.7315  -4.5137
    -4.1215  -3.8429  -3.7509  -3.6627  -3.5462  -3.4840  -3.2583  -3.1752
    -3.0788  -3.0707  -3.0311  -2.9699  -2.8906  -2.8491  -2.7522  -2.7005
    -2.6669  -2.4559  -2.4042  -2.2081  -2.0858  -1.9996  -1.8971  -1.8447
    -1.6774  -1.4734  -1.2610  -1.0667  -1.0198  -0.9500  -0.6131  -0.4248
    -0.3415  -0.2576  -0.1900  -0.0858  -0.0262   0.0233   0.0986   0.1170
     0.1710   0.2031   0.3538   0.4179   0.4952   0.5269   0.7092   0.7616
     0.8760   0.9119   0.9665   1.0184   1.4714   1.5757   1.7699   2.1702
     2.7870   2.9958   3.0104   3.0390   3.5083   3.5272   3.5519   3.6117
     3.6189   3.6219   3.6288   3.6381   3.6415   3.6466   3.6752   3.6815
     3.6963   3.7033   4.0854   4.0969   4.1041   4.2948   4.3028   4.3317
     4.3399   4.3426   4.3589   4.4199   4.4261   4.4906   4.5009   4.5180
     4.5250   4.6019   4.6657   4.6830   4.6965   4.7080   4.8310   4.8894
     4.8964   5.0924   5.1226   5.1363   5.1482   5.1569   5.2928   5.4079
     5.4431   5.4527   5.4603   5.4725   5.4779   5.4942   5.7376   5.7634
     5.7705   5.7756   5.7938   5.8062   5.9601   5.9624   6.2686   6.3020
     6.3056   6.7914   6.8206   6.8477   7.6388   7.9085   7.9332   7.9684
     8.1000   8.2243   8.3595   8.6042   8.7771   8.8289   8.8643   8.8890
     8.9003   8.9285   8.9515   8.9714   8.9798   9.0016   9.0100   9.0325
     9.0442   9.0598   9.0693   9.1000   9.1064   9.1237   9.1470   9.1743
     9.1998   9.2265   9.3808   9.4343   9.4776   9.6050   9.6816   9.7460
     9.8020   9.8615   9.8753   9.9563   9.9595  10.0615  10.0932  10.1917
    10.2769  10.3089  10.3163  10.3759  10.3962  10.4963  10.5189  10.5399
    10.5534  10.5670

     occupation numbers 
     1.0000   1.0000   1.0000   1.0000   1.0000   1.0000   1.0000   1.0000
     1.0000   1.0000   1.0000   1.0000   1.0000   1.0000   1.0000   1.0000
     1.0000   1.0000   1.0000   1.0000   1.0000   1.0000   1.0000   1.0000
     1.0000   1.0000   1.0000   1.0000   1.0000   1.0000   1.0000   1.0000
     1.0000   1.0000   1.0000   1.0000   1.0000   1.0000   1.0000   1.0000
     1.0000   1.0000   1.0000   1.0000   1.0000   1.0000   1.0000   1.0000
     1.0000   1.0000   1.0000   1.0000   1.0000   1.0000   1.0000   1.0000
     1.0000   1.0000   1.0000   1.0000   1.0000   1.0000   1.0000   1.0000
     1.0000   1.0000   1.0000   1.0000   1.0000   1.0000   1.0000   1.0000
     1.0000   1.0000   1.0000   1.0000   1.0000   1.0000   1.0000   1.0000
     1.0000   1.0000   1.0000   1.0000   1.0000   1.0000   1.0000   1.0000
     1.0000   1.0000   1.0000   1.0000   1.0000   1.0000   1.0000   1.0000
     1.0000   1.0000   1.0000   1.0000   1.0000   1.0000   1.0000   1.0000
     1.0000   1.0000   1.0000   1.0000   1.0000   1.0000   1.0000   1.0000
     1.0000   1.0000   1.0000   1.0000   1.0000   1.0000   1.0000   1.0000
     1.0000   1.0000   1.0000   1.0000   1.0000   1.0000   1.0000   1.0000
     1.0000   1.0000   1.0000   1.0000   1.0000   1.0000   1.0000   1.0000
     1.0000   1.0000   1.0000   1.0000   1.0000   1.0000   1.0000   1.0000
     1.0000   1.0000   1.0000   1.0000   1.0000   1.0000   1.0000   1.0000
     1.0000   1.0000   1.0000   1.0000   1.0000   1.0000   1.0000   1.0000
     1.0000   1.0000   1.0000   1.0000   1.0000   1.0000   1.0000   1.0000
     1.0000   1.0000   1.0000   1.0000   1.0000   1.0000   1.0000   1.0000
     1.0000   1.0000   1.0000   1.0000   1.0000   1.0000   1.0000   1.0000
     1.0000   1.0000   1.0000   1.0000   1.0000   1.0000   1.0000   1.0000
     1.0000   1.0000   1.0000   1.0000   1.0000   1.0000   1.0000   1.0000
     1.0000   1.0000   1.0000   1.0000   1.0000   1.0000   1.0000   1.0000
     1.0000   1.0000   1.0000   1.0000   1.0000   1.0000   1.0000   1.0000
     1.0000   1.0000   1.0000   1.0000   1.0000   1.0000   1.0000   1.0000
     1.0000   1.0000   1.0000   1.0000   1.0000   1.0000   1.0000   1.0000
     1.0000   1.0000   1.0000   1.0000   1.0000   1.0000   1.0000   1.0000
     1.0000   1.0000   1.0000   1.0000   1.0000   1.0000   1.0000   1.0000
     1.0000   1.0000   1.0000   1.0000   1.0000   1.0000   1.0000   1.0000
     1.0000   1.0000   1.0000   1.0000   1.0000   1.0000   1.0000   1.0000
     1.0000   1.0000   0.9999   0.9998   0.0280   0.0001   0.0000   0.0000
     0.0000   0.0000   0.0000   0.0000   0.0000   0.0000   0.0000   0.0000
     0.0000   0.0000   0.0000   0.0000   0.0000   0.0000   0.0000   0.0000
     0.0000   0.0000   0.0000   0.0000   0.0000   0.0000   0.0000   0.0000
     0.0000   0.0000   0.0000   0.0000   0.0000   0.0000   0.0000   0.0000
     0.0000   0.0000   0.0000   0.0000   0.0000   0.0000   0.0000   0.0000
     0.0000   0.0000   0.0000   0.0000   0.0000   0.0000   0.0000   0.0000
     0.0000   0.0000

          k =-0.3536 0.3536-0.3536 ( 32056 PWs)   bands (ev):

   -17.5333 -17.5198 -17.5135 -17.5110 -17.4977 -17.4941 -17.4940 -17.4898
   -17.4897 -17.4807 -17.4704 -17.4674 -17.4529 -17.4490 -17.4440 -17.4325
   -17.4276 -17.4229 -17.4176 -17.4138 -17.4078 -17.4030 -17.4022 -17.4008
   -17.3986 -17.3958 -17.3858 -17.3820 -17.3737 -17.3717 -17.3694 -17.3560
   -17.3521 -17.3509 -17.3488 -17.3440 -17.3380 -17.3341 -17.3285 -17.3260
   -17.3241 -17.3190 -17.3132 -17.3098 -17.3091 -17.3082 -17.3073 -17.3059
   -17.3044 -17.3023 -17.2939 -17.2917 -17.2895 -17.2849 -17.2847 -17.2798
   -17.2784 -17.2728 -17.2724 -17.2680 -17.2635 -17.2626 -17.2618 -17.2591
   -17.2575 -17.2573 -17.2568 -17.2550 -17.2515 -17.2514 -17.2510 -17.2498
   -17.2485 -17.2469 -17.2459 -17.2445 -17.2429 -17.2418 -17.2387 -17.2379
   -17.2378 -17.2372 -17.2361 -17.2353 -17.2331 -17.2270 -17.2253 -17.2229
   -17.2220 -17.2210 -17.2194 -17.2190 -17.2186 -17.2181 -17.2178 -17.2175
   -17.2168 -17.2165 -17.2138 -17.2131 -17.2117 -17.2106 -17.2083 -17.2081
   -17.2050 -17.2037 -17.2008 -17.1995 -17.1988 -17.1960 -17.1940 -17.1935
   -17.1934 -17.1931 -17.1931 -17.1930 -17.1916 -17.1905 -17.1874 -17.1817
   -17.1789 -17.1778 -17.1752 -17.1735 -17.1720 -17.1696 -17.1671 -17.1558
   -17.1529 -17.1485 -17.1421 -17.1412 -17.1405 -17.1376 -17.1345 -17.1333
   -17.1266 -17.1202 -17.1173 -17.1147  -4.8550  -4.6497  -4.5517  -4.4051
    -4.3069  -4.1217  -4.0263  -3.8455  -3.6258  -3.5863  -3.4318  -3.3426
    -3.2381  -3.1796  -3.1413  -3.1032  -3.0700  -2.8940  -2.7491  -2.6860
    -2.6407  -2.5246  -2.4809  -2.3812  -2.2962  -2.1994  -1.9868  -1.8554
    -1.8062  -1.5654  -1.1985  -1.0047  -0.9434  -0.8853  -0.4449  -0.3320
    -0.2621  -0.0862  -0.0249   0.1629   0.1827   0.2487   0.3698   0.3729
     0.4483   0.4644   0.6976   0.9066   0.9946   1.0035   1.1505   1.2451
     1.3057   1.3617   1.6642   1.7840   2.0972   2.2404   2.8235   2.9260
     2.9815   3.0013   3.0159   3.0186   3.0371   3.0494   3.1079   3.2064
     3.2173   3.2234   3.2288   3.2468   3.2957   3.3001   3.3028   3.3080
     3.4708   3.4858   3.4892   3.5028   3.5094   3.5186   3.5414   3.6305
     3.6757   3.6953   3.6986   3.7170   4.0854   4.0915   4.1028   4.1040
     4.3528   4.3909   4.6744   4.7087   4.7941   4.8068   4.8187   4.8225
     4.8282   4.8396   4.8454   4.8618   5.0960   5.1137   5.1191   5.1223
     5.1365   5.1451   5.1647   5.1660   5.1933   5.1983   5.6852   5.7062
     5.7163   5.7228   5.7434   5.7552   5.7844   5.7902   6.2603   6.2701
     6.3032   6.3202   6.3293   6.3719   8.0689   8.1666   8.3102   8.3577
     8.4519   8.4765   8.4970   8.5155   8.5334   8.5477   8.5897   8.6224
     8.8053   8.8897   9.0969   9.1550   9.2657   9.3030   9.3164   9.3529
     9.3650   9.3779   9.4218   9.4352   9.4500   9.5203   9.7791   9.8156
     9.8366   9.8854   9.9382   9.9716  10.0946  10.1177  10.2925  10.3436
    10.5033  10.5243  10.5344  10.5821  10.6184  10.6423  10.6607  10.7033
    10.7379  10.8800  10.9220  11.0662  11.2463  11.2712  11.3403  11.3477
    11.4143  11.4298

     occupation numbers 
     1.0000   1.0000   1.0000   1.0000   1.0000   1.0000   1.0000   1.0000
     1.0000   1.0000   1.0000   1.0000   1.0000   1.0000   1.0000   1.0000
     1.0000   1.0000   1.0000   1.0000   1.0000   1.0000   1.0000   1.0000
     1.0000   1.0000   1.0000   1.0000   1.0000   1.0000   1.0000   1.0000
     1.0000   1.0000   1.0000   1.0000   1.0000   1.0000   1.0000   1.0000
     1.0000   1.0000   1.0000   1.0000   1.0000   1.0000   1.0000   1.0000
     1.0000   1.0000   1.0000   1.0000   1.0000   1.0000   1.0000   1.0000
     1.0000   1.0000   1.0000   1.0000   1.0000   1.0000   1.0000   1.0000
     1.0000   1.0000   1.0000   1.0000   1.0000   1.0000   1.0000   1.0000
     1.0000   1.0000   1.0000   1.0000   1.0000   1.0000   1.0000   1.0000
     1.0000   1.0000   1.0000   1.0000   1.0000   1.0000   1.0000   1.0000
     1.0000   1.0000   1.0000   1.0000   1.0000   1.0000   1.0000   1.0000
     1.0000   1.0000   1.0000   1.0000   1.0000   1.0000   1.0000   1.0000
     1.0000   1.0000   1.0000   1.0000   1.0000   1.0000   1.0000   1.0000
     1.0000   1.0000   1.0000   1.0000   1.0000   1.0000   1.0000   1.0000
     1.0000   1.0000   1.0000   1.0000   1.0000   1.0000   1.0000   1.0000
     1.0000   1.0000   1.0000   1.0000   1.0000   1.0000   1.0000   1.0000
     1.0000   1.0000   1.0000   1.0000   1.0000   1.0000   1.0000   1.0000
     1.0000   1.0000   1.0000   1.0000   1.0000   1.0000   1.0000   1.0000
     1.0000   1.0000   1.0000   1.0000   1.0000   1.0000   1.0000   1.0000
     1.0000   1.0000   1.0000   1.0000   1.0000   1.0000   1.0000   1.0000
     1.0000   1.0000   1.0000   1.0000   1.0000   1.0000   1.0000   1.0000
     1.0000   1.0000   1.0000   1.0000   1.0000   1.0000   1.0000   1.0000
     1.0000   1.0000   1.0000   1.0000   1.0000   1.0000   1.0000   1.0000
     1.0000   1.0000   1.0000   1.0000   1.0000   1.0000   1.0000   1.0000
     1.0000   1.0000   1.0000   1.0000   1.0000   1.0000   1.0000   1.0000
     1.0000   1.0000   1.0000   1.0000   1.0000   1.0000   1.0000   1.0000
     1.0000   1.0000   1.0000   1.0000   1.0000   1.0000   1.0000   1.0000
     1.0000   1.0000   1.0000   1.0000   1.0000   1.0000   1.0000   1.0000
     1.0000   1.0000   1.0000   1.0000   1.0000   1.0000   1.0000   1.0000
     1.0000   1.0000   1.0000   1.0000   1.0000   1.0000   1.0000   1.0000
     1.0000   1.0000   1.0000   1.0000   1.0000   1.0000   1.0000   1.0000
     1.0000   1.0000   1.0000   1.0000   1.0000   1.0000   1.0000   1.0000
     1.0000   1.0000   1.0000   1.0000   0.0000   0.0000   0.0000   0.0000
     0.0000   0.0000   0.0000   0.0000   0.0000   0.0000   0.0000   0.0000
     0.0000   0.0000   0.0000   0.0000   0.0000   0.0000   0.0000   0.0000
     0.0000   0.0000   0.0000   0.0000   0.0000   0.0000   0.0000   0.0000
     0.0000   0.0000   0.0000   0.0000   0.0000   0.0000   0.0000   0.0000
     0.0000   0.0000   0.0000   0.0000   0.0000   0.0000   0.0000   0.0000
     0.0000   0.0000   0.0000   0.0000   0.0000   0.0000   0.0000   0.0000
     0.0000   0.0000

          k =-0.5303 0.5303-0.1768 ( 32066 PWs)   bands (ev):

   -17.5339 -17.5234 -17.5199 -17.5111 -17.4964 -17.4938 -17.4931 -17.4901
   -17.4890 -17.4808 -17.4800 -17.4708 -17.4507 -17.4466 -17.4326 -17.4314
   -17.4232 -17.4229 -17.4177 -17.4138 -17.4081 -17.4041 -17.4023 -17.4002
   -17.3985 -17.3950 -17.3819 -17.3796 -17.3713 -17.3695 -17.3618 -17.3560
   -17.3521 -17.3507 -17.3493 -17.3415 -17.3377 -17.3344 -17.3285 -17.3271
   -17.3241 -17.3190 -17.3129 -17.3115 -17.3098 -17.3090 -17.3086 -17.3058
   -17.3044 -17.3024 -17.3002 -17.2917 -17.2883 -17.2847 -17.2842 -17.2805
   -17.2775 -17.2759 -17.2720 -17.2664 -17.2639 -17.2635 -17.2616 -17.2605
   -17.2594 -17.2573 -17.2569 -17.2569 -17.2548 -17.2517 -17.2497 -17.2483
   -17.2475 -17.2462 -17.2446 -17.2442 -17.2427 -17.2421 -17.2386 -17.2378
   -17.2370 -17.2366 -17.2362 -17.2353 -17.2338 -17.2320 -17.2261 -17.2226
   -17.2220 -17.2209 -17.2194 -17.2191 -17.2185 -17.2182 -17.2179 -17.2176
   -17.2169 -17.2163 -17.2152 -17.2142 -17.2138 -17.2116 -17.2112 -17.2091
   -17.2080 -17.2069 -17.2030 -17.2007 -17.2003 -17.1990 -17.1963 -17.1935
   -17.1934 -17.1932 -17.1930 -17.1929 -17.1918 -17.1903 -17.1878 -17.1821
   -17.1810 -17.1791 -17.1755 -17.1751 -17.1697 -17.1682 -17.1605 -17.1557
   -17.1514 -17.1448 -17.1421 -17.1417 -17.1387 -17.1345 -17.1333 -17.1290
   -17.1266 -17.1205 -17.1170 -17.1151  -4.8775  -4.7008  -4.4827  -4.2376
    -4.1712  -4.0831  -4.0200  -3.9066  -3.8585  -3.7188  -3.6588  -3.4502
    -3.4042  -3.2598  -3.1312  -3.0495  -2.8726  -2.7760  -2.6553  -2.6024
    -2.5171  -2.4677  -2.3962  -2.3121  -2.1407  -2.0531  -1.9656  -1.8780
    -1.7534  -1.7279  -1.6324  -1.4788  -0.6194  -0.4079  -0.3881  -0.2950
    -0.2294  -0.1003  -0.0797   0.0139   0.0846   0.1062   0.1869   0.2507
     0.3134   0.6437   0.7319   0.8199   0.8988   0.9396   1.0336   1.4922
     1.5332   1.6696   1.7780   2.1323   2.1909   2.3611   2.4015   2.4573
     2.5192   2.7806   2.8383   2.8437   2.8483   2.8597   2.9867   2.9960
     3.0130   3.0227   3.0406   3.0627   3.4782   3.5366   3.5405   3.6166
     3.6680   3.6784   3.6848   3.6906   3.6940   3.7265   4.0851   4.0931
     4.1001   4.1032   4.1141   4.2974   4.3018   4.3121   4.3287   4.3356
     4.3500   4.3667   4.3788   4.4617   4.4689   4.4758   4.4779   4.6005
     4.6925   4.7008   4.8262   4.8410   4.8905   4.8939   5.0960   5.1053
     5.1167   5.1248   5.1384   5.1448   5.1521   5.1578   5.4359   5.4542
     5.4674   5.5960   5.6105   5.6209   5.6374   5.7187   5.7498   5.7758
     5.8021   6.2844   6.3035   6.7998   8.2252   8.3580   8.3768   8.7664
     8.8350   8.9321   8.9705   9.0586   9.0947   9.1286   9.1472   9.2485
     9.3063   9.3329   9.3845   9.4269   9.4377   9.4640   9.4807   9.5104
     9.5352   9.5779   9.6799   9.7005   9.7626   9.7895   9.8031   9.8337
     9.8598   9.8834   9.9012   9.9082   9.9520   9.9662   9.9904  10.0054
    10.2130  10.2637  10.2842  10.3219  10.3429  10.3743  10.4545  10.4770
    10.5030  10.5323  10.5454  10.5678  10.5938  10.6181  10.6650  10.7138
    10.8179  10.8425

     occupation numbers 
     1.0000   1.0000   1.0000   1.0000   1.0000   1.0000   1.0000   1.0000
     1.0000   1.0000   1.0000   1.0000   1.0000   1.0000   1.0000   1.0000
     1.0000   1.0000   1.0000   1.0000   1.0000   1.0000   1.0000   1.0000
     1.0000   1.0000   1.0000   1.0000   1.0000   1.0000   1.0000   1.0000
     1.0000   1.0000   1.0000   1.0000   1.0000   1.0000   1.0000   1.0000
     1.0000   1.0000   1.0000   1.0000   1.0000   1.0000   1.0000   1.0000
     1.0000   1.0000   1.0000   1.0000   1.0000   1.0000   1.0000   1.0000
     1.0000   1.0000   1.0000   1.0000   1.0000   1.0000   1.0000   1.0000
     1.0000   1.0000   1.0000   1.0000   1.0000   1.0000   1.0000   1.0000
     1.0000   1.0000   1.0000   1.0000   1.0000   1.0000   1.0000   1.0000
     1.0000   1.0000   1.0000   1.0000   1.0000   1.0000   1.0000   1.0000
     1.0000   1.0000   1.0000   1.0000   1.0000   1.0000   1.0000   1.0000
     1.0000   1.0000   1.0000   1.0000   1.0000   1.0000   1.0000   1.0000
     1.0000   1.0000   1.0000   1.0000   1.0000   1.0000   1.0000   1.0000
     1.0000   1.0000   1.0000   1.0000   1.0000   1.0000   1.0000   1.0000
     1.0000   1.0000   1.0000   1.0000   1.0000   1.0000   1.0000   1.0000
     1.0000   1.0000   1.0000   1.0000   1.0000   1.0000   1.0000   1.0000
     1.0000   1.0000   1.0000   1.0000   1.0000   1.0000   1.0000   1.0000
     1.0000   1.0000   1.0000   1.0000   1.0000   1.0000   1.0000   1.0000
     1.0000   1.0000   1.0000   1.0000   1.0000   1.0000   1.0000   1.0000
     1.0000   1.0000   1.0000   1.0000   1.0000   1.0000   1.0000   1.0000
     1.0000   1.0000   1.0000   1.0000   1.0000   1.0000   1.0000   1.0000
     1.0000   1.0000   1.0000   1.0000   1.0000   1.0000   1.0000   1.0000
     1.0000   1.0000   1.0000   1.0000   1.0000   1.0000   1.0000   1.0000
     1.0000   1.0000   1.0000   1.0000   1.0000   1.0000   1.0000   1.0000
     1.0000   1.0000   1.0000   1.0000   1.0000   1.0000   1.0000   1.0000
     1.0000   1.0000   1.0000   1.0000   1.0000   1.0000   1.0000   1.0000
     1.0000   1.0000   1.0000   1.0000   1.0000   1.0000   1.0000   1.0000
     1.0000   1.0000   1.0000   1.0000   1.0000   1.0000   1.0000   1.0000
     1.0000   1.0000   1.0000   1.0000   1.0000   1.0000   1.0000   1.0000
     1.0000   1.0000   1.0000   1.0000   1.0000   1.0000   1.0000   1.0000
     1.0000   1.0000   1.0000   1.0000   1.0000   1.0000   1.0000   1.0000
     1.0000   1.0000   1.0000   1.0000   1.0000   1.0000   1.0000   1.0000
     1.0000   1.0000   1.0000   1.0000   0.0000   0.0000   0.0000   0.0000
     0.0000   0.0000   0.0000   0.0000   0.0000   0.0000   0.0000   0.0000
     0.0000   0.0000   0.0000   0.0000   0.0000   0.0000   0.0000   0.0000
     0.0000   0.0000   0.0000   0.0000   0.0000   0.0000   0.0000   0.0000
     0.0000   0.0000   0.0000   0.0000   0.0000   0.0000   0.0000   0.0000
     0.0000   0.0000   0.0000   0.0000   0.0000   0.0000   0.0000   0.0000
     0.0000   0.0000   0.0000   0.0000   0.0000   0.0000   0.0000   0.0000
     0.0000   0.0000

          k = 0.1768-0.1768-0.1768 ( 32087 PWs)   bands (ev):

   -17.5340 -17.5233 -17.5195 -17.5109 -17.4962 -17.4936 -17.4931 -17.4895
   -17.4890 -17.4809 -17.4799 -17.4709 -17.4508 -17.4467 -17.4327 -17.4314
   -17.4234 -17.4230 -17.4179 -17.4142 -17.4084 -17.4048 -17.4022 -17.4004
   -17.3985 -17.3952 -17.3819 -17.3797 -17.3714 -17.3697 -17.3619 -17.3555
   -17.3530 -17.3510 -17.3495 -17.3414 -17.3378 -17.3344 -17.3286 -17.3276
   -17.3242 -17.3191 -17.3127 -17.3114 -17.3098 -17.3086 -17.3078 -17.3066
   -17.3045 -17.3024 -17.3003 -17.2928 -17.2877 -17.2838 -17.2825 -17.2802
   -17.2773 -17.2760 -17.2718 -17.2664 -17.2643 -17.2638 -17.2624 -17.2604
   -17.2595 -17.2579 -17.2573 -17.2568 -17.2567 -17.2508 -17.2499 -17.2484
   -17.2473 -17.2456 -17.2446 -17.2444 -17.2426 -17.2420 -17.2393 -17.2386
   -17.2377 -17.2367 -17.2361 -17.2347 -17.2334 -17.2320 -17.2268 -17.2244
   -17.2231 -17.2210 -17.2197 -17.2191 -17.2183 -17.2181 -17.2180 -17.2175
   -17.2167 -17.2158 -17.2152 -17.2143 -17.2134 -17.2114 -17.2106 -17.2094
   -17.2081 -17.2071 -17.2028 -17.2008 -17.2002 -17.1993 -17.1964 -17.1938
   -17.1935 -17.1933 -17.1930 -17.1926 -17.1916 -17.1906 -17.1883 -17.1822
   -17.1811 -17.1792 -17.1758 -17.1754 -17.1691 -17.1683 -17.1609 -17.1567
   -17.1512 -17.1450 -17.1425 -17.1418 -17.1381 -17.1346 -17.1334 -17.1288
   -17.1255 -17.1205 -17.1171 -17.1152  -5.1799  -5.0319  -4.7242  -4.4977
    -4.0857  -3.9208  -3.8188  -3.6800  -3.5371  -3.3647  -3.2668  -3.2098
    -3.1883  -3.1551  -3.0714  -2.9949  -2.8659  -2.8340  -2.7123  -2.6283
    -2.5031  -2.4683  -2.3556  -2.2749  -2.0652  -1.9263  -1.8603  -1.8255
    -1.7581  -1.5518  -1.1820  -1.0863  -1.0675  -0.9615  -0.5825  -0.4144
    -0.3179  -0.2475  -0.1767  -0.1075  -0.0371   0.0124   0.0336   0.0981
     0.1589   0.2019   0.3756   0.4323   0.4709   0.5294   0.6482   0.8072
     0.8712   0.9190   0.9875   1.0452   1.5023   1.5646   1.7679   2.1604
     2.7821   2.9968   3.0082   3.0382   3.4953   3.5244   3.5570   3.6085
     3.6131   3.6183   3.6329   3.6347   3.6432   3.6449   3.6756   3.6802
     3.6929   3.7035   4.0730   4.0972   4.1055   4.2895   4.2948   4.3375
     4.3421   4.3460   4.3603   4.4214   4.4264   4.4900   4.5016   4.5171
     4.5253   4.6084   4.6559   4.6730   4.6797   4.7046   4.8378   4.8921
     4.9028   5.0986   5.1061   5.1304   5.1411   5.1568   5.2778   5.4048
     5.4395   5.4574   5.4770   5.4859   5.4868   5.5043   5.7438   5.7558
     5.7669   5.7828   5.7918   5.7970   5.9568   5.9745   6.2783   6.2908
     6.3191   6.8045   6.8257   6.8564   7.6401   7.9051   7.9585   7.9827
     8.1140   8.2463   8.3735   8.6082   8.7951   8.8152   8.8549   8.8920
     8.9075   8.9159   8.9404   8.9497   8.9714   8.9910   9.0201   9.0290
     9.0373   9.0464   9.0708   9.0949   9.1205   9.1397   9.1499   9.1661
     9.2009   9.2357   9.3846   9.4363   9.4644   9.6020   9.6816   9.7268
     9.7898   9.8366   9.8951   9.9334   9.9904  10.0744  10.0957  10.1996
    10.2669  10.3073  10.3353  10.3697  10.4293  10.4839  10.5066  10.5334
    10.5499  10.5627

     occupation numbers 
     1.0000   1.0000   1.0000   1.0000   1.0000   1.0000   1.0000   1.0000
     1.0000   1.0000   1.0000   1.0000   1.0000   1.0000   1.0000   1.0000
     1.0000   1.0000   1.0000   1.0000   1.0000   1.0000   1.0000   1.0000
     1.0000   1.0000   1.0000   1.0000   1.0000   1.0000   1.0000   1.0000
     1.0000   1.0000   1.0000   1.0000   1.0000   1.0000   1.0000   1.0000
     1.0000   1.0000   1.0000   1.0000   1.0000   1.0000   1.0000   1.0000
     1.0000   1.0000   1.0000   1.0000   1.0000   1.0000   1.0000   1.0000
     1.0000   1.0000   1.0000   1.0000   1.0000   1.0000   1.0000   1.0000
     1.0000   1.0000   1.0000   1.0000   1.0000   1.0000   1.0000   1.0000
     1.0000   1.0000   1.0000   1.0000   1.0000   1.0000   1.0000   1.0000
     1.0000   1.0000   1.0000   1.0000   1.0000   1.0000   1.0000   1.0000
     1.0000   1.0000   1.0000   1.0000   1.0000   1.0000   1.0000   1.0000
     1.0000   1.0000   1.0000   1.0000   1.0000   1.0000   1.0000   1.0000
     1.0000   1.0000   1.0000   1.0000   1.0000   1.0000   1.0000   1.0000
     1.0000   1.0000   1.0000   1.0000   1.0000   1.0000   1.0000   1.0000
     1.0000   1.0000   1.0000   1.0000   1.0000   1.0000   1.0000   1.0000
     1.0000   1.0000   1.0000   1.0000   1.0000   1.0000   1.0000   1.0000
     1.0000   1.0000   1.0000   1.0000   1.0000   1.0000   1.0000   1.0000
     1.0000   1.0000   1.0000   1.0000   1.0000   1.0000   1.0000   1.0000
     1.0000   1.0000   1.0000   1.0000   1.0000   1.0000   1.0000   1.0000
     1.0000   1.0000   1.0000   1.0000   1.0000   1.0000   1.0000   1.0000
     1.0000   1.0000   1.0000   1.0000   1.0000   1.0000   1.0000   1.0000
     1.0000   1.0000   1.0000   1.0000   1.0000   1.0000   1.0000   1.0000
     1.0000   1.0000   1.0000   1.0000   1.0000   1.0000   1.0000   1.0000
     1.0000   1.0000   1.0000   1.0000   1.0000   1.0000   1.0000   1.0000
     1.0000   1.0000   1.0000   1.0000   1.0000   1.0000   1.0000   1.0000
     1.0000   1.0000   1.0000   1.0000   1.0000   1.0000   1.0000   1.0000
     1.0000   1.0000   1.0000   1.0000   1.0000   1.0000   1.0000   1.0000
     1.0000   1.0000   1.0000   1.0000   1.0000   1.0000   1.0000   1.0000
     1.0000   1.0000   1.0000   1.0000   1.0000   1.0000   1.0000   1.0000
     1.0000   1.0000   1.0000   1.0000   1.0000   1.0000   1.0000   1.0000
     1.0000   1.0000   1.0000   1.0000   1.0000   1.0000   1.0000   1.0000
     1.0000   1.0000   1.0000   1.0000   1.0000   1.0000   1.0000   1.0000
     1.0000   0.9999   0.9999   0.9998   0.0274   0.0001   0.0000   0.0000
     0.0000   0.0000   0.0000   0.0000   0.0000   0.0000   0.0000   0.0000
     0.0000   0.0000   0.0000   0.0000   0.0000   0.0000   0.0000   0.0000
     0.0000   0.0000   0.0000   0.0000   0.0000   0.0000   0.0000   0.0000
     0.0000   0.0000   0.0000   0.0000   0.0000   0.0000   0.0000   0.0000
     0.0000   0.0000   0.0000   0.0000   0.0000   0.0000   0.0000   0.0000
     0.0000   0.0000   0.0000   0.0000   0.0000   0.0000   0.0000   0.0000
     0.0000   0.0000

          k = 0.1768 0.1768 0.1768 ( 32087 PWs)   bands (ev):

   -17.5340 -17.5232 -17.5195 -17.5110 -17.4962 -17.4935 -17.4931 -17.4898
   -17.4890 -17.4809 -17.4799 -17.4709 -17.4508 -17.4467 -17.4327 -17.4314
   -17.4233 -17.4230 -17.4178 -17.4142 -17.4085 -17.4047 -17.4023 -17.4003
   -17.3986 -17.3952 -17.3819 -17.3797 -17.3714 -17.3696 -17.3619 -17.3561
   -17.3527 -17.3510 -17.3496 -17.3413 -17.3378 -17.3344 -17.3286 -17.3277
   -17.3241 -17.3191 -17.3128 -17.3114 -17.3097 -17.3086 -17.3083 -17.3063
   -17.3045 -17.3024 -17.3003 -17.2921 -17.2874 -17.2838 -17.2837 -17.2806
   -17.2778 -17.2754 -17.2720 -17.2664 -17.2644 -17.2636 -17.2617 -17.2604
   -17.2595 -17.2573 -17.2571 -17.2567 -17.2558 -17.2512 -17.2498 -17.2483
   -17.2472 -17.2459 -17.2449 -17.2444 -17.2427 -17.2420 -17.2388 -17.2382
   -17.2374 -17.2367 -17.2362 -17.2350 -17.2334 -17.2320 -17.2267 -17.2245
   -17.2228 -17.2210 -17.2197 -17.2192 -17.2184 -17.2182 -17.2181 -17.2177
   -17.2168 -17.2158 -17.2152 -17.2143 -17.2134 -17.2117 -17.2113 -17.2094
   -17.2082 -17.2071 -17.2029 -17.2008 -17.2002 -17.1993 -17.1964 -17.1937
   -17.1935 -17.1932 -17.1930 -17.1927 -17.1917 -17.1909 -17.1884 -17.1822
   -17.1811 -17.1792 -17.1757 -17.1753 -17.1695 -17.1683 -17.1609 -17.1563
   -17.1512 -17.1450 -17.1422 -17.1418 -17.1381 -17.1346 -17.1334 -17.1288
   -17.1258 -17.1206 -17.1171 -17.1152  -5.1800  -5.0313  -4.7252  -4.4946
    -4.0843  -3.9173  -3.8036  -3.7221  -3.5410  -3.3597  -3.2855  -3.2369
    -3.1776  -3.1237  -3.0215  -2.9498  -2.8821  -2.8180  -2.7511  -2.6264
    -2.5307  -2.4990  -2.3572  -2.2583  -2.0713  -1.9666  -1.8715  -1.8452
    -1.7383  -1.4711  -1.1542  -1.1102  -1.0660  -0.9749  -0.6014  -0.3949
    -0.2977  -0.2341  -0.1796  -0.1482  -0.0306  -0.0089   0.0600   0.0970
     0.1607   0.2070   0.3750   0.4361   0.4689   0.5255   0.6857   0.7622
     0.8869   0.9193   0.9509   1.0573   1.5126   1.5520   1.7732   2.1614
     2.7822   3.0002   3.0057   3.0371   3.4946   3.5238   3.5537   3.6093
     3.6125   3.6202   3.6331   3.6372   3.6424   3.6461   3.6743   3.6799
     3.6941   3.7015   4.0744   4.0953   4.1064   4.2887   4.2945   4.3345
     4.3449   4.3473   4.3603   4.4211   4.4274   4.4926   4.5009   4.5163
     4.5243   4.6090   4.6566   4.6719   4.6754   4.7112   4.8380   4.8921
     4.9027   5.0861   5.1092   5.1223   5.1556   5.1598   5.2772   5.4066
     5.4450   5.4608   5.4704   5.4799   5.4906   5.5017   5.7385   5.7529
     5.7671   5.7848   5.7943   5.8003   5.9570   5.9750   6.2763   6.2918
     6.3188   6.8056   6.8246   6.8562   7.6414   7.9000   7.9520   7.9737
     8.1052   8.2360   8.3709   8.6067   8.7725   8.8409   8.8599   8.8764
     8.8946   8.9350   8.9411   8.9669   8.9812   8.9957   9.0071   9.0218
     9.0457   9.0536   9.0726   9.0839   9.1094   9.1205   9.1409   9.1838
     9.2138   9.2373   9.3929   9.4478   9.4620   9.6075   9.7070   9.7279
     9.8031   9.8463   9.8782   9.9107   9.9806  10.0659  10.0876  10.2010
    10.2609  10.3076  10.3440  10.3772  10.4264  10.4931  10.5094  10.5393
    10.5506  10.5611

     occupation numbers 
     1.0000   1.0000   1.0000   1.0000   1.0000   1.0000   1.0000   1.0000
     1.0000   1.0000   1.0000   1.0000   1.0000   1.0000   1.0000   1.0000
     1.0000   1.0000   1.0000   1.0000   1.0000   1.0000   1.0000   1.0000
     1.0000   1.0000   1.0000   1.0000   1.0000   1.0000   1.0000   1.0000
     1.0000   1.0000   1.0000   1.0000   1.0000   1.0000   1.0000   1.0000
     1.0000   1.0000   1.0000   1.0000   1.0000   1.0000   1.0000   1.0000
     1.0000   1.0000   1.0000   1.0000   1.0000   1.0000   1.0000   1.0000
     1.0000   1.0000   1.0000   1.0000   1.0000   1.0000   1.0000   1.0000
     1.0000   1.0000   1.0000   1.0000   1.0000   1.0000   1.0000   1.0000
     1.0000   1.0000   1.0000   1.0000   1.0000   1.0000   1.0000   1.0000
     1.0000   1.0000   1.0000   1.0000   1.0000   1.0000   1.0000   1.0000
     1.0000   1.0000   1.0000   1.0000   1.0000   1.0000   1.0000   1.0000
     1.0000   1.0000   1.0000   1.0000   1.0000   1.0000   1.0000   1.0000
     1.0000   1.0000   1.0000   1.0000   1.0000   1.0000   1.0000   1.0000
     1.0000   1.0000   1.0000   1.0000   1.0000   1.0000   1.0000   1.0000
     1.0000   1.0000   1.0000   1.0000   1.0000   1.0000   1.0000   1.0000
     1.0000   1.0000   1.0000   1.0000   1.0000   1.0000   1.0000   1.0000
     1.0000   1.0000   1.0000   1.0000   1.0000   1.0000   1.0000   1.0000
     1.0000   1.0000   1.0000   1.0000   1.0000   1.0000   1.0000   1.0000
     1.0000   1.0000   1.0000   1.0000   1.0000   1.0000   1.0000   1.0000
     1.0000   1.0000   1.0000   1.0000   1.0000   1.0000   1.0000   1.0000
     1.0000   1.0000   1.0000   1.0000   1.0000   1.0000   1.0000   1.0000
     1.0000   1.0000   1.0000   1.0000   1.0000   1.0000   1.0000   1.0000
     1.0000   1.0000   1.0000   1.0000   1.0000   1.0000   1.0000   1.0000
     1.0000   1.0000   1.0000   1.0000   1.0000   1.0000   1.0000   1.0000
     1.0000   1.0000   1.0000   1.0000   1.0000   1.0000   1.0000   1.0000
     1.0000   1.0000   1.0000   1.0000   1.0000   1.0000   1.0000   1.0000
     1.0000   1.0000   1.0000   1.0000   1.0000   1.0000   1.0000   1.0000
     1.0000   1.0000   1.0000   1.0000   1.0000   1.0000   1.0000   1.0000
     1.0000   1.0000   1.0000   1.0000   1.0000   1.0000   1.0000   1.0000
     1.0000   1.0000   1.0000   1.0000   1.0000   1.0000   1.0000   1.0000
     1.0000   1.0000   1.0000   1.0000   1.0000   1.0000   1.0000   1.0000
     1.0000   1.0000   1.0000   1.0000   1.0000   1.0000   1.0000   1.0000
     1.0000   0.9999   0.9999   0.9998   0.0269   0.0001   0.0000   0.0000
     0.0000   0.0000   0.0000   0.0000   0.0000   0.0000   0.0000   0.0000
     0.0000   0.0000   0.0000   0.0000   0.0000   0.0000   0.0000   0.0000
     0.0000   0.0000   0.0000   0.0000   0.0000   0.0000   0.0000   0.0000
     0.0000   0.0000   0.0000   0.0000   0.0000   0.0000   0.0000   0.0000
     0.0000   0.0000   0.0000   0.0000   0.0000   0.0000   0.0000   0.0000
     0.0000   0.0000   0.0000   0.0000   0.0000   0.0000   0.0000   0.0000
     0.0000   0.0000

          k =-0.3536 0.3536 0.3536 ( 32056 PWs)   bands (ev):

   -17.5337 -17.5295 -17.5213 -17.5125 -17.4944 -17.4937 -17.4913 -17.4904
   -17.4898 -17.4881 -17.4809 -17.4712 -17.4488 -17.4451 -17.4326 -17.4234
   -17.4207 -17.4205 -17.4179 -17.4136 -17.4077 -17.4054 -17.4023 -17.3995
   -17.3984 -17.3946 -17.3791 -17.3772 -17.3709 -17.3695 -17.3547 -17.3528
   -17.3501 -17.3485 -17.3376 -17.3359 -17.3346 -17.3332 -17.3318 -17.3298
   -17.3284 -17.3241 -17.3190 -17.3123 -17.3112 -17.3089 -17.3083 -17.3076
   -17.3066 -17.3043 -17.3023 -17.2931 -17.2883 -17.2823 -17.2823 -17.2811
   -17.2796 -17.2739 -17.2711 -17.2699 -17.2643 -17.2630 -17.2618 -17.2611
   -17.2582 -17.2575 -17.2571 -17.2568 -17.2559 -17.2533 -17.2508 -17.2498
   -17.2479 -17.2456 -17.2445 -17.2430 -17.2423 -17.2401 -17.2392 -17.2386
   -17.2377 -17.2367 -17.2362 -17.2349 -17.2346 -17.2314 -17.2294 -17.2261
   -17.2232 -17.2225 -17.2194 -17.2190 -17.2181 -17.2181 -17.2180 -17.2179
   -17.2174 -17.2173 -17.2168 -17.2156 -17.2144 -17.2123 -17.2114 -17.2114
   -17.2096 -17.2079 -17.2021 -17.2010 -17.2006 -17.1991 -17.1989 -17.1937
   -17.1934 -17.1932 -17.1929 -17.1925 -17.1914 -17.1895 -17.1877 -17.1845
   -17.1814 -17.1795 -17.1755 -17.1721 -17.1709 -17.1689 -17.1564 -17.1528
   -17.1519 -17.1428 -17.1418 -17.1405 -17.1390 -17.1344 -17.1280 -17.1258
   -17.1257 -17.1207 -17.1162 -17.1159  -4.6998  -4.6648  -4.6209  -4.4249
    -4.2807  -4.1891  -4.0187  -3.9548  -3.6626  -3.5463  -3.3787  -3.3653
    -3.2808  -3.2441  -3.1906  -3.1601  -2.9790  -2.9365  -2.8014  -2.6072
    -2.5239  -2.4735  -2.4265  -2.3504  -2.2782  -2.2419  -1.8880  -1.7893
    -1.7672  -1.7069  -1.1283  -1.0222  -1.0194  -0.8896  -0.3992  -0.3513
    -0.3111  -0.1276   0.0315   0.0777   0.2322   0.2774   0.3000   0.3409
     0.4148   0.5119   0.7994   0.8357   0.9029   1.0939   1.1589   1.2275
     1.3015   1.3709   1.7137   1.8067   2.1131   2.2006   2.8346   2.9112
     2.9923   2.9985   3.0063   3.0182   3.0321   3.0433   3.1131   3.1883
     3.2203   3.2235   3.2345   3.2380   3.2949   3.2994   3.3047   3.3100
     3.4619   3.4699   3.4842   3.4869   3.4919   3.5023   3.5658   3.5845
     3.6791   3.6857   3.6988   3.7053   4.0923   4.0961   4.1037   4.1071
     4.3491   4.3676   4.6859   4.6996   4.8072   4.8159   4.8205   4.8358
     4.8367   4.8435   4.8458   4.8613   5.0939   5.1027   5.1158   5.1235
     5.1398   5.1593   5.1678   5.1740   5.1832   5.1942   5.7014   5.7107
     5.7193   5.7325   5.7451   5.7598   5.7755   5.7820   6.2725   6.2976
     6.3073   6.3316   6.3361   6.3497   8.0952   8.1464   8.3382   8.3860
     8.4720   8.4841   8.5107   8.5229   8.5578   8.5657   8.5828   8.6063
     8.8207   8.8602   9.1261   9.1402   9.2426   9.2850   9.3163   9.3451
     9.3733   9.3921   9.4169   9.4350   9.4767   9.5107   9.8049   9.8193
     9.8299   9.8798   9.9275   9.9503  10.0971  10.1122  10.2942  10.3171
    10.4580  10.5478  10.5617  10.6117  10.6314  10.6430  10.6639  10.6833
    10.7670  10.8179  10.9653  11.0098  11.2356  11.2630  11.3595  11.3859
    11.4171  11.4353

     occupation numbers 
     1.0000   1.0000   1.0000   1.0000   1.0000   1.0000   1.0000   1.0000
     1.0000   1.0000   1.0000   1.0000   1.0000   1.0000   1.0000   1.0000
     1.0000   1.0000   1.0000   1.0000   1.0000   1.0000   1.0000   1.0000
     1.0000   1.0000   1.0000   1.0000   1.0000   1.0000   1.0000   1.0000
     1.0000   1.0000   1.0000   1.0000   1.0000   1.0000   1.0000   1.0000
     1.0000   1.0000   1.0000   1.0000   1.0000   1.0000   1.0000   1.0000
     1.0000   1.0000   1.0000   1.0000   1.0000   1.0000   1.0000   1.0000
     1.0000   1.0000   1.0000   1.0000   1.0000   1.0000   1.0000   1.0000
     1.0000   1.0000   1.0000   1.0000   1.0000   1.0000   1.0000   1.0000
     1.0000   1.0000   1.0000   1.0000   1.0000   1.0000   1.0000   1.0000
     1.0000   1.0000   1.0000   1.0000   1.0000   1.0000   1.0000   1.0000
     1.0000   1.0000   1.0000   1.0000   1.0000   1.0000   1.0000   1.0000
     1.0000   1.0000   1.0000   1.0000   1.0000   1.0000   1.0000   1.0000
     1.0000   1.0000   1.0000   1.0000   1.0000   1.0000   1.0000   1.0000
     1.0000   1.0000   1.0000   1.0000   1.0000   1.0000   1.0000   1.0000
     1.0000   1.0000   1.0000   1.0000   1.0000   1.0000   1.0000   1.0000
     1.0000   1.0000   1.0000   1.0000   1.0000   1.0000   1.0000   1.0000
     1.0000   1.0000   1.0000   1.0000   1.0000   1.0000   1.0000   1.0000
     1.0000   1.0000   1.0000   1.0000   1.0000   1.0000   1.0000   1.0000
     1.0000   1.0000   1.0000   1.0000   1.0000   1.0000   1.0000   1.0000
     1.0000   1.0000   1.0000   1.0000   1.0000   1.0000   1.0000   1.0000
     1.0000   1.0000   1.0000   1.0000   1.0000   1.0000   1.0000   1.0000
     1.0000   1.0000   1.0000   1.0000   1.0000   1.0000   1.0000   1.0000
     1.0000   1.0000   1.0000   1.0000   1.0000   1.0000   1.0000   1.0000
     1.0000   1.0000   1.0000   1.0000   1.0000   1.0000   1.0000   1.0000
     1.0000   1.0000   1.0000   1.0000   1.0000   1.0000   1.0000   1.0000
     1.0000   1.0000   1.0000   1.0000   1.0000   1.0000   1.0000   1.0000
     1.0000   1.0000   1.0000   1.0000   1.0000   1.0000   1.0000   1.0000
     1.0000   1.0000   1.0000   1.0000   1.0000   1.0000   1.0000   1.0000
     1.0000   1.0000   1.0000   1.0000   1.0000   1.0000   1.0000   1.0000
     1.0000   1.0000   1.0000   1.0000   1.0000   1.0000   1.0000   1.0000
     1.0000   1.0000   1.0000   1.0000   1.0000   1.0000   1.0000   1.0000
     1.0000   1.0000   1.0000   1.0000   1.0000   1.0000   1.0000   1.0000
     1.0000   1.0000   1.0000   1.0000   0.0000   0.0000   0.0000   0.0000
     0.0000   0.0000   0.0000   0.0000   0.0000   0.0000   0.0000   0.0000
     0.0000   0.0000   0.0000   0.0000   0.0000   0.0000   0.0000   0.0000
     0.0000   0.0000   0.0000   0.0000   0.0000   0.0000   0.0000   0.0000
     0.0000   0.0000   0.0000   0.0000   0.0000   0.0000   0.0000   0.0000
     0.0000   0.0000   0.0000   0.0000   0.0000   0.0000   0.0000   0.0000
     0.0000   0.0000   0.0000   0.0000   0.0000   0.0000   0.0000   0.0000
     0.0000   0.0000

          k =-0.3536-0.3536-0.3536 ( 32056 PWs)   bands (ev):

   -17.5337 -17.5294 -17.5213 -17.5125 -17.4945 -17.4936 -17.4913 -17.4904
   -17.4903 -17.4882 -17.4808 -17.4711 -17.4488 -17.4451 -17.4324 -17.4229
   -17.4207 -17.4205 -17.4175 -17.4136 -17.4078 -17.4054 -17.4022 -17.3995
   -17.3984 -17.3946 -17.3791 -17.3772 -17.3709 -17.3695 -17.3559 -17.3521
   -17.3500 -17.3486 -17.3375 -17.3360 -17.3347 -17.3332 -17.3318 -17.3297
   -17.3285 -17.3240 -17.3191 -17.3125 -17.3112 -17.3089 -17.3089 -17.3083
   -17.3057 -17.3043 -17.3024 -17.2916 -17.2878 -17.2847 -17.2829 -17.2812
   -17.2798 -17.2733 -17.2715 -17.2701 -17.2637 -17.2619 -17.2617 -17.2609
   -17.2574 -17.2573 -17.2569 -17.2559 -17.2547 -17.2534 -17.2517 -17.2497
   -17.2477 -17.2464 -17.2447 -17.2430 -17.2426 -17.2401 -17.2386 -17.2378
   -17.2368 -17.2367 -17.2363 -17.2353 -17.2348 -17.2313 -17.2295 -17.2258
   -17.2232 -17.2220 -17.2194 -17.2192 -17.2184 -17.2182 -17.2182 -17.2180
   -17.2176 -17.2173 -17.2169 -17.2157 -17.2143 -17.2125 -17.2118 -17.2113
   -17.2113 -17.2080 -17.2023 -17.2010 -17.2004 -17.1991 -17.1989 -17.1934
   -17.1933 -17.1932 -17.1930 -17.1927 -17.1918 -17.1899 -17.1879 -17.1844
   -17.1814 -17.1795 -17.1752 -17.1721 -17.1709 -17.1696 -17.1555 -17.1528
   -17.1520 -17.1424 -17.1416 -17.1405 -17.1390 -17.1344 -17.1280 -17.1265
   -17.1257 -17.1207 -17.1162 -17.1159  -4.6963  -4.6705  -4.6151  -4.4132
    -4.2906  -4.1665  -4.0763  -3.9359  -3.6706  -3.5544  -3.3988  -3.3496
    -3.2790  -3.2217  -3.1661  -3.1234  -3.0280  -2.9036  -2.7832  -2.5961
    -2.5431  -2.5061  -2.4456  -2.3974  -2.3206  -2.1809  -1.8918  -1.8085
    -1.7576  -1.6980  -1.0684  -1.0511  -1.0066  -0.8990  -0.3991  -0.2879
    -0.2653  -0.2200   0.0273   0.0850   0.2352   0.2842   0.3203   0.3539
     0.4224   0.4931   0.7755   0.8346   0.9198   1.0529   1.1685   1.2174
     1.2966   1.3655   1.7504   1.7743   2.1491   2.1706   2.8457   2.8930
     2.9889   2.9921   3.0098   3.0162   3.0355   3.0490   3.1210   3.1927
     3.2152   3.2282   3.2335   3.2361   3.2899   3.2986   3.3058   3.3101
     3.4557   3.4715   3.4775   3.4863   3.4932   3.5174   3.5463   3.5948
     3.6769   3.6832   3.7035   3.7104   4.0941   4.0961   4.1031   4.1063
     4.3535   4.3644   4.6841   4.7054   4.8123   4.8188   4.8227   4.8285
     4.8353   4.8449   4.8461   4.8582   5.0909   5.1011   5.1138   5.1189
     5.1468   5.1592   5.1740   5.1758   5.1798   5.1907   5.7048   5.7096
     5.7152   5.7277   5.7413   5.7670   5.7680   5.7912   6.2813   6.3047
     6.3071   6.3219   6.3291   6.3485   8.1057   8.1380   8.3467   8.3645
     8.4388   8.4778   8.5069   8.5241   8.5544   8.5700   8.5795   8.6217
     8.8345   8.8410   9.1193   9.1390   9.2455   9.2869   9.2942   9.3256
     9.3867   9.4073   9.4257   9.4597   9.4797   9.4926   9.8064   9.8141
     9.8421   9.8605   9.9395   9.9543  10.0898  10.1252  10.2907  10.3135
    10.4677  10.5422  10.5927  10.5992  10.6231  10.6391  10.6596  10.6842
    10.7740  10.8266  10.9781  10.9908  11.2343  11.2761  11.3839  11.3914
    11.4090  11.4243

     occupation numbers 
     1.0000   1.0000   1.0000   1.0000   1.0000   1.0000   1.0000   1.0000
     1.0000   1.0000   1.0000   1.0000   1.0000   1.0000   1.0000   1.0000
     1.0000   1.0000   1.0000   1.0000   1.0000   1.0000   1.0000   1.0000
     1.0000   1.0000   1.0000   1.0000   1.0000   1.0000   1.0000   1.0000
     1.0000   1.0000   1.0000   1.0000   1.0000   1.0000   1.0000   1.0000
     1.0000   1.0000   1.0000   1.0000   1.0000   1.0000   1.0000   1.0000
     1.0000   1.0000   1.0000   1.0000   1.0000   1.0000   1.0000   1.0000
     1.0000   1.0000   1.0000   1.0000   1.0000   1.0000   1.0000   1.0000
     1.0000   1.0000   1.0000   1.0000   1.0000   1.0000   1.0000   1.0000
     1.0000   1.0000   1.0000   1.0000   1.0000   1.0000   1.0000   1.0000
     1.0000   1.0000   1.0000   1.0000   1.0000   1.0000   1.0000   1.0000
     1.0000   1.0000   1.0000   1.0000   1.0000   1.0000   1.0000   1.0000
     1.0000   1.0000   1.0000   1.0000   1.0000   1.0000   1.0000   1.0000
     1.0000   1.0000   1.0000   1.0000   1.0000   1.0000   1.0000   1.0000
     1.0000   1.0000   1.0000   1.0000   1.0000   1.0000   1.0000   1.0000
     1.0000   1.0000   1.0000   1.0000   1.0000   1.0000   1.0000   1.0000
     1.0000   1.0000   1.0000   1.0000   1.0000   1.0000   1.0000   1.0000
     1.0000   1.0000   1.0000   1.0000   1.0000   1.0000   1.0000   1.0000
     1.0000   1.0000   1.0000   1.0000   1.0000   1.0000   1.0000   1.0000
     1.0000   1.0000   1.0000   1.0000   1.0000   1.0000   1.0000   1.0000
     1.0000   1.0000   1.0000   1.0000   1.0000   1.0000   1.0000   1.0000
     1.0000   1.0000   1.0000   1.0000   1.0000   1.0000   1.0000   1.0000
     1.0000   1.0000   1.0000   1.0000   1.0000   1.0000   1.0000   1.0000
     1.0000   1.0000   1.0000   1.0000   1.0000   1.0000   1.0000   1.0000
     1.0000   1.0000   1.0000   1.0000   1.0000   1.0000   1.0000   1.0000
     1.0000   1.0000   1.0000   1.0000   1.0000   1.0000   1.0000   1.0000
     1.0000   1.0000   1.0000   1.0000   1.0000   1.0000   1.0000   1.0000
     1.0000   1.0000   1.0000   1.0000   1.0000   1.0000   1.0000   1.0000
     1.0000   1.0000   1.0000   1.0000   1.0000   1.0000   1.0000   1.0000
     1.0000   1.0000   1.0000   1.0000   1.0000   1.0000   1.0000   1.0000
     1.0000   1.0000   1.0000   1.0000   1.0000   1.0000   1.0000   1.0000
     1.0000   1.0000   1.0000   1.0000   1.0000   1.0000   1.0000   1.0000
     1.0000   1.0000   1.0000   1.0000   1.0000   1.0000   1.0000   1.0000
     1.0000   1.0000   1.0000   1.0000   0.0000   0.0000   0.0000   0.0000
     0.0000   0.0000   0.0000   0.0000   0.0000   0.0000   0.0000   0.0000
     0.0000   0.0000   0.0000   0.0000   0.0000   0.0000   0.0000   0.0000
     0.0000   0.0000   0.0000   0.0000   0.0000   0.0000   0.0000   0.0000
     0.0000   0.0000   0.0000   0.0000   0.0000   0.0000   0.0000   0.0000
     0.0000   0.0000   0.0000   0.0000   0.0000   0.0000   0.0000   0.0000
     0.0000   0.0000   0.0000   0.0000   0.0000   0.0000   0.0000   0.0000
     0.0000   0.0000

          k =-0.5303 0.5303 0.1768 ( 32066 PWs)   bands (ev):

   -17.5337 -17.5295 -17.5214 -17.5125 -17.4945 -17.4937 -17.4914 -17.4904
   -17.4901 -17.4882 -17.4808 -17.4712 -17.4489 -17.4451 -17.4325 -17.4231
   -17.4207 -17.4205 -17.4178 -17.4136 -17.4078 -17.4054 -17.4022 -17.3995
   -17.3985 -17.3946 -17.3791 -17.3772 -17.3709 -17.3696 -17.3554 -17.3525
   -17.3501 -17.3485 -17.3376 -17.3360 -17.3347 -17.3332 -17.3319 -17.3298
   -17.3285 -17.3240 -17.3191 -17.3125 -17.3113 -17.3089 -17.3084 -17.3081
   -17.3063 -17.3043 -17.3024 -17.2924 -17.2884 -17.2835 -17.2827 -17.2810
   -17.2795 -17.2737 -17.2713 -17.2701 -17.2640 -17.2625 -17.2618 -17.2611
   -17.2575 -17.2573 -17.2572 -17.2563 -17.2559 -17.2534 -17.2512 -17.2498
   -17.2478 -17.2459 -17.2447 -17.2431 -17.2425 -17.2402 -17.2388 -17.2382
   -17.2374 -17.2367 -17.2363 -17.2350 -17.2349 -17.2314 -17.2295 -17.2260
   -17.2232 -17.2224 -17.2195 -17.2191 -17.2182 -17.2181 -17.2181 -17.2180
   -17.2175 -17.2173 -17.2169 -17.2157 -17.2144 -17.2124 -17.2114 -17.2113
   -17.2108 -17.2080 -17.2022 -17.2010 -17.2006 -17.1991 -17.1989 -17.1936
   -17.1934 -17.1932 -17.1929 -17.1926 -17.1917 -17.1898 -17.1879 -17.1844
   -17.1814 -17.1795 -17.1754 -17.1722 -17.1710 -17.1693 -17.1560 -17.1529
   -17.1519 -17.1426 -17.1418 -17.1406 -17.1390 -17.1344 -17.1280 -17.1262
   -17.1257 -17.1207 -17.1162 -17.1160  -4.8380  -4.6941  -4.4516  -4.3435
    -4.1408  -4.0799  -4.0122  -3.9454  -3.8701  -3.7364  -3.6373  -3.5195
    -3.3700  -3.2006  -3.1323  -3.0489  -2.9720  -2.8129  -2.6893  -2.6243
    -2.4993  -2.3901  -2.2838  -2.1929  -2.1379  -2.0446  -1.9830  -1.8697
    -1.8122  -1.7103  -1.6497  -1.5166  -0.5742  -0.4779  -0.3610  -0.3029
    -0.2274  -0.1093  -0.0872   0.0312   0.0544   0.1315   0.1617   0.2504
     0.3270   0.6064   0.7505   0.8606   0.8906   0.9528   1.0045   1.4294
     1.5491   1.6627   1.8241   2.1247   2.2335   2.3832   2.4013   2.4516
     2.5002   2.7774   2.8378   2.8443   2.8487   2.8586   2.9858   2.9967
     3.0087   3.0196   3.0362   3.0569   3.4622   3.5208   3.5537   3.6022
     3.6621   3.6766   3.6830   3.6893   3.6963   3.7103   4.0869   4.0894
     4.0967   4.1048   4.1082   4.2885   4.2939   4.3180   4.3243   4.3343
     4.3464   4.3626   4.3774   4.4614   4.4691   4.4743   4.4808   4.6065
     4.6901   4.7166   4.8253   4.8331   4.8928   4.9042   5.1037   5.1186
     5.1216   5.1275   5.1360   5.1428   5.1500   5.1541   5.4381   5.4552
[...]
     atom   13 type  1   force =   0.64260676E-03 -0.29898678E-03 -0.12330865E-03
     atom   14 type  1   force =  -0.48784525E-03  0.58129955E-03 -0.43065104E-03
     atom   15 type  1   force =   0.16724968E-03 -0.39460881E-03 -0.62039640E-04
     atom   16 type  2   force =   0.27605588E-03 -0.27833189E-03 -0.74421603E-03
     atom   17 type  1   force =   0.43521696E-03  0.15255209E-03 -0.79183899E-04
     atom   18 type  2   force =  -0.79964170E-04 -0.69089043E-04 -0.59014719E-03
     atom   19 type  1   force =  -0.24018118E-03 -0.26638956E-03 -0.25057866E-03
     atom   20 type  2   force =  -0.27632917E-03 -0.18396975E-03  0.37115067E-03
     atom   21 type  2   force =  -0.74988964E-03  0.54162872E-03 -0.69231299E-03
     atom   22 type  2   force =   0.24877147E-03  0.56333238E-03  0.43159428E-03
     atom   23 type  1   force =   0.81819596E-04  0.13816242E-03 -0.56361185E-03
     atom   24 type  1   force =  -0.17462098E-03  0.49482524E-03 -0.71567435E-03
     atom   25 type  1   force =  -0.14827493E-03 -0.14562233E-03  0.47366073E-03
     atom   26 type  2   force =  -0.36825830E-03 -0.12135083E-03 -0.78060651E-03
     atom   27 type  2   force =   0.44524743E-03 -0.27475804E-04  0.34157786E-04
     atom   28 type  1   force =   0.36514714E-03  0.53665974E-04 -0.34226331E-03
     atom   29 type  1   force =   0.25070669E-03 -0.55997255E-03  0.74438633E-03
     atom   30 type  1   force =  -0.76447574E-04 -0.34266671E-03 -0.53092465E-03
     atom   31 type  1   force =   0.28274559E-03 -0.50088466E-03 -0.29446927E-03
     atom   32 type  2   force =   0.32417554E-03  0.83842506E-04  0.49669179E-04
     atom   33 type  2   force =  -0.14051834E-03  0.14089697E-02  0.10153739E-02
     atom   34 type  1   force =  -0.11245341E-02  0.18590177E-03 -0.12856175E-03
     atom   35 type  2   force =  -0.29118541E-03  0.54067633E-04  0.15641369E-04
     atom   36 type  1   force =   0.13945090E-03  0.31792740E-03  0.15821507E-03
     atom   37 type  1   force =   0.21333163E-03 -0.88308611E-03 -0.18895317E-03
     atom   38 type  1   force =   0.34843863E-03  0.41038549E-03 -0.76268738E-04
     atom   39 type  2   force =  -0.12406967E-03 -0.13292509E-03  0.55763231E-03
     atom   40 type  2   force =   0.23155433E-03 -0.55247236E-04 -0.21925620E-03
     atom   41 type  2   force =  -0.62894982E-03 -0.65623267E-04  0.48301503E-04
     atom   42 type  2   force =   0.55842149E-03  0.36300977E-03  0.66143930E-03
     atom   43 type  1   force =  -0.92980694E-04 -0.79767624E-04  0.20798974E-03
     atom   44 type  2   force =  -0.87191686E-03 -0.17891870E-03  0.37083427E-03
     atom   45 type  1   force =   0.53596845E-03  0.24321104E-03 -0.48566065E-03
     atom   46 type  1   force =  -0.42198500E-03 -0.39407753E-03  0.88620839E-03
     atom   47 type  2   force =   0.15943588E-04  0.11520055E-02  0.19490968E-03
     atom   48 type  1   force =  -0.70733394E-03  0.58237204E-04  0.46134740E-04
     atom   49 type  2   force =   0.87338422E-04 -0.93876148E-04 -0.19432048E-03
     atom   50 type  2   force =  -0.13563015E-03  0.23389953E-03  0.61504326E-03
     atom   51 type  2   force =   0.10758833E-03  0.11478313E-03 -0.35806554E-03
     atom   52 type  1   force =   0.15663273E-03  0.40578380E-03  0.78751172E-04
     atom   53 type  1   force =   0.11507326E-03 -0.89104996E-04  0.60498963E-03
     atom   54 type  2   force =  -0.19739800E-03 -0.40411098E-03 -0.89825253E-03
     atom   55 type  1   force =  -0.27693945E-04 -0.59968241E-04  0.11621500E-03
     atom   56 type  1   force =  -0.34765827E-03  0.71558679E-03 -0.15176675E-03
     atom   57 type  1   force =  -0.40508804E-03  0.41047052E-03  0.38062023E-03
     atom   58 type  2   force =  -0.50194894E-03 -0.44373071E-03  0.30995741E-04
     atom   59 type  2   force =   0.47962103E-03  0.23937903E-03 -0.28445154E-04
     atom   60 type  1   force =   0.18274289E-03  0.40656095E-03 -0.27219041E-03
     atom   61 type  1   force =  -0.10525962E-02  0.13960630E-03  0.16203141E-03
     atom   62 type  1   force =   0.28719987E-03  0.33029077E-03  0.59409262E-04
     atom   63 type  1   force =  -0.21785239E-04  0.10445404E-04  0.53072731E-03
     atom   64 type  1   force =  -0.45098334E-03 -0.21083575E-03  0.33206761E-03
     The Hubbard contrib.    to forces
     atom    1 type  1   force =   0.00000000E+00  0.00000000E+00  0.00000000E+00
     atom    2 type  2   force =   0.00000000E+00  0.00000000E+00  0.00000000E+00
     atom    3 type  1   force =   0.00000000E+00  0.00000000E+00  0.00000000E+00
     atom    4 type  1   force =   0.00000000E+00  0.00000000E+00  0.00000000E+00
     atom    5 type  1   force =   0.00000000E+00  0.00000000E+00  0.00000000E+00
     atom    6 type  1   force =   0.00000000E+00  0.00000000E+00  0.00000000E+00
     atom    7 type  2   force =   0.00000000E+00  0.00000000E+00  0.00000000E+00
     atom    8 type  2   force =   0.00000000E+00  0.00000000E+00  0.00000000E+00
     atom    9 type  2   force =   0.00000000E+00  0.00000000E+00  0.00000000E+00
     atom   10 type  2   force =   0.00000000E+00  0.00000000E+00  0.00000000E+00
     atom   11 type  1   force =   0.00000000E+00  0.00000000E+00  0.00000000E+00
     atom   12 type  2   force =   0.00000000E+00  0.00000000E+00  0.00000000E+00
     atom   13 type  1   force =   0.00000000E+00  0.00000000E+00  0.00000000E+00
     atom   14 type  1   force =   0.00000000E+00  0.00000000E+00  0.00000000E+00
     atom   15 type  1   force =   0.00000000E+00  0.00000000E+00  0.00000000E+00
     atom   16 type  2   force =   0.00000000E+00  0.00000000E+00  0.00000000E+00
     atom   17 type  1   force =   0.00000000E+00  0.00000000E+00  0.00000000E+00
     atom   18 type  2   force =   0.00000000E+00  0.00000000E+00  0.00000000E+00
     atom   19 type  1   force =   0.00000000E+00  0.00000000E+00  0.00000000E+00
     atom   20 type  2   force =   0.00000000E+00  0.00000000E+00  0.00000000E+00
     atom   21 type  2   force =   0.00000000E+00  0.00000000E+00  0.00000000E+00
     atom   22 type  2   force =   0.00000000E+00  0.00000000E+00  0.00000000E+00
     atom   23 type  1   force =   0.00000000E+00  0.00000000E+00  0.00000000E+00
     atom   24 type  1   force =   0.00000000E+00  0.00000000E+00  0.00000000E+00
     atom   25 type  1   force =   0.00000000E+00  0.00000000E+00  0.00000000E+00
     atom   26 type  2   force =   0.00000000E+00  0.00000000E+00  0.00000000E+00
     atom   27 type  2   force =   0.00000000E+00  0.00000000E+00  0.00000000E+00
     atom   28 type  1   force =   0.00000000E+00  0.00000000E+00  0.00000000E+00
     atom   29 type  1   force =   0.00000000E+00  0.00000000E+00  0.00000000E+00
     atom   30 type  1   force =   0.00000000E+00  0.00000000E+00  0.00000000E+00
     atom   31 type  1   force =   0.00000000E+00  0.00000000E+00  0.00000000E+00
     atom   32 type  2   force =   0.00000000E+00  0.00000000E+00  0.00000000E+00
     atom   33 type  2   force =   0.00000000E+00  0.00000000E+00  0.00000000E+00
     atom   34 type  1   force =   0.00000000E+00  0.00000000E+00  0.00000000E+00
     atom   35 type  2   force =   0.00000000E+00  0.00000000E+00  0.00000000E+00
     atom   36 type  1   force =   0.00000000E+00  0.00000000E+00  0.00000000E+00
     atom   37 type  1   force =   0.00000000E+00  0.00000000E+00  0.00000000E+00
     atom   38 type  1   force =   0.00000000E+00  0.00000000E+00  0.00000000E+00
     atom   39 type  2   force =   0.00000000E+00  0.00000000E+00  0.00000000E+00
     atom   40 type  2   force =   0.00000000E+00  0.00000000E+00  0.00000000E+00
     atom   41 type  2   force =   0.00000000E+00  0.00000000E+00  0.00000000E+00
     atom   42 type  2   force =   0.00000000E+00  0.00000000E+00  0.00000000E+00
     atom   43 type  1   force =   0.00000000E+00  0.00000000E+00  0.00000000E+00
     atom   44 type  2   force =   0.00000000E+00  0.00000000E+00  0.00000000E+00
     atom   45 type  1   force =   0.00000000E+00  0.00000000E+00  0.00000000E+00
     atom   46 type  1   force =   0.00000000E+00  0.00000000E+00  0.00000000E+00
     atom   47 type  2   force =   0.00000000E+00  0.00000000E+00  0.00000000E+00
     atom   48 type  1   force =   0.00000000E+00  0.00000000E+00  0.00000000E+00
     atom   49 type  2   force =   0.00000000E+00  0.00000000E+00  0.00000000E+00
     atom   50 type  2   force =   0.00000000E+00  0.00000000E+00  0.00000000E+00
     atom   51 type  2   force =   0.00000000E+00  0.00000000E+00  0.00000000E+00
     atom   52 type  1   force =   0.00000000E+00  0.00000000E+00  0.00000000E+00
     atom   53 type  1   force =   0.00000000E+00  0.00000000E+00  0.00000000E+00
     atom   54 type  2   force =   0.00000000E+00  0.00000000E+00  0.00000000E+00
     atom   55 type  1   force =   0.00000000E+00  0.00000000E+00  0.00000000E+00
     atom   56 type  1   force =   0.00000000E+00  0.00000000E+00  0.00000000E+00
     atom   57 type  1   force =   0.00000000E+00  0.00000000E+00  0.00000000E+00
     atom   58 type  2   force =   0.00000000E+00  0.00000000E+00  0.00000000E+00
     atom   59 type  2   force =   0.00000000E+00  0.00000000E+00  0.00000000E+00
     atom   60 type  1   force =   0.00000000E+00  0.00000000E+00  0.00000000E+00
     atom   61 type  1   force =   0.00000000E+00  0.00000000E+00  0.00000000E+00
     atom   62 type  1   force =   0.00000000E+00  0.00000000E+00  0.00000000E+00
     atom   63 type  1   force =   0.00000000E+00  0.00000000E+00  0.00000000E+00
     atom   64 type  1   force =   0.00000000E+00  0.00000000E+00  0.00000000E+00
     The SCF correction term to forces
     atom    1 type  1   force =  -0.37801061E-05 -0.42610687E-05  0.27038841E-05
     atom    2 type  2   force =  -0.78022493E-05 -0.12219019E-04  0.51401115E-05
     atom    3 type  1   force =  -0.42139455E-06  0.13908705E-05 -0.26694842E-05
     atom    4 type  1   force =   0.24034399E-05  0.15792869E-05 -0.14335610E-05
     atom    5 type  1   force =   0.53157024E-05  0.59090270E-05 -0.43774795E-05
     atom    6 type  1   force =   0.74163204E-05  0.45050248E-05 -0.46478632E-05
     atom    7 type  2   force =   0.38501070E-04  0.14118993E-04 -0.11170081E-04
     atom    8 type  2   force =   0.21147261E-04  0.25407278E-04 -0.20315423E-04
     atom    9 type  2   force =   0.49166407E-05 -0.35724157E-05 -0.25193236E-05
     atom   10 type  2   force =  -0.66588128E-05  0.74520027E-05 -0.99041048E-05
     atom   11 type  1   force =  -0.25945932E-05 -0.33036080E-05  0.38652012E-05
     atom   12 type  2   force =  -0.22097803E-04 -0.17777166E-04  0.20917466E-04
     atom   13 type  1   force =  -0.55663264E-05 -0.62343814E-05  0.47895137E-05
     atom   14 type  1   force =  -0.45327151E-05 -0.37934065E-05  0.30926924E-05
     atom   15 type  1   force =  -0.80015191E-06 -0.17054848E-05  0.29930667E-05
     atom   16 type  2   force =  -0.12026316E-04 -0.10392711E-04  0.12430170E-04
     atom   17 type  1   force =  -0.33042817E-06 -0.39174524E-05  0.14167204E-05
     atom   18 type  2   force =  -0.33203010E-05 -0.79336720E-05  0.59284146E-05
     atom   19 type  1   force =   0.26393283E-05  0.83500244E-06  0.51165660E-06
     atom   20 type  2   force =   0.29973279E-05  0.18945021E-04 -0.10787108E-04
     atom   21 type  2   force =   0.10426213E-04  0.17682088E-04 -0.15550460E-04
     atom   22 type  2   force =   0.57734566E-05  0.16035652E-04 -0.27726371E-04
     atom   23 type  1   force =   0.29397237E-05  0.61813616E-05 -0.68113317E-05
     atom   24 type  1   force =   0.48357367E-05  0.43038751E-05 -0.46846316E-05
     atom   25 type  1   force =   0.25759403E-05  0.35081705E-05 -0.32476130E-05
     atom   26 type  2   force =   0.14542372E-04  0.99965403E-06  0.93549732E-06
     atom   27 type  2   force =  -0.52351985E-05 -0.68644376E-05  0.36154145E-05
     atom   28 type  1   force =  -0.53417176E-05 -0.55246917E-05  0.53501913E-05
     atom   29 type  1   force =  -0.51687910E-05 -0.50928438E-05  0.58133726E-05
     atom   30 type  1   force =  -0.26277551E-05 -0.41773451E-05  0.41619133E-05
     atom   31 type  1   force =  -0.29632753E-05 -0.22384046E-05  0.78124551E-06
     atom   32 type  2   force =  -0.42684383E-05 -0.15474910E-04  0.42059411E-05
     atom   33 type  2   force =  -0.18291984E-04  0.55831129E-05  0.11521047E-04
     atom   34 type  1   force =  -0.22801762E-05 -0.20342303E-05  0.27385674E-05
     atom   35 type  2   force =  -0.78521557E-05  0.49947980E-05  0.98418698E-06
     atom   36 type  1   force =   0.29070641E-05  0.34390957E-06 -0.58471203E-06
     atom   37 type  1   force =   0.46389198E-05  0.34981716E-05 -0.49942956E-05
     atom   38 type  1   force =   0.73212056E-05  0.57408804E-05 -0.56619510E-05
     atom   39 type  2   force =   0.39756719E-04  0.17907474E-04 -0.20514769E-04
     atom   40 type  2   force =   0.18039163E-04  0.20864066E-04 -0.26550509E-04
     atom   41 type  2   force =   0.60200512E-05  0.35751743E-05  0.28277557E-05
     atom   42 type  2   force =  -0.27959963E-05  0.99167666E-05 -0.73508626E-05
     atom   43 type  1   force =  -0.34043160E-05 -0.41230999E-05  0.35721885E-05
     atom   44 type  2   force =  -0.26313064E-04 -0.24233642E-04  0.21258602E-04
     atom   45 type  1   force =  -0.50574939E-05 -0.50431580E-05  0.65099223E-05
     atom   46 type  1   force =  -0.43412509E-05 -0.27337627E-05  0.34234544E-05
     atom   47 type  2   force =  -0.46842780E-05 -0.90495226E-05  0.16154266E-05
     atom   48 type  1   force =  -0.44211075E-05 -0.22476487E-05  0.15427362E-05
     atom   49 type  2   force =  -0.88329246E-05  0.83054418E-06  0.16034014E-04
     atom   50 type  2   force =  -0.38260035E-05  0.28831136E-05  0.16472772E-05
     atom   51 type  2   force =   0.66625716E-05 -0.39577903E-05 -0.12975847E-07
     atom   52 type  1   force =   0.56304032E-06  0.13096673E-05 -0.29616247E-05
     atom   53 type  1   force =   0.45966506E-05  0.38023547E-05 -0.41279579E-05
     atom   54 type  2   force =   0.38548985E-05  0.25377980E-04 -0.13008302E-04
     atom   55 type  1   force =   0.32533366E-05  0.66456205E-05 -0.59959562E-05
     atom   56 type  1   force =   0.54246956E-05  0.47416485E-05 -0.43740252E-05
     atom   57 type  1   force =   0.19259768E-05  0.34181306E-05 -0.37155897E-05
     atom   58 type  2   force =   0.13006078E-04 -0.16802389E-05 -0.17911102E-05
     atom   59 type  2   force =  -0.34027466E-05 -0.34723210E-05  0.72239882E-05
     atom   60 type  1   force =  -0.50601682E-05 -0.53647002E-05  0.55541988E-05
     atom   61 type  1   force =  -0.62604959E-05 -0.55116257E-05  0.47727658E-05
     atom   62 type  1   force =  -0.38342277E-05 -0.46565501E-05  0.47345952E-05
     atom   63 type  1   force =  -0.22715419E-05 -0.13104948E-05  0.28374514E-05
     atom   64 type  1   force =  -0.13563993E-05 -0.20687295E-05  0.42836386E-05

     Total force =     0.139603     Total SCF correction =     0.000134


     entering subroutine stress ...

          total   stress  (Ry/bohr**3)                   (kbar)     P=   -4.18
  -0.0000288717   0.0000033572  -0.0000046953         -4.25      0.49     -0.69
   0.0000033572  -0.0000282283   0.0000043403          0.49     -4.15      0.64
  -0.0000046953   0.0000043403  -0.0000281642         -0.69      0.64     -4.14

     kinetic stress (kbar)   5863.30     -0.57      0.53
                               -0.57   5863.29     -0.43
                                0.53     -0.43   5863.30

     local   stress (kbar)  -6046.19   9515.80  -8507.79
                             9515.80  -9411.54 -12702.85
                            -8507.79 -12702.85  -9709.04

     nonloc. stress (kbar)   2409.94      0.85     -0.09
                                0.85   2409.97      0.02
                               -0.09      0.02   2409.98

     hartree stress (kbar)  15829.23  -4737.97   4269.88
                            -4737.97  17475.42   6281.35
                             4269.88   6281.35  17619.16

     exc-cor stress (kbar)   9688.41      0.02      0.00
                                0.02   9688.42      0.00
                                0.00      0.00   9688.42

     corecor stress (kbar) -14763.15     -0.05      0.09
                               -0.05 -14763.15     -0.07
                                0.09     -0.07 -14763.15

     ewald   stress (kbar) -12985.79  -4777.59   4236.69
                            -4777.59 -11266.56   6422.60
                             4236.69   6422.60 -11112.81

     hubbard stress (kbar)      0.00      0.00      0.00
                                0.00      0.00      0.00
                                0.00      0.00      0.00

     london  stress (kbar)      0.00      0.00      0.00
                                0.00      0.00      0.00
                                0.00      0.00      0.00

     XDM     stress (kbar)      0.00      0.00      0.00
                                0.00      0.00      0.00
                                0.00      0.00      0.00

     dft-nl  stress (kbar)      0.00      0.00      0.00
                                0.00      0.00      0.00
                                0.00      0.00      0.00



     Writing output data file SiGe_zns.scf.in.super.228.b.044.save

     init_run     :    141.66s CPU    115.11s WALL (       1 calls)
     electrons    :   8615.77s CPU   7354.15s WALL (       1 calls)
     forces       :    105.31s CPU     82.25s WALL (       1 calls)
     stress       :    306.28s CPU    301.61s WALL (       1 calls)

     Called by init_run:
     wfcinit      :    133.99s CPU    107.37s WALL (       1 calls)
     potinit      :      0.64s CPU      0.64s WALL (       1 calls)

     Called by electrons:
     c_bands      :   7529.23s CPU   6383.65s WALL (      21 calls)
     sum_band     :    962.10s CPU    845.87s WALL (      21 calls)
     v_of_rho     :      4.87s CPU      4.87s WALL (      21 calls)
     v_h          :      0.30s CPU      0.31s WALL (      21 calls)
     v_xc         :      5.06s CPU      5.08s WALL (      23 calls)
     newd         :    116.39s CPU    116.51s WALL (      21 calls)
     mix_rho      :      7.81s CPU      7.82s WALL (      21 calls)

     Called by c_bands:
     init_us_2    :     15.01s CPU     15.34s WALL (     450 calls)
     cegterg      :   7423.41s CPU   6275.21s WALL (     210 calls)

     Called by sum_band:
     sum_band:bec :      6.82s CPU      6.86s WALL (     210 calls)
     addusdens    :    109.93s CPU    110.06s WALL (      21 calls)

     Called by *egterg:
     h_psi        :   3319.73s CPU   2817.13s WALL (     747 calls)
     s_psi        :    828.90s CPU    564.38s WALL (     747 calls)
     g_psi        :      2.32s CPU      2.33s WALL (     527 calls)
     cdiaghg      :   1780.50s CPU   1697.36s WALL (     727 calls)
     cegterg:over :    697.92s CPU    546.87s WALL (     527 calls)
     cegterg:upda :    287.15s CPU    205.25s WALL (     527 calls)
     cegterg:last :    213.61s CPU    145.92s WALL (     210 calls)

     Called by h_psi:
     h_psi:vloc   :   1557.76s CPU   1568.19s WALL (     747 calls)
     h_psi:vnl    :   1757.53s CPU   1244.37s WALL (     747 calls)
     add_vuspsi   :    819.94s CPU    556.31s WALL (     747 calls)

     General routines
     calbec       :   1467.27s CPU   1086.44s WALL (     977 calls)
     fft          :     13.75s CPU     13.78s WALL (     361 calls)
     ffts         :      4.37s CPU      4.38s WALL (     609 calls)
     fftw         :   1814.34s CPU   1827.63s WALL (  372800 calls)
     interpolate  :      0.95s CPU      0.97s WALL (      42 calls)

     Parallel routines
     fft_scatter  :   1008.20s CPU   1017.87s WALL (  373770 calls)

     PWSCF        :     2h32m CPU        2h11m WALL


   This run was terminated on:  21:37:44  10Feb2017            

=------------------------------------------------------------------------------=
   JOB DONE.
=------------------------------------------------------------------------------=
