
     Program PWSCF v.5.1 starts on  2Nov2017 at 12:22: 0 

     This program is part of the open-source Quantum ESPRESSO suite
     for quantum simulation of materials; please cite
         "P. Giannozzi et al., J. Phys.:Condens. Matter 21 395502 (2009);
          URL http://www.quantum-espresso.org", 
     in publications or presentations arising from this work. More details at
     http://www.quantum-espresso.org/quote

     Parallel version (MPI), running on     8 processors
     R & G space division:  proc/nbgrp/npool/nimage =       8
     Reading input from /tmp/SiGe_zns.scf.in.super.444.b.08.13548/SiGe_zns.scf.in.super.444.b.08.t
Warning: card &IONS ignored
Warning: card   ION_DYNAMICS='BFGS', ignored
Warning: card / ignored
Warning: card &CELL ignored
Warning: card  CELL_DYNAMICS = 'BFGS' ignored
Warning: card / ignored
     Message from routine read_cards :
     DEPRECATED: no units specified in CELL_PARAMETERS card

     Current dimensions of program PWSCF are:
     Max number of different atomic species (ntypx) = 10
     Max number of k-points (npk) =  40000
     Max angular momentum in pseudopotentials (lmaxx) =  3
 kfg - two_fermi_energies  F

     Subspace diagonalization in iterative solution of the eigenvalue problem:
     a serial algorithm will be used


     Parallelization info
     --------------------
     sticks:   dense  smooth     PW     G-vecs:    dense   smooth      PW
     Min        1511    1056    278               109479    64121    8641
     Max        1512    1057    279               109481    64137    8642
     Sum       12089    8453   2225               875837   513037   69133



     bravais-lattice index     =            0
     lattice parameter (alat)  =    29.575470666  a.u.
     unit-cell volume          =   18334.9639 (a.u.)^3
     number of atoms/cell      =          128
     number of atomic types    =            2
     number of electrons       =      1112.00
     number of Kohn-Sham states=          667
     kinetic-energy cutoff     =      35.0000  Ry
     charge density cutoff     =     200.0000  Ry
     convergence threshold     =      1.0E-09
     mixing beta               =       0.3000
     number of iterations used =            8  local-TF  mixing
     Exchange-correlation      = SLA  PW   PSX  PSC ( 1  4 10  8 0)
     A smooth kinetic-energy cutoff is imposed at      34.5000 Ry
     height of the smooth step-function =             800.0000 Ry
     width of the smooth step-function  =               1.0000 Ry


     celldm(1)=  29.575471  celldm(2)=   0.000000  celldm(3)=   0.000000
     celldm(4)=   0.000000  celldm(5)=   0.000000  celldm(6)=   0.000000

     crystal axes: (cart. coord. in units of alat)
               a(1) = (  -0.000501841212   0.707844369746   0.706368244172 )  
               a(2) = (   0.708886210592   0.000857487237   0.706831464438 )  
               a(3) = (   0.706227746222   0.709154286259  -0.000937472573 )  

     reciprocal axes: (cart. coord. in units 2 pi/alat)
               b(1) = ( -0.707249  0.705267  0.708449 )  
               b(2) = (  0.707720 -0.703867  0.705840 )  
               b(3) = (  0.705087  0.707018 -0.707994 )  


     PseudoPot. # 1 for Si read from file:
     /users/kfg/psuedo/gbrv_1.5/si.pbesol.UPF
     MD5 check sum: ef58ba74faed4df802eb8a9742fc00a8
     Pseudo is Ultrasoft + core correction, Zval =  4.0
     Generated by new atomic code, or converted to UPF format
     Using radial grid of  899 points,  6 beta functions with: 
                l(1) =   0
                l(2) =   0
                l(3) =   1
                l(4) =   1
                l(5) =   2
                l(6) =   2
     Q(r) pseudized with  8 coefficients,  rinner =    0.900   0.900   0.900
                                                       0.900   0.900

     PseudoPot. # 2 for Ge read from file:
     /users/kfg/psuedo/gbrv_1.5/ge.pbesol.UPF
     MD5 check sum: 7bed0412183f5e553a4d27ec7023354d
     Pseudo is Ultrasoft + core correction, Zval = 14.0
     Generated by new atomic code, or converted to UPF format
     Using radial grid of  873 points,  6 beta functions with: 
                l(1) =   0
                l(2) =   0
                l(3) =   1
                l(4) =   1
                l(5) =   2
                l(6) =   2
     Q(r) pseudized with  8 coefficients,  rinner =    1.400   1.400   1.400
                                                       1.400   1.400

     atomic species   valence    mass     pseudopotential
        Si             4.00    28.08550     Si( 1.00)
        Ge            14.00    72.64000     Ge( 1.00)

     No symmetry found


                                    s                        frac. trans.

      isym =  1     identity                                     

 cryst.   s( 1) = (     1          0          0      )
                  (     0          1          0      )
                  (     0          0          1      )

 cart.    s( 1) = (  1.0000000 -0.0000000  0.0000000 )
                  (  0.0000000  1.0000000 -0.0000000 )
                  (  0.0000000  0.0000000  1.0000000 )


     point group C_1 (1)    
     there are  1 classes
     the character table:

       E    
A      1.00

     the symmetry operations in each class:
     E        1

   Cartesian axes

     site n.     atom                  positions (alat units)
         1           Si  tau(   1) = (    0.00036499838    0.00010569370   -0.00077787763  )
         2           Si  tau(   2) = (    0.08925655703    0.09027333077    0.08916022577  )
         3           Si  tau(   3) = (    0.17712768224    0.17845669461   -0.00176176330  )
         4           Si  tau(   4) = (    0.26429110324    0.26640028573    0.08963643745  )
         5           Ge  tau(   5) = (    0.35263341453    0.35362492746   -0.00104226123  )
         6           Ge  tau(   6) = (    0.44004510540    0.44353594993    0.08656939778  )
         7           Si  tau(   7) = (    0.53118068713    0.53193288266    0.00042767280  )
         8           Si  tau(   8) = (    0.61809195132    0.61880380509    0.08882228081  )
         9           Si  tau(   9) = (    0.17574616298   -0.00042682700    0.17578438152  )
        10           Ge  tau(  10) = (    0.26730596116    0.08758312636    0.26619519948  )
        11           Si  tau(  11) = (    0.35420559278    0.17765858343    0.17580000718  )
        12           Si  tau(  12) = (    0.44274685610    0.26735731434    0.26607697745  )
        13           Ge  tau(  13) = (    0.52953335227    0.35499795284    0.17496461426  )
        14           Si  tau(  14) = (    0.61859947903    0.44254170193    0.26359463344  )
        15           Si  tau(  15) = (    0.70549394865    0.53103800070    0.17597147707  )
        16           Si  tau(  16) = (    0.79629824109    0.62152427963    0.26550907341  )
        17           Si  tau(  17) = (    0.35517655568   -0.00010678903    0.35259642279  )
        18           Ge  tau(  18) = (    0.44427735299    0.08926869379    0.44323231592  )
        19           Ge  tau(  19) = (    0.53085170670    0.17870355919    0.35279480005  )
        20           Ge  tau(  20) = (    0.62050159802    0.26640809123    0.44144246854  )
        21           Ge  tau(  21) = (    0.70814711554    0.35669096410    0.35196112647  )
        22           Ge  tau(  22) = (    0.79564868092    0.44236794351    0.44118362278  )
        23           Ge  tau(  23) = (    0.88421579627    0.53086712226    0.35359279262  )
        24           Ge  tau(  24) = (    0.97407395722    0.62241050013    0.43950373365  )
        25           Ge  tau(  25) = (    0.53043029778   -0.00077464807    0.52991070610  )
        26           Ge  tau(  26) = (    0.62163416243    0.08958425965    0.61981774678  )
        27           Si  tau(  27) = (    0.70958967697    0.17735205003    0.52850262987  )
        28           Si  tau(  28) = (    0.79758207326    0.26544381294    0.61651614162  )
        29           Si  tau(  29) = (    0.88333573316    0.35356634435    0.52983958915  )
        30           Si  tau(  30) = (    0.97293483035    0.44355904609    0.61905390859  )
        31           Si  tau(  31) = (    1.06056836433    0.53176729593    0.52851019723  )
        32           Si  tau(  32) = (    1.14844794215    0.62159041260    0.61741414329  )
        33           Si  tau(  33) = (   -0.00052341143    0.17832440041    0.17824121891  )
        34           Ge  tau(  34) = (    0.08923825951    0.26446246800    0.26577468458  )
        35           Si  tau(  35) = (    0.17805110146    0.35538264487    0.17551062323  )
        36           Ge  tau(  36) = (    0.26601918622    0.44273798477    0.26522936075  )
        37           Si  tau(  37) = (    0.35356355472    0.53267724185    0.17661242321  )
        38           Ge  tau(  38) = (    0.44188804236    0.61881985074    0.26395041317  )
        39           Si  tau(  39) = (    0.53008568389    0.70781243687    0.17613480413  )
        40           Ge  tau(  40) = (    0.61794099066    0.79802931457    0.26566473362  )
        41           Ge  tau(  41) = (    0.17765145991    0.17563452638    0.35353182761  )
        42           Ge  tau(  42) = (    0.26625606339    0.26545116010    0.44284114317  )
        43           Ge  tau(  43) = (    0.35367167867    0.35475988330    0.35205425556  )
        44           Si  tau(  44) = (    0.44294028954    0.44379125465    0.44216528907  )
        45           Ge  tau(  45) = (    0.52857020615    0.53287735533    0.35222374445  )
        46           Ge  tau(  46) = (    0.61739523331    0.62167445246    0.44106960229  )
        47           Si  tau(  47) = (    0.70842894738    0.70759790660    0.35377607456  )
        48           Ge  tau(  48) = (    0.79434144958    0.79728433888    0.44201422075  )
        49           Si  tau(  49) = (    0.35442777245    0.17829608539    0.53092531863  )
        50           Ge  tau(  50) = (    0.44243248501    0.26522035300    0.61707244028  )
        51           Si  tau(  51) = (    0.52919280743    0.35578434868    0.52834325738  )
        52           Ge  tau(  52) = (    0.61822861160    0.44427423202    0.61823395556  )
        53           Si  tau(  53) = (    0.70821568942    0.53309698714    0.52806738473  )
        54           Ge  tau(  54) = (    0.79525284110    0.62167525923    0.61779600579  )
        55           Ge  tau(  55) = (    0.88551719360    0.70908143302    0.52795488036  )
        56           Ge  tau(  56) = (    0.97383976887    0.79620076107    0.61676965206  )
        57           Ge  tau(  57) = (    0.53055463722    0.17747635256    0.70632830062  )
        58           Ge  tau(  58) = (    0.61860756464    0.26659551278    0.79399379971  )
        59           Ge  tau(  59) = (    0.70845875586    0.35569836871    0.70499530773  )
        60           Ge  tau(  60) = (    0.79678043468    0.44452921564    0.79468496224  )
        61           Si  tau(  61) = (    0.88403948859    0.53155424854    0.70779615834  )
        62           Si  tau(  62) = (    0.97308189990    0.61983386998    0.79432057148  )
        63           Ge  tau(  63) = (    1.06138444451    0.70808279279    0.70529218559  )
        64           Si  tau(  64) = (    1.14846137806    0.79921608552    0.79389329018  )
        65           Si  tau(  65) = (    0.00061309316    0.35463010458    0.35322798244  )
        66           Si  tau(  66) = (    0.08949055837    0.44388869659    0.44267127172  )
        67           Si  tau(  67) = (    0.17638627568    0.53113906659    0.35360225228  )
        68           Ge  tau(  68) = (    0.26602972391    0.61838604824    0.44017439616  )
        69           Ge  tau(  69) = (    0.35154957337    0.70766034580    0.35304328205  )
        70           Ge  tau(  70) = (    0.44089546132    0.79866467414    0.44027484081  )
        71           Ge  tau(  71) = (    0.53011301002    0.88652473449    0.35298387859  )
        72           Ge  tau(  72) = (    0.61758037179    0.97547058222    0.44138354734  )
        73           Ge  tau(  73) = (    0.17685613290    0.35366111745    0.52945184511  )
        74           Si  tau(  74) = (    0.26526287333    0.44424996633    0.61700240926  )
        75           Si  tau(  75) = (    0.35363789232    0.53213157309    0.52881366578  )
        76           Ge  tau(  76) = (    0.44330844509    0.61876420386    0.61860462388  )
        77           Ge  tau(  77) = (    0.52839482112    0.70756270987    0.52825746881  )
        78           Ge  tau(  78) = (    0.61825155168    0.79770381735    0.61842536747  )
        79           Si  tau(  79) = (    0.70764288389    0.88530452382    0.52855715141  )
        80           Si  tau(  80) = (    0.79377721937    0.97340667723    0.61734639839  )
        81           Si  tau(  81) = (    0.35537433403    0.35421301084    0.70678550975  )
        82           Ge  tau(  82) = (    0.44371332209    0.44445725991    0.79370963942  )
        83           Si  tau(  83) = (    0.53195620751    0.53183265489    0.70728910136  )
        84           Si  tau(  84) = (    0.61925513001    0.62106742074    0.79481184260  )
        85           Si  tau(  85) = (    0.70668517433    0.70754967743    0.70646620999  )
        86           Si  tau(  86) = (    0.79537624943    0.79684793928    0.79396438293  )
        87           Si  tau(  87) = (    0.88255939074    0.88469312502    0.70739511910  )
        88           Si  tau(  88) = (    0.97073766819    0.97601158434    0.79430679199  )
        89           Si  tau(  89) = (    0.53260193244    0.35604694571    0.88436466921  )
        90           Si  tau(  90) = (    0.62135165686    0.44249951272    0.97059799881  )
        91           Si  tau(  91) = (    0.70658756350    0.53328469370    0.88343895763  )
        92           Ge  tau(  92) = (    0.79745182029    0.62206436377    0.97146767666  )
        93           Ge  tau(  93) = (    0.88397276698    0.70901028327    0.88234438022  )
        94           Ge  tau(  94) = (    0.97198904630    0.79758868651    0.97008355711  )
        95           Si  tau(  95) = (    1.06146562096    0.88727395669    0.88137878805  )
        96           Si  tau(  96) = (    1.14980636776    0.97522105658    0.96946132855  )
        97           Ge  tau(  97) = (    0.00064585466    0.52950894958    0.52993387454  )
        98           Si  tau(  98) = (    0.08881261859    0.61824892456    0.61697307104  )
        99           Ge  tau(  99) = (    0.17718660539    0.70849733345    0.52828160545  )
       100           Si  tau( 100) = (    0.26317788919    0.79836181599    0.61929255553  )
       101           Si  tau( 101) = (    0.35416319585    0.88652047282    0.53029831468  )
       102           Ge  tau( 102) = (    0.43991142511    0.97548516633    0.61675175652  )
       103           Si  tau( 103) = (    0.52820856559    1.06113056625    0.52791678190  )
       104           Ge  tau( 104) = (    0.61785312895    1.14986144676    0.61880672313  )
       105           Ge  tau( 105) = (    0.17713008853    0.53199016345    0.70606081531  )
       106           Si  tau( 106) = (    0.26401677487    0.61889681428    0.79566774912  )
       107           Ge  tau( 107) = (    0.35275965696    0.70689494007    0.70497437166  )
       108           Si  tau( 108) = (    0.44201807994    0.79565296964    0.79475991240  )
       109           Si  tau( 109) = (    0.52966423724    0.88566611429    0.70690602435  )
       110           Ge  tau( 110) = (    0.61861536544    0.97352517062    0.79425301259  )
       111           Ge  tau( 111) = (    0.70599279721    1.06204206662    0.70501616748  )
       112           Si  tau( 112) = (    0.79531888642    1.15190971270    0.79311985105  )
       113           Si  tau( 113) = (    0.35301678794    0.53235812803    0.88255434247  )
       114           Si  tau( 114) = (    0.44372093534    0.62098203592    0.97220699175  )
       115           Ge  tau( 115) = (    0.53141177724    0.70829969225    0.88185256977  )
       116           Ge  tau( 116) = (    0.61977003542    0.79591845153    0.97073875747  )
       117           Ge  tau( 117) = (    0.70872939260    0.88710932409    0.88206155024  )
       118           Si  tau( 118) = (    0.79412594608    0.97602329630    0.96976314872  )
       119           Ge  tau( 119) = (    0.88235937599    1.06172942133    0.88099134457  )
       120           Ge  tau( 120) = (    0.97205997321    1.15194357322    0.97056172261  )
       121           Si  tau( 121) = (    0.53103400703    0.53188980317    1.06132605008  )
       122           Ge  tau( 122) = (    0.62088551032    0.62008284222    1.14747213036  )
       123           Si  tau( 123) = (    0.70906961924    0.70749782670    1.06025118774  )
       124           Si  tau( 124) = (    0.79729485802    0.79596565550    1.14669406277  )
       125           Si  tau( 125) = (    0.88372109848    0.88553458879    1.05779586223  )
       126           Si  tau( 126) = (    0.97184143687    0.97406035082    1.14629315824  )
       127           Si  tau( 127) = (    1.06109618795    1.06448172183    1.05872885752  )
       128           Si  tau( 128) = (    1.15006263701    1.15159244184    1.14756777773  )

   Crystallographic axes

     site n.     atom                  positions (cryst. coord.)
         1           Si  tau(   1) = (   -0.00073468922   -0.00036513497    0.00088281553  )
         2           Si  tau(   2) = (    0.06370566849    0.06256119243    0.06363352442  )
         3           Si  tau(   3) = (   -0.00066190281   -0.00149637191    0.25230969533  )
         4           Si  tau(   4) = (    0.06446653748    0.06280294492    0.31123573768  )
         5           Ge  tau(   5) = (   -0.00073807551   -0.00007461454    0.49939405416  )
         6           Ge  tau(   6) = (    0.06291976755    0.06034290399    0.56256700578  )
         7           Si  tau(   7) = (   -0.00021938951    0.00181944226    0.75031149985  )
         8           Si  tau(   8) = (    0.06220297802    0.06457526107    0.81042788007  )
         9           Si  tau(   9) = (   -0.00006299047    0.24875532223   -0.00083979478  )
        10           Ge  tau(  10) = (    0.06130340975    0.31542240038    0.06193205497  )
        11           Si  tau(  11) = (   -0.00066943477    0.24971734304    0.25088801276  )
        12           Si  tau(  12) = (    0.06392803496    0.31296499267    0.31282029247  )
        13           Ge  tau(  13) = (   -0.00019007021    0.24838744670    0.50048277334  )
        14           Si  tau(  14) = (    0.06134957238    0.31236088831    0.56242754897  )
        15           Si  tau(  15) = (    0.00023049756    0.24972030995    0.74830078955  )
        16           Si  tau(  16) = (    0.06325906511    0.31349334273    0.81290898353  )
        17           Si  tau(  17) = (   -0.00147686438    0.50031771975    0.00071858135  )
        18           Ge  tau(  18) = (    0.06275117810    0.56444222893    0.06256272369  )
        19           Ge  tau(  19) = (    0.00052661394    0.49892798324    0.25086638768  )
        20           Ge  tau(  20) = (    0.06177928823    0.56321385482    0.31332394869  )
        21           Ge  tau(  21) = (    0.00007261670    0.49853571561    0.50230546676  )
        22           Ge  tau(  22) = (    0.06182196298    0.56313403656    0.56140778185  )
        23           Ge  tau(  23) = (   -0.00045515594    0.50169801388    0.74843953209  )
        24           Ge  tau(  24) = (    0.06141879762    0.56149755308    0.81569565927  )
        25           Ge  tau(  25) = (   -0.00027772492    0.74997406669   -0.00172198810  )
        26           Ge  tau(  26) = (    0.06264014753    0.81438030604    0.06281632085  )
        27           Si  tau(  27) = (   -0.00235870925    0.75039748858    0.25153650803  )
        28           Si  tau(  28) = (    0.05989005967    0.81279014451    0.31354814958  )
        29           Si  tau(  29) = (   -0.00001516371    0.75027342549    0.49768257042  )
        30           Si  tau(  30) = (    0.06328864796    0.81331274756    0.56132090770  )
        31           Si  tau(  31) = (   -0.00062534542    0.74933652233    0.74957933267  )
        32           Si  tau(  32) = (    0.06355510784    0.81105919651    0.81210510265  )
        33           Si  tau(  33) = (    0.25241129074   -0.00007718298   -0.00048430141  )
        34           Ge  tau(  34) = (    0.31169077773    0.06460393016    0.06173340510  )
        35           Si  tau(  35) = (    0.24905346982   -0.00024912170    0.25254273377  )
        36           Ge  tau(  36) = (    0.31200812424    0.06384828952    0.31280927990  )
        37           Si  tau(  37) = (    0.25074303616   -0.00004944348    0.50086454349  )
        38           Ge  tau(  38) = (    0.31090368758    0.06347337445    0.56221051761  )
        39           Si  tau(  39) = (    0.24907661796    0.00126991647    0.74948974656  )
        40           Ge  tau(  40) = (    0.31399542088    0.06314010266    0.81183360673  )
        41           Ge  tau(  41) = (    0.24868473448    0.25164134471   -0.00086207193  )
        42           Ge  tau(  42) = (    0.31263502568    0.31416782374    0.06188332122  )
        43           Ge  tau(  43) = (    0.24947900424    0.24909114270    0.25093831590  )
        44           Si  tau(  44) = (    0.31297383403    0.31320615844    0.31302908601  )
        45           Ge  tau(  45) = (    0.25152262019    0.24761907574    0.50006911252  )
        46           Ge  tau(  46) = (    0.31426963556    0.31069204385    0.56257721855  )
        47           Si  tau(  47) = (    0.24864206847    0.25302449870    0.74931656392  )
        48           Ge  tau(  48) = (    0.31364564932    0.31298129225    0.81083011919  )
        49           Si  tau(  49) = (    0.25121128006    0.50008768720    0.00006878104  )
        50           Ge  tau(  50) = (    0.31130570020    0.56199344708    0.06258506012  )
        51           Si  tau(  51) = (    0.25095621498    0.49702186855    0.25060867344  )
        52           Ge  tau(  52) = (    0.31407770719    0.56119773604    0.31230844926  )
        53           Si  tau(  53) = (    0.24919974771    0.49872083321    0.50239377938  )
        54           Ge  tau(  54) = (    0.31368229879    0.56130559888    0.56286157398  )
        55           Ge  tau(  55) = (    0.24783973101    0.50025172611    0.75191044555  )
        56           Ge  tau(  56) = (    0.30973680728    0.56412808276    0.81290007615  )
        57           Ge  tau(  57) = (    0.25033173312    0.74911978603   -0.00051034868  )
        58           Ge  tau(  58) = (    0.31301573128    0.81058648882    0.06251675136  )
        59           Ge  tau(  59) = (    0.24925894773    0.74864073995    0.25187731293  )
        60           Ge  tau(  60) = (    0.31298354529    0.81192930860    0.31345697342  )
        61           Si  tau(  61) = (    0.25108923527    0.75110066486    0.49802714961  )
        62           Si  tau(  62) = (    0.31167292193    0.81305314449    0.56196623501  )
        63           Ge  tau(  63) = (    0.24838798798    0.75059134149    0.74965228554  )
        64           Si  tau(  64) = (    0.31384558620    0.81061002070    0.81275284911  )
        65           Si  tau(  65) = (    0.49991927230    0.00014415750    0.00107866336  )
        66           Si  tau(  66) = (    0.56337792770    0.06335109746    0.06352704982  )
        67           Si  tau(  67) = (    0.50035493786    0.00056782130    0.24954393914  )
        68           Ge  tau(  68) = (    0.55981907023    0.06370619820    0.31314292017  )
        69           Ge  tau(  69) = (    0.50056947749   -0.00010753118    0.49824863016  )
        70           Ge  tau(  70) = (    0.56336115243    0.06064102641    0.56382745350  )
        71           Ge  tau(  71) = (    0.50038570756    0.00032684188    0.75065364299  )
        72           Ge  tau(  72) = (    0.56388173672    0.06201932344    0.81262554577  )
        73           Ge  tau(  73) = (    0.49943384891    0.24994294169   -0.00010525699  )
        74           Si  tau(  74) = (    0.56282271012    0.31054445445    0.06429178077  )
        75           Si  tau(  75) = (    0.49982230697    0.24898513821    0.25117477128  )
        76           Ge  tau(  76) = (    0.56111435482    0.31484708810    0.31207960517  )
        77           Ge  tau(  77) = (    0.49955737408    0.24879146266    0.49882022377  )
        78           Ge  tau(  78) = (    0.56345920291    0.31258173410    0.56207001193  )
        79           Si  tau(  79) = (    0.49835208280    0.25075396021    0.75066004656  )
        80           Si  tau(  80) = (    0.56247186012    0.31237186022    0.81081972451  )
        81           Si  tau(  81) = (    0.49919818499    0.50106475009    0.00060456460  )
        82           Ge  tau(  82) = (    0.56194813221    0.56141870266    0.06515370485  )
        83           Si  tau(  83) = (    0.49993684977    0.50137024941    0.25033375022  )
        84           Si  tau(  84) = (    0.56313451313    0.56212119225    0.31301201834  )
        85           Si  tau(  85) = (    0.49970437923    0.50076731540    0.49835043138  )
        86           Si  tau(  86) = (    0.56194482052    0.56244147913    0.56207257475  )
        87           Si  tau(  87) = (    0.50090900399    0.50120737648    0.74694285591  )
        88           Si  tau(  88) = (    0.56452139332    0.56068269745    0.81214698604  )
        89           Si  tau(  89) = (    0.50095340009    0.75054406628    0.00113701631  )
        90           Si  tau(  90) = (    0.56024931069    0.81336994977    0.06378405803  )
        91           Si  tau(  91) = (    0.50224632701    0.74827209553    0.24977755696  )
        92           Ge  tau(  92) = (    0.56295990754    0.81222376491    0.31428970484  )
        93           Ge  tau(  93) = (    0.49994880249    0.74935123759    0.49986552435  )
        94           Ge  tau(  94) = (    0.56232953906    0.81122462943    0.56243229620  )
        95           Si  tau(  95) = (    0.49945654778    0.74881113621    0.75173254361  )
        96           Si  tau(  96) = (    0.56140582355    0.81160087373    0.81383865124  )
        97           Ge  tau(  97) = (    0.74841947387    0.00180210567   -0.00036255367  )
        98           Si  tau(  98) = (    0.81031183100    0.06317419907    0.06292013887  )
        99           Ge  tau(  99) = (    0.74862523149   -0.00040660266    0.25183169644  )
       100           Si  tau( 100) = (    0.81566305776    0.06143777980    0.31156355551  )
       101           Si  tau( 101) = (    0.75044127194    0.00096225866    0.50105319169  )
       102           Ge  tau( 102) = (    0.81378764394    0.06005108426    0.56320419843  )
       103           Si  tau( 103) = (    0.74880737613   -0.00044549258    0.74890876827  )
       104           Ge  tau( 104) = (    0.81237620435    0.06469688256    0.81050070314  )
       105           Ge  tau( 105) = (    0.75012811382    0.24927469463    0.00113156140  )
       106           Si  tau( 106) = (    0.81345193331    0.31284367978    0.06039755324  )
       107           Ge  tau( 107) = (    0.74849913046    0.24969482189    0.24939556612  )
       108           Si  tau( 108) = (    0.81157779168    0.31376527767    0.31151634242  )
       109           Si  tau( 109) = (    0.75083340584    0.25042616689    0.49915538123  )
       110           Ge  tau( 110) = (    0.81176779448    0.31319067221    0.56215037894  )
       111           Ge  tau( 111) = (    0.74917845530    0.24973839151    0.74952119435  )
       112           Si  tau( 112) = (    0.81180032486    0.31188859102    0.81366494440  )
       113           Si  tau( 113) = (    0.75102866282    0.49807059368    0.00045071765  )
       114           Si  tau( 114) = (    0.81289609874    0.56316482190    0.06359011496  )
       115           Ge  tau( 115) = (    0.74844757037    0.49998962195    0.25112526602  )
       116           Ge  tau( 116) = (    0.81072223676    0.56359010738    0.31244260068  )
       117           Ge  tau( 117) = (    0.74929642430    0.49977027952    0.50242313858  )
       118           Si  tau( 118) = (    0.81374000212    0.55952691748    0.56340663507  )
       119           Ge  tau( 119) = (    0.74889237401    0.49898709724    0.74906449283  )
       120           Ge  tau( 120) = (    0.81253283075    0.56219370214    0.81267887819  )
       121           Si  tau( 121) = (    0.75144657230    0.75057097351   -0.00093213457  )
       122           Ge  tau( 122) = (    0.81112893632    0.81288996393    0.06378407296  )
       123           Si  tau( 123) = (    0.74862009868    0.75220708967    0.24951734794  )
       124           Si  tau( 124) = (    0.80985670044    0.81339121375    0.31307105027  )
       125           Si  tau( 125) = (    0.74892196952    0.74876429041    0.50027524382  )
       126           Si  tau( 126) = (    0.81172907323    0.81128349055    0.56234142423  )
       127           Si  tau( 127) = (    0.75034007769    0.74899988005    0.75119825816  )
       128           Si  tau( 128) = (    0.81179281201    0.81335502329    0.81261869255  )

     number of k points=     8  gaussian smearing, width (Ry)=  0.0150
                       cart. coord. in units 2pi/alat
        k(    1) = (   0.0000000   0.0000000   0.0000000), wk =   0.2500000
        k(    2) = (  -0.3525433  -0.3535088   0.3539970), wk =   0.2500000
        k(    3) = (  -0.3538602   0.3519334  -0.3529202), wk =   0.2500000
        k(    4) = (  -0.7064036  -0.0015754   0.0010768), wk =   0.2500000
        k(    5) = (   0.3536244  -0.3526333  -0.3542246), wk =   0.2500000
        k(    6) = (   0.0010811  -0.7061421  -0.0002276), wk =   0.2500000
        k(    7) = (  -0.0002358  -0.0007000  -0.7071448), wk =   0.2500000
        k(    8) = (  -0.3527792  -0.3542087  -0.3531478), wk =   0.2500000

                       cryst. coord.
        k(    1) = (   0.0000000   0.0000000   0.0000000), wk =   0.2500000
        k(    2) = (   0.0000000   0.0000000  -0.5000000), wk =   0.2500000
        k(    3) = (  -0.0000000  -0.5000000  -0.0000000), wk =   0.2500000
        k(    4) = (   0.0000000  -0.5000000  -0.5000000), wk =   0.2500000
        k(    5) = (  -0.5000000  -0.0000000  -0.0000000), wk =   0.2500000
        k(    6) = (  -0.5000000  -0.0000000  -0.5000000), wk =   0.2500000
        k(    7) = (  -0.5000000  -0.5000000  -0.0000000), wk =   0.2500000
        k(    8) = (  -0.5000000  -0.5000000  -0.5000000), wk =   0.2500000

     Dense  grid:   875837 G-vectors     FFT dimensions: ( 135, 135, 135)

     Smooth grid:   513037 G-vectors     FFT dimensions: ( 120, 120, 120)

     Largest allocated arrays     est. size (Mb)     dimensions
        Kohn-Sham Wavefunctions        81.63 Mb     (    8021,  667)
        NL pseudopotentials           281.99 Mb     (    8021, 2304)
        Each V/rho on FFT grid          4.73 Mb     (  309825)
        Each G-vector array             0.84 Mb     (  109480)
        G-vector shells                 0.83 Mb     (  108704)
     Largest temporary arrays     est. size (Mb)     dimensions
        Auxiliary wavefunctions       326.54 Mb     (    8021, 2668)
        Each subspace H/S matrix      108.62 Mb     (    2668, 2668)
        Each <psi_i|beta_j> matrix     23.45 Mb     (    2304,  667)
        Arrays for rho mixing          37.82 Mb     (  309825,    8)

     Check: negative/imaginary core charge=   -0.000001    0.000000

     Initial potential from superposition of free atoms

     starting charge 1111.90744, renormalised to 1112.00000
     Starting wfc are  812 randomized atomic wfcs

     total cpu time spent up to now is     1568.1 secs

     per-process dynamical memory:  1163.3 Mb

     Self-consistent Calculation

     iteration #  1     ecut=    35.00 Ry     beta=0.30
     Davidson diagonalization with overlap
     ethr =  1.00E-02,  avg # of iterations =  3.0

     Threshold (ethr) on eigenvalues was too large:
     Diagonalizing with lowered threshold

     Davidson diagonalization with overlap
     ethr =  2.55E-04,  avg # of iterations =  4.0

     total cpu time spent up to now is    10229.8 secs

     total energy              =  -13441.52627345 Ry
     Harris-Foulkes estimate   =  -13441.82138306 Ry
     estimated scf accuracy    <       2.84209149 Ry

     iteration #  2     ecut=    35.00 Ry     beta=0.30
     Davidson diagonalization with overlap
     ethr =  2.56E-04,  avg # of iterations =  1.0

     total cpu time spent up to now is    13566.3 secs

     total energy              =  -13440.96421586 Ry
     Harris-Foulkes estimate   =  -13441.54073608 Ry
     estimated scf accuracy    <       1.75405240 Ry

     iteration #  3     ecut=    35.00 Ry     beta=0.30
     Davidson diagonalization with overlap
     ethr =  1.58E-04,  avg # of iterations =  2.0

     total cpu time spent up to now is    17318.9 secs

     total energy              =  -13441.07239777 Ry
     Harris-Foulkes estimate   =  -13441.07110956 Ry
     estimated scf accuracy    <       0.02427611 Ry

     iteration #  4     ecut=    35.00 Ry     beta=0.30
     Davidson diagonalization with overlap
     ethr =  2.18E-06,  avg # of iterations =  9.8

     total cpu time spent up to now is    26713.4 secs

     total energy              =  -13441.07701175 Ry
     Harris-Foulkes estimate   =  -13441.07756389 Ry
     estimated scf accuracy    <       0.01073001 Ry

     iteration #  5     ecut=    35.00 Ry     beta=0.30
     Davidson diagonalization with overlap
     ethr =  9.65E-07,  avg # of iterations =  2.0

     total cpu time spent up to now is    30839.8 secs

     total energy              =  -13441.07790580 Ry
     Harris-Foulkes estimate   =  -13441.07803936 Ry
     estimated scf accuracy    <       0.00066947 Ry

     iteration #  6     ecut=    35.00 Ry     beta=0.30
     Davidson diagonalization with overlap
     ethr =  6.02E-08,  avg # of iterations =  2.0

     total cpu time spent up to now is    34325.9 secs

     total energy              =  -13441.07787320 Ry
     Harris-Foulkes estimate   =  -13441.07793910 Ry
     estimated scf accuracy    <       0.00019892 Ry

     iteration #  7     ecut=    35.00 Ry     beta=0.30
     Davidson diagonalization with overlap
     ethr =  1.79E-08,  avg # of iterations =  2.0

     total cpu time spent up to now is    38297.0 secs

     total energy              =  -13441.07789884 Ry
     Harris-Foulkes estimate   =  -13441.07789628 Ry
     estimated scf accuracy    <       0.00002830 Ry

     iteration #  8     ecut=    35.00 Ry     beta=0.30
     Davidson diagonalization with overlap
     ethr =  2.54E-09,  avg # of iterations =  2.0

     total cpu time spent up to now is    42116.4 secs

     total energy              =  -13441.07789865 Ry
     Harris-Foulkes estimate   =  -13441.07790160 Ry
     estimated scf accuracy    <       0.00001348 Ry

     iteration #  9     ecut=    35.00 Ry     beta=0.30
     Davidson diagonalization with overlap
     ethr =  1.21E-09,  avg # of iterations =  2.0

     total cpu time spent up to now is    46747.5 secs

     total energy              =  -13441.07790136 Ry
     Harris-Foulkes estimate   =  -13441.07790088 Ry
     estimated scf accuracy    <       0.00000252 Ry

     iteration # 10     ecut=    35.00 Ry     beta=0.30
     Davidson diagonalization with overlap
     ethr =  2.27E-10,  avg # of iterations =  2.4

     total cpu time spent up to now is    50429.2 secs

     total energy              =  -13441.07790104 Ry
     Harris-Foulkes estimate   =  -13441.07790153 Ry
     estimated scf accuracy    <       0.00000158 Ry

     iteration # 11     ecut=    35.00 Ry     beta=0.30
     Davidson diagonalization with overlap
     ethr =  1.42E-10,  avg # of iterations =  2.0

     total cpu time spent up to now is    55001.2 secs

     total energy              =  -13441.07790152 Ry
     Harris-Foulkes estimate   =  -13441.07790139 Ry
     estimated scf accuracy    <       0.00000019 Ry

     iteration # 12     ecut=    35.00 Ry     beta=0.30
     Davidson diagonalization with overlap
     ethr =  1.71E-11,  avg # of iterations =  2.0

     total cpu time spent up to now is    58444.4 secs

     total energy              =  -13441.07790156 Ry
     Harris-Foulkes estimate   =  -13441.07790153 Ry
     estimated scf accuracy    <       0.00000011 Ry

     iteration # 13     ecut=    35.00 Ry     beta=0.30
     Davidson diagonalization with overlap
     ethr =  9.59E-12,  avg # of iterations =  2.0

     total cpu time spent up to now is    63107.5 secs

     total energy              =  -13441.07790162 Ry
     Harris-Foulkes estimate   =  -13441.07790158 Ry
     estimated scf accuracy    <          3.9E-09 Ry

     iteration # 14     ecut=    35.00 Ry     beta=0.30
     Davidson diagonalization with overlap
     ethr =  3.50E-13,  avg # of iterations =  2.0

     total cpu time spent up to now is    67036.7 secs

     total energy              =  -13441.07790164 Ry
     Harris-Foulkes estimate   =  -13441.07790162 Ry
     estimated scf accuracy    <          1.8E-09 Ry

     iteration # 15     ecut=    35.00 Ry     beta=0.30
     Davidson diagonalization with overlap
     ethr =  1.60E-13,  avg # of iterations =  2.0

     total cpu time spent up to now is    71190.4 secs

     End of self-consistent calculation

          k = 0.0000 0.0000 0.0000 ( 64115 PWs)   bands (ev):

   -17.4360 -17.4251 -17.4247 -17.4237 -17.4176 -17.4151 -17.4065 -17.4032
   -17.4006 -17.3939 -17.3911 -17.3828 -17.3824 -17.3821 -17.3814 -17.3807
   -17.3802 -17.3780 -17.3774 -17.3764 -17.3748 -17.3735 -17.3706 -17.3677
   -17.3657 -17.3616 -17.3611 -17.3594 -17.3536 -17.3516 -17.3465 -17.3453
   -17.3423 -17.3394 -17.3369 -17.3343 -17.3333 -17.3292 -17.3284 -17.3262
   -17.3231 -17.3199 -17.3171 -17.3132 -17.3130 -17.3091 -17.3075 -17.3045
   -17.3024 -17.3001 -17.2988 -17.2930 -17.2900 -17.2884 -17.2862 -17.2851
   -17.2835 -17.2822 -17.2819 -17.2810 -17.2781 -17.2764 -17.2744 -17.2735
   -17.2692 -17.2668 -17.2632 -17.2609 -17.2585 -17.2569 -17.2564 -17.2538
   -17.2530 -17.2503 -17.2494 -17.2491 -17.2485 -17.2480 -17.2469 -17.2460
   -17.2447 -17.2428 -17.2414 -17.2382 -17.2376 -17.2364 -17.2356 -17.2348
   -17.2321 -17.2315 -17.2303 -17.2287 -17.2265 -17.2249 -17.2237 -17.2184
   -17.2166 -17.2148 -17.2122 -17.2115 -17.2113 -17.2091 -17.2085 -17.2077
   -17.2075 -17.2052 -17.2022 -17.2011 -17.1986 -17.1946 -17.1924 -17.1921
   -17.1915 -17.1907 -17.1891 -17.1887 -17.1880 -17.1863 -17.1856 -17.1844
   -17.1841 -17.1836 -17.1830 -17.1809 -17.1806 -17.1787 -17.1779 -17.1755
   -17.1750 -17.1733 -17.1723 -17.1717 -17.1716 -17.1702 -17.1685 -17.1662
   -17.1653 -17.1640 -17.1631 -17.1625 -17.1615 -17.1609 -17.1603 -17.1591
   -17.1581 -17.1576 -17.1567 -17.1559 -17.1549 -17.1547 -17.1541 -17.1534
   -17.1529 -17.1528 -17.1518 -17.1515 -17.1513 -17.1499 -17.1498 -17.1489
   -17.1478 -17.1473 -17.1467 -17.1454 -17.1451 -17.1436 -17.1428 -17.1417
   -17.1410 -17.1405 -17.1396 -17.1391 -17.1391 -17.1382 -17.1379 -17.1373
   -17.1363 -17.1355 -17.1352 -17.1343 -17.1339 -17.1336 -17.1335 -17.1321
   -17.1301 -17.1299 -17.1286 -17.1283 -17.1275 -17.1272 -17.1261 -17.1255
   -17.1247 -17.1241 -17.1234 -17.1231 -17.1227 -17.1220 -17.1203 -17.1198
   -17.1193 -17.1190 -17.1181 -17.1174 -17.1170 -17.1167 -17.1154 -17.1140
   -17.1135 -17.1132 -17.1131 -17.1129 -17.1128 -17.1127 -17.1122 -17.1114
   -17.1107 -17.1104 -17.1099 -17.1091 -17.1087 -17.1082 -17.1079 -17.1079
   -17.1074 -17.1055 -17.1044 -17.1040 -17.1039 -17.1029 -17.1027 -17.1016
   -17.1013 -17.1004 -17.0981 -17.0978 -17.0977 -17.0961 -17.0952 -17.0947
   -17.0943 -17.0933 -17.0926 -17.0920 -17.0896 -17.0882 -17.0874 -17.0872
   -17.0867 -17.0866 -17.0859 -17.0853 -17.0849 -17.0843 -17.0831 -17.0826
   -17.0819 -17.0795 -17.0792 -17.0784 -17.0760 -17.0732 -17.0717 -17.0713
   -17.0669 -17.0654 -17.0648 -17.0619 -17.0612 -17.0610 -17.0565 -17.0554
   -17.0542 -17.0518 -17.0498 -17.0493 -17.0472 -17.0444 -17.0424 -17.0407
   -17.0393 -17.0376 -17.0362 -17.0332 -17.0327 -17.0298 -17.0293 -17.0287
   -17.0256 -17.0252 -17.0247 -17.0222 -17.0216 -17.0210 -17.0190 -17.0171
   -17.0160 -17.0119 -17.0064 -17.0052  -5.2357  -4.6883  -4.6141  -4.5419
    -4.5274  -4.4277  -4.3959  -4.3691  -4.3415  -4.2782  -4.2318  -4.1951
    -4.1087  -3.9841  -3.9350  -3.5174  -3.4602  -3.4192  -3.4128  -3.3166
    -3.3060  -3.2814  -3.1735  -3.1431  -3.1192  -3.0455  -3.0330  -2.9906
    -2.9412  -2.8852  -2.8459  -2.8256  -2.7953  -2.7846  -2.7751  -2.7479
    -2.6825  -2.6440  -2.6399  -2.6012  -2.5838  -2.5190  -2.4838  -2.4390
    -2.3972  -2.3877  -2.3302  -2.3097  -2.3016  -2.2484  -2.2174  -2.1921
    -2.1612  -2.1492  -2.1280  -1.3157  -1.2791  -1.2114  -1.1919  -1.1602
    -1.0784  -1.0659  -1.0425  -1.0029  -0.9964  -0.9203  -0.8787  -0.8459
    -0.8173  -0.8147  -0.7371  -0.7149  -0.6955  -0.1093  -0.0740  -0.0508
     0.0434   0.1115   0.1401   0.1689   0.1855   0.2411   0.2647   0.2926
     0.3176   0.3421   0.3489   0.3644   0.4178   0.4497   0.4579   0.4756
     0.5176   0.5428   0.5505   0.5862   0.6100   0.6256   0.6503   0.6663
     0.6797   1.1202   1.1422   1.1535   1.2530   1.2808   1.3111   1.3681
     1.3973   1.4119   1.4569   1.4695   1.5208   2.8519   2.8901   2.9384
     2.9499   2.9757   3.0131   3.0240   3.0436   3.1117   3.1284   3.2095
     3.2280   3.2900   3.2945   3.3015   3.3090   3.3140   3.3188   3.3203
     3.3235   3.3279   3.3345   3.3367   3.3411   3.3432   3.3477   3.3664
     3.3716   3.3789   3.3832   3.3929   3.3952   3.4051   3.4065   3.4163
     3.4177   3.4235   3.4329   3.5250   3.5338   3.5415   3.5471   3.5536
     3.5617   3.5658   3.5738   3.5755   3.5811   3.5815   3.5867   3.5914
     3.5924   3.5985   3.6009   3.6063   3.6092   3.6174   3.6232   3.6281
     3.6347   3.6409   3.6507   4.2476   4.2549   4.2573   4.2675   4.2760
     4.2851   4.8728   4.8854   4.8888   4.8948   4.9012   4.9065   4.9082
     4.9147   4.9162   4.9201   4.9246   4.9279   4.9288   4.9330   4.9338
     4.9367   4.9431   4.9485   4.9514   4.9572   4.9627   4.9670   4.9727
     4.9888   5.2254   5.2350   5.2476   5.2538   5.2626   5.2673   5.2781
     5.2846   5.2880   5.2935   5.3091   5.3247   5.7656   5.7816   5.7925
     5.8073   5.8144   5.8174   5.8249   5.8297   5.8396   5.8504   5.8653
     5.8856   5.9066   5.9175   5.9243   5.9386   5.9593   5.9646   5.9731
     6.0154   6.3541   6.3610   6.3697   6.3782   6.4082   6.4199   6.4215
     6.4314   6.4339   6.4386   6.4576   6.4610   6.4621   6.4761   6.4990
     6.5251   7.2368   7.2604   7.2877   7.7860   7.8385   7.8662   7.8873
     7.8953   7.9499   7.9642   8.0167   8.0674   8.1657   8.1700   8.1890
     8.1954   8.2695   8.2744   8.2944   8.4322   8.4474   8.4610   8.4850
     8.4960   8.5074   8.5308   8.5457   8.5513   8.5577   8.5918   8.5971
     8.6108   8.6218   8.6280   8.6463   8.6578   8.6684   8.6833   8.6935
     8.7036   8.7159   8.7228   8.7317   8.7516   8.7647   8.7696   8.7860
     8.7996   8.8127   8.8519   8.8667   9.0159   9.3086   9.3714   9.3887
     9.4208   9.4371   9.4448   9.4834   9.4918   9.5243   9.5436   9.5510
     9.5809   9.7527   9.7636   9.7911  10.1179  10.1468  10.1828  10.1939
    10.2801  10.2812  10.6118  10.6215  10.6339  10.6442  10.6623  10.6698
    10.6754  10.6816  10.7009  10.7153  10.7265  10.7322  10.7506  10.7616
    10.7676  10.7845  10.7943  10.8128  10.8240  10.8356  10.8431  10.8509
    10.8994  10.9145  11.4335  11.4439  11.4522  11.4808  11.4966  11.4991
    11.5101  11.5197  11.5239  11.5308  11.5467  11.5571  11.5682  11.5727
    11.5807  11.5846  11.5914

     occupation numbers 
     1.0000   1.0000   1.0000   1.0000   1.0000   1.0000   1.0000   1.0000
     1.0000   1.0000   1.0000   1.0000   1.0000   1.0000   1.0000   1.0000
     1.0000   1.0000   1.0000   1.0000   1.0000   1.0000   1.0000   1.0000
     1.0000   1.0000   1.0000   1.0000   1.0000   1.0000   1.0000   1.0000
     1.0000   1.0000   1.0000   1.0000   1.0000   1.0000   1.0000   1.0000
     1.0000   1.0000   1.0000   1.0000   1.0000   1.0000   1.0000   1.0000
     1.0000   1.0000   1.0000   1.0000   1.0000   1.0000   1.0000   1.0000
     1.0000   1.0000   1.0000   1.0000   1.0000   1.0000   1.0000   1.0000
     1.0000   1.0000   1.0000   1.0000   1.0000   1.0000   1.0000   1.0000
     1.0000   1.0000   1.0000   1.0000   1.0000   1.0000   1.0000   1.0000
     1.0000   1.0000   1.0000   1.0000   1.0000   1.0000   1.0000   1.0000
     1.0000   1.0000   1.0000   1.0000   1.0000   1.0000   1.0000   1.0000
     1.0000   1.0000   1.0000   1.0000   1.0000   1.0000   1.0000   1.0000
     1.0000   1.0000   1.0000   1.0000   1.0000   1.0000   1.0000   1.0000
     1.0000   1.0000   1.0000   1.0000   1.0000   1.0000   1.0000   1.0000
     1.0000   1.0000   1.0000   1.0000   1.0000   1.0000   1.0000   1.0000
     1.0000   1.0000   1.0000   1.0000   1.0000   1.0000   1.0000   1.0000
     1.0000   1.0000   1.0000   1.0000   1.0000   1.0000   1.0000   1.0000
     1.0000   1.0000   1.0000   1.0000   1.0000   1.0000   1.0000   1.0000
     1.0000   1.0000   1.0000   1.0000   1.0000   1.0000   1.0000   1.0000
     1.0000   1.0000   1.0000   1.0000   1.0000   1.0000   1.0000   1.0000
     1.0000   1.0000   1.0000   1.0000   1.0000   1.0000   1.0000   1.0000
     1.0000   1.0000   1.0000   1.0000   1.0000   1.0000   1.0000   1.0000
     1.0000   1.0000   1.0000   1.0000   1.0000   1.0000   1.0000   1.0000
     1.0000   1.0000   1.0000   1.0000   1.0000   1.0000   1.0000   1.0000
     1.0000   1.0000   1.0000   1.0000   1.0000   1.0000   1.0000   1.0000
     1.0000   1.0000   1.0000   1.0000   1.0000   1.0000   1.0000   1.0000
     1.0000   1.0000   1.0000   1.0000   1.0000   1.0000   1.0000   1.0000
     1.0000   1.0000   1.0000   1.0000   1.0000   1.0000   1.0000   1.0000
     1.0000   1.0000   1.0000   1.0000   1.0000   1.0000   1.0000   1.0000
     1.0000   1.0000   1.0000   1.0000   1.0000   1.0000   1.0000   1.0000
     1.0000   1.0000   1.0000   1.0000   1.0000   1.0000   1.0000   1.0000
     1.0000   1.0000   1.0000   1.0000   1.0000   1.0000   1.0000   1.0000
     1.0000   1.0000   1.0000   1.0000   1.0000   1.0000   1.0000   1.0000
     1.0000   1.0000   1.0000   1.0000   1.0000   1.0000   1.0000   1.0000
     1.0000   1.0000   1.0000   1.0000   1.0000   1.0000   1.0000   1.0000
     1.0000   1.0000   1.0000   1.0000   1.0000   1.0000   1.0000   1.0000
     1.0000   1.0000   1.0000   1.0000   1.0000   1.0000   1.0000   1.0000
     1.0000   1.0000   1.0000   1.0000   1.0000   1.0000   1.0000   1.0000
     1.0000   1.0000   1.0000   1.0000   1.0000   1.0000   1.0000   1.0000
     1.0000   1.0000   1.0000   1.0000   1.0000   1.0000   1.0000   1.0000
     1.0000   1.0000   1.0000   1.0000   1.0000   1.0000   1.0000   1.0000
     1.0000   1.0000   1.0000   1.0000   1.0000   1.0000   1.0000   1.0000
     1.0000   1.0000   1.0000   1.0000   1.0000   1.0000   1.0000   1.0000
     1.0000   1.0000   1.0000   1.0000   1.0000   1.0000   1.0000   1.0000
     1.0000   1.0000   1.0000   1.0000   1.0000   1.0000   1.0000   1.0000
     1.0000   1.0000   1.0000   1.0000   1.0000   1.0000   1.0000   1.0000
     1.0000   1.0000   1.0000   1.0000   1.0000   1.0000   1.0000   1.0000
     1.0000   1.0000   1.0000   1.0000   1.0000   1.0000   1.0000   1.0000
     1.0000   1.0000   1.0000   1.0000   1.0000   1.0000   1.0000   1.0000
     1.0000   1.0000   1.0000   1.0000   1.0000   1.0000   1.0000   1.0000
     1.0000   1.0000   1.0000   1.0000   1.0000   1.0000   1.0000   1.0000
     1.0000   1.0000   1.0000   1.0000   1.0000   1.0000   1.0000   1.0000
     1.0000   1.0000   1.0000   1.0000   1.0000   1.0000   1.0000   1.0000
     1.0000   1.0000   1.0000   1.0000   1.0000   1.0000   1.0000   1.0000
     1.0000   1.0000   1.0000   1.0000   1.0000   1.0000   1.0000   1.0000
     1.0000   1.0000   1.0000   1.0000   1.0000   1.0000   1.0000   1.0000
     1.0000   1.0000   1.0000   1.0000   1.0000   1.0000   1.0000   1.0000
     1.0000   1.0000   1.0000   1.0000   1.0000   1.0000   1.0000   1.0000
     1.0000   1.0000   1.0000   1.0000   1.0000   1.0000   1.0000   1.0000
     1.0000   1.0000   1.0000   1.0000   1.0000   1.0000   1.0000   1.0000
     1.0000   1.0000   1.0000   1.0000   1.0000   1.0000   1.0000   1.0000
     1.0000   1.0000   1.0000   1.0000   1.0000   1.0000   1.0000   1.0000
     1.0000   1.0000   1.0000   1.0000   1.0000   1.0000   1.0000   1.0000
     1.0000   1.0000   1.0000   1.0000   1.0000   1.0000   1.0000   1.0000
     1.0000   1.0000   1.0000   1.0000   1.0000   1.0000   1.0000   1.0000
     1.0000   1.0000   1.0000   1.0000   1.0000   1.0000   1.0000   1.0000
     1.0000   1.0000   1.0000   1.0000   1.0000   1.0000   1.0000   1.0000
     1.0000   1.0000   1.0000   1.0000   1.0000   1.0000   1.0000   1.0000
     1.0000   0.9518   0.9331   0.9049   0.0161   0.0061   0.0035   0.0022
     0.0019   0.0005   0.0004   0.0001   0.0000   0.0000   0.0000   0.0000
     0.0000   0.0000   0.0000   0.0000   0.0000   0.0000   0.0000   0.0000
     0.0000   0.0000   0.0000   0.0000   0.0000   0.0000   0.0000   0.0000
     0.0000   0.0000   0.0000   0.0000   0.0000   0.0000   0.0000   0.0000
     0.0000   0.0000   0.0000   0.0000   0.0000   0.0000   0.0000   0.0000
     0.0000   0.0000   0.0000   0.0000   0.0000   0.0000   0.0000   0.0000
     0.0000   0.0000   0.0000   0.0000   0.0000   0.0000   0.0000   0.0000
     0.0000   0.0000   0.0000   0.0000   0.0000   0.0000   0.0000   0.0000
     0.0000   0.0000   0.0000   0.0000   0.0000   0.0000   0.0000   0.0000
     0.0000   0.0000   0.0000   0.0000   0.0000   0.0000   0.0000   0.0000
     0.0000   0.0000   0.0000   0.0000   0.0000   0.0000   0.0000   0.0000
     0.0000   0.0000   0.0000   0.0000   0.0000   0.0000   0.0000   0.0000
     0.0000   0.0000   0.0000   0.0000   0.0000   0.0000   0.0000   0.0000
     0.0000   0.0000   0.0000

          k =-0.3525-0.3535 0.3540 ( 64106 PWs)   bands (ev):

   -17.4360 -17.4252 -17.4247 -17.4237 -17.4177 -17.4151 -17.4065 -17.4033
   -17.4007 -17.3939 -17.3911 -17.3827 -17.3824 -17.3823 -17.3814 -17.3807
   -17.3803 -17.3780 -17.3777 -17.3763 -17.3748 -17.3738 -17.3706 -17.3677
   -17.3652 -17.3615 -17.3611 -17.3586 -17.3539 -17.3535 -17.3466 -17.3460
   -17.3422 -17.3372 -17.3369 -17.3343 -17.3340 -17.3292 -17.3284 -17.3263
   -17.3237 -17.3197 -17.3171 -17.3133 -17.3130 -17.3089 -17.3073 -17.3043
   -17.3024 -17.3001 -17.2987 -17.2930 -17.2912 -17.2884 -17.2862 -17.2840
   -17.2835 -17.2822 -17.2820 -17.2809 -17.2781 -17.2765 -17.2744 -17.2742
   -17.2690 -17.2670 -17.2632 -17.2610 -17.2586 -17.2568 -17.2563 -17.2534
   -17.2527 -17.2505 -17.2495 -17.2491 -17.2488 -17.2481 -17.2470 -17.2460
   -17.2448 -17.2428 -17.2414 -17.2385 -17.2376 -17.2366 -17.2362 -17.2356
   -17.2321 -17.2316 -17.2295 -17.2288 -17.2251 -17.2243 -17.2237 -17.2184
   -17.2177 -17.2155 -17.2121 -17.2116 -17.2114 -17.2094 -17.2086 -17.2077
   -17.2075 -17.2053 -17.2023 -17.2002 -17.1986 -17.1946 -17.1923 -17.1918
   -17.1914 -17.1912 -17.1895 -17.1890 -17.1879 -17.1860 -17.1857 -17.1844
   -17.1840 -17.1837 -17.1832 -17.1810 -17.1808 -17.1787 -17.1779 -17.1755
   -17.1750 -17.1733 -17.1724 -17.1717 -17.1713 -17.1701 -17.1686 -17.1669
   -17.1653 -17.1640 -17.1628 -17.1626 -17.1615 -17.1610 -17.1601 -17.1594
   -17.1581 -17.1571 -17.1569 -17.1562 -17.1551 -17.1547 -17.1538 -17.1533
   -17.1531 -17.1528 -17.1522 -17.1516 -17.1513 -17.1500 -17.1498 -17.1490
   -17.1477 -17.1469 -17.1464 -17.1455 -17.1451 -17.1437 -17.1426 -17.1418
   -17.1411 -17.1405 -17.1397 -17.1392 -17.1388 -17.1381 -17.1380 -17.1374
   -17.1362 -17.1358 -17.1354 -17.1349 -17.1340 -17.1337 -17.1335 -17.1322
   -17.1301 -17.1297 -17.1286 -17.1284 -17.1280 -17.1274 -17.1256 -17.1253
   -17.1249 -17.1242 -17.1235 -17.1232 -17.1227 -17.1215 -17.1203 -17.1199
   -17.1193 -17.1189 -17.1182 -17.1172 -17.1171 -17.1161 -17.1152 -17.1141
   -17.1139 -17.1133 -17.1132 -17.1129 -17.1128 -17.1124 -17.1122 -17.1116
   -17.1114 -17.1109 -17.1103 -17.1099 -17.1089 -17.1087 -17.1079 -17.1078
   -17.1073 -17.1056 -17.1053 -17.1043 -17.1033 -17.1030 -17.1023 -17.1013
   -17.1005 -17.0991 -17.0985 -17.0980 -17.0978 -17.0960 -17.0956 -17.0947
   -17.0945 -17.0939 -17.0927 -17.0911 -17.0894 -17.0884 -17.0873 -17.0869
   -17.0867 -17.0865 -17.0860 -17.0857 -17.0854 -17.0843 -17.0831 -17.0826
   -17.0817 -17.0798 -17.0795 -17.0787 -17.0760 -17.0734 -17.0714 -17.0713
   -17.0669 -17.0655 -17.0649 -17.0617 -17.0611 -17.0609 -17.0576 -17.0555
   -17.0544 -17.0519 -17.0500 -17.0480 -17.0472 -17.0447 -17.0423 -17.0408
   -17.0394 -17.0377 -17.0356 -17.0334 -17.0327 -17.0302 -17.0298 -17.0288
   -17.0260 -17.0256 -17.0251 -17.0223 -17.0211 -17.0203 -17.0193 -17.0172
   -17.0161 -17.0120 -17.0070 -17.0047  -5.0836  -5.0124  -4.6739  -4.6201
    -4.5499  -4.5134  -4.4753  -4.2709  -4.1811  -4.1477  -4.0595  -3.9696
    -3.9512  -3.8665  -3.6564  -3.6553  -3.5881  -3.5465  -3.5350  -3.4831
    -3.3764  -3.3554  -3.2808  -3.2277  -3.1518  -3.1443  -3.1077  -3.0541
    -3.0371  -2.9954  -2.9711  -2.9211  -2.9051  -2.8433  -2.7839  -2.7706
    -2.7429  -2.7156  -2.6945  -2.6431  -2.4691  -2.3881  -2.3832  -2.3003
    -2.2615  -2.1953  -2.0702  -2.0305  -2.0114  -1.9906  -1.9305  -1.9177
    -1.9065  -1.8415  -1.7912  -1.7839  -1.7178  -1.6784  -1.6645  -1.6208
    -1.5949  -1.5469  -1.5353  -1.4850  -0.4623  -0.4216  -0.4001  -0.3729
    -0.3444  -0.2981  -0.2457  -0.2268  -0.2081  -0.1781  -0.1521  -0.1455
    -0.0909  -0.0827  -0.0645  -0.0431  -0.0160   0.0099   0.0781   0.1011
     0.1381   0.1415   0.1777   0.2084   0.2455   0.2597   0.2897   0.3042
     0.3236   0.4125   0.7853   0.8407   0.8599   0.9045   0.9230   0.9592
     0.9840   1.0118   1.0344   1.0413   1.0589   1.0932   1.1384   1.1485
     1.6973   1.7360   1.8115   1.8258   1.9025   1.9425   2.1331   2.2159
     2.2509   2.2847   2.3094   2.3613   3.0637   3.0679   3.0756   3.0805
     3.0818   3.0895   3.0957   3.1007   3.1072   3.1093   3.1148   3.1230
     3.1289   3.1318   3.1401   3.1413   3.1583   3.1705   3.5367   3.5457
     3.5897   3.6177   3.6569   3.6853   3.6964   3.7087   3.7116   3.7178
     3.7272   3.7432   3.7521   3.7554   3.7602   3.7705   3.7770   3.7905
     3.7966   3.8037   3.8063   3.8154   3.8236   3.8330   4.1680   4.1743
     4.1758   4.1819   4.1875   4.1945   4.2022   4.2048   4.2089   4.2101
     4.2145   4.2231   4.4082   4.4163   4.4218   4.4333   4.4394   4.4454
     4.4505   4.4558   4.4619   4.4709   4.4875   4.4927   4.7219   4.7366
     4.7494   4.7601   4.7705   4.7845   4.7914   4.7976   4.8087   4.8141
     4.8295   4.8350   4.9059   4.9162   4.9278   4.9380   4.9525   4.9624
     5.1737   5.1789   5.1947   5.2012   5.2063   5.2110   5.2131   5.2247
     5.2285   5.2353   5.2400   5.2493   5.2510   5.2579   5.2596   5.2736
     5.2769   5.2913   5.3753   5.3947   5.5528   5.5668   5.5715   5.5904
     5.5975   5.6056   5.8190   5.8196   5.8347   5.8488   5.8509   5.8616
     5.8687   5.8823   5.8853   5.8970   5.9029   5.9156   6.0353   6.0551
     6.0815   6.1138   6.3599   6.3696   6.4000   6.4094   6.4273   6.4487
     6.9008   6.9350   6.9670   6.9755   7.9939   8.0299   8.0387   8.0592
     8.0715   8.0800   8.1776   8.2228   8.4133   8.4440   8.4599   8.4948
     8.5096   8.5246   8.8235   8.8454   8.8822   8.9202   8.9351   8.9714
     8.9752   8.9820   9.0012   9.0211   9.0387   9.0612   9.0775   9.1007
     9.1147   9.1315   9.1431   9.1543   9.1687   9.2011   9.2267   9.2334
     9.2455   9.2564   9.2705   9.3319   9.3399   9.3743   9.4043   9.4289
     9.4575   9.4810   9.4919   9.5082   9.5169   9.5294   9.5476   9.5584
     9.5656   9.5700   9.6104   9.6194   9.6465   9.6554   9.8827   9.8864
     9.8934   9.9032   9.9228   9.9278   9.9417   9.9546   9.9662   9.9853
     9.9884   9.9942  10.0257  10.0402  10.0511  10.0643  10.0999  10.1338
    10.1706  10.1983  10.2203  10.2221  10.3859  10.3953  10.4106  10.4254
    10.4320  10.4591  10.5672  10.5757  10.5883  10.6119  10.6280  10.6295
    10.6413  10.6533  10.6626  10.6781  10.6937  10.6991  10.7102  10.7260
    10.7388  10.7420  10.7437  10.7590  10.8036  10.8066  10.8192  10.8471
    10.8882  10.9046  10.9262

     occupation numbers 
     1.0000   1.0000   1.0000   1.0000   1.0000   1.0000   1.0000   1.0000
     1.0000   1.0000   1.0000   1.0000   1.0000   1.0000   1.0000   1.0000
     1.0000   1.0000   1.0000   1.0000   1.0000   1.0000   1.0000   1.0000
     1.0000   1.0000   1.0000   1.0000   1.0000   1.0000   1.0000   1.0000
     1.0000   1.0000   1.0000   1.0000   1.0000   1.0000   1.0000   1.0000
     1.0000   1.0000   1.0000   1.0000   1.0000   1.0000   1.0000   1.0000
     1.0000   1.0000   1.0000   1.0000   1.0000   1.0000   1.0000   1.0000
     1.0000   1.0000   1.0000   1.0000   1.0000   1.0000   1.0000   1.0000
     1.0000   1.0000   1.0000   1.0000   1.0000   1.0000   1.0000   1.0000
     1.0000   1.0000   1.0000   1.0000   1.0000   1.0000   1.0000   1.0000
     1.0000   1.0000   1.0000   1.0000   1.0000   1.0000   1.0000   1.0000
     1.0000   1.0000   1.0000   1.0000   1.0000   1.0000   1.0000   1.0000
     1.0000   1.0000   1.0000   1.0000   1.0000   1.0000   1.0000   1.0000
     1.0000   1.0000   1.0000   1.0000   1.0000   1.0000   1.0000   1.0000
     1.0000   1.0000   1.0000   1.0000   1.0000   1.0000   1.0000   1.0000
     1.0000   1.0000   1.0000   1.0000   1.0000   1.0000   1.0000   1.0000
     1.0000   1.0000   1.0000   1.0000   1.0000   1.0000   1.0000   1.0000
     1.0000   1.0000   1.0000   1.0000   1.0000   1.0000   1.0000   1.0000
     1.0000   1.0000   1.0000   1.0000   1.0000   1.0000   1.0000   1.0000
     1.0000   1.0000   1.0000   1.0000   1.0000   1.0000   1.0000   1.0000
     1.0000   1.0000   1.0000   1.0000   1.0000   1.0000   1.0000   1.0000
     1.0000   1.0000   1.0000   1.0000   1.0000   1.0000   1.0000   1.0000
     1.0000   1.0000   1.0000   1.0000   1.0000   1.0000   1.0000   1.0000
     1.0000   1.0000   1.0000   1.0000   1.0000   1.0000   1.0000   1.0000
     1.0000   1.0000   1.0000   1.0000   1.0000   1.0000   1.0000   1.0000
     1.0000   1.0000   1.0000   1.0000   1.0000   1.0000   1.0000   1.0000
     1.0000   1.0000   1.0000   1.0000   1.0000   1.0000   1.0000   1.0000
     1.0000   1.0000   1.0000   1.0000   1.0000   1.0000   1.0000   1.0000
     1.0000   1.0000   1.0000   1.0000   1.0000   1.0000   1.0000   1.0000
     1.0000   1.0000   1.0000   1.0000   1.0000   1.0000   1.0000   1.0000
     1.0000   1.0000   1.0000   1.0000   1.0000   1.0000   1.0000   1.0000
     1.0000   1.0000   1.0000   1.0000   1.0000   1.0000   1.0000   1.0000
     1.0000   1.0000   1.0000   1.0000   1.0000   1.0000   1.0000   1.0000
     1.0000   1.0000   1.0000   1.0000   1.0000   1.0000   1.0000   1.0000
     1.0000   1.0000   1.0000   1.0000   1.0000   1.0000   1.0000   1.0000
     1.0000   1.0000   1.0000   1.0000   1.0000   1.0000   1.0000   1.0000
     1.0000   1.0000   1.0000   1.0000   1.0000   1.0000   1.0000   1.0000
     1.0000   1.0000   1.0000   1.0000   1.0000   1.0000   1.0000   1.0000
     1.0000   1.0000   1.0000   1.0000   1.0000   1.0000   1.0000   1.0000
     1.0000   1.0000   1.0000   1.0000   1.0000   1.0000   1.0000   1.0000
     1.0000   1.0000   1.0000   1.0000   1.0000   1.0000   1.0000   1.0000
     1.0000   1.0000   1.0000   1.0000   1.0000   1.0000   1.0000   1.0000
     1.0000   1.0000   1.0000   1.0000   1.0000   1.0000   1.0000   1.0000
     1.0000   1.0000   1.0000   1.0000   1.0000   1.0000   1.0000   1.0000
     1.0000   1.0000   1.0000   1.0000   1.0000   1.0000   1.0000   1.0000
     1.0000   1.0000   1.0000   1.0000   1.0000   1.0000   1.0000   1.0000
     1.0000   1.0000   1.0000   1.0000   1.0000   1.0000   1.0000   1.0000
     1.0000   1.0000   1.0000   1.0000   1.0000   1.0000   1.0000   1.0000
     1.0000   1.0000   1.0000   1.0000   1.0000   1.0000   1.0000   1.0000
     1.0000   1.0000   1.0000   1.0000   1.0000   1.0000   1.0000   1.0000
     1.0000   1.0000   1.0000   1.0000   1.0000   1.0000   1.0000   1.0000
     1.0000   1.0000   1.0000   1.0000   1.0000   1.0000   1.0000   1.0000
     1.0000   1.0000   1.0000   1.0000   1.0000   1.0000   1.0000   1.0000
     1.0000   1.0000   1.0000   1.0000   1.0000   1.0000   1.0000   1.0000
     1.0000   1.0000   1.0000   1.0000   1.0000   1.0000   1.0000   1.0000
     1.0000   1.0000   1.0000   1.0000   1.0000   1.0000   1.0000   1.0000
     1.0000   1.0000   1.0000   1.0000   1.0000   1.0000   1.0000   1.0000
     1.0000   1.0000   1.0000   1.0000   1.0000   1.0000   1.0000   1.0000
     1.0000   1.0000   1.0000   1.0000   1.0000   1.0000   1.0000   1.0000
     1.0000   1.0000   1.0000   1.0000   1.0000   1.0000   1.0000   1.0000
     1.0000   1.0000   1.0000   1.0000   1.0000   1.0000   1.0000   1.0000
     1.0000   1.0000   1.0000   1.0000   1.0000   1.0000   1.0000   1.0000
     1.0000   1.0000   1.0000   1.0000   1.0000   1.0000   1.0000   1.0000
     1.0000   1.0000   1.0000   1.0000   1.0000   1.0000   1.0000   1.0000
     1.0000   1.0000   1.0000   1.0000   1.0000   1.0000   1.0000   1.0000
     1.0000   1.0000   1.0000   1.0000   1.0000   1.0000   1.0000   1.0000
     1.0000   1.0000   1.0000   1.0000   1.0000   1.0000   1.0000   1.0000
     1.0000   1.0000   1.0000   1.0000   1.0000   1.0000   1.0000   1.0000
     1.0000   1.0000   1.0000   1.0000   1.0000   1.0000   1.0000   1.0000
     1.0000   0.9999   0.9998   0.9997   0.0002   0.0001   0.0000   0.0000
     0.0000   0.0000   0.0000   0.0000   0.0000   0.0000   0.0000   0.0000
     0.0000   0.0000   0.0000   0.0000   0.0000   0.0000   0.0000   0.0000
     0.0000   0.0000   0.0000   0.0000   0.0000   0.0000   0.0000   0.0000
     0.0000   0.0000   0.0000   0.0000   0.0000   0.0000   0.0000   0.0000
     0.0000   0.0000   0.0000   0.0000   0.0000   0.0000   0.0000   0.0000
     0.0000   0.0000   0.0000   0.0000   0.0000   0.0000   0.0000   0.0000
     0.0000   0.0000   0.0000   0.0000   0.0000   0.0000   0.0000   0.0000
     0.0000   0.0000   0.0000   0.0000   0.0000   0.0000   0.0000   0.0000
     0.0000   0.0000   0.0000   0.0000   0.0000   0.0000   0.0000   0.0000
     0.0000   0.0000   0.0000   0.0000   0.0000   0.0000   0.0000   0.0000
     0.0000   0.0000   0.0000   0.0000   0.0000   0.0000   0.0000   0.0000
     0.0000   0.0000   0.0000   0.0000   0.0000   0.0000   0.0000   0.0000
     0.0000   0.0000   0.0000   0.0000   0.0000   0.0000   0.0000   0.0000
     0.0000   0.0000   0.0000

          k =-0.3539 0.3519-0.3529 ( 64126 PWs)   bands (ev):

   -17.4360 -17.4252 -17.4247 -17.4238 -17.4176 -17.4151 -17.4065 -17.4032
   -17.4006 -17.3939 -17.3911 -17.3827 -17.3825 -17.3823 -17.3814 -17.3807
   -17.3802 -17.3779 -17.3777 -17.3763 -17.3749 -17.3737 -17.3706 -17.3679
   -17.3651 -17.3615 -17.3611 -17.3585 -17.3539 -17.3535 -17.3466 -17.3460
   -17.3422 -17.3371 -17.3370 -17.3344 -17.3340 -17.3292 -17.3284 -17.3262
   -17.3238 -17.3198 -17.3171 -17.3131 -17.3131 -17.3090 -17.3073 -17.3042
   -17.3023 -17.3001 -17.2988 -17.2930 -17.2912 -17.2884 -17.2862 -17.2840
   -17.2835 -17.2823 -17.2820 -17.2809 -17.2781 -17.2765 -17.2745 -17.2742
   -17.2692 -17.2670 -17.2632 -17.2610 -17.2586 -17.2566 -17.2563 -17.2533
   -17.2527 -17.2505 -17.2495 -17.2492 -17.2487 -17.2480 -17.2471 -17.2461
   -17.2448 -17.2428 -17.2414 -17.2385 -17.2376 -17.2366 -17.2359 -17.2356
   -17.2321 -17.2316 -17.2294 -17.2288 -17.2250 -17.2244 -17.2237 -17.2184
   -17.2176 -17.2155 -17.2123 -17.2117 -17.2113 -17.2095 -17.2086 -17.2077
   -17.2074 -17.2055 -17.2023 -17.2002 -17.1987 -17.1946 -17.1924 -17.1920
   -17.1915 -17.1908 -17.1893 -17.1889 -17.1881 -17.1860 -17.1856 -17.1845
   -17.1841 -17.1837 -17.1831 -17.1810 -17.1806 -17.1787 -17.1779 -17.1754
   -17.1750 -17.1735 -17.1723 -17.1719 -17.1714 -17.1702 -17.1686 -17.1667
   -17.1653 -17.1640 -17.1628 -17.1625 -17.1615 -17.1611 -17.1600 -17.1594
   -17.1583 -17.1571 -17.1568 -17.1562 -17.1549 -17.1546 -17.1539 -17.1532
   -17.1532 -17.1528 -17.1520 -17.1515 -17.1513 -17.1500 -17.1498 -17.1492
   -17.1478 -17.1474 -17.1464 -17.1453 -17.1450 -17.1436 -17.1423 -17.1422
   -17.1412 -17.1401 -17.1396 -17.1393 -17.1389 -17.1383 -17.1379 -17.1373
   -17.1360 -17.1356 -17.1355 -17.1347 -17.1340 -17.1337 -17.1337 -17.1321
   -17.1302 -17.1297 -17.1285 -17.1284 -17.1278 -17.1274 -17.1257 -17.1254
   -17.1248 -17.1242 -17.1235 -17.1233 -17.1227 -17.1215 -17.1203 -17.1199
   -17.1193 -17.1190 -17.1182 -17.1172 -17.1171 -17.1161 -17.1152 -17.1143
   -17.1138 -17.1132 -17.1132 -17.1129 -17.1128 -17.1124 -17.1122 -17.1117
   -17.1113 -17.1108 -17.1103 -17.1099 -17.1090 -17.1086 -17.1079 -17.1078
   -17.1073 -17.1056 -17.1053 -17.1044 -17.1035 -17.1030 -17.1022 -17.1014
   -17.1006 -17.0993 -17.0983 -17.0979 -17.0978 -17.0962 -17.0957 -17.0948
   -17.0945 -17.0938 -17.0928 -17.0910 -17.0895 -17.0884 -17.0873 -17.0869
   -17.0867 -17.0865 -17.0860 -17.0857 -17.0854 -17.0843 -17.0831 -17.0827
   -17.0819 -17.0796 -17.0795 -17.0786 -17.0760 -17.0735 -17.0715 -17.0713
   -17.0669 -17.0652 -17.0649 -17.0617 -17.0611 -17.0610 -17.0576 -17.0555
   -17.0543 -17.0519 -17.0500 -17.0480 -17.0472 -17.0447 -17.0422 -17.0408
   -17.0394 -17.0377 -17.0356 -17.0333 -17.0329 -17.0302 -17.0298 -17.0288
   -17.0259 -17.0256 -17.0252 -17.0223 -17.0211 -17.0203 -17.0193 -17.0172
   -17.0160 -17.0120 -17.0071 -17.0047  -5.0954  -5.0013  -4.6486  -4.6188
    -4.5674  -4.5063  -4.4621  -4.3439  -4.1406  -4.1205  -4.0685  -4.0318
    -3.9317  -3.8538  -3.7046  -3.6189  -3.5975  -3.5596  -3.4997  -3.4779
    -3.3320  -3.2896  -3.2468  -3.2317  -3.1989  -3.1488  -3.1200  -3.0842
    -3.0609  -2.9958  -2.9673  -2.9208  -2.9144  -2.8577  -2.8503  -2.8051
    -2.7678  -2.7243  -2.6292  -2.5837  -2.4352  -2.3790  -2.3667  -2.3390
    -2.2231  -2.1891  -2.1169  -2.0633  -1.9844  -1.9642  -1.9385  -1.9130
    -1.8939  -1.8659  -1.7965  -1.7753  -1.7500  -1.7035  -1.6590  -1.6340
    -1.5844  -1.5308  -1.5186  -1.4654  -0.4476  -0.4324  -0.4041  -0.3583
    -0.3211  -0.2975  -0.2949  -0.2682  -0.2437  -0.2012  -0.1876  -0.1103
    -0.0951  -0.0699  -0.0367  -0.0042   0.0301   0.0402   0.0514   0.1019
     0.1475   0.1619   0.1890   0.2202   0.2264   0.2595   0.2680   0.3119
     0.3322   0.3529   0.7847   0.8056   0.8699   0.8768   0.9068   0.9349
     0.9754   1.0232   1.0316   1.0786   1.0876   1.1154   1.1600   1.1750
     1.7037   1.7260   1.7981   1.8237   1.8593   1.9398   2.1700   2.2283
     2.2578   2.2755   2.2972   2.3467   3.0689   3.0737   3.0780   3.0824
     3.0867   3.0882   3.0933   3.1031   3.1067   3.1117   3.1202   3.1222
     3.1248   3.1327   3.1431   3.1470   3.1556   3.1838   3.5627   3.5681
     3.6055   3.6307   3.6694   3.6898   3.6930   3.7008   3.7038   3.7116
     3.7156   3.7172   3.7366   3.7472   3.7592   3.7658   3.7746   3.7815
     3.7839   3.7994   3.8142   3.8261   3.8330   3.8379   4.1531   4.1603
     4.1733   4.1771   4.1868   4.1910   4.1952   4.2044   4.2081   4.2093
     4.2123   4.2177   4.4162   4.4219   4.4284   4.4353   4.4440   4.4480
     4.4575   4.4601   4.4624   4.4715   4.4769   4.4916   4.7348   4.7364
     4.7452   4.7512   4.7594   4.7659   4.7732   4.7791   4.7945   4.8026
     4.8179   4.8213   4.9147   4.9318   4.9429   4.9502   4.9546   4.9692
     5.1671   5.1833   5.1875   5.1968   5.2024   5.2100   5.2165   5.2246
     5.2291   5.2335   5.2390   5.2405   5.2468   5.2588   5.2658   5.2726
     5.2832   5.2871   5.3512   5.3864   5.5367   5.5774   5.5802   5.5966
     5.5983   5.6248   5.8054   5.8226   5.8334   5.8420   5.8534   5.8641
     5.8691   5.8774   5.8928   5.8982   5.9087   5.9145   6.0631   6.0675
     6.0841   6.1080   6.3670   6.3820   6.4051   6.4089   6.4416   6.4528
     6.9206   6.9320   6.9572   7.0045   7.9809   8.0379   8.0566   8.0763
     8.0874   8.1211   8.1955   8.2279   8.4287   8.4333   8.4565   8.4865
     8.5162   8.5316   8.8279   8.8662   8.8911   8.9079   8.9214   8.9588
     8.9729   8.9851   9.0066   9.0116   9.0408   9.0714   9.0741   9.1116
     9.1159   9.1377   9.1498   9.1662   9.1804   9.1981   9.2059   9.2228
     9.2512   9.2679   9.2857   9.2901   9.3519   9.3942   9.4110   9.4150
     9.4595   9.4679   9.4904   9.4994   9.5089   9.5179   9.5291   9.5469
     9.5610   9.5796   9.5864   9.5941   9.6232   9.6345   9.8400   9.8742
     9.8996   9.9101   9.9188   9.9226   9.9277   9.9421   9.9635   9.9674
     9.9879  10.0040  10.0135  10.0158  10.0424  10.0781  10.0946  10.1336
    10.1730  10.1917  10.2029  10.2466  10.3611  10.3701  10.3859  10.4022
    10.4130  10.4499  10.5257  10.5332  10.5833  10.5978  10.6101  10.6250
    10.6360  10.6527  10.6573  10.6701  10.6805  10.6982  10.7099  10.7160
    10.7278  10.7435  10.7593  10.7676  10.7725  10.7844  10.8223  10.8916
    10.9097  10.9193  10.9257

     occupation numbers 
     1.0000   1.0000   1.0000   1.0000   1.0000   1.0000   1.0000   1.0000
     1.0000   1.0000   1.0000   1.0000   1.0000   1.0000   1.0000   1.0000
     1.0000   1.0000   1.0000   1.0000   1.0000   1.0000   1.0000   1.0000
     1.0000   1.0000   1.0000   1.0000   1.0000   1.0000   1.0000   1.0000
     1.0000   1.0000   1.0000   1.0000   1.0000   1.0000   1.0000   1.0000
     1.0000   1.0000   1.0000   1.0000   1.0000   1.0000   1.0000   1.0000
     1.0000   1.0000   1.0000   1.0000   1.0000   1.0000   1.0000   1.0000
     1.0000   1.0000   1.0000   1.0000   1.0000   1.0000   1.0000   1.0000
     1.0000   1.0000   1.0000   1.0000   1.0000   1.0000   1.0000   1.0000
     1.0000   1.0000   1.0000   1.0000   1.0000   1.0000   1.0000   1.0000
     1.0000   1.0000   1.0000   1.0000   1.0000   1.0000   1.0000   1.0000
     1.0000   1.0000   1.0000   1.0000   1.0000   1.0000   1.0000   1.0000
     1.0000   1.0000   1.0000   1.0000   1.0000   1.0000   1.0000   1.0000
     1.0000   1.0000   1.0000   1.0000   1.0000   1.0000   1.0000   1.0000
     1.0000   1.0000   1.0000   1.0000   1.0000   1.0000   1.0000   1.0000
     1.0000   1.0000   1.0000   1.0000   1.0000   1.0000   1.0000   1.0000
     1.0000   1.0000   1.0000   1.0000   1.0000   1.0000   1.0000   1.0000
     1.0000   1.0000   1.0000   1.0000   1.0000   1.0000   1.0000   1.0000
     1.0000   1.0000   1.0000   1.0000   1.0000   1.0000   1.0000   1.0000
     1.0000   1.0000   1.0000   1.0000   1.0000   1.0000   1.0000   1.0000
     1.0000   1.0000   1.0000   1.0000   1.0000   1.0000   1.0000   1.0000
     1.0000   1.0000   1.0000   1.0000   1.0000   1.0000   1.0000   1.0000
     1.0000   1.0000   1.0000   1.0000   1.0000   1.0000   1.0000   1.0000
     1.0000   1.0000   1.0000   1.0000   1.0000   1.0000   1.0000   1.0000
     1.0000   1.0000   1.0000   1.0000   1.0000   1.0000   1.0000   1.0000
     1.0000   1.0000   1.0000   1.0000   1.0000   1.0000   1.0000   1.0000
     1.0000   1.0000   1.0000   1.0000   1.0000   1.0000   1.0000   1.0000
     1.0000   1.0000   1.0000   1.0000   1.0000   1.0000   1.0000   1.0000
     1.0000   1.0000   1.0000   1.0000   1.0000   1.0000   1.0000   1.0000
     1.0000   1.0000   1.0000   1.0000   1.0000   1.0000   1.0000   1.0000
     1.0000   1.0000   1.0000   1.0000   1.0000   1.0000   1.0000   1.0000
     1.0000   1.0000   1.0000   1.0000   1.0000   1.0000   1.0000   1.0000
     1.0000   1.0000   1.0000   1.0000   1.0000   1.0000   1.0000   1.0000
     1.0000   1.0000   1.0000   1.0000   1.0000   1.0000   1.0000   1.0000
     1.0000   1.0000   1.0000   1.0000   1.0000   1.0000   1.0000   1.0000
     1.0000   1.0000   1.0000   1.0000   1.0000   1.0000   1.0000   1.0000
     1.0000   1.0000   1.0000   1.0000   1.0000   1.0000   1.0000   1.0000
     1.0000   1.0000   1.0000   1.0000   1.0000   1.0000   1.0000   1.0000
     1.0000   1.0000   1.0000   1.0000   1.0000   1.0000   1.0000   1.0000
     1.0000   1.0000   1.0000   1.0000   1.0000   1.0000   1.0000   1.0000
     1.0000   1.0000   1.0000   1.0000   1.0000   1.0000   1.0000   1.0000
     1.0000   1.0000   1.0000   1.0000   1.0000   1.0000   1.0000   1.0000
     1.0000   1.0000   1.0000   1.0000   1.0000   1.0000   1.0000   1.0000
     1.0000   1.0000   1.0000   1.0000   1.0000   1.0000   1.0000   1.0000
     1.0000   1.0000   1.0000   1.0000   1.0000   1.0000   1.0000   1.0000
     1.0000   1.0000   1.0000   1.0000   1.0000   1.0000   1.0000   1.0000
     1.0000   1.0000   1.0000   1.0000   1.0000   1.0000   1.0000   1.0000
     1.0000   1.0000   1.0000   1.0000   1.0000   1.0000   1.0000   1.0000
     1.0000   1.0000   1.0000   1.0000   1.0000   1.0000   1.0000   1.0000
     1.0000   1.0000   1.0000   1.0000   1.0000   1.0000   1.0000   1.0000
     1.0000   1.0000   1.0000   1.0000   1.0000   1.0000   1.0000   1.0000
     1.0000   1.0000   1.0000   1.0000   1.0000   1.0000   1.0000   1.0000
     1.0000   1.0000   1.0000   1.0000   1.0000   1.0000   1.0000   1.0000
     1.0000   1.0000   1.0000   1.0000   1.0000   1.0000   1.0000   1.0000
     1.0000   1.0000   1.0000   1.0000   1.0000   1.0000   1.0000   1.0000
     1.0000   1.0000   1.0000   1.0000   1.0000   1.0000   1.0000   1.0000
     1.0000   1.0000   1.0000   1.0000   1.0000   1.0000   1.0000   1.0000
     1.0000   1.0000   1.0000   1.0000   1.0000   1.0000   1.0000   1.0000
     1.0000   1.0000   1.0000   1.0000   1.0000   1.0000   1.0000   1.0000
     1.0000   1.0000   1.0000   1.0000   1.0000   1.0000   1.0000   1.0000
     1.0000   1.0000   1.0000   1.0000   1.0000   1.0000   1.0000   1.0000
     1.0000   1.0000   1.0000   1.0000   1.0000   1.0000   1.0000   1.0000
     1.0000   1.0000   1.0000   1.0000   1.0000   1.0000   1.0000   1.0000
     1.0000   1.0000   1.0000   1.0000   1.0000   1.0000   1.0000   1.0000
     1.0000   1.0000   1.0000   1.0000   1.0000   1.0000   1.0000   1.0000
     1.0000   1.0000   1.0000   1.0000   1.0000   1.0000   1.0000   1.0000
     1.0000   1.0000   1.0000   1.0000   1.0000   1.0000   1.0000   1.0000
     1.0000   1.0000   1.0000   1.0000   1.0000   1.0000   1.0000   1.0000
     1.0000   1.0000   1.0000   1.0000   1.0000   1.0000   1.0000   1.0000
     0.9999   0.9999   0.9998   0.9995   0.0002   0.0001   0.0000   0.0000
     0.0000   0.0000   0.0000   0.0000   0.0000   0.0000   0.0000   0.0000
     0.0000   0.0000   0.0000   0.0000   0.0000   0.0000   0.0000   0.0000
     0.0000   0.0000   0.0000   0.0000   0.0000   0.0000   0.0000   0.0000
     0.0000   0.0000   0.0000   0.0000   0.0000   0.0000   0.0000   0.0000
     0.0000   0.0000   0.0000   0.0000   0.0000   0.0000   0.0000   0.0000
     0.0000   0.0000   0.0000   0.0000   0.0000   0.0000   0.0000   0.0000
     0.0000   0.0000   0.0000   0.0000   0.0000   0.0000   0.0000   0.0000
     0.0000   0.0000   0.0000   0.0000   0.0000   0.0000   0.0000   0.0000
     0.0000   0.0000   0.0000   0.0000   0.0000   0.0000   0.0000   0.0000
     0.0000   0.0000   0.0000   0.0000   0.0000   0.0000   0.0000   0.0000
     0.0000   0.0000   0.0000   0.0000   0.0000   0.0000   0.0000   0.0000
     0.0000   0.0000   0.0000   0.0000   0.0000   0.0000   0.0000   0.0000
     0.0000   0.0000   0.0000   0.0000   0.0000   0.0000   0.0000   0.0000
     0.0000   0.0000   0.0000

          k =-0.7064-0.0016 0.0011 ( 64154 PWs)   bands (ev):

   -17.4360 -17.4252 -17.4247 -17.4238 -17.4177 -17.4151 -17.4065 -17.4033
   -17.4007 -17.3939 -17.3911 -17.3829 -17.3824 -17.3822 -17.3813 -17.3807
   -17.3804 -17.3781 -17.3774 -17.3764 -17.3749 -17.3734 -17.3706 -17.3677
   -17.3658 -17.3618 -17.3611 -17.3594 -17.3536 -17.3516 -17.3466 -17.3453
   -17.3423 -17.3394 -17.3370 -17.3343 -17.3334 -17.3292 -17.3284 -17.3262
   -17.3231 -17.3197 -17.3171 -17.3134 -17.3130 -17.3090 -17.3076 -17.3045
   -17.3026 -17.3001 -17.2988 -17.2930 -17.2900 -17.2885 -17.2863 -17.2851
   -17.2836 -17.2823 -17.2819 -17.2810 -17.2781 -17.2764 -17.2744 -17.2735
   -17.2690 -17.2669 -17.2632 -17.2609 -17.2586 -17.2571 -17.2564 -17.2540
   -17.2530 -17.2501 -17.2495 -17.2491 -17.2486 -17.2480 -17.2469 -17.2461
   -17.2448 -17.2429 -17.2414 -17.2382 -17.2376 -17.2363 -17.2357 -17.2352
   -17.2321 -17.2315 -17.2305 -17.2287 -17.2265 -17.2250 -17.2237 -17.2184
   -17.2166 -17.2149 -17.2121 -17.2116 -17.2111 -17.2090 -17.2087 -17.2078
   -17.2076 -17.2051 -17.2022 -17.2012 -17.1986 -17.1947 -17.1923 -17.1918
   -17.1916 -17.1913 -17.1893 -17.1889 -17.1879 -17.1863 -17.1857 -17.1844
   -17.1840 -17.1839 -17.1830 -17.1811 -17.1807 -17.1787 -17.1779 -17.1754
   -17.1751 -17.1734 -17.1723 -17.1718 -17.1714 -17.1701 -17.1685 -17.1664
   -17.1654 -17.1641 -17.1631 -17.1626 -17.1615 -17.1610 -17.1601 -17.1592
   -17.1582 -17.1577 -17.1568 -17.1558 -17.1551 -17.1549 -17.1538 -17.1532
   -17.1532 -17.1529 -17.1519 -17.1516 -17.1513 -17.1501 -17.1498 -17.1488
   -17.1477 -17.1468 -17.1467 -17.1456 -17.1452 -17.1437 -17.1424 -17.1423
   -17.1411 -17.1403 -17.1397 -17.1392 -17.1391 -17.1383 -17.1380 -17.1374
   -17.1363 -17.1356 -17.1354 -17.1346 -17.1338 -17.1336 -17.1334 -17.1322
   -17.1303 -17.1298 -17.1286 -17.1283 -17.1277 -17.1274 -17.1261 -17.1255
   -17.1249 -17.1242 -17.1233 -17.1231 -17.1227 -17.1220 -17.1203 -17.1199
   -17.1194 -17.1191 -17.1182 -17.1173 -17.1170 -17.1169 -17.1154 -17.1138
   -17.1136 -17.1132 -17.1131 -17.1131 -17.1129 -17.1125 -17.1123 -17.1115
   -17.1109 -17.1106 -17.1100 -17.1091 -17.1086 -17.1080 -17.1079 -17.1079
   -17.1077 -17.1056 -17.1045 -17.1042 -17.1036 -17.1031 -17.1028 -17.1016
   -17.1014 -17.1002 -17.0983 -17.0978 -17.0978 -17.0963 -17.0948 -17.0947
   -17.0945 -17.0933 -17.0928 -17.0919 -17.0896 -17.0882 -17.0873 -17.0872
   -17.0868 -17.0866 -17.0860 -17.0854 -17.0849 -17.0843 -17.0831 -17.0827
   -17.0817 -17.0796 -17.0795 -17.0786 -17.0760 -17.0730 -17.0717 -17.0713
   -17.0670 -17.0656 -17.0649 -17.0619 -17.0612 -17.0610 -17.0567 -17.0552
   -17.0545 -17.0519 -17.0499 -17.0493 -17.0472 -17.0445 -17.0424 -17.0409
   -17.0394 -17.0377 -17.0363 -17.0334 -17.0327 -17.0299 -17.0293 -17.0288
   -17.0257 -17.0252 -17.0248 -17.0223 -17.0216 -17.0212 -17.0191 -17.0173
   -17.0161 -17.0120 -17.0065 -17.0053  -5.0218  -4.9624  -4.8583  -4.6878
    -4.6804  -4.5844  -4.1632  -4.0914  -4.0761  -4.0252  -4.0149  -3.9695
    -3.8956  -3.8485  -3.7995  -3.7497  -3.7020  -3.6676  -3.6285  -3.5751
    -3.5207  -3.4728  -3.2325  -3.2153  -3.1820  -3.1531  -3.1440  -3.0116
    -2.9779  -2.9508  -2.8803  -2.8676  -2.8014  -2.7841  -2.7203  -2.6764
    -2.6455  -2.6018  -2.5827  -2.5048  -2.4704  -2.4650  -2.4126  -2.3505
    -2.3229  -2.3160  -2.2514  -2.1937  -2.1381  -2.1057  -2.0907  -2.0662
    -2.0176  -1.9938  -1.9350  -1.8898  -1.6195  -1.5161  -1.4364  -1.4106
    -1.2423  -1.0951  -1.0584  -1.0176  -0.9885  -0.9124  -0.8892  -0.8685
    -0.5710  -0.5103  -0.4644  -0.3914  -0.1125  -0.1020  -0.0728  -0.0370
    -0.0108   0.0488   0.0617   0.0711   0.0929   0.1452   0.1634   0.2035
     0.2359   0.2690   0.2902   0.3318   0.4470   0.4542   0.4849   0.5047
     0.5480   0.5613   0.6140   0.6495   0.6619   0.7026   0.7622   0.7676
     0.8101   0.8587   0.8931   0.9715   1.0287   1.0622   1.4138   1.5343
     1.5635   1.5854   1.6436   1.6732   1.7067   1.7180   2.3400   2.4004
     2.4515   2.5006   2.5433   2.5506   2.5872   2.6336   2.8707   2.8735
     2.8761   2.8820   2.9230   2.9331   2.9354   2.9390   2.9410   2.9539
     2.9575   2.9644   3.5866   3.5939   3.6098   3.6151   3.6225   3.6357
     3.6399   3.6599   3.7124   3.7194   3.7232   3.7301   3.7325   3.7344
     3.7371   3.7417   3.7606   3.7767   3.7807   3.7817   3.7860   3.7903
     3.7954   3.7997   4.1004   4.1749   4.1823   4.2364   4.3582   4.3764
     4.3794   4.3850   4.3904   4.3970   4.4027   4.4061   4.4129   4.4206
     4.4244   4.4278   4.4356   4.4425   4.4546   4.4609   4.5075   4.5096
     4.5255   4.5308   4.5362   4.5470   4.5535   4.5609   4.5661   4.5756
     4.5806   4.5850   4.5905   4.5968   4.6059   4.6075   4.6200   4.6277
[...]
     atom   77 type  2   force =   0.00000000E+00  0.00000000E+00  0.00000000E+00
     atom   78 type  2   force =   0.00000000E+00  0.00000000E+00  0.00000000E+00
     atom   79 type  1   force =   0.00000000E+00  0.00000000E+00  0.00000000E+00
     atom   80 type  1   force =   0.00000000E+00  0.00000000E+00  0.00000000E+00
     atom   81 type  1   force =   0.00000000E+00  0.00000000E+00  0.00000000E+00
     atom   82 type  2   force =   0.00000000E+00  0.00000000E+00  0.00000000E+00
     atom   83 type  1   force =   0.00000000E+00  0.00000000E+00  0.00000000E+00
     atom   84 type  1   force =   0.00000000E+00  0.00000000E+00  0.00000000E+00
     atom   85 type  1   force =   0.00000000E+00  0.00000000E+00  0.00000000E+00
     atom   86 type  1   force =   0.00000000E+00  0.00000000E+00  0.00000000E+00
     atom   87 type  1   force =   0.00000000E+00  0.00000000E+00  0.00000000E+00
     atom   88 type  1   force =   0.00000000E+00  0.00000000E+00  0.00000000E+00
     atom   89 type  1   force =   0.00000000E+00  0.00000000E+00  0.00000000E+00
     atom   90 type  1   force =   0.00000000E+00  0.00000000E+00  0.00000000E+00
     atom   91 type  1   force =   0.00000000E+00  0.00000000E+00  0.00000000E+00
     atom   92 type  2   force =   0.00000000E+00  0.00000000E+00  0.00000000E+00
     atom   93 type  2   force =   0.00000000E+00  0.00000000E+00  0.00000000E+00
     atom   94 type  2   force =   0.00000000E+00  0.00000000E+00  0.00000000E+00
     atom   95 type  1   force =   0.00000000E+00  0.00000000E+00  0.00000000E+00
     atom   96 type  1   force =   0.00000000E+00  0.00000000E+00  0.00000000E+00
     atom   97 type  2   force =   0.00000000E+00  0.00000000E+00  0.00000000E+00
     atom   98 type  1   force =   0.00000000E+00  0.00000000E+00  0.00000000E+00
     atom   99 type  2   force =   0.00000000E+00  0.00000000E+00  0.00000000E+00
     atom  100 type  1   force =   0.00000000E+00  0.00000000E+00  0.00000000E+00
     atom  101 type  1   force =   0.00000000E+00  0.00000000E+00  0.00000000E+00
     atom  102 type  2   force =   0.00000000E+00  0.00000000E+00  0.00000000E+00
     atom  103 type  1   force =   0.00000000E+00  0.00000000E+00  0.00000000E+00
     atom  104 type  2   force =   0.00000000E+00  0.00000000E+00  0.00000000E+00
     atom  105 type  2   force =   0.00000000E+00  0.00000000E+00  0.00000000E+00
     atom  106 type  1   force =   0.00000000E+00  0.00000000E+00  0.00000000E+00
     atom  107 type  2   force =   0.00000000E+00  0.00000000E+00  0.00000000E+00
     atom  108 type  1   force =   0.00000000E+00  0.00000000E+00  0.00000000E+00
     atom  109 type  1   force =   0.00000000E+00  0.00000000E+00  0.00000000E+00
     atom  110 type  2   force =   0.00000000E+00  0.00000000E+00  0.00000000E+00
     atom  111 type  2   force =   0.00000000E+00  0.00000000E+00  0.00000000E+00
     atom  112 type  1   force =   0.00000000E+00  0.00000000E+00  0.00000000E+00
     atom  113 type  1   force =   0.00000000E+00  0.00000000E+00  0.00000000E+00
     atom  114 type  1   force =   0.00000000E+00  0.00000000E+00  0.00000000E+00
     atom  115 type  2   force =   0.00000000E+00  0.00000000E+00  0.00000000E+00
     atom  116 type  2   force =   0.00000000E+00  0.00000000E+00  0.00000000E+00
     atom  117 type  2   force =   0.00000000E+00  0.00000000E+00  0.00000000E+00
     atom  118 type  1   force =   0.00000000E+00  0.00000000E+00  0.00000000E+00
     atom  119 type  2   force =   0.00000000E+00  0.00000000E+00  0.00000000E+00
     atom  120 type  2   force =   0.00000000E+00  0.00000000E+00  0.00000000E+00
     atom  121 type  1   force =   0.00000000E+00  0.00000000E+00  0.00000000E+00
     atom  122 type  2   force =   0.00000000E+00  0.00000000E+00  0.00000000E+00
     atom  123 type  1   force =   0.00000000E+00  0.00000000E+00  0.00000000E+00
     atom  124 type  1   force =   0.00000000E+00  0.00000000E+00  0.00000000E+00
     atom  125 type  1   force =   0.00000000E+00  0.00000000E+00  0.00000000E+00
     atom  126 type  1   force =   0.00000000E+00  0.00000000E+00  0.00000000E+00
     atom  127 type  1   force =   0.00000000E+00  0.00000000E+00  0.00000000E+00
     atom  128 type  1   force =   0.00000000E+00  0.00000000E+00  0.00000000E+00
     The SCF correction term to forces
     atom    1 type  1   force =   0.78433161E-06 -0.15436598E-06 -0.39756623E-06
     atom    2 type  1   force =   0.14718414E-07  0.13821633E-05  0.80123972E-06
     atom    3 type  1   force =   0.80665840E-06  0.17900280E-05  0.34091183E-06
     atom    4 type  1   force =   0.51903626E-07  0.37514611E-05 -0.95937846E-07
     atom    5 type  2   force =   0.44488426E-05  0.60508129E-05  0.84778952E-05
     atom    6 type  2   force =  -0.99344921E-05 -0.43017289E-05  0.45407712E-05
     atom    7 type  1   force =  -0.20612730E-05 -0.27156221E-05  0.18683413E-05
     atom    8 type  1   force =  -0.13961025E-05 -0.13792570E-05  0.11302248E-06
     atom    9 type  1   force =   0.94341172E-06 -0.91727233E-06 -0.30815372E-06
     atom   10 type  2   force =  -0.90784629E-05  0.55466614E-05  0.60012288E-06
     atom   11 type  1   force =  -0.68091624E-06  0.21076691E-05 -0.16872499E-05
     atom   12 type  1   force =  -0.97123775E-06  0.33637886E-05 -0.30567599E-05
     atom   13 type  2   force =  -0.34232988E-05  0.55795643E-05 -0.13653949E-04
     atom   14 type  1   force =  -0.13090310E-05 -0.35115755E-06 -0.14611319E-05
     atom   15 type  1   force =   0.22516857E-07 -0.19793055E-05  0.23635695E-06
     atom   16 type  1   force =   0.84879848E-06 -0.35648119E-06  0.11861251E-05
     atom   17 type  1   force =  -0.29307894E-05 -0.43585845E-06 -0.75239155E-06
     atom   18 type  2   force =  -0.44681290E-05 -0.17545335E-05  0.36526723E-05
     atom   19 type  2   force =  -0.35575823E-05  0.51505042E-05 -0.76753766E-05
     atom   20 type  2   force =   0.46521445E-05  0.95536492E-05 -0.27129520E-06
     atom   21 type  2   force =   0.52397535E-05  0.10757647E-04 -0.60270215E-05
     atom   22 type  2   force =  -0.31347880E-06  0.80083605E-05 -0.61058767E-06
     atom   23 type  2   force =   0.55025298E-06 -0.38787042E-05 -0.22037299E-05
     atom   24 type  2   force =  -0.13002938E-04 -0.21944084E-05 -0.33704509E-05
     atom   25 type  2   force =   0.47560497E-05 -0.39455766E-05  0.68901018E-05
     atom   26 type  2   force =  -0.44838979E-05  0.43593658E-05  0.98872151E-05
     atom   27 type  1   force =   0.15074220E-05  0.34872902E-06  0.24050395E-05
     atom   28 type  1   force =  -0.12057251E-06  0.27575385E-05  0.29662801E-05
     atom   29 type  1   force =  -0.77210177E-06  0.13166954E-05  0.25009339E-05
     atom   30 type  1   force =  -0.77228950E-06 -0.51812057E-06  0.45581155E-05
     atom   31 type  1   force =  -0.17146334E-05 -0.51309540E-06  0.26751205E-05
     atom   32 type  1   force =  -0.46991010E-06 -0.12858818E-05  0.28479340E-05
     atom   33 type  1   force =  -0.99430097E-07  0.28047513E-05 -0.12520218E-05
     atom   34 type  2   force =   0.85054178E-05 -0.84189565E-06 -0.77791486E-05
     atom   35 type  1   force =  -0.21721595E-06  0.18869978E-05 -0.18410371E-05
     atom   36 type  2   force =  -0.44922931E-06  0.49623057E-05 -0.12277830E-04
     atom   37 type  1   force =  -0.97833218E-06 -0.77862514E-06 -0.15473615E-05
     atom   38 type  2   force =  -0.14393425E-04 -0.35340400E-05 -0.62439408E-06
     atom   39 type  1   force =  -0.19891182E-05 -0.73141007E-06  0.63052075E-06
     atom   40 type  2   force =   0.31455814E-05  0.18370090E-05 -0.61490643E-06
     atom   41 type  2   force =  -0.22211943E-05  0.46404123E-05 -0.19864270E-05
     atom   42 type  2   force =  -0.51899447E-05 -0.12937885E-05 -0.79745064E-05
     atom   43 type  2   force =  -0.62292715E-05  0.43834609E-05 -0.59981093E-05
     atom   44 type  1   force =  -0.49461864E-06  0.15836727E-05 -0.52561358E-06
     atom   45 type  2   force =  -0.21283699E-05  0.33320784E-05 -0.36312632E-05
     atom   46 type  2   force =  -0.13893058E-05  0.28011963E-06  0.38769911E-05
     atom   47 type  1   force =   0.32993861E-06 -0.65876826E-06  0.77741672E-06
     atom   48 type  2   force =   0.58403165E-05 -0.13602512E-05 -0.60936528E-05
     atom   49 type  1   force =  -0.14271636E-05  0.11165615E-05 -0.37707406E-06
     atom   50 type  2   force =   0.50734995E-05 -0.25044945E-05  0.69241155E-05
     atom   51 type  1   force =   0.87390489E-07  0.28799928E-05  0.13879308E-05
     atom   52 type  2   force =   0.10435560E-04  0.13087424E-05  0.95412618E-05
     atom   53 type  1   force =   0.84215495E-08 -0.34798998E-06  0.64286887E-06
     atom   54 type  2   force =   0.40352635E-05 -0.10364764E-04  0.16160060E-05
     atom   55 type  2   force =  -0.48272189E-05 -0.45438029E-05 -0.43422205E-05
     atom   56 type  2   force =  -0.19781985E-05 -0.69619217E-05 -0.10246075E-05
     atom   57 type  2   force =   0.11192868E-04  0.65894459E-05  0.12223536E-04
     atom   58 type  2   force =   0.63939008E-05  0.30273297E-05 -0.67960228E-05
     atom   59 type  2   force =   0.14357384E-05  0.40349698E-05  0.13549223E-04
     atom   60 type  2   force =   0.52841546E-05 -0.63816728E-05 -0.62002888E-05
     atom   61 type  1   force =   0.35721745E-06 -0.19770042E-05  0.30236693E-05
     atom   62 type  1   force =  -0.10501481E-06 -0.31990361E-05  0.19826684E-05
     atom   63 type  2   force =  -0.43371887E-05 -0.11105453E-04  0.12724794E-04
     atom   64 type  1   force =   0.77059780E-06 -0.49665739E-06  0.36534484E-06
     atom   65 type  1   force =   0.23568083E-05 -0.16829884E-06 -0.19930976E-05
     atom   66 type  1   force =   0.15098921E-05  0.13655411E-05 -0.77093667E-06
     atom   67 type  1   force =   0.11712093E-05  0.41450834E-06 -0.19191788E-05
     atom   68 type  2   force =   0.52067765E-05  0.17735467E-05 -0.80698233E-05
     atom   69 type  2   force =   0.23529780E-05 -0.19005794E-05 -0.11306040E-05
     atom   70 type  2   force =  -0.48841604E-05 -0.10946538E-04  0.73674781E-06
     atom   71 type  2   force =  -0.66455376E-05 -0.87680690E-05  0.21268963E-05
     atom   72 type  2   force =  -0.21141469E-05 -0.14554860E-05  0.12751940E-05
     atom   73 type  2   force =   0.41361221E-05  0.19815185E-05 -0.43228048E-05
     atom   74 type  1   force =  -0.31081242E-06  0.21664195E-05  0.22167100E-06
     atom   75 type  1   force =   0.25524084E-06  0.12990388E-05 -0.57363103E-07
     atom   76 type  2   force =   0.95489099E-06  0.38434214E-05 -0.11078063E-05
     atom   77 type  2   force =  -0.76018673E-05 -0.22202988E-05 -0.17879370E-05
     atom   78 type  2   force =  -0.10391297E-04 -0.11527819E-05  0.29076541E-06
     atom   79 type  1   force =   0.24359897E-07 -0.77401170E-06  0.39418419E-06
     atom   80 type  1   force =  -0.16329368E-05  0.11255910E-05  0.71514886E-06
     atom   81 type  1   force =   0.40539545E-06  0.17485582E-05 -0.15158784E-06
     atom   82 type  2   force =   0.38152835E-05  0.47137081E-05  0.44000555E-06
     atom   83 type  1   force =   0.38152399E-06 -0.48806840E-06 -0.16210109E-05
     atom   84 type  1   force =   0.10927845E-05 -0.19464875E-05 -0.19388553E-05
     atom   85 type  1   force =   0.49925637E-06 -0.10276421E-05 -0.42413128E-06
     atom   86 type  1   force =   0.31670859E-06 -0.12691411E-05  0.13205235E-05
     atom   87 type  1   force =  -0.12118689E-05 -0.48720246E-06  0.66690924E-06
     atom   88 type  1   force =  -0.75085072E-06  0.11154751E-05  0.12002554E-05
     atom   89 type  1   force =   0.23231182E-05 -0.15617349E-05 -0.25679571E-05
     atom   90 type  1   force =   0.20072092E-05 -0.14670504E-05 -0.29596664E-05
     atom   91 type  1   force =   0.37714478E-05 -0.18940280E-05 -0.19470014E-05
     atom   92 type  2   force =   0.10619633E-04 -0.17176028E-05 -0.58336082E-05
     atom   93 type  2   force =   0.73106760E-05 -0.11634126E-04  0.18896063E-05
     atom   94 type  2   force =   0.21114357E-05 -0.16218175E-04  0.49951530E-06
     atom   95 type  1   force =   0.48376624E-06 -0.19035985E-05  0.80593489E-06
     atom   96 type  1   force =   0.10735865E-05 -0.60785372E-06 -0.12540844E-05
     atom   97 type  2   force =   0.21631674E-05 -0.62225334E-06  0.49126523E-05
     atom   98 type  1   force =   0.13625564E-05 -0.12771682E-05  0.47967987E-06
     atom   99 type  2   force =   0.50350732E-05 -0.58839605E-05  0.12732666E-05
     atom  100 type  1   force =   0.17556987E-05 -0.26244398E-06  0.42206106E-06
     atom  101 type  1   force =   0.12455835E-05 -0.12783473E-05  0.15094946E-05
     atom  102 type  2   force =  -0.58233603E-05  0.19041295E-05  0.11874572E-04
     atom  103 type  1   force =  -0.46462842E-06 -0.81480862E-06  0.34792317E-05
     atom  104 type  2   force =   0.31420906E-05 -0.36618859E-05  0.85044010E-05
     atom  105 type  2   force =   0.15802748E-05  0.28475985E-05  0.37729615E-05
     atom  106 type  1   force =  -0.21543728E-06 -0.68706386E-06 -0.83459280E-06
     atom  107 type  2   force =  -0.14349287E-06 -0.45990868E-05 -0.19814945E-05
     atom  108 type  1   force =  -0.83206531E-06  0.14726385E-05 -0.28976142E-05
     atom  109 type  1   force =  -0.70893713E-06  0.19479448E-05  0.37377299E-06
     atom  110 type  2   force =  -0.47326526E-05  0.82053721E-05 -0.26996742E-05
     atom  111 type  2   force =  -0.89910438E-05  0.12757660E-05  0.91640286E-05
     atom  112 type  1   force =   0.11233436E-06 -0.36116146E-06 -0.40628985E-06
     atom  113 type  1   force =  -0.26802400E-05  0.22441854E-07 -0.12891869E-05
     atom  114 type  1   force =  -0.25462313E-05 -0.59661062E-06 -0.16161808E-05
     atom  115 type  2   force =  -0.15395472E-05  0.25282547E-05 -0.79011551E-05
     atom  116 type  2   force =   0.11084946E-04  0.39797204E-06 -0.63457703E-05
     atom  117 type  2   force =  -0.26018203E-05  0.95141244E-05 -0.72790788E-05
     atom  118 type  1   force =   0.30575774E-07  0.11668222E-05 -0.16714583E-05
     atom  119 type  2   force =  -0.32857589E-05  0.98132963E-05  0.41003334E-05
     atom  120 type  2   force =  -0.98869546E-05  0.74902144E-05 -0.50729917E-05
     atom  121 type  1   force =   0.98138994E-06 -0.25111835E-06 -0.34041643E-06
     atom  122 type  2   force =   0.97192261E-05  0.40398944E-06  0.64655167E-05
     atom  123 type  1   force =   0.26579766E-05 -0.15956060E-05 -0.63641227E-06
     atom  124 type  1   force =   0.12807807E-05 -0.15387946E-05 -0.47377053E-06
     atom  125 type  1   force =   0.51529297E-06 -0.11176003E-05 -0.13499220E-05
     atom  126 type  1   force =   0.14871027E-06 -0.73973581E-06  0.14424614E-05
     atom  127 type  1   force =  -0.12512202E-05  0.13055778E-06 -0.11905307E-05
     atom  128 type  1   force =  -0.29736479E-06 -0.12482561E-05  0.17517589E-05

     Total force =     0.242660     Total SCF correction =     0.000085


     entering subroutine stress ...

          total   stress  (Ry/bohr**3)                   (kbar)     P=   -0.58
  -0.0000050790  -0.0000068695  -0.0000114526         -0.75     -1.01     -1.68
  -0.0000068695  -0.0000074581   0.0000042100         -1.01     -1.10      0.62
  -0.0000114526   0.0000042100   0.0000006069         -1.68      0.62      0.09

     kinetic stress (kbar)   6138.26      1.75      0.11
                                1.75   6137.96      1.17
                                0.11      1.17   6139.42

     local   stress (kbar)  -6187.48  -2598.52     17.21
                            -2598.52  -5410.40    508.64
                               17.21    508.64  -4565.74

     nonloc. stress (kbar)   2453.72     -1.10     -1.15
                               -1.10   2453.83     -0.14
                               -1.15     -0.14   2453.36

     hartree stress (kbar)  16783.18   1290.33     -5.44
                             1290.33  16403.90   -254.79
                               -5.44   -254.79  15986.72

     exc-cor stress (kbar)  10313.58     -0.05     -0.03
                               -0.05  10313.58     -0.01
                               -0.03     -0.01  10313.56

     corecor stress (kbar) -15685.12      0.08      0.09
                                0.08 -15685.14     -0.01
                                0.09     -0.01 -15685.10

     ewald   stress (kbar) -13816.89   1306.50    -12.48
                             1306.50 -14214.83   -254.24
                              -12.48   -254.24 -14642.14

     hubbard stress (kbar)      0.00      0.00      0.00
                                0.00      0.00      0.00
                                0.00      0.00      0.00

     london  stress (kbar)      0.00      0.00      0.00
                                0.00      0.00      0.00
                                0.00      0.00      0.00

     XDM     stress (kbar)      0.00      0.00      0.00
                                0.00      0.00      0.00
                                0.00      0.00      0.00

     dft-nl  stress (kbar)      0.00      0.00      0.00
                                0.00      0.00      0.00
                                0.00      0.00      0.00



     Writing output data file SiGe_zns.scf.in.super.444.b.088.save

     init_run     :   1926.87s CPU   1566.85s WALL (       1 calls)
     electrons    :  85184.24s CPU  69622.53s WALL (       1 calls)
     forces       :   1686.34s CPU   1292.97s WALL (       1 calls)
     stress       :   5285.69s CPU   5189.03s WALL (       1 calls)

     Called by init_run:
     wfcinit      :   1777.60s CPU   1417.38s WALL (       1 calls)
     potinit      :      9.18s CPU      9.20s WALL (       1 calls)

     Called by electrons:
     c_bands      :  73361.08s CPU  59023.50s WALL (      16 calls)
     sum_band     :   9716.84s CPU   8438.54s WALL (      16 calls)
     v_of_rho     :     19.98s CPU     20.02s WALL (      16 calls)
     v_h          :      1.28s CPU      1.30s WALL (      16 calls)
     v_xc         :     20.91s CPU     20.97s WALL (      18 calls)
     newd         :   2166.62s CPU   2219.15s WALL (      16 calls)
     mix_rho      :     38.25s CPU     39.73s WALL (      16 calls)

     Called by c_bands:
     init_us_2    :     97.47s CPU    102.44s WALL (     280 calls)
     cegterg      :  72681.41s CPU  58303.57s WALL (     128 calls)

     Called by sum_band:
     sum_band:bec :     19.09s CPU     19.75s WALL (     128 calls)
     addusdens    :   1314.51s CPU   1374.91s WALL (      16 calls)

     Called by *egterg:
     h_psi        :  35392.46s CPU  29049.14s WALL (     473 calls)
     s_psi        :   9172.43s CPU   5744.62s WALL (     473 calls)
     g_psi        :     15.46s CPU     20.94s WALL (     337 calls)
     cdiaghg      :  12034.58s CPU  12547.97s WALL (     457 calls)
     cegterg:over :   7794.78s CPU   5369.78s WALL (     337 calls)
     cegterg:upda :   3916.04s CPU   2537.04s WALL (     337 calls)
     cegterg:last :   2507.14s CPU   1564.16s WALL (     128 calls)

     Called by h_psi:
     h_psi:vloc   :  15816.85s CPU  16565.17s WALL (     473 calls)
     h_psi:vnl    :  19546.52s CPU  12452.72s WALL (     473 calls)
     add_vuspsi   :   9142.08s CPU   5673.81s WALL (     473 calls)

     General routines
     calbec       :  16509.70s CPU  11164.93s WALL (     617 calls)
     fft          :    268.84s CPU    275.21s WALL (     281 calls)
     ffts         :     22.47s CPU     23.28s WALL (     460 calls)
     fftw         :  17581.54s CPU  18404.99s WALL (  498052 calls)
     interpolate  :      5.22s CPU      5.31s WALL (      32 calls)

     Parallel routines
     fft_scatter  :  11535.34s CPU  12081.48s WALL (  498793 calls)

     PWSCF        :     1d    2h 8m CPU        0d   21h35m WALL


   This run was terminated on:   9:57:21   3Nov2017            

=------------------------------------------------------------------------------=
   JOB DONE.
=------------------------------------------------------------------------------=
