
     Program PWSCF v.5.1 starts on 16Aug2017 at 18:50: 7 

     This program is part of the open-source Quantum ESPRESSO suite
     for quantum simulation of materials; please cite
         "P. Giannozzi et al., J. Phys.:Condens. Matter 21 395502 (2009);
          URL http://www.quantum-espresso.org", 
     in publications or presentations arising from this work. More details at
     http://www.quantum-espresso.org/quote

     Parallel version (MPI), running on     8 processors
     R & G space division:  proc/nbgrp/npool/nimage =       8
     Reading input from /tmp/mno_afm.in.222.04.17476/mno_afm.in.222.04.t
Warning: card &IONS ignored
Warning: card   ION_DYNAMICS='BFGS', ignored
Warning: card / ignored
Warning: card &CELL ignored
Warning: card  CELL_DYNAMICS = 'BFGS' ignored
Warning: card / ignored

     Current dimensions of program PWSCF are:
     Max number of different atomic species (ntypx) = 10
     Max number of k-points (npk) =  40000
     Max angular momentum in pseudopotentials (lmaxx) =  3
 kfg - two_fermi_energies  F

     Subspace diagonalization in iterative solution of the eigenvalue problem:
     a serial algorithm will be used


     Parallelization info
     --------------------
     sticks:   dense  smooth     PW     G-vecs:    dense   smooth      PW
     Min         242     200     57                 7129     5289     816
     Max         243     201     58                 7131     5300     818
     Sum        1943    1605    459                57043    42351    6537

     Generating pointlists ...
     new r_m :   0.1417 (alat units)  1.6739 (a.u.) for type    1
     new r_m :   0.1428 (alat units)  1.6870 (a.u.) for type    2
     new r_m :   0.1417 (alat units)  1.6739 (a.u.) for type    3


     bravais-lattice index     =            0
     lattice parameter (alat)  =    11.809860670  a.u.
     unit-cell volume          =    1194.2399 (a.u.)^3
     number of atoms/cell      =           16
     number of atomic types    =            3
     number of electrons       =       168.00
     number of Kohn-Sham states=          101
     kinetic-energy cutoff     =      41.0000  Ry
     charge density cutoff     =     200.0000  Ry
     convergence threshold     =      1.0E-08
     mixing beta               =       0.3000
     number of iterations used =            8  local-TF  mixing
     Exchange-correlation      = SLA  PW   PSX  PSC ( 1  4 10  8 0)
     A smooth kinetic-energy cutoff is imposed at      40.0000 Ry
     height of the smooth step-function =             800.0000 Ry
     width of the smooth step-function  =               1.0000 Ry


     celldm(1)=  11.809861  celldm(2)=   0.000000  celldm(3)=   0.000000
     celldm(4)=   0.000000  celldm(5)=   0.000000  celldm(6)=   0.000000

     crystal axes: (cart. coord. in units of alat)
               a(1) = (  -0.012055939014   0.707055391866   0.707055391866 )  
               a(2) = (   0.707055391866  -0.012055939014   0.707055391866 )  
               a(3) = (   0.707055391866   0.707055391866  -0.012055939014 )  

     reciprocal axes: (cart. coord. in units 2 pi/alat)
               b(1) = ( -0.689324  0.701281  0.701281 )  
               b(2) = (  0.701281 -0.689324  0.701281 )  
               b(3) = (  0.701281  0.701281 -0.689324 )  


     PseudoPot. # 1 for Mn read from file:
     /users/kfg/psuedo/gbrv_1.5/mn.pbesol.UPF
     MD5 check sum: 0716d5f563e6e95a34f9080f4c78c109
     Pseudo is Ultrasoft + core correction, Zval = 15.0
     Generated by new atomic code, or converted to UPF format
     Using radial grid of  859 points,  6 beta functions with: 
                l(1) =   0
                l(2) =   0
                l(3) =   1
                l(4) =   1
                l(5) =   2
                l(6) =   2
     Q(r) pseudized with  8 coefficients,  rinner =    0.950   0.950   0.950
                                                       0.950   0.950

     PseudoPot. # 2 for Mn read from file:
     /users/kfg/psuedo/gbrv_1.5/mn.pbesol.UPF
     MD5 check sum: 0716d5f563e6e95a34f9080f4c78c109
     Pseudo is Ultrasoft + core correction, Zval = 15.0
     Generated by new atomic code, or converted to UPF format
     Using radial grid of  859 points,  6 beta functions with: 
                l(1) =   0
                l(2) =   0
                l(3) =   1
                l(4) =   1
                l(5) =   2
                l(6) =   2
     Q(r) pseudized with  8 coefficients,  rinner =    0.950   0.950   0.950
                                                       0.950   0.950

     PseudoPot. # 3 for O  read from file:
     /users/kfg/psuedo/gbrv_1.5/o.pbesol.UPF
     MD5 check sum: 501638753501ef6325af9037351f7734
     Pseudo is Ultrasoft + core correction, Zval =  6.0
     Generated by new atomic code, or converted to UPF format
     Using radial grid of  737 points,  5 beta functions with: 
                l(1) =   0
                l(2) =   0
                l(3) =   1
                l(4) =   1
                l(5) =   2
     Q(r) pseudized with  8 coefficients,  rinner =    0.900   0.900   0.900
                                                       0.900   0.900

     atomic species   valence    mass     pseudopotential
        Mn            15.00    54.90000     Mn( 1.00)
        Fe            15.00    54.90000     Mn( 1.00)
        O              6.00    15.99900     O ( 1.00)

     Starting magnetic structure 
     atomic species   magnetization
        Mn           1.000
        Fe          -1.000
        O            0.000


     Simplified LDA+U calculation (l_max = 2) with parameters (eV):
     atomic species    L          U    alpha       J0     beta
        Mn             2     3.0000   0.0000   0.0000   0.0000
        Fe             2     3.0000   0.0000   0.0000   0.0000



     No symmetry found



   Cartesian axes

     site n.     atom                  positions (alat units)
         1           Mn  tau(   1) = (    0.00341164901   -0.00807222849    0.00733039455  )
         2           O   tau(   2) = (    0.35215982438    0.35381833510    0.35378136830  )
         3           Fe  tau(   3) = (    0.70089605869    0.69634735461    0.70781401643  )
         4           O   tau(   4) = (    1.05020034334    1.04601433053    1.04389584213  )
         5           Mn  tau(   5) = (    1.04933638543    1.05741610919    0.68786235200  )
         6           O   tau(   6) = (    0.69180589620    0.69260395024    1.05526601036  )
         7           Fe  tau(   7) = (    0.34814877148    0.34773976824   -0.01311596050  )
         8           O   tau(   8) = (    0.70459892135    0.70570532518    0.34732978021  )
         9           Mn  tau(   9) = (    0.34904372801    0.71133248567    0.35471060577  )
        10           O   tau(  10) = (    0.70196000055    1.05005234435    0.70073751167  )
        11           Fe  tau(  11) = (    0.34824279762    0.00183601804    0.35895033920  )
        12           O   tau(  12) = (    0.70688236155    0.34553739013    0.69904133290  )
        13           Mn  tau(  13) = (    0.68909834955    1.04654529715    1.05919181083  )
        14           O   tau(  14) = (    1.06279201297    0.69583822554    0.70221331974  )
        15           Fe  tau(  15) = (    0.70074944521    1.06322210579    0.33823191370  )
        16           O   tau(  16) = (    0.35034754727    0.70881367699    0.69830518854  )

     number of k points=    72  gaussian smearing, width (Ry)=  0.0100
                       cart. coord. in units 2pi/alat
        k(    1) = (   0.0000000   0.0000000   0.0000000), wk =   0.0156250
        k(    2) = (   0.1753203   0.1753203  -0.1723310), wk =   0.0312500
        k(    3) = (  -0.3506407  -0.3506407   0.3446619), wk =   0.0156250
        k(    4) = (   0.3506407   0.0029894   0.0029894), wk =   0.0312500
        k(    5) = (  -0.1753203  -0.5229717   0.5199823), wk =   0.0312500
        k(    6) = (   0.0000000  -0.3476513   0.3476513), wk =   0.0312500
        k(    7) = (  -0.7012814  -0.0059787  -0.0059787), wk =   0.0156250
        k(    8) = (   0.1783097   0.1783097   0.1783097), wk =   0.0312500
        k(    9) = (  -0.3476513  -0.3476513   0.6953026), wk =   0.0312500
        k(   10) = (  -0.1723310  -0.1723310   0.5229717), wk =   0.0312500
        k(   11) = (  -0.8736123   0.1693416   0.1693416), wk =   0.0312500
        k(   12) = (  -0.6982920   0.3446619  -0.0029894), wk =   0.0312500
        k(   13) = (  -0.3566194  -0.3566194  -0.3566194), wk =   0.0156250
        k(   14) = (   0.1723310  -0.1753203  -0.1753203), wk =   0.0312500
        k(   15) = (  -0.1753203   0.1723310  -0.1753203), wk =   0.0312500
        k(   16) = (  -0.3446619   0.3506407   0.3506407), wk =   0.0156250
        k(   17) = (   0.3506407  -0.3446619   0.3506407), wk =   0.0156250
        k(   18) = (  -0.0029894  -0.3506407  -0.0029894), wk =   0.0312500
        k(   19) = (  -0.0029894  -0.0029894  -0.3506407), wk =   0.0312500
        k(   20) = (   0.5229717   0.1753203  -0.5199823), wk =   0.0312500
        k(   21) = (  -0.5199823   0.5229717   0.1753203), wk =   0.0312500
        k(   22) = (   0.1753203  -0.5199823   0.5229717), wk =   0.0312500
        k(   23) = (  -0.5229717   0.5199823  -0.1753203), wk =   0.0312500
        k(   24) = (   0.5199823  -0.1753203  -0.5229717), wk =   0.0312500
        k(   25) = (   0.3476513   0.0000000  -0.3476513), wk =   0.0312500
        k(   26) = (  -0.3476513   0.3476513   0.0000000), wk =   0.0312500
        k(   27) = (   0.0059787   0.7012814   0.0059787), wk =   0.0156250
        k(   28) = (   0.0059787   0.0059787   0.7012814), wk =   0.0156250
        k(   29) = (  -0.6953026   0.3476513   0.3476513), wk =   0.0312500
        k(   30) = (   0.3476513  -0.6953026   0.3476513), wk =   0.0312500
        k(   31) = (  -0.5229717   0.1723310   0.1723310), wk =   0.0312500
        k(   32) = (   0.1723310  -0.5229717   0.1723310), wk =   0.0312500
        k(   33) = (  -0.1693416   0.8736123  -0.1693416), wk =   0.0312500
        k(   34) = (  -0.1693416  -0.1693416   0.8736123), wk =   0.0312500
        k(   35) = (  -0.3446619   0.6982920   0.0029894), wk =   0.0312500
        k(   36) = (   0.6982920   0.0029894  -0.3446619), wk =   0.0312500
        k(   37) = (   0.0000000   0.0000000   0.0000000), wk =   0.0156250
        k(   38) = (   0.1753203   0.1753203  -0.1723310), wk =   0.0312500
        k(   39) = (  -0.3506407  -0.3506407   0.3446619), wk =   0.0156250
        k(   40) = (   0.3506407   0.0029894   0.0029894), wk =   0.0312500
        k(   41) = (  -0.1753203  -0.5229717   0.5199823), wk =   0.0312500
        k(   42) = (   0.0000000  -0.3476513   0.3476513), wk =   0.0312500
        k(   43) = (  -0.7012814  -0.0059787  -0.0059787), wk =   0.0156250
        k(   44) = (   0.1783097   0.1783097   0.1783097), wk =   0.0312500
        k(   45) = (  -0.3476513  -0.3476513   0.6953026), wk =   0.0312500
        k(   46) = (  -0.1723310  -0.1723310   0.5229717), wk =   0.0312500
        k(   47) = (  -0.8736123   0.1693416   0.1693416), wk =   0.0312500
        k(   48) = (  -0.6982920   0.3446619  -0.0029894), wk =   0.0312500
        k(   49) = (  -0.3566194  -0.3566194  -0.3566194), wk =   0.0156250
        k(   50) = (   0.1723310  -0.1753203  -0.1753203), wk =   0.0312500
        k(   51) = (  -0.1753203   0.1723310  -0.1753203), wk =   0.0312500
        k(   52) = (  -0.3446619   0.3506407   0.3506407), wk =   0.0156250
        k(   53) = (   0.3506407  -0.3446619   0.3506407), wk =   0.0156250
        k(   54) = (  -0.0029894  -0.3506407  -0.0029894), wk =   0.0312500
        k(   55) = (  -0.0029894  -0.0029894  -0.3506407), wk =   0.0312500
        k(   56) = (   0.5229717   0.1753203  -0.5199823), wk =   0.0312500
        k(   57) = (  -0.5199823   0.5229717   0.1753203), wk =   0.0312500
        k(   58) = (   0.1753203  -0.5199823   0.5229717), wk =   0.0312500
        k(   59) = (  -0.5229717   0.5199823  -0.1753203), wk =   0.0312500
        k(   60) = (   0.5199823  -0.1753203  -0.5229717), wk =   0.0312500
        k(   61) = (   0.3476513   0.0000000  -0.3476513), wk =   0.0312500
        k(   62) = (  -0.3476513   0.3476513   0.0000000), wk =   0.0312500
        k(   63) = (   0.0059787   0.7012814   0.0059787), wk =   0.0156250
        k(   64) = (   0.0059787   0.0059787   0.7012814), wk =   0.0156250
        k(   65) = (  -0.6953026   0.3476513   0.3476513), wk =   0.0312500
        k(   66) = (   0.3476513  -0.6953026   0.3476513), wk =   0.0312500
        k(   67) = (  -0.5229717   0.1723310   0.1723310), wk =   0.0312500
        k(   68) = (   0.1723310  -0.5229717   0.1723310), wk =   0.0312500
        k(   69) = (  -0.1693416   0.8736123  -0.1693416), wk =   0.0312500
        k(   70) = (  -0.1693416  -0.1693416   0.8736123), wk =   0.0312500
        k(   71) = (  -0.3446619   0.6982920   0.0029894), wk =   0.0312500
        k(   72) = (   0.6982920   0.0029894  -0.3446619), wk =   0.0312500

     Dense  grid:    57043 G-vectors     FFT dimensions: (  54,  54,  54)

     Smooth grid:    42351 G-vectors     FFT dimensions: (  50,  50,  50)

     Largest allocated arrays     est. size (Mb)     dimensions
        Kohn-Sham Wavefunctions         1.04 Mb     (     675,  101)
        Atomic Hubbard wavefuncts       0.41 Mb     (     675,   40)
        NL pseudopotentials             2.55 Mb     (     675,  248)
        Each V/rho on FFT grid          0.62 Mb     (   20412,   2)
        Each G-vector array             0.05 Mb     (    7131)
        G-vector shells                 0.02 Mb     (    3247)
     Largest temporary arrays     est. size (Mb)     dimensions
        Auxiliary wavefunctions         4.16 Mb     (     675,  404)
        Each subspace H/S matrix        2.49 Mb     (     404,  404)
        Each <psi_i|beta_j> matrix      0.38 Mb     (     248,  101)
        Arrays for rho mixing           2.49 Mb     (   20412,    8)

     Check: negative/imaginary core charge=   -0.000061    0.000000

     Initial potential from superposition of free atoms

     starting charge  163.99935, renormalised to  168.00000
     Number of +U iterations with fixed ns =  0
     Starting occupations:
 --- enter write_ns ---
 LDA+U parameters:
U( 1)     =  3.00000000
alpha( 1) =  0.00000000
U( 2)     =  3.00000000
alpha( 2) =  0.00000000
atom    1   Tr[ns(na)] (up, down, total) =   5.00000  0.00000  5.00000
   spin  1
    eigenvalues: 
  1.000  1.000  1.000  1.000  1.000
    eigenvectors:
  1.000  0.000  0.000  0.000  0.000
  0.000  1.000  0.000  0.000  0.000
  0.000  0.000  1.000  0.000  0.000
  0.000  0.000  0.000  1.000  0.000
  0.000  0.000  0.000  0.000  1.000
    occupations:
  1.000  0.000  0.000  0.000  0.000
  0.000  1.000  0.000  0.000  0.000
  0.000  0.000  1.000  0.000  0.000
  0.000  0.000  0.000  1.000  0.000
  0.000  0.000  0.000  0.000  1.000
   spin  2
    eigenvalues: 
  0.000  0.000  0.000  0.000  0.000
    eigenvectors:
  1.000  0.000  0.000  0.000  0.000
  0.000  1.000  0.000  0.000  0.000
  0.000  0.000  1.000  0.000  0.000
  0.000  0.000  0.000  1.000  0.000
  0.000  0.000  0.000  0.000  1.000
    occupations:
  0.000  0.000  0.000  0.000  0.000
  0.000  0.000  0.000  0.000  0.000
  0.000  0.000  0.000  0.000  0.000
  0.000  0.000  0.000  0.000  0.000
  0.000  0.000  0.000  0.000  0.000
atomic mag. moment =     5.000000
atom    3   Tr[ns(na)] (up, down, total) =   0.00000  5.00000  5.00000
   spin  1
    eigenvalues: 
  0.000  0.000  0.000  0.000  0.000
    eigenvectors:
  1.000  0.000  0.000  0.000  0.000
  0.000  1.000  0.000  0.000  0.000
  0.000  0.000  1.000  0.000  0.000
  0.000  0.000  0.000  1.000  0.000
  0.000  0.000  0.000  0.000  1.000
    occupations:
  0.000  0.000  0.000  0.000  0.000
  0.000  0.000  0.000  0.000  0.000
  0.000  0.000  0.000  0.000  0.000
  0.000  0.000  0.000  0.000  0.000
  0.000  0.000  0.000  0.000  0.000
   spin  2
    eigenvalues: 
  1.000  1.000  1.000  1.000  1.000
    eigenvectors:
  1.000  0.000  0.000  0.000  0.000
  0.000  1.000  0.000  0.000  0.000
  0.000  0.000  1.000  0.000  0.000
  0.000  0.000  0.000  1.000  0.000
  0.000  0.000  0.000  0.000  1.000
    occupations:
  1.000  0.000  0.000  0.000  0.000
  0.000  1.000  0.000  0.000  0.000
  0.000  0.000  1.000  0.000  0.000
  0.000  0.000  0.000  1.000  0.000
  0.000  0.000  0.000  0.000  1.000
atomic mag. moment =    -5.000000
atom    5   Tr[ns(na)] (up, down, total) =   5.00000  0.00000  5.00000
   spin  1
    eigenvalues: 
  1.000  1.000  1.000  1.000  1.000
    eigenvectors:
  1.000  0.000  0.000  0.000  0.000
  0.000  1.000  0.000  0.000  0.000
  0.000  0.000  1.000  0.000  0.000
  0.000  0.000  0.000  1.000  0.000
  0.000  0.000  0.000  0.000  1.000
    occupations:
  1.000  0.000  0.000  0.000  0.000
  0.000  1.000  0.000  0.000  0.000
  0.000  0.000  1.000  0.000  0.000
  0.000  0.000  0.000  1.000  0.000
  0.000  0.000  0.000  0.000  1.000
   spin  2
    eigenvalues: 
  0.000  0.000  0.000  0.000  0.000
    eigenvectors:
  1.000  0.000  0.000  0.000  0.000
  0.000  1.000  0.000  0.000  0.000
  0.000  0.000  1.000  0.000  0.000
  0.000  0.000  0.000  1.000  0.000
  0.000  0.000  0.000  0.000  1.000
    occupations:
  0.000  0.000  0.000  0.000  0.000
  0.000  0.000  0.000  0.000  0.000
  0.000  0.000  0.000  0.000  0.000
  0.000  0.000  0.000  0.000  0.000
  0.000  0.000  0.000  0.000  0.000
atomic mag. moment =     5.000000
atom    7   Tr[ns(na)] (up, down, total) =   0.00000  5.00000  5.00000
   spin  1
    eigenvalues: 
  0.000  0.000  0.000  0.000  0.000
    eigenvectors:
  1.000  0.000  0.000  0.000  0.000
  0.000  1.000  0.000  0.000  0.000
  0.000  0.000  1.000  0.000  0.000
  0.000  0.000  0.000  1.000  0.000
  0.000  0.000  0.000  0.000  1.000
    occupations:
  0.000  0.000  0.000  0.000  0.000
  0.000  0.000  0.000  0.000  0.000
  0.000  0.000  0.000  0.000  0.000
  0.000  0.000  0.000  0.000  0.000
  0.000  0.000  0.000  0.000  0.000
   spin  2
    eigenvalues: 
  1.000  1.000  1.000  1.000  1.000
    eigenvectors:
  1.000  0.000  0.000  0.000  0.000
  0.000  1.000  0.000  0.000  0.000
  0.000  0.000  1.000  0.000  0.000
  0.000  0.000  0.000  1.000  0.000
  0.000  0.000  0.000  0.000  1.000
    occupations:
  1.000  0.000  0.000  0.000  0.000
  0.000  1.000  0.000  0.000  0.000
  0.000  0.000  1.000  0.000  0.000
  0.000  0.000  0.000  1.000  0.000
  0.000  0.000  0.000  0.000  1.000
atomic mag. moment =    -5.000000
atom    9   Tr[ns(na)] (up, down, total) =   5.00000  0.00000  5.00000
   spin  1
    eigenvalues: 
  1.000  1.000  1.000  1.000  1.000
    eigenvectors:
  1.000  0.000  0.000  0.000  0.000
  0.000  1.000  0.000  0.000  0.000
  0.000  0.000  1.000  0.000  0.000
  0.000  0.000  0.000  1.000  0.000
  0.000  0.000  0.000  0.000  1.000
    occupations:
  1.000  0.000  0.000  0.000  0.000
  0.000  1.000  0.000  0.000  0.000
  0.000  0.000  1.000  0.000  0.000
  0.000  0.000  0.000  1.000  0.000
  0.000  0.000  0.000  0.000  1.000
   spin  2
    eigenvalues: 
  0.000  0.000  0.000  0.000  0.000
    eigenvectors:
  1.000  0.000  0.000  0.000  0.000
  0.000  1.000  0.000  0.000  0.000
  0.000  0.000  1.000  0.000  0.000
  0.000  0.000  0.000  1.000  0.000
  0.000  0.000  0.000  0.000  1.000
    occupations:
  0.000  0.000  0.000  0.000  0.000
  0.000  0.000  0.000  0.000  0.000
  0.000  0.000  0.000  0.000  0.000
  0.000  0.000  0.000  0.000  0.000
  0.000  0.000  0.000  0.000  0.000
atomic mag. moment =     5.000000
atom   11   Tr[ns(na)] (up, down, total) =   0.00000  5.00000  5.00000
   spin  1
    eigenvalues: 
  0.000  0.000  0.000  0.000  0.000
    eigenvectors:
  1.000  0.000  0.000  0.000  0.000
  0.000  1.000  0.000  0.000  0.000
  0.000  0.000  1.000  0.000  0.000
  0.000  0.000  0.000  1.000  0.000
  0.000  0.000  0.000  0.000  1.000
    occupations:
  0.000  0.000  0.000  0.000  0.000
  0.000  0.000  0.000  0.000  0.000
  0.000  0.000  0.000  0.000  0.000
  0.000  0.000  0.000  0.000  0.000
  0.000  0.000  0.000  0.000  0.000
   spin  2
    eigenvalues: 
  1.000  1.000  1.000  1.000  1.000
    eigenvectors:
  1.000  0.000  0.000  0.000  0.000
  0.000  1.000  0.000  0.000  0.000
  0.000  0.000  1.000  0.000  0.000
  0.000  0.000  0.000  1.000  0.000
  0.000  0.000  0.000  0.000  1.000
    occupations:
  1.000  0.000  0.000  0.000  0.000
  0.000  1.000  0.000  0.000  0.000
  0.000  0.000  1.000  0.000  0.000
  0.000  0.000  0.000  1.000  0.000
  0.000  0.000  0.000  0.000  1.000
atomic mag. moment =    -5.000000
atom   13   Tr[ns(na)] (up, down, total) =   5.00000  0.00000  5.00000
   spin  1
    eigenvalues: 
  1.000  1.000  1.000  1.000  1.000
    eigenvectors:
  1.000  0.000  0.000  0.000  0.000
  0.000  1.000  0.000  0.000  0.000
  0.000  0.000  1.000  0.000  0.000
  0.000  0.000  0.000  1.000  0.000
  0.000  0.000  0.000  0.000  1.000
    occupations:
  1.000  0.000  0.000  0.000  0.000
  0.000  1.000  0.000  0.000  0.000
  0.000  0.000  1.000  0.000  0.000
  0.000  0.000  0.000  1.000  0.000
  0.000  0.000  0.000  0.000  1.000
   spin  2
    eigenvalues: 
  0.000  0.000  0.000  0.000  0.000
    eigenvectors:
  1.000  0.000  0.000  0.000  0.000
  0.000  1.000  0.000  0.000  0.000
  0.000  0.000  1.000  0.000  0.000
  0.000  0.000  0.000  1.000  0.000
  0.000  0.000  0.000  0.000  1.000
    occupations:
  0.000  0.000  0.000  0.000  0.000
  0.000  0.000  0.000  0.000  0.000
  0.000  0.000  0.000  0.000  0.000
  0.000  0.000  0.000  0.000  0.000
  0.000  0.000  0.000  0.000  0.000
atomic mag. moment =     5.000000
atom   15   Tr[ns(na)] (up, down, total) =   0.00000  5.00000  5.00000
   spin  1
    eigenvalues: 
  0.000  0.000  0.000  0.000  0.000
    eigenvectors:
  1.000  0.000  0.000  0.000  0.000
  0.000  1.000  0.000  0.000  0.000
  0.000  0.000  1.000  0.000  0.000
  0.000  0.000  0.000  1.000  0.000
  0.000  0.000  0.000  0.000  1.000
    occupations:
  0.000  0.000  0.000  0.000  0.000
  0.000  0.000  0.000  0.000  0.000
  0.000  0.000  0.000  0.000  0.000
  0.000  0.000  0.000  0.000  0.000
  0.000  0.000  0.000  0.000  0.000
   spin  2
    eigenvalues: 
  1.000  1.000  1.000  1.000  1.000
    eigenvectors:
  1.000  0.000  0.000  0.000  0.000
  0.000  1.000  0.000  0.000  0.000
  0.000  0.000  1.000  0.000  0.000
  0.000  0.000  0.000  1.000  0.000
  0.000  0.000  0.000  0.000  1.000
    occupations:
  1.000  0.000  0.000  0.000  0.000
  0.000  1.000  0.000  0.000  0.000
  0.000  0.000  1.000  0.000  0.000
  0.000  0.000  0.000  1.000  0.000
  0.000  0.000  0.000  0.000  1.000
atomic mag. moment =    -5.000000
N of occupied +U levels =   40.000000
 --- exit write_ns ---
 Atomic wfc used for LDA+U Projector are NOT orthogonalized
     Starting wfc are  136 randomized atomic wfcs

     total cpu time spent up to now is       59.5 secs

     per-process dynamical memory:   133.8 Mb

     Self-consistent Calculation

     iteration #  1     ecut=    41.00 Ry     beta=0.30
     Davidson diagonalization with overlap
     ethr =  1.00E-02,  avg # of iterations =  4.5
 --- enter write_ns ---
 LDA+U parameters:
U( 1)     =  3.00000000
alpha( 1) =  0.00000000
U( 2)     =  3.00000000
alpha( 2) =  0.00000000
atom    1   Tr[ns(na)] (up, down, total) =   4.99434  0.20059  5.19493
   spin  1
    eigenvalues: 
  0.998  0.998  0.998  1.000  1.000
    eigenvectors:
  0.001  0.003  0.004  0.653  0.338
  0.289  0.303  0.400  0.006  0.002
  0.643  0.011  0.345  0.000  0.001
  0.000  0.003  0.002  0.339  0.656
  0.067  0.680  0.249  0.002  0.002
    occupations:
  1.000 -0.000 -0.000  0.000 -0.000
 -0.000  0.998  0.000  0.000 -0.000
 -0.000  0.000  0.998 -0.000 -0.000
  0.000  0.000 -0.000  1.000  0.000
 -0.000 -0.000 -0.000  0.000  0.998
   spin  2
    eigenvalues: 
  0.024  0.024  0.025  0.063  0.065
    eigenvectors:
  0.001  0.000  0.000  0.469  0.530
  0.008  0.176  0.816  0.000  0.000
  0.856  0.090  0.053  0.000  0.000
  0.000  0.000  0.000  0.531  0.469
  0.135  0.734  0.131  0.000  0.000
    occupations:
  0.064 -0.001 -0.001 -0.001 -0.001
 -0.001  0.025  0.000  0.000 -0.000
 -0.001  0.000  0.024  0.000 -0.000
 -0.001  0.000  0.000  0.064  0.000
 -0.001 -0.000 -0.000  0.000  0.024
atomic mag. moment =     4.793743
atom    3   Tr[ns(na)] (up, down, total) =   0.21492  4.99391  5.20883
   spin  1
    eigenvalues: 
  0.026  0.026  0.026  0.067  0.070
    eigenvectors:
  0.000  0.000  0.000  0.424  0.575
  0.908  0.066  0.025  0.001  0.000
  0.009  0.062  0.929  0.000  0.000
  0.001  0.000  0.000  0.575  0.424
  0.082  0.872  0.045  0.000  0.000
    occupations:
  0.069  0.001  0.001  0.001  0.000
  0.001  0.026  0.000 -0.001 -0.000
  0.001  0.000  0.026  0.001 -0.000
  0.001 -0.001  0.001  0.068 -0.000
  0.000 -0.000 -0.000 -0.000  0.026
   spin  2
    eigenvalues: 
  0.998  0.998  0.999  0.999  0.999
    eigenvectors:
  0.000  0.002  0.001  0.614  0.383
  0.638  0.066  0.295  0.000  0.000
  0.029  0.590  0.377  0.004  0.000
  0.000  0.000  0.001  0.382  0.617
  0.332  0.342  0.325  0.000  0.001
    occupations:
  0.999  0.000  0.000 -0.000  0.000
  0.000  0.998  0.000 -0.000 -0.000
  0.000  0.000  0.998  0.000 -0.000
 -0.000 -0.000  0.000  0.999 -0.000
  0.000 -0.000 -0.000 -0.000  0.998
atomic mag. moment =    -4.778995
atom    5   Tr[ns(na)] (up, down, total) =   4.99366  0.21103  5.20469
   spin  1
    eigenvalues: 
  0.998  0.998  0.998  0.999  1.000
    eigenvectors:
  0.003  0.003  0.009  0.976  0.008
  0.118  0.204  0.666  0.005  0.008
  0.173  0.732  0.080  0.008  0.007
  0.008  0.000  0.005  0.010  0.977
  0.698  0.060  0.240  0.000  0.001
    occupations:
  0.999 -0.000 -0.000  0.000 -0.000
 -0.000  0.998  0.000 -0.000 -0.000
 -0.000  0.000  0.998 -0.000 -0.000
  0.000 -0.000 -0.000  0.999 -0.000
 -0.000 -0.000 -0.000 -0.000  0.998
   spin  2
    eigenvalues: 
  0.025  0.026  0.027  0.064  0.070
    eigenvectors:
  0.000  0.000  0.000  0.066  0.933
  0.001  0.110  0.889  0.000  0.000
  0.002  0.888  0.111  0.000  0.000
  0.000  0.000  0.000  0.934  0.066
  0.996  0.003  0.000  0.000  0.000
    occupations:
  0.069 -0.000  0.000 -0.001 -0.001
 -0.000  0.027  0.000  0.000  0.000
  0.000  0.000  0.026 -0.000 -0.000
 -0.001  0.000 -0.000  0.065  0.000
 -0.001  0.000 -0.000  0.000  0.025
atomic mag. moment =     4.782626
atom    7   Tr[ns(na)] (up, down, total) =   0.20643  4.99384  5.20027
   spin  1
    eigenvalues: 
  0.024  0.025  0.026  0.063  0.068
    eigenvectors:
  0.000  0.000  0.000  0.955  0.044
  0.959  0.012  0.029  0.000  0.000
  0.006  0.959  0.034  0.000  0.000
  0.000  0.000  0.000  0.044  0.955
  0.035  0.028  0.936  0.000  0.000
    occupations:
  0.063 -0.000 -0.001  0.001  0.000
 -0.000  0.024 -0.000 -0.001 -0.000
 -0.001 -0.000  0.025  0.001 -0.000
  0.001 -0.001  0.001  0.068 -0.000
  0.000 -0.000 -0.000 -0.000  0.026
   spin  2
    eigenvalues: 
  0.998  0.998  0.998  0.999  1.000
    eigenvectors:
  0.000  0.009  0.005  0.176  0.810
  0.607  0.181  0.210  0.002  0.000
  0.379  0.417  0.203  0.000  0.001
  0.004  0.004  0.004  0.804  0.185
  0.010  0.389  0.579  0.018  0.004
    occupations:
  1.000 -0.000 -0.000 -0.000 -0.000
 -0.000  0.998  0.000 -0.000 -0.000
 -0.000  0.000  0.998  0.000 -0.000
 -0.000 -0.000  0.000  0.999 -0.000
 -0.000 -0.000 -0.000 -0.000  0.998
atomic mag. moment =    -4.787414
atom    9   Tr[ns(na)] (up, down, total) =   4.99357  0.21473  5.20831
   spin  1
    eigenvalues: 
  0.998  0.998  0.998  0.999  0.999
    eigenvectors:
  0.002  0.007  0.000  0.938  0.053
  0.013  0.712  0.271  0.004  0.000
  0.465  0.094  0.429  0.002  0.010
  0.006  0.000  0.002  0.055  0.937
  0.514  0.187  0.298  0.000  0.000
    occupations:
  0.999  0.000 -0.000 -0.000  0.000
  0.000  0.998  0.000 -0.000 -0.000
 -0.000  0.000  0.998  0.000 -0.000
 -0.000 -0.000  0.000  0.999  0.000
  0.000 -0.000 -0.000  0.000  0.998
   spin  2
    eigenvalues: 
  0.025  0.026  0.027  0.065  0.071
    eigenvectors:
  0.000  0.000  0.000  0.201  0.799
  0.009  0.988  0.002  0.000  0.000
  0.016  0.003  0.980  0.000  0.001
  0.000  0.000  0.000  0.799  0.200
  0.974  0.008  0.017  0.000  0.000
    occupations:
  0.070 -0.000 -0.001  0.002 -0.000
 -0.000  0.026  0.000 -0.001 -0.000
 -0.001  0.000  0.027 -0.001 -0.000
  0.002 -0.001 -0.001  0.067  0.001
 -0.000 -0.000 -0.000  0.001  0.025
atomic mag. moment =     4.778842
atom   11   Tr[ns(na)] (up, down, total) =   0.20279  4.99399  5.19678
   spin  1
    eigenvalues: 
  0.024  0.025  0.025  0.062  0.067
    eigenvectors:
  0.000  0.000  0.000  0.793  0.206
  0.012  0.657  0.330  0.000  0.000
  0.987  0.007  0.006  0.000  0.000
  0.000  0.000  0.000  0.206  0.794
  0.000  0.335  0.664  0.000  0.000
    occupations:
  0.063 -0.001  0.000 -0.002 -0.000
 -0.001  0.025  0.000 -0.000 -0.000
  0.000  0.000  0.024  0.001 -0.000
 -0.002 -0.000  0.001  0.066 -0.001
 -0.000 -0.000 -0.000 -0.001  0.025
   spin  2
    eigenvalues: 
  0.998  0.998  0.998  0.999  1.000
    eigenvectors:
  0.000  0.003  0.003  0.233  0.761
  0.114  0.460  0.419  0.005  0.002
  0.795  0.000  0.203  0.000  0.001
  0.001  0.001  0.000  0.762  0.236
  0.089  0.536  0.375  0.000  0.000
    occupations:
  1.000  0.000  0.000  0.000  0.000
  0.000  0.998  0.000 -0.000 -0.000
  0.000  0.000  0.998  0.000 -0.000
  0.000 -0.000  0.000  0.999  0.000
  0.000 -0.000 -0.000  0.000  0.998
atomic mag. moment =    -4.791206
atom   13   Tr[ns(na)] (up, down, total) =   4.99387  0.21002  5.20389
   spin  1
    eigenvalues: 
  0.998  0.998  0.998  0.999  1.000
    eigenvectors:
  0.000  0.005  0.001  0.955  0.039
  0.074  0.457  0.464  0.005  0.000
  0.193  0.515  0.291  0.001  0.000
  0.000  0.000  0.000  0.039  0.961
  0.733  0.023  0.244  0.000  0.000
    occupations:
  0.999 -0.000  0.000  0.000 -0.000
 -0.000  0.998  0.000  0.000 -0.000
  0.000  0.000  0.998 -0.000 -0.000
  0.000  0.000 -0.000  0.999  0.000
 -0.000 -0.000 -0.000  0.000  0.998
   spin  2
    eigenvalues: 
  0.025  0.025  0.026  0.065  0.069
    eigenvectors:
  0.000  0.000  0.000  0.116  0.884
  0.056  0.004  0.940  0.000  0.000
  0.010  0.983  0.007  0.000  0.000
  0.001  0.000  0.000  0.883  0.116
  0.934  0.013  0.053  0.001  0.000
    occupations:
  0.068 -0.000 -0.001 -0.001 -0.000
 -0.000  0.026  0.000  0.000 -0.000
 -0.001  0.000  0.025  0.001 -0.000
 -0.001  0.000  0.001  0.065 -0.001
 -0.000 -0.000 -0.000 -0.001  0.025
atomic mag. moment =     4.783850
atom   15   Tr[ns(na)] (up, down, total) =   0.20585  4.99419  5.20004
   spin  1
    eigenvalues: 
  0.024  0.025  0.026  0.063  0.068
    eigenvectors:
  0.000  0.000  0.000  0.877  0.123
  0.975  0.024  0.000  0.000  0.000
  0.020  0.665  0.316  0.000  0.000
  0.001  0.000  0.001  0.123  0.876
  0.005  0.311  0.683  0.000  0.000
    occupations:
  0.064  0.000  0.000  0.001 -0.000
  0.000  0.024  0.000 -0.001  0.000
  0.000  0.000  0.025 -0.000 -0.000
  0.001 -0.001 -0.000  0.067  0.001
 -0.000  0.000 -0.000  0.001  0.026
   spin  2
    eigenvalues: 
  0.998  0.998  0.998  0.999  1.000
    eigenvectors:
  0.000  0.000  0.004  0.334  0.662
  0.712  0.061  0.227  0.000  0.000
  0.255  0.436  0.304  0.004  0.000
  0.001  0.001  0.000  0.661  0.336
  0.032  0.502  0.465  0.000  0.001
    occupations:
  1.000  0.000  0.000 -0.000 -0.000
  0.000  0.998  0.000 -0.000 -0.000
  0.000  0.000  0.998  0.000 -0.000
 -0.000 -0.000  0.000  1.000  0.000
 -0.000 -0.000 -0.000  0.000  0.998
atomic mag. moment =    -4.788334
N of occupied +U levels =   41.617726
 --- exit write_ns ---

     negative rho (up, down):  1.830E-04 0.000E+00

     Magnetic moment per site:
     atom:    1    charge:   12.6476    magn:   10.1080    constr:    0.0000
     atom:    2    charge:    5.5930    magn:    0.0129    constr:    0.0000
     atom:    3    charge:   12.6902    magn:  -10.1367    constr:    0.0000
     atom:    4    charge:    5.5779    magn:    0.0102    constr:    0.0000
     atom:    5    charge:   12.6534    magn:   10.1093    constr:    0.0000
     atom:    6    charge:    5.5883    magn:   -0.0160    constr:    0.0000
     atom:    7    charge:   12.6870    magn:  -10.1355    constr:    0.0000
     atom:    8    charge:    5.5821    magn:   -0.0012    constr:    0.0000
     atom:    9    charge:   12.6552    magn:   10.1095    constr:    0.0000
     atom:   10    charge:    5.5819    magn:    0.0098    constr:    0.0000
     atom:   11    charge:   12.6848    magn:  -10.1349    constr:    0.0000
     atom:   12    charge:    5.5899    magn:   -0.0099    constr:    0.0000
     atom:   13    charge:   12.6531    magn:   10.1094    constr:    0.0000
     atom:   14    charge:    5.5725    magn:    0.0009    constr:    0.0000
     atom:   15    charge:   12.6857    magn:  -10.1358    constr:    0.0000
     atom:   16    charge:    5.5984    magn:    0.0014    constr:    0.0000

     total cpu time spent up to now is      233.9 secs

     total energy              =   -1937.89789958 Ry
     Harris-Foulkes estimate   =   -1921.76834170 Ry
     estimated scf accuracy    <      25.38034718 Ry

     total magnetization       =    -0.00 Bohr mag/cell
     absolute magnetization    =    40.64 Bohr mag/cell

     iteration #  2     ecut=    41.00 Ry     beta=0.30
     Davidson diagonalization with overlap
     ethr =  1.00E-02,  avg # of iterations =  1.0

     negative rho (up, down):  7.477E-04 1.110E-04

     Magnetic moment per site:
     atom:    1    charge:   12.5388    magn:    4.4205    constr:    0.0000
     atom:    2    charge:    5.8162    magn:   -0.0020    constr:    0.0000
     atom:    3    charge:   12.5776    magn:   -4.4415    constr:    0.0000
     atom:    4    charge:    5.7996    magn:   -0.0017    constr:    0.0000
     atom:    5    charge:   12.5430    magn:    4.4229    constr:    0.0000
     atom:    6    charge:    5.8110    magn:    0.0054    constr:    0.0000
     atom:    7    charge:   12.5755    magn:   -4.4381    constr:    0.0000
     atom:    8    charge:    5.8041    magn:    0.0043    constr:    0.0000
     atom:    9    charge:   12.5444    magn:    4.4242    constr:    0.0000
     atom:   10    charge:    5.8039    magn:   -0.0024    constr:    0.0000
     atom:   11    charge:   12.5738    magn:   -4.4366    constr:    0.0000
     atom:   12    charge:    5.8128    magn:   -0.0001    constr:    0.0000
     atom:   13    charge:   12.5430    magn:    4.4233    constr:    0.0000
     atom:   14    charge:    5.7936    magn:    0.0001    constr:    0.0000
     atom:   15    charge:   12.5744    magn:   -4.4388    constr:    0.0000
     atom:   16    charge:    5.8221    magn:   -0.0004    constr:    0.0000

     total cpu time spent up to now is      336.4 secs

     total energy              =   -1945.58132519 Ry
     Harris-Foulkes estimate   =   -1938.16714034 Ry
     estimated scf accuracy    <      12.61586988 Ry

     total magnetization       =    -0.00 Bohr mag/cell
     absolute magnetization    =    40.21 Bohr mag/cell

     iteration #  3     ecut=    41.00 Ry     beta=0.30
     Davidson diagonalization with overlap
     ethr =  7.51E-03,  avg # of iterations =  3.9

     negative rho (up, down):  7.866E-04 1.208E-04

     Magnetic moment per site:
     atom:    1    charge:   12.4614    magn:    4.2058    constr:    0.0000
     atom:    2    charge:    5.7794    magn:   -0.0010    constr:    0.0000
     atom:    3    charge:   12.5020    magn:   -4.2225    constr:    0.0000
     atom:    4    charge:    5.7622    magn:   -0.0020    constr:    0.0000
     atom:    5    charge:   12.4670    magn:    4.2045    constr:    0.0000
     atom:    6    charge:    5.7742    magn:    0.0037    constr:    0.0000
     atom:    7    charge:   12.4988    magn:   -4.2210    constr:    0.0000
     atom:    8    charge:    5.7670    magn:    0.0053    constr:    0.0000
     atom:    9    charge:   12.4691    magn:    4.2045    constr:    0.0000
     atom:   10    charge:    5.7668    magn:    0.0027    constr:    0.0000
     atom:   11    charge:   12.4963    magn:   -4.2207    constr:    0.0000
     atom:   12    charge:    5.7761    magn:   -0.0035    constr:    0.0000
     atom:   13    charge:   12.4670    magn:    4.2051    constr:    0.0000
     atom:   14    charge:    5.7560    magn:   -0.0020    constr:    0.0000
     atom:   15    charge:   12.4973    magn:   -4.2235    constr:    0.0000
     atom:   16    charge:    5.7857    magn:    0.0023    constr:    0.0000

     total cpu time spent up to now is      507.8 secs

     total energy              =   -1946.14543314 Ry
     Harris-Foulkes estimate   =   -1946.28965559 Ry
     estimated scf accuracy    <       0.41351056 Ry

     total magnetization       =    -0.00 Bohr mag/cell
     absolute magnetization    =    37.91 Bohr mag/cell

     iteration #  4     ecut=    41.00 Ry     beta=0.30
     Davidson diagonalization with overlap
     ethr =  2.46E-04,  avg # of iterations =  7.0

     negative rho (up, down):  8.059E-04 1.319E-04

     Magnetic moment per site:
     atom:    1    charge:   12.4554    magn:    4.0964    constr:    0.0000
     atom:    2    charge:    5.7908    magn:   -0.0008    constr:    0.0000
     atom:    3    charge:   12.4961    magn:   -4.1122    constr:    0.0000
     atom:    4    charge:    5.7737    magn:   -0.0021    constr:    0.0000
     atom:    5    charge:   12.4611    magn:    4.0948    constr:    0.0000
     atom:    6    charge:    5.7856    magn:    0.0031    constr:    0.0000
     atom:    7    charge:   12.4928    magn:   -4.1111    constr:    0.0000
     atom:    8    charge:    5.7785    magn:    0.0052    constr:    0.0000
     atom:    9    charge:   12.4632    magn:    4.0946    constr:    0.0000
     atom:   10    charge:    5.7783    magn:    0.0032    constr:    0.0000
     atom:   11    charge:   12.4903    magn:   -4.1109    constr:    0.0000
     atom:   12    charge:    5.7875    magn:   -0.0040    constr:    0.0000
     atom:   13    charge:   12.4610    magn:    4.0954    constr:    0.0000
     atom:   14    charge:    5.7676    magn:   -0.0023    constr:    0.0000
     atom:   15    charge:   12.4913    magn:   -4.1135    constr:    0.0000
     atom:   16    charge:    5.7970    magn:    0.0024    constr:    0.0000

     total cpu time spent up to now is      805.5 secs

     total energy              =   -1946.25168178 Ry
     Harris-Foulkes estimate   =   -1946.25935951 Ry
     estimated scf accuracy    <       0.03219034 Ry

     total magnetization       =    -0.00 Bohr mag/cell
     absolute magnetization    =    37.72 Bohr mag/cell

     iteration #  5     ecut=    41.00 Ry     beta=0.30
     Davidson diagonalization with overlap
     ethr =  1.92E-05,  avg # of iterations =  3.6

     negative rho (up, down):  8.168E-04 1.437E-04

     Magnetic moment per site:
     atom:    1    charge:   12.4289    magn:    4.1400    constr:    0.0000
     atom:    2    charge:    5.7944    magn:    0.0008    constr:    0.0000
     atom:    3    charge:   12.4703    magn:   -4.1537    constr:    0.0000
     atom:    4    charge:    5.7775    magn:   -0.0017    constr:    0.0000
     atom:    5    charge:   12.4351    magn:    4.1374    constr:    0.0000
     atom:    6    charge:    5.7894    magn:   -0.0004    constr:    0.0000
     atom:    7    charge:   12.4666    magn:   -4.1538    constr:    0.0000
     atom:    8    charge:    5.7822    magn:    0.0050    constr:    0.0000
     atom:    9    charge:   12.4375    magn:    4.1364    constr:    0.0000
     atom:   10    charge:    5.7820    magn:    0.0070    constr:    0.0000
     atom:   11    charge:   12.4638    magn:   -4.1538    constr:    0.0000
     atom:   12    charge:    5.7911    magn:   -0.0071    constr:    0.0000
     atom:   13    charge:   12.4350    magn:    4.1380    constr:    0.0000
     atom:   14    charge:    5.7713    magn:   -0.0035    constr:    0.0000
     atom:   15    charge:   12.4649    magn:   -4.1562    constr:    0.0000
     atom:   16    charge:    5.8006    magn:    0.0036    constr:    0.0000

     total cpu time spent up to now is      964.8 secs

     total energy              =   -1946.25440858 Ry
     Harris-Foulkes estimate   =   -1946.25468617 Ry
     estimated scf accuracy    <       0.00838407 Ry

     total magnetization       =    -0.00 Bohr mag/cell
     absolute magnetization    =    37.61 Bohr mag/cell

     iteration #  6     ecut=    41.00 Ry     beta=0.30
     Davidson diagonalization with overlap
     ethr =  4.99E-06,  avg # of iterations =  4.8

     negative rho (up, down):  8.110E-04 1.391E-04

     Magnetic moment per site:
     atom:    1    charge:   12.4244    magn:    4.1479    constr:    0.0000
     atom:    2    charge:    5.7943    magn:    0.0011    constr:    0.0000
     atom:    3    charge:   12.4661    magn:   -4.1608    constr:    0.0000
     atom:    4    charge:    5.7774    magn:   -0.0017    constr:    0.0000
     atom:    5    charge:   12.4308    magn:    4.1449    constr:    0.0000
     atom:    6    charge:    5.7893    magn:   -0.0014    constr:    0.0000
     atom:    7    charge:   12.4622    magn:   -4.1612    constr:    0.0000
     atom:    8    charge:    5.7821    magn:    0.0048    constr:    0.0000
     atom:    9    charge:   12.4334    magn:    4.1437    constr:    0.0000
     atom:   10    charge:    5.7819    magn:    0.0079    constr:    0.0000
     atom:   11    charge:   12.4593    magn:   -4.1613    constr:    0.0000
     atom:   12    charge:    5.7911    magn:   -0.0078    constr:    0.0000
     atom:   13    charge:   12.4307    magn:    4.1456    constr:    0.0000
     atom:   14    charge:    5.7712    magn:   -0.0038    constr:    0.0000
     atom:   15    charge:   12.4605    magn:   -4.1636    constr:    0.0000
     atom:   16    charge:    5.8005    magn:    0.0039    constr:    0.0000

     total cpu time spent up to now is     1183.8 secs

     total energy              =   -1946.25594214 Ry
     Harris-Foulkes estimate   =   -1946.25594877 Ry
     estimated scf accuracy    <       0.00043713 Ry

     total magnetization       =    -0.00 Bohr mag/cell
     absolute magnetization    =    37.53 Bohr mag/cell

     iteration #  7     ecut=    41.00 Ry     beta=0.30
     Davidson diagonalization with overlap
     ethr =  2.60E-07,  avg # of iterations =  1.5

     negative rho (up, down):  8.043E-04 1.321E-04

     Magnetic moment per site:
     atom:    1    charge:   12.4227    magn:    4.1370    constr:    0.0000
     atom:    2    charge:    5.7941    magn:    0.0011    constr:    0.0000
     atom:    3    charge:   12.4647    magn:   -4.1497    constr:    0.0000
     atom:    4    charge:    5.7772    magn:   -0.0018    constr:    0.0000
     atom:    5    charge:   12.4294    magn:    4.1339    constr:    0.0000
     atom:    6    charge:    5.7891    magn:   -0.0017    constr:    0.0000
     atom:    7    charge:   12.4607    magn:   -4.1501    constr:    0.0000
     atom:    8    charge:    5.7818    magn:    0.0048    constr:    0.0000
     atom:    9    charge:   12.4320    magn:    4.1328    constr:    0.0000
     atom:   10    charge:    5.7817    magn:    0.0082    constr:    0.0000
     atom:   11    charge:   12.4577    magn:   -4.1502    constr:    0.0000
     atom:   12    charge:    5.7909    magn:   -0.0081    constr:    0.0000
     atom:   13    charge:   12.4292    magn:    4.1346    constr:    0.0000
     atom:   14    charge:    5.7709    magn:   -0.0040    constr:    0.0000
     atom:   15    charge:   12.4590    magn:   -4.1525    constr:    0.0000
     atom:   16    charge:    5.8003    magn:    0.0040    constr:    0.0000

     total cpu time spent up to now is     1294.9 secs

     total energy              =   -1946.25597941 Ry
     Harris-Foulkes estimate   =   -1946.25597090 Ry
     estimated scf accuracy    <       0.00008958 Ry

     total magnetization       =    -0.00 Bohr mag/cell
     absolute magnetization    =    37.51 Bohr mag/cell

     iteration #  8     ecut=    41.00 Ry     beta=0.30
     Davidson diagonalization with overlap
     ethr =  5.33E-08,  avg # of iterations =  3.0

     negative rho (up, down):  7.966E-04 1.249E-04

     Magnetic moment per site:
     atom:    1    charge:   12.4229    magn:    4.1360    constr:    0.0000
     atom:    2    charge:    5.7936    magn:    0.0011    constr:    0.0000
     atom:    3    charge:   12.4650    magn:   -4.1486    constr:    0.0000
     atom:    4    charge:    5.7767    magn:   -0.0018    constr:    0.0000
     atom:    5    charge:   12.4297    magn:    4.1329    constr:    0.0000
     atom:    6    charge:    5.7886    magn:   -0.0018    constr:    0.0000
     atom:    7    charge:   12.4609    magn:   -4.1490    constr:    0.0000
     atom:    8    charge:    5.7813    magn:    0.0047    constr:    0.0000
     atom:    9    charge:   12.4323    magn:    4.1317    constr:    0.0000
     atom:   10    charge:    5.7812    magn:    0.0084    constr:    0.0000
     atom:   11    charge:   12.4579    magn:   -4.1492    constr:    0.0000
     atom:   12    charge:    5.7904    magn:   -0.0082    constr:    0.0000
     atom:   13    charge:   12.4295    magn:    4.1336    constr:    0.0000
     atom:   14    charge:    5.7704    magn:   -0.0041    constr:    0.0000
     atom:   15    charge:   12.4592    magn:   -4.1514    constr:    0.0000
     atom:   16    charge:    5.7998    magn:    0.0041    constr:    0.0000

     total cpu time spent up to now is     1453.5 secs

     total energy              =   -1946.25599246 Ry
     Harris-Foulkes estimate   =   -1946.25599388 Ry
     estimated scf accuracy    <       0.00000893 Ry

     total magnetization       =    -0.00 Bohr mag/cell
     absolute magnetization    =    37.50 Bohr mag/cell

     iteration #  9     ecut=    41.00 Ry     beta=0.30
     Davidson diagonalization with overlap
     ethr =  5.32E-09,  avg # of iterations =  3.0

     negative rho (up, down):  7.912E-04 1.198E-04

     Magnetic moment per site:
     atom:    1    charge:   12.4227    magn:    4.1363    constr:    0.0000
     atom:    2    charge:    5.7935    magn:    0.0011    constr:    0.0000
     atom:    3    charge:   12.4650    magn:   -4.1487    constr:    0.0000
     atom:    4    charge:    5.7766    magn:   -0.0019    constr:    0.0000
     atom:    5    charge:   12.4295    magn:    4.1330    constr:    0.0000
     atom:    6    charge:    5.7885    magn:   -0.0019    constr:    0.0000
     atom:    7    charge:   12.4608    magn:   -4.1492    constr:    0.0000
     atom:    8    charge:    5.7812    magn:    0.0047    constr:    0.0000
     atom:    9    charge:   12.4322    magn:    4.1319    constr:    0.0000
     atom:   10    charge:    5.7810    magn:    0.0087    constr:    0.0000
     atom:   11    charge:   12.4577    magn:   -4.1494    constr:    0.0000
     atom:   12    charge:    5.7903    magn:   -0.0083    constr:    0.0000
     atom:   13    charge:   12.4293    magn:    4.1338    constr:    0.0000
     atom:   14    charge:    5.7703    magn:   -0.0042    constr:    0.0000
     atom:   15    charge:   12.4591    magn:   -4.1516    constr:    0.0000
     atom:   16    charge:    5.7997    magn:    0.0042    constr:    0.0000

     total cpu time spent up to now is     1638.3 secs

     total energy              =   -1946.25599453 Ry
     Harris-Foulkes estimate   =   -1946.25599552 Ry
     estimated scf accuracy    <       0.00000428 Ry

     total magnetization       =    -0.00 Bohr mag/cell
     absolute magnetization    =    37.50 Bohr mag/cell

     iteration # 10     ecut=    41.00 Ry     beta=0.30
     Davidson diagonalization with overlap
     ethr =  2.55E-09,  avg # of iterations =  2.2

     negative rho (up, down):  7.921E-04 1.206E-04

     Magnetic moment per site:
     atom:    1    charge:   12.4227    magn:    4.1364    constr:    0.0000
     atom:    2    charge:    5.7935    magn:    0.0011    constr:    0.0000
     atom:    3    charge:   12.4650    magn:   -4.1489    constr:    0.0000
     atom:    4    charge:    5.7765    magn:   -0.0019    constr:    0.0000
     atom:    5    charge:   12.4296    magn:    4.1332    constr:    0.0000
     atom:    6    charge:    5.7884    magn:   -0.0020    constr:    0.0000
     atom:    7    charge:   12.4608    magn:   -4.1493    constr:    0.0000
     atom:    8    charge:    5.7812    magn:    0.0047    constr:    0.0000
     atom:    9    charge:   12.4323    magn:    4.1320    constr:    0.0000
     atom:   10    charge:    5.7810    magn:    0.0087    constr:    0.0000
     atom:   11    charge:   12.4577    magn:   -4.1495    constr:    0.0000
     atom:   12    charge:    5.7903    magn:   -0.0083    constr:    0.0000
     atom:   13    charge:   12.4293    magn:    4.1339    constr:    0.0000
     atom:   14    charge:    5.7703    magn:   -0.0042    constr:    0.0000
     atom:   15    charge:   12.4591    magn:   -4.1517    constr:    0.0000
     atom:   16    charge:    5.7997    magn:    0.0042    constr:    0.0000

     total cpu time spent up to now is     1782.9 secs

     total energy              =   -1946.25599543 Ry
     Harris-Foulkes estimate   =   -1946.25599522 Ry
     estimated scf accuracy    <       0.00000015 Ry

     total magnetization       =    -0.00 Bohr mag/cell
     absolute magnetization    =    37.50 Bohr mag/cell

     iteration # 11     ecut=    41.00 Ry     beta=0.30
     Davidson diagonalization with overlap
     ethr =  8.87E-11,  avg # of iterations =  2.2

     negative rho (up, down):  7.930E-04 1.214E-04

     Magnetic moment per site:
     atom:    1    charge:   12.4227    magn:    4.1363    constr:    0.0000
     atom:    2    charge:    5.7935    magn:    0.0011    constr:    0.0000
     atom:    3    charge:   12.4650    magn:   -4.1489    constr:    0.0000
     atom:    4    charge:    5.7766    magn:   -0.0019    constr:    0.0000
     atom:    5    charge:   12.4295    magn:    4.1331    constr:    0.0000
     atom:    6    charge:    5.7885    magn:   -0.0020    constr:    0.0000
     atom:    7    charge:   12.4608    magn:   -4.1493    constr:    0.0000
     atom:    8    charge:    5.7812    magn:    0.0047    constr:    0.0000
     atom:    9    charge:   12.4322    magn:    4.1320    constr:    0.0000
     atom:   10    charge:    5.7810    magn:    0.0087    constr:    0.0000
     atom:   11    charge:   12.4577    magn:   -4.1495    constr:    0.0000
     atom:   12    charge:    5.7903    magn:   -0.0083    constr:    0.0000
     atom:   13    charge:   12.4293    magn:    4.1339    constr:    0.0000
     atom:   14    charge:    5.7703    magn:   -0.0042    constr:    0.0000
     atom:   15    charge:   12.4591    magn:   -4.1517    constr:    0.0000
     atom:   16    charge:    5.7997    magn:    0.0042    constr:    0.0000

     total cpu time spent up to now is     1925.9 secs

     total energy              =   -1946.25599552 Ry
     Harris-Foulkes estimate   =   -1946.25599545 Ry
     estimated scf accuracy    <       0.00000012 Ry

     total magnetization       =    -0.00 Bohr mag/cell
     absolute magnetization    =    37.50 Bohr mag/cell

     iteration # 12     ecut=    41.00 Ry     beta=0.30
     Davidson diagonalization with overlap
     ethr =  7.18E-11,  avg # of iterations =  3.1

     negative rho (up, down):  7.934E-04 1.218E-04

     Magnetic moment per site:
     atom:    1    charge:   12.4227    magn:    4.1363    constr:    0.0000
     atom:    2    charge:    5.7935    magn:    0.0011    constr:    0.0000
     atom:    3    charge:   12.4650    magn:   -4.1489    constr:    0.0000
     atom:    4    charge:    5.7766    magn:   -0.0019    constr:    0.0000
     atom:    5    charge:   12.4295    magn:    4.1332    constr:    0.0000
     atom:    6    charge:    5.7885    magn:   -0.0020    constr:    0.0000
     atom:    7    charge:   12.4608    magn:   -4.1493    constr:    0.0000
     atom:    8    charge:    5.7812    magn:    0.0047    constr:    0.0000
     atom:    9    charge:   12.4323    magn:    4.1320    constr:    0.0000
     atom:   10    charge:    5.7811    magn:    0.0087    constr:    0.0000
     atom:   11    charge:   12.4577    magn:   -4.1495    constr:    0.0000
     atom:   12    charge:    5.7903    magn:   -0.0083    constr:    0.0000
     atom:   13    charge:   12.4293    magn:    4.1339    constr:    0.0000
     atom:   14    charge:    5.7703    magn:   -0.0042    constr:    0.0000
     atom:   15    charge:   12.4591    magn:   -4.1517    constr:    0.0000
     atom:   16    charge:    5.7997    magn:    0.0042    constr:    0.0000

     total cpu time spent up to now is     2093.1 secs

     total energy              =   -1946.25599560 Ry
     Harris-Foulkes estimate   =   -1946.25599555 Ry
     estimated scf accuracy    <       0.00000002 Ry

     total magnetization       =    -0.00 Bohr mag/cell
     absolute magnetization    =    37.50 Bohr mag/cell

     iteration # 13     ecut=    41.00 Ry     beta=0.30
     Davidson diagonalization with overlap
     ethr =  1.31E-11,  avg # of iterations =  2.1

     negative rho (up, down):  7.928E-04 1.213E-04

     Magnetic moment per site:
     atom:    1    charge:   12.4227    magn:    4.1363    constr:    0.0000
     atom:    2    charge:    5.7935    magn:    0.0011    constr:    0.0000
     atom:    3    charge:   12.4650    magn:   -4.1489    constr:    0.0000
     atom:    4    charge:    5.7766    magn:   -0.0019    constr:    0.0000
     atom:    5    charge:   12.4295    magn:    4.1332    constr:    0.0000
     atom:    6    charge:    5.7885    magn:   -0.0020    constr:    0.0000
     atom:    7    charge:   12.4608    magn:   -4.1494    constr:    0.0000
     atom:    8    charge:    5.7812    magn:    0.0047    constr:    0.0000
     atom:    9    charge:   12.4322    magn:    4.1320    constr:    0.0000
     atom:   10    charge:    5.7811    magn:    0.0087    constr:    0.0000
     atom:   11    charge:   12.4577    magn:   -4.1495    constr:    0.0000
     atom:   12    charge:    5.7903    magn:   -0.0083    constr:    0.0000
     atom:   13    charge:   12.4293    magn:    4.1339    constr:    0.0000
     atom:   14    charge:    5.7703    magn:   -0.0042    constr:    0.0000
     atom:   15    charge:   12.4591    magn:   -4.1517    constr:    0.0000
     atom:   16    charge:    5.7997    magn:    0.0042    constr:    0.0000

     total cpu time spent up to now is     2238.4 secs

     End of self-consistent calculation
 --- enter write_ns ---
 LDA+U parameters:
U( 1)     =  3.00000000
alpha( 1) =  0.00000000
U( 2)     =  3.00000000
alpha( 2) =  0.00000000
atom    1   Tr[ns(na)] (up, down, total) =   4.98439  0.51218  5.49657
   spin  1
    eigenvalues: 
  0.996  0.997  0.997  0.997  0.997
    eigenvectors:
  0.584  0.064  0.001  0.000  0.351
  0.038  0.521  0.011  0.136  0.295
  0.076  0.017  0.565  0.264  0.078
  0.152  0.377  0.011  0.412  0.048
  0.150  0.022  0.412  0.188  0.228
    occupations:
  0.997 -0.000 -0.000  0.000 -0.000
 -0.000  0.997  0.000 -0.000  0.000
 -0.000  0.000  0.997  0.000  0.000
  0.000 -0.000  0.000  0.997  0.000
 -0.000  0.000  0.000  0.000  0.997
   spin  2
    eigenvalues: 
  0.057  0.059  0.059  0.166  0.171
    eigenvectors:
  0.000  0.000  0.000  0.442  0.557
  0.100  0.001  0.898  0.001  0.001
  0.519  0.412  0.068  0.001  0.000
  0.000  0.000  0.002  0.556  0.441
  0.380  0.587  0.032  0.001  0.000
    occupations:
  0.169 -0.000 -0.000 -0.003  0.003
 -0.000  0.059 -0.001  0.004  0.000
 -0.000 -0.001  0.058 -0.003  0.001
 -0.003  0.004 -0.003  0.168  0.001
  0.003  0.000  0.001  0.001  0.058
atomic mag. moment =     4.472214
atom    3   Tr[ns(na)] (up, down, total) =   0.52834  4.98098  5.50932
   spin  1
    eigenvalues: 
  0.059  0.061  0.062  0.170  0.176
    eigenvectors:
  0.000  0.002  0.001  0.455  0.541
  0.551  0.403  0.045  0.000  0.001
  0.118  0.008  0.872  0.001  0.000
  0.000  0.000  0.000  0.542  0.457
  0.331  0.586  0.081  0.001  0.000
    occupations:
  0.173  0.004  0.004  0.003  0.004
  0.004  0.060 -0.000  0.001  0.001
  0.004 -0.000  0.062 -0.002  0.001
  0.003  0.001 -0.002  0.173 -0.001
  0.004  0.001  0.001 -0.001  0.061
   spin  2
    eigenvalues: 
  0.995  0.996  0.997  0.997  0.997
    eigenvectors:
  0.449  0.409  0.000  0.142  0.000
  0.044  0.000  0.406  0.118  0.431
  0.005  0.098  0.262  0.170  0.465
  0.450  0.450  0.002  0.003  0.095
  0.052  0.043  0.330  0.566  0.009
    occupations:
  0.995 -0.000 -0.000 -0.000 -0.000
 -0.000  0.997 -0.000 -0.000 -0.000
 -0.000 -0.000  0.997  0.000 -0.000
 -0.000 -0.000  0.000  0.995 -0.000
 -0.000 -0.000 -0.000 -0.000  0.997
atomic mag. moment =    -4.452644
atom    5   Tr[ns(na)] (up, down, total) =   4.98156  0.52484  5.50640
   spin  1
    eigenvalues: 
  0.995  0.996  0.997  0.997  0.997
    eigenvectors:
  0.818  0.000  0.073  0.043  0.066
  0.046  0.308  0.034  0.055  0.557
  0.117  0.019  0.597  0.267  0.001
  0.009  0.672  0.001  0.044  0.274
  0.011  0.001  0.295  0.590  0.102
    occupations:
  0.995 -0.000 -0.000  0.000 -0.000
 -0.000  0.997 -0.000 -0.000  0.000
 -0.000 -0.000  0.996  0.000  0.000
  0.000 -0.000  0.000  0.996 -0.000
 -0.000  0.000  0.000 -0.000  0.997
   spin  2
    eigenvalues: 
  0.058  0.060  0.062  0.165  0.178
    eigenvectors:
  0.000  0.001  0.000  0.066  0.933
  0.039  0.004  0.955  0.002  0.000
  0.123  0.875  0.000  0.001  0.001
  0.000  0.001  0.002  0.931  0.066
  0.838  0.119  0.043  0.000  0.000
    occupations:
  0.177  0.002  0.003 -0.003  0.002
  0.002  0.062 -0.000  0.005  0.001
  0.003 -0.000  0.060 -0.004  0.001
 -0.003  0.005 -0.004  0.166  0.001
  0.002  0.001  0.001  0.001  0.059
atomic mag. moment =     4.456726
atom    7   Tr[ns(na)] (up, down, total) =   0.52009  4.98289  5.50298
   spin  1
    eigenvalues: 
  0.058  0.060  0.061  0.164  0.176
    eigenvectors:
  0.000  0.000  0.002  0.948  0.050
  0.878  0.121  0.000  0.000  0.000
  0.115  0.846  0.039  0.000  0.000
  0.000  0.000  0.000  0.050  0.950
  0.007  0.032  0.959  0.002  0.000
    occupations:
  0.165  0.002  0.001  0.003  0.005
  0.002  0.058 -0.001  0.002  0.000
  0.001 -0.001  0.060 -0.002  0.000
  0.003  0.002 -0.002  0.176 -0.001
  0.005  0.000  0.000 -0.001  0.061
   spin  2
    eigenvalues: 
  0.996  0.996  0.997  0.997  0.997
    eigenvectors:
  0.124  0.414  0.005  0.005  0.452
  0.052  0.024  0.388  0.523  0.012
  0.045  0.061  0.569  0.304  0.020
  0.709  0.127  0.003  0.157  0.004
  0.070  0.373  0.035  0.010  0.511
    occupations:
  0.997 -0.000 -0.000 -0.000 -0.001
 -0.000  0.997 -0.000 -0.000  0.000
 -0.000 -0.000  0.997  0.000  0.000
 -0.000 -0.000  0.000  0.996 -0.000
 -0.001  0.000  0.000 -0.000  0.997
atomic mag. moment =    -4.462793
atom    9   Tr[ns(na)] (up, down, total) =   4.98073  0.52957  5.51030
   spin  1
    eigenvalues: 
  0.995  0.995  0.997  0.997  0.997
    eigenvectors:
  0.820  0.075  0.001  0.006  0.098
  0.024  0.019  0.259  0.691  0.006
  0.003  0.307  0.168  0.056  0.467
  0.110  0.599  0.040  0.122  0.128
  0.042  0.000  0.532  0.125  0.301
    occupations:
  0.995 -0.000 -0.000 -0.000 -0.000
 -0.000  0.997  0.000 -0.000 -0.000
 -0.000  0.000  0.996  0.001  0.000
 -0.000 -0.000  0.001  0.996 -0.000
 -0.000 -0.000  0.000 -0.000  0.997
   spin  2
    eigenvalues: 
  0.059  0.061  0.064  0.167  0.180
    eigenvectors:
  0.000  0.001  0.000  0.202  0.797
  0.272  0.705  0.022  0.000  0.001
  0.018  0.009  0.971  0.002  0.001
  0.000  0.000  0.003  0.796  0.201
  0.709  0.286  0.004  0.000  0.001
    occupations:
  0.177  0.002 -0.001  0.005  0.003
  0.002  0.060 -0.001  0.003  0.001
 -0.001 -0.001  0.064 -0.005  0.000
  0.005  0.003 -0.005  0.169  0.001
  0.003  0.001  0.000  0.001  0.059
atomic mag. moment =     4.451157
atom   11   Tr[ns(na)] (up, down, total) =   0.51623  4.98351  5.49975
   spin  1
    eigenvalues: 
  0.057  0.060  0.061  0.163  0.175
    eigenvectors:
  0.001  0.000  0.001  0.792  0.206
  0.066  0.900  0.033  0.000  0.001
  0.898  0.080  0.020  0.001  0.001
  0.000  0.001  0.000  0.207  0.792
  0.035  0.018  0.945  0.001  0.001
    occupations:
  0.165  0.000  0.004 -0.005  0.003
  0.000  0.060 -0.001  0.003  0.000
  0.004 -0.001  0.058 -0.002  0.001
 -0.005  0.003 -0.002  0.172 -0.002
  0.003  0.000  0.001 -0.002  0.061
   spin  2
    eigenvalues: 
  0.996  0.997  0.997  0.997  0.997
    eigenvectors:
  0.165  0.254  0.049  0.254  0.278
  0.148  0.000  0.282  0.333  0.237
  0.030  0.110  0.635  0.167  0.058
  0.607  0.149  0.006  0.057  0.181
  0.051  0.487  0.028  0.188  0.246
    occupations:
  0.997  0.000 -0.000  0.000 -0.000
  0.000  0.997 -0.000 -0.000  0.000
 -0.000 -0.000  0.997  0.000 -0.000
  0.000 -0.000  0.000  0.996  0.000
 -0.000  0.000 -0.000  0.000  0.997
atomic mag. moment =    -4.467283
atom   13   Tr[ns(na)] (up, down, total) =   4.98197  0.52367  5.50564
   spin  1
    eigenvalues: 
  0.995  0.996  0.997  0.997  0.997
    eigenvectors:
  0.847  0.018  0.010  0.096  0.029
  0.031  0.257  0.086  0.261  0.364
  0.017  0.036  0.061  0.516  0.370
  0.034  0.669  0.088  0.001  0.208
  0.071  0.021  0.754  0.125  0.028
    occupations:
  0.996 -0.000 -0.000  0.000 -0.000
 -0.000  0.997  0.000 -0.000  0.000
 -0.000  0.000  0.997  0.000 -0.000
  0.000 -0.000  0.000  0.996  0.000
 -0.000  0.000 -0.000  0.000  0.997
   spin  2
    eigenvalues: 
  0.058  0.060  0.062  0.167  0.177
    eigenvectors:
  0.001  0.000  0.000  0.110  0.889
  0.018  0.042  0.939  0.002  0.000
  0.204  0.737  0.059  0.000  0.000
  0.000  0.000  0.002  0.888  0.110
  0.777  0.220  0.001  0.000  0.001
    occupations:
  0.175  0.001  0.001 -0.003  0.004
  0.001  0.062 -0.001  0.004  0.000
  0.001 -0.001  0.060 -0.002  0.001
 -0.003  0.004 -0.002  0.167 -0.003
  0.004  0.000  0.001 -0.003  0.059
atomic mag. moment =     4.458307
atom   15   Tr[ns(na)] (up, down, total) =   0.51748  4.98333  5.50081
   spin  1
    eigenvalues: 
  0.057  0.060  0.061  0.165  0.175
    eigenvectors:
  0.000  0.000  0.001  0.883  0.115
  0.867  0.079  0.053  0.000  0.000
  0.079  0.918  0.001  0.001  0.001
  0.000  0.001  0.001  0.115  0.883
  0.053  0.001  0.944  0.001  0.001
    occupations:
  0.166  0.002  0.002  0.003  0.003
  0.002  0.058 -0.001  0.001  0.001
  0.002 -0.001  0.059 -0.004  0.000
  0.003  0.001 -0.004  0.174  0.003
  0.003  0.001  0.000  0.003  0.061
   spin  2
    eigenvalues: 
  0.996  0.996  0.997  0.997  0.997
    eigenvectors:
  0.128  0.516  0.003  0.041  0.312
  0.028  0.001  0.467  0.476  0.028
  0.127  0.146  0.384  0.206  0.137
  0.672  0.081  0.053  0.123  0.071
  0.044  0.256  0.094  0.154  0.452
    occupations:
  0.997 -0.000 -0.000 -0.000 -0.000
 -0.000  0.997 -0.000 -0.000 -0.000
 -0.000 -0.000  0.997  0.000  0.000
 -0.000 -0.000  0.000  0.996 -0.000
 -0.000 -0.000  0.000 -0.000  0.997
atomic mag. moment =    -4.465851
N of occupied +U levels =   44.031769
 --- exit write_ns ---

 ------ SPIN UP ------------


          k = 0.0000 0.0000 0.0000 (  5263 PWs)   bands (ev):

   -68.6394 -68.5292 -68.5236 -68.4698 -63.5055 -63.4559 -63.4538 -63.3422
   -37.5286 -37.5111 -37.5016 -37.4246 -37.4215 -37.4054 -37.4010 -37.3920
   -37.3686 -37.3650 -37.3404 -37.3224 -32.5142 -32.5060 -32.4816 -32.4680
   -32.4599 -32.4522 -32.4335 -32.4247 -32.4229 -32.3478 -32.3291 -32.3203
    -6.6341  -5.8474  -5.7982  -5.7386  -5.6176  -5.5893  -5.5501  -5.4716
     4.9533   4.9657   4.9756   5.0174   6.4783   6.4892   6.5047   6.7251
     6.7505   6.8460   6.8831   6.9033   7.0053   7.0340   7.0388   8.2292
     8.2550   8.3069   8.5364   8.5867   8.6094   8.6995   8.7224   8.7945
     8.8382   8.8873   9.2825   9.2948   9.3255   9.3671   9.6462   9.6990
     9.7198   9.7765   9.8065   9.9181  11.0545  11.1382  11.3294  11.4051
    11.4573  11.4795  11.5485  11.6025  13.1203  15.0687  15.0995  15.1303
    15.7293  15.7584  15.7637  16.3834  16.3931  16.4303  16.4475  16.4700
    16.5055  16.5736  16.6384  16.7328  16.7450

          k = 0.1753 0.1753-0.1723 (  5270 PWs)   bands (ev):

   -68.6391 -68.5288 -68.5234 -68.4696 -63.5056 -63.4557 -63.4542 -63.3424
   -37.5284 -37.5105 -37.5010 -37.4241 -37.4217 -37.4053 -37.3996 -37.3906
   -37.3706 -37.3664 -37.3409 -37.3245 -32.5141 -32.5021 -32.4802 -32.4649
   -32.4603 -32.4518 -32.4373 -32.4269 -32.4228 -32.3482 -32.3305 -32.3212
    -6.5067  -5.8556  -5.8122  -5.7447  -5.7235  -5.5994  -5.5614  -5.4836
     5.2258   5.2476   5.3004   5.4096   6.3431   6.3502   6.4148   6.6602
     6.7875   6.8367   6.8708   6.9910   7.0284   7.2072   7.2397   7.5849
     7.6376   8.0894   8.1242   8.2857   8.3952   8.5796   8.6230   8.8608
     9.0244   9.0674   9.1575   9.2608   9.4177   9.4796   9.5307   9.6429
     9.7023   9.7237   9.7709   9.8151  11.2143  11.2690  11.3154  11.3591
    11.4222  11.4766  11.5764  11.6423  14.0641  15.0701  15.2546  15.2687
    15.4868  15.8112  15.8334  16.0678  16.1028  16.1874  16.3551  16.3653
    16.3810  16.4302  16.5525  16.5807  16.6247

          k =-0.3506-0.3506 0.3447 (  5310 PWs)   bands (ev):

   -68.6388 -68.5285 -68.5232 -68.4693 -63.5057 -63.4553 -63.4548 -63.3425
   -37.5283 -37.5099 -37.5003 -37.4236 -37.4219 -37.4057 -37.3979 -37.3876
   -37.3748 -37.3669 -37.3414 -37.3266 -32.5141 -32.4976 -32.4788 -32.4616
   -32.4608 -32.4487 -32.4439 -32.4299 -32.4221 -32.3486 -32.3321 -32.3220
    -6.2583  -6.0632  -5.8379  -5.7841  -5.7105  -5.6149  -5.5646  -5.4933
     5.7500   5.7989   5.8989   5.9945   6.0510   6.0697   6.4402   6.4698
     6.7300   6.8295   6.8741   6.9244   6.9534   7.0301   7.0770   7.1205
     7.5078   7.5143   8.0656   8.0877   8.3240   8.3443   8.4524   8.6255
     8.9121   9.0019   9.2850   9.3608   9.5059   9.5624   9.5737   9.6587
     9.6808   9.6864   9.7686   9.8205  11.1075  11.1888  11.3702  11.4459
    11.5093  11.5461  11.6100  11.6935  15.0512  15.1027  15.5802  15.6318
    15.6733  15.6884  15.7099  15.7540  16.0257  16.0449  16.1456  16.1982
    16.3406  16.3707  16.4052  16.4550  16.4988

          k = 0.3506 0.0030 0.0030 (  5287 PWs)   bands (ev):

   -68.6394 -68.5291 -68.5236 -68.4698 -63.5053 -63.4553 -63.4539 -63.3420
   -37.5283 -37.5105 -37.5008 -37.4239 -37.4217 -37.4034 -37.4005 -37.3906
   -37.3710 -37.3668 -37.3422 -37.3227 -32.5142 -32.5045 -32.4781 -32.4650
   -32.4599 -32.4522 -32.4368 -32.4270 -32.4242 -32.3486 -32.3304 -32.3214
    -6.4680  -5.9048  -5.8245  -5.7223  -5.6697  -5.6143  -5.6017  -5.4935
     5.3210   5.3361   5.3656   5.3988   6.1948   6.5078   6.5227   6.7037
     6.7760   6.8280   6.8613   6.9584   7.0723   7.0965   7.2548   7.5674
     7.6254   8.0502   8.1378   8.2337   8.3480   8.4213   8.5347   8.7372
     8.9430   9.0670   9.1741   9.2228   9.4200   9.4855   9.5652   9.7012
     9.7700   9.8517   9.9124  10.0503  11.0402  11.1118  11.1616  11.2623
    11.3513  11.4084  11.4897  11.5843  14.3242  15.1448  15.1745  15.2187
    15.5963  15.6738  15.8239  15.9852  16.1411  16.1628  16.3128  16.3436
    16.3513  16.3880  16.4468  16.5289  16.5954

          k =-0.1753-0.5230 0.5200 (  5293 PWs)   bands (ev):

   -68.6391 -68.5287 -68.5234 -68.4696 -63.5054 -63.4549 -63.4545 -63.3421
   -37.5281 -37.5098 -37.5001 -37.4233 -37.4221 -37.4037 -37.3991 -37.3869
   -37.3759 -37.3671 -37.3426 -37.3248 -32.5141 -32.5004 -32.4766 -32.4616
   -32.4603 -32.4479 -32.4451 -32.4271 -32.4259 -32.3490 -32.3317 -32.3224
    -6.2460  -5.9780  -5.8905  -5.8172  -5.7138  -5.6203  -5.5746  -5.4947
     5.6959   5.7628   5.7956   6.0429   6.2123   6.2755   6.4355   6.5878
     6.6163   6.6989   6.8860   6.9781   6.9881   7.1449   7.2179   7.3749
     7.4421   7.5791   7.6915   7.8242   7.9243   8.1823   8.7137   8.8477
     8.9598   9.0206   9.1162   9.2578   9.6103   9.6192   9.6732   9.7229
     9.8159   9.8834   9.9936  10.0200  10.8302  11.0398  11.1000  11.1748
    11.2569  11.4111  11.4910  11.6241  15.2088  15.2717  15.3936  15.5088
    15.5949  15.6520  15.7428  15.8369  15.9286  16.0750  16.1114  16.1383
    16.1730  16.3622  16.4053  16.4939  16.5337

          k = 0.0000-0.3477 0.3477 (  5294 PWs)   bands (ev):

   -68.6388 -68.5286 -68.5231 -68.4693 -63.5057 -63.4558 -63.4543 -63.3425
   -37.5283 -37.5093 -37.5006 -37.4243 -37.4217 -37.4045 -37.4008 -37.3898
   -37.3698 -37.3670 -37.3421 -37.3267 -32.5140 -32.4970 -32.4776 -32.4665
   -32.4613 -32.4523 -32.4372 -32.4271 -32.4240 -32.3486 -32.3313 -32.3233
    -6.3270  -5.9097  -5.8819  -5.8029  -5.7263  -5.6040  -5.5867  -5.4856
     5.6043   5.6683   5.7670   5.7729   6.2094   6.2697   6.4089   6.6095
     6.6961   6.8557   6.9360   6.9529   7.0000   7.2079   7.2334   7.2954
     7.4680   7.5298   7.5719   7.8933   8.1445   8.5273   8.5985   8.8260
     9.0212   9.0519   9.1088   9.2250   9.5546   9.6232   9.6575   9.6822
     9.7266   9.8075   9.8320  10.0355  11.0155  11.1202  11.1668  11.2953
    11.3250  11.4603  11.5527  11.6627  15.0975  15.3377  15.3525  15.4662
    15.5994  15.6828  15.7399  15.8243  16.0232  16.0806  16.1326  16.1638
    16.2240  16.3621  16.3735  16.4109  16.4729

          k =-0.7013-0.0060-0.0060 (  5286 PWs)   bands (ev):

   -68.6394 -68.5290 -68.5237 -68.4698 -63.5051 -63.4546 -63.4542 -63.3418
   -37.5280 -37.5099 -37.4999 -37.4230 -37.4221 -37.4015 -37.4003 -37.3863
   -37.3769 -37.3675 -37.3438 -37.3230 -32.5142 -32.5030 -32.4738 -32.4622
   -32.4595 -32.4469 -32.4465 -32.4300 -32.4243 -32.3495 -32.3317 -32.3225
    -6.1599  -6.0981  -5.8277  -5.7421  -5.7320  -5.6901  -5.5961  -5.4977
     5.7091   5.7541   5.7996   5.8536   6.4087   6.4848   6.5825   6.6008
     6.8057   6.8246   6.9152   6.9436   7.0065   7.0607   7.1720   7.1905
     7.2366   7.2655   7.6939   7.7690   8.1946   8.2080   8.6555   8.7588
     8.9385   8.9653   9.2925   9.3622   9.5280   9.5903   9.7868   9.8185
     9.9737  10.0989  10.2841  10.3192  10.4236  10.5199  10.8238  10.9280
    11.0933  11.3184  11.4229  11.5550  15.2015  15.2497  15.3691  15.4662
    15.5826  15.6597  15.7444  15.7910  15.8865  15.9829  16.0460  16.1315
    16.1785  16.2095  16.4340  16.5318  16.6573

          k = 0.1783 0.1783 0.1783 (  5320 PWs)   bands (ev):

   -68.6402 -68.5300 -68.5244 -68.4707 -63.5045 -63.4549 -63.4527 -63.3412
   -37.5281 -37.5108 -37.5014 -37.4241 -37.4209 -37.4051 -37.4007 -37.3917
   -37.3683 -37.3647 -37.3402 -37.3223 -32.5150 -32.5066 -32.4822 -32.4686
   -32.4606 -32.4531 -32.4337 -32.4249 -32.4232 -32.3486 -32.3294 -32.3205
    -6.4983  -5.8967  -5.8326  -5.7916  -5.6861  -5.5671  -5.5347  -5.4835
     5.1915   5.2046   5.2225   5.4454   6.3733   6.3976   6.4152   6.7840
     6.7977   6.8534   6.8918   6.9077   6.9761   6.9945   7.0279   8.0241
     8.0973   8.1249   8.5000   8.5348   8.5590   8.5853   8.6703   8.7130
     8.7556   8.7859   8.8368   9.2490   9.2868   9.3063   9.3679   9.4496
     9.6057   9.8182   9.8340   9.8579  11.2822  11.3221  11.3640  11.4053
    11.4373  11.4660  11.5984  11.6580  14.0914  14.9168  14.9471  14.9832
    15.4612  15.6924  15.7239  16.3166  16.3363  16.3497  16.4361  16.4660
    16.4883  16.4933  16.5425  16.5566  16.5966

          k =-0.3477-0.3477 0.6953 (  5292 PWs)   bands (ev):

   -68.6399 -68.5296 -68.5242 -68.4704 -63.5046 -63.4548 -63.4530 -63.3413
   -37.5279 -37.5102 -37.5007 -37.4238 -37.4210 -37.4050 -37.3993 -37.3903
   -37.3705 -37.3659 -37.3407 -37.3243 -32.5149 -32.5026 -32.4807 -32.4655
   -32.4608 -32.4528 -32.4374 -32.4272 -32.4231 -32.3490 -32.3308 -32.3214
    -6.3157  -5.9206  -5.8888  -5.8155  -5.7817  -5.6012  -5.5256  -5.4785
     5.5480   5.5703   5.7579   5.8368   6.1556   6.1714   6.4375   6.6135
     6.6688   6.7112   6.7795   6.9762   6.9977   7.3146   7.3403   7.6376
     7.6997   7.8247   7.9098   8.1537   8.1778   8.2791   8.3768   8.4991
     8.8307   8.9824   9.1120   9.1889   9.3673   9.4217   9.4948   9.5660
     9.8413   9.8969   9.9364  10.1055  11.0923  11.1483  11.1961  11.3547
    11.3979  11.4599  11.5174  11.6537  14.9281  15.0061  15.1587  15.1830
    15.3535  15.7257  15.8116  16.1041  16.1248  16.2579  16.3032  16.3351
    16.3812  16.3981  16.4187  16.4764  16.5159

          k =-0.1723-0.1723 0.5230 (  5304 PWs)   bands (ev):

   -68.6391 -68.5288 -68.5234 -68.4696 -63.5054 -63.4550 -63.4544 -63.3421
   -37.5281 -37.5097 -37.5003 -37.4236 -37.4218 -37.4055 -37.3978 -37.3875
   -37.3747 -37.3669 -37.3412 -37.3265 -32.5145 -32.4977 -32.4788 -32.4622
   -32.4613 -32.4485 -32.4437 -32.4301 -32.4222 -32.3487 -32.3323 -32.3221
    -6.2474  -5.9663  -5.8883  -5.7917  -5.7677  -5.6173  -5.5622  -5.4945
     5.7561   5.7805   5.8037   5.9186   6.2579   6.2669   6.3379   6.6407
     6.7665   6.8158   6.8642   6.9665   6.9925   7.0561   7.1274   7.1938
     7.3545   7.3800   8.0380   8.0781   8.1181   8.2029   8.4770   8.6042
     8.9250   8.9945   9.3166   9.3876   9.5093   9.5805   9.6425   9.7798
     9.8224   9.8534   9.8944   9.9682  11.0199  11.1297  11.1821  11.2578
    11.2861  11.3293  11.3877  11.4689  15.0885  15.3026  15.5390  15.5749
    15.6195  15.6588  15.6829  15.7471  15.9494  15.9958  16.0996  16.1540
    16.2337  16.2660  16.4644  16.5392  16.6162

          k =-0.8736 0.1693 0.1693 (  5303 PWs)   bands (ev):

   -68.6402 -68.5299 -68.5245 -68.4707 -63.5043 -63.4545 -63.4527 -63.3410
   -37.5277 -37.5102 -37.5005 -37.4236 -37.4210 -37.4031 -37.4002 -37.3903
   -37.3709 -37.3663 -37.3419 -37.3226 -32.5150 -32.5051 -32.4787 -32.4657
   -32.4605 -32.4531 -32.4369 -32.4273 -32.4245 -32.3495 -32.3307 -32.3217
    -6.2191  -5.9899  -5.9566  -5.8006  -5.7537  -5.5918  -5.5614  -5.4656
     5.6743   5.6921   5.7187   6.0530   6.0974   6.2939   6.3803   6.5435
     6.6176   6.6633   6.8829   6.9678   7.0842   7.1916   7.2538   7.6556
     7.7436   7.7696   7.8680   7.9480   8.1675   8.3485   8.3751   8.3867
     8.7331   8.9030   9.1304   9.1933   9.4292   9.4861   9.5016   9.5711
     9.8907   9.9708  10.0731  10.1030  10.9288  11.1039  11.1328  11.2004
    11.3033  11.3994  11.5102  11.6338  15.0017  15.0873  15.1277  15.1650
    15.4652  15.6563  15.8019  15.9576  16.1803  16.1969  16.2541  16.2918
    16.3220  16.3724  16.4782  16.5163  16.5669

          k =-0.6983 0.3447-0.0030 (  5306 PWs)   bands (ev):

   -68.6394 -68.5290 -68.5237 -68.4698 -63.5051 -63.4547 -63.4541 -63.3418
   -37.5279 -37.5097 -37.5001 -37.4233 -37.4220 -37.4035 -37.3990 -37.3868
   -37.3758 -37.3671 -37.3424 -37.3247 -32.5145 -32.5005 -32.4768 -32.4621
   -32.4608 -32.4477 -32.4450 -32.4273 -32.4259 -32.3492 -32.3319 -32.3225
    -6.1057  -6.0141  -5.9548  -5.8727  -5.7305  -5.6206  -5.5673  -5.4811
     5.9282   5.9681   6.0085   6.0346   6.1256   6.2196   6.3107   6.4327
     6.5927   6.7992   6.8575   6.9948   7.0208   7.1016   7.2520   7.3885
     7.5432   7.5984   7.6804   7.7302   7.7583   8.2184   8.3330   8.7156
     8.9165   9.0437   9.1074   9.2704   9.5888   9.6297   9.6765   9.7732
     9.9098  10.0689  10.1246  10.2610  10.6380  10.8570  10.9507  11.1604
    11.2414  11.3459  11.3983  11.5637  15.3003  15.3359  15.4440  15.5570
    15.6003  15.6071  15.7792  15.8477  15.8695  15.9299  16.0681  16.1068
    16.1432  16.3746  16.3964  16.4427  16.5156

          k =-0.3566-0.3566-0.3566 (  5300 PWs)   bands (ev):

   -68.6410 -68.5308 -68.5252 -68.4715 -63.5035 -63.4540 -63.4516 -63.3402
   -37.5275 -37.5106 -37.5011 -37.4237 -37.4202 -37.4048 -37.4004 -37.3914
   -37.3680 -37.3644 -37.3400 -37.3221 -32.5158 -32.5072 -32.4827 -32.4692
   -32.4612 -32.4540 -32.4340 -32.4252 -32.4235 -32.3495 -32.3297 -32.3208
    -6.1856  -6.1347  -5.8655  -5.8395  -5.7908  -5.5406  -5.5099  -5.4670
     5.5146   5.5469   5.5589   6.1729   6.4161   6.4746   6.4871   6.5204
     6.5721   6.6270   6.8464   6.8793   6.9090   6.9259   6.9470   7.5950
     7.9383   8.0024   8.0437   8.4723   8.5077   8.5368   8.6302   8.6905
     8.7014   8.7529   8.7764   9.0329   9.0812   9.2973   9.3041   9.3734
     9.5303   9.8721   9.8830   9.9032  11.2016  11.2241  11.3280  11.4934
    11.5227  11.5970  11.7613  11.8696  14.8003  14.8309  14.8704  15.0090
    15.5443  15.6526  15.6845  16.2109  16.2654  16.2918  16.3134  16.4155
    16.4302  16.4510  16.4675  16.4971  16.5406

          k = 0.1723-0.1753-0.1753 (  5270 PWs)   bands (ev):

   -68.6391 -68.5288 -68.5234 -68.4696 -63.5056 -63.4557 -63.4542 -63.3424
   -37.5284 -37.5107 -37.5008 -37.4241 -37.4218 -37.4035 -37.4007 -37.3907
   -37.3711 -37.3671 -37.3420 -37.3229 -32.5142 -32.5042 -32.4779 -32.4650
   -32.4597 -32.4516 -32.4365 -32.4270 -32.4242 -32.3481 -32.3305 -32.3213
    -6.5046  -5.8933  -5.7910  -5.7564  -5.6828  -5.6098  -5.5559  -5.4936
     5.2269   5.2618   5.2959   5.4029   6.3322   6.3593   6.4063   6.6697
     6.8194   6.8297   6.8625   6.9509   7.0135   7.2009   7.2632   7.5924
     7.6431   8.0936   8.1484   8.3140   8.4051   8.5315   8.6317   8.8700
     9.0111   9.0692   9.1421   9.2943   9.4089   9.4555   9.5101   9.6184
     9.6800   9.7273   9.7851   9.8349  11.2042  11.2629  11.3097  11.4074
    11.4453  11.5039  11.5564  11.6197  14.0639  15.0410  15.2520  15.2987
    15.4775  15.8080  15.8547  16.0713  16.0883  16.1859  16.3562  16.3692
    16.3944  16.4287  16.5173  16.5674  16.6121

          k =-0.1753 0.1723-0.1753 (  5270 PWs)   bands (ev):

   -68.6391 -68.5289 -68.5233 -68.4696 -63.5056 -63.4559 -63.4539 -63.3424
   -37.5285 -37.5099 -37.5012 -37.4247 -37.4215 -37.4043 -37.4022 -37.3916
   -37.3682 -37.3653 -37.3417 -37.3246 -32.5141 -32.5016 -32.4791 -32.4686
   -32.4610 -32.4525 -32.4339 -32.4260 -32.4228 -32.3482 -32.3299 -32.3224
    -6.5053  -5.8696  -5.8320  -5.7432  -5.6733  -5.6050  -5.5771  -5.4819
     5.2350   5.2502   5.2969   5.4053   6.3400   6.3512   6.4117   6.6801
     6.8130   6.8487   6.8664   6.9371   6.9939   7.2193   7.2419   7.6032
     7.6347   8.0845   8.1539   8.3373   8.4385   8.5444   8.5864   8.8633
     8.9906   9.0503   9.1323   9.2780   9.4436   9.4612   9.5245   9.6490
     9.6663   9.7301   9.7532   9.8331  11.2208  11.2513  11.3304  11.4116
    11.4392  11.4782  11.5508  11.6438  14.0648  15.0413  15.2568  15.2963
    15.4718  15.8082  15.8511  16.0717  16.1010  16.1909  16.3467  16.3712
    16.4026  16.4275  16.5294  16.5586  16.5905

          k =-0.3447 0.3506 0.3506 (  5310 PWs)   bands (ev):

   -68.6389 -68.5285 -68.5232 -68.4693 -63.5057 -63.4553 -63.4548 -63.3425
   -37.5282 -37.5103 -37.5000 -37.4233 -37.4223 -37.4019 -37.4007 -37.3862
   -37.3771 -37.3682 -37.3434 -37.3233 -32.5142 -32.5024 -32.4734 -32.4621
   -32.4592 -32.4462 -32.4458 -32.4298 -32.4244 -32.3485 -32.3320 -32.3223
    -6.1995  -6.1607  -5.8054  -5.7709  -5.7109  -5.6078  -5.5635  -5.5084
     5.7935   5.8587   5.9168   5.9547   5.9700   6.0617   6.4028   6.4591
     6.7439   6.8043   6.8899   6.9703   6.9803   7.0114   7.0530   7.1385
     7.5009   7.5427   8.0890   8.1196   8.2598   8.3169   8.5296   8.5875
     8.9437   9.0288   9.2425   9.3322   9.5067   9.5208   9.5768   9.6227
     9.6629   9.6974   9.7721   9.8363  11.1146  11.2572  11.3804  11.4226
    11.5067  11.5526  11.5918  11.7178  15.0228  15.0994  15.5767  15.6249
    15.6585  15.7042  15.7286  15.7607  16.0409  16.0700  16.1449  16.1587
    16.3667  16.3726  16.3926  16.4258  16.4589

          k = 0.3506-0.3447 0.3506 (  5310 PWs)   bands (ev):

   -68.6388 -68.5287 -68.5230 -68.4693 -63.5057 -63.4560 -63.4541 -63.3425
   -37.5283 -37.5087 -37.5007 -37.4248 -37.4216 -37.4036 -37.4031 -37.3909
   -37.3676 -37.3657 -37.3431 -37.3268 -32.5140 -32.4964 -32.4754 -32.4714
   -32.4620 -32.4530 -32.4343 -32.4275 -32.4224 -32.3487 -32.3306 -32.3246
    -6.2291  -6.1181  -5.8441  -5.7668  -5.6615  -5.6345  -5.5837  -5.4896
     5.8003   5.8232   5.9174   5.9527   6.0029   6.0675   6.3794   6.4878
     6.7938   6.8143   6.8705   6.9301   6.9815   7.0146   7.0531   7.1144
     7.4996   7.5513   8.0993   8.1587   8.2474   8.2811   8.5419   8.5853
     8.9150   9.0566   9.2332   9.2634   9.5292   9.5577   9.5936   9.6225
     9.6677   9.6866   9.7465   9.8328  11.1532  11.2592  11.3526  11.4124
    11.5123  11.5400  11.6372  11.7094  15.0303  15.0919  15.5954  15.6334
    15.6808  15.6923  15.7041  15.7298  16.0574  16.0843  16.1356  16.1715
    16.3758  16.3856  16.3974  16.4090  16.4389

[...]
     5.7147   5.7610   5.8058   6.0465   6.2022   6.2639   6.4243   6.5715
     6.6029   6.7313   6.9066   6.9455   7.0278   7.1450   7.2314   7.3524
     7.4446   7.5905   7.6804   7.8122   7.9143   8.1939   8.6906   8.8214
     8.9464   8.9846   9.1064   9.2553   9.5766   9.6047   9.6763   9.7412
     9.8109   9.8830   9.9405   9.9996  10.8202  11.0335  11.1138  11.1594
    11.2247  11.3655  11.4408  11.5968  15.2355  15.2748  15.4078  15.5161
    15.5814  15.6755  15.7493  15.8641  15.9391  16.0799  16.1139  16.1614
    16.1780  16.3785  16.4175  16.5070  16.5556

          k =-0.5230 0.5200-0.1753 (  5293 PWs)   bands (ev):

   -68.6225 -68.5749 -68.5717 -68.4594 -63.5189 -63.4119 -63.4072 -63.3547
   -37.5169 -37.4962 -37.4777 -37.4682 -37.4651 -37.4556 -37.4402 -37.4290
   -37.4267 -37.3526 -37.3307 -37.3229 -32.5208 -32.5069 -32.4979 -32.4225
   -32.4194 -32.4069 -32.4032 -32.3908 -32.3686 -32.3654 -32.3432 -32.3298
    -6.2329  -5.9942  -5.9378  -5.7454  -5.6995  -5.6549  -5.5678  -5.4872
     5.6929   5.7607   5.8187   6.0530   6.1995   6.2732   6.4386   6.5812
     6.6229   6.6994   6.8749   6.9338   6.9967   7.1690   7.2120   7.3988
     7.4350   7.5947   7.7103   7.8460   7.8952   8.1752   8.6961   8.8239
     8.9549   9.0025   9.0954   9.2351   9.5836   9.6140   9.6772   9.7156
     9.7820   9.8758   9.9506  10.0013  10.8047  10.9845  11.0362  11.1800
    11.3240  11.4250  11.4494  11.5800  15.1779  15.2719  15.3864  15.5187
    15.6088  15.6612  15.7476  15.8715  15.9597  16.0901  16.1443  16.1630
    16.1900  16.3792  16.4144  16.5050  16.5489

          k = 0.5200-0.1753-0.5230 (  5293 PWs)   bands (ev):

   -68.6225 -68.5749 -68.5717 -68.4594 -63.5189 -63.4119 -63.4072 -63.3547
   -37.5167 -37.4977 -37.4760 -37.4684 -37.4647 -37.4556 -37.4397 -37.4313
   -37.4254 -37.3527 -37.3306 -37.3230 -32.5209 -32.5070 -32.4976 -32.4228
   -32.4198 -32.4042 -32.4031 -32.3917 -32.3690 -32.3671 -32.3452 -32.3270
    -6.2232  -6.0462  -5.8489  -5.7736  -5.7431  -5.6342  -5.5558  -5.4950
     5.7211   5.7668   5.8108   6.0398   6.2014   6.2693   6.4102   6.5536
     6.5862   6.7453   6.8733   7.0025   7.0469   7.1485   7.2190   7.3615
     7.4319   7.5934   7.6758   7.8165   7.8948   8.1970   8.6881   8.8265
     8.9317   8.9886   9.1168   9.2513   9.5972   9.6100   9.6499   9.7371
     9.7811   9.8945   9.9456  10.0106  10.8180  11.0196  11.1432  11.2102
    11.2658  11.3586  11.4100  11.5403  15.2483  15.2680  15.4207  15.5234
    15.5747  15.6789  15.7580  15.8489  15.9640  16.0469  16.0942  16.1617
    16.1716  16.3888  16.4145  16.5189  16.5530

          k = 0.3477 0.0000-0.3477 (  5294 PWs)   bands (ev):

   -68.6222 -68.5745 -68.5716 -68.4591 -63.5192 -63.4121 -63.4077 -63.3551
   -37.5170 -37.4980 -37.4774 -37.4680 -37.4640 -37.4486 -37.4476 -37.4295
   -37.4269 -37.3528 -37.3313 -37.3221 -32.5207 -32.5079 -32.4970 -32.4214
   -32.4202 -32.4052 -32.4000 -32.3872 -32.3770 -32.3662 -32.3437 -32.3267
    -6.3254  -5.9283  -5.8559  -5.7823  -5.7574  -5.6223  -5.5481  -5.4893
     5.6093   5.6544   5.7697   5.8015   6.2333   6.2499   6.4136   6.6063
     6.7051   6.8234   6.9207   6.9724   7.0075   7.2112   7.2306   7.2916
     7.4756   7.5542   7.5685   7.9065   8.1051   8.5131   8.5684   8.8266
     9.0177   9.0416   9.0936   9.2086   9.5524   9.5716   9.6169   9.6672
     9.7169   9.7504   9.8309  10.0268  10.9832  11.1548  11.1976  11.3116
    11.3568  11.4461  11.4599  11.5877  15.0552  15.3050  15.3734  15.4766
    15.6198  15.6986  15.7923  15.8274  16.0427  16.1173  16.1340  16.1688
    16.2004  16.3888  16.4018  16.4410  16.5430

          k =-0.3477 0.3477 0.0000 (  5294 PWs)   bands (ev):

   -68.6222 -68.5747 -68.5714 -68.4591 -63.5192 -63.4122 -63.4076 -63.3551
   -37.5170 -37.4978 -37.4761 -37.4685 -37.4647 -37.4559 -37.4398 -37.4314
   -37.4255 -37.3529 -37.3307 -37.3230 -32.5205 -32.5071 -32.4973 -32.4225
   -32.4190 -32.4041 -32.4032 -32.3916 -32.3690 -32.3670 -32.3448 -32.3270
    -6.3168  -5.9642  -5.8825  -5.7261  -5.7114  -5.6510  -5.5775  -5.4788
     5.6228   5.6732   5.7492   5.7895   6.2096   6.2497   6.4038   6.5503
     6.7475   6.8354   6.9368   6.9739   7.0318   7.1732   7.2582   7.3236
     7.4644   7.5146   7.5519   7.8815   8.1710   8.5065   8.5931   8.8021
     9.0207   9.0389   9.0961   9.2335   9.5439   9.5983   9.6256   9.6909
     9.7257   9.7683   9.8321  10.0185  10.9221  11.0401  11.1382  11.3037
    11.3499  11.4988  11.5253  11.6048  15.1127  15.3483  15.3623  15.4916
    15.5832  15.7048  15.7808  15.8060  16.0403  16.1110  16.1408  16.1890
    16.2004  16.3604  16.3925  16.4283  16.5296

          k = 0.0060 0.7013 0.0060 (  5286 PWs)   bands (ev):

   -68.6227 -68.5752 -68.5719 -68.4597 -63.5185 -63.4118 -63.4067 -63.3544
   -37.5166 -37.4958 -37.4762 -37.4694 -37.4664 -37.4572 -37.4370 -37.4307
   -37.4249 -37.3525 -37.3299 -37.3238 -32.5212 -32.5055 -32.4989 -32.4237
   -32.4200 -32.4077 -32.4041 -32.3916 -32.3672 -32.3624 -32.3450 -32.3300
    -6.1403  -6.1128  -5.7880  -5.7711  -5.7371  -5.7217  -5.5484  -5.5091
     5.7253   5.7658   5.8058   5.8477   6.4297   6.4324   6.5949   6.6095
     6.7746   6.8003   6.9420   6.9769   7.0014   7.0673   7.1831   7.1937
     7.2290   7.2538   7.7167   7.7679   8.1535   8.2155   8.5752   8.6860
     8.9284   8.9859   9.3148   9.3549   9.5313   9.5682   9.7918   9.8338
     9.9784  10.0835  10.2630  10.3119  10.4422  10.4811  10.8834  10.9308
    11.0594  11.2149  11.3735  11.4683  15.2317  15.2689  15.4319  15.5076
    15.5781  15.6251  15.7569  15.7611  15.9532  15.9999  16.0761  16.1326
    16.1487  16.1676  16.4819  16.5199  16.7179

          k = 0.0060 0.0060 0.7013 (  5286 PWs)   bands (ev):

   -68.6227 -68.5750 -68.5722 -68.4597 -63.5185 -63.4115 -63.4070 -63.3544
   -37.5167 -37.4965 -37.4786 -37.4673 -37.4641 -37.4489 -37.4477 -37.4282
   -37.4271 -37.3524 -37.3313 -37.3218 -32.5213 -32.5082 -32.4971 -32.4217
   -32.4206 -32.4089 -32.3986 -32.3882 -32.3747 -32.3658 -32.3427 -32.3294
    -6.1616  -6.0908  -5.8225  -5.7898  -5.7268  -5.6675  -5.5545  -5.5146
     5.6920   5.7739   5.8176   5.8368   6.4397   6.5040   6.5321   6.6023
     6.7948   6.8054   6.9231   6.9519   7.0407   7.0651   7.1807   7.2054
     7.2230   7.2634   7.6623   7.7466   8.2137   8.2449   8.6533   8.6956
     8.9462   8.9810   9.2522   9.3378   9.5082   9.5585   9.7594   9.8140
     9.9788  10.0880  10.2431  10.3148  10.3866  10.4686  10.7494  10.9081
    11.1940  11.2957  11.4336  11.4924  15.1827  15.2259  15.3750  15.4483
    15.5892  15.6796  15.7424  15.8179  15.9028  16.0296  16.0783  16.1387
    16.2096  16.2464  16.4620  16.5256  16.6912

          k =-0.6953 0.3477 0.3477 (  5292 PWs)   bands (ev):

   -68.6233 -68.5757 -68.5726 -68.4602 -63.5181 -63.4111 -63.4064 -63.3539
   -37.5167 -37.4997 -37.4776 -37.4681 -37.4634 -37.4545 -37.4395 -37.4298
   -37.4250 -37.3524 -37.3299 -37.3212 -32.5214 -32.5102 -32.4991 -32.4225
   -32.4198 -32.4068 -32.4025 -32.3934 -32.3703 -32.3655 -32.3437 -32.3242
    -6.3049  -5.9634  -5.8985  -5.7972  -5.7346  -5.6125  -5.5392  -5.4616
     5.5636   5.5759   5.7595   5.8415   6.1550   6.1602   6.4014   6.6089
     6.6928   6.7145   6.7920   6.9465   7.0027   7.2992   7.3804   7.6362
     7.7023   7.8520   7.9023   8.1378   8.1763   8.2936   8.3779   8.4695
     8.8157   8.9623   9.1030   9.1477   9.3571   9.4348   9.4542   9.5324
     9.8218   9.8854   9.9343  10.0926  11.0800  11.1182  11.2010  11.2775
    11.3702  11.4083  11.4854  11.7044  14.9187  15.0231  15.1676  15.2140
    15.3662  15.7289  15.8363  16.1130  16.1408  16.2357  16.2948  16.3516
    16.3938  16.4087  16.4214  16.4739  16.5379

          k = 0.3477-0.6953 0.3477 (  5292 PWs)   bands (ev):

   -68.6233 -68.5758 -68.5724 -68.4602 -63.5181 -63.4112 -63.4063 -63.3539
   -37.5168 -37.4982 -37.4780 -37.4689 -37.4649 -37.4566 -37.4366 -37.4293
   -37.4248 -37.3523 -37.3294 -37.3220 -32.5212 -32.5089 -32.5001 -32.4230
   -32.4193 -32.4089 -32.4049 -32.3934 -32.3676 -32.3624 -32.3430 -32.3268
    -6.3065  -5.9471  -5.9088  -5.7981  -5.7356  -5.6289  -5.5167  -5.4703
     5.5534   5.5798   5.7595   5.8404   6.1464   6.1635   6.4248   6.6148
     6.6887   6.7112   6.7762   6.9574   7.0154   7.2970   7.3698   7.6449
     7.6981   7.8258   7.9240   8.1177   8.1877   8.2933   8.3596   8.4841
     8.8113   8.9704   9.0941   9.1599   9.3546   9.4260   9.4755   9.5203
     9.8169   9.8640   9.9535  10.1108  11.0543  11.1273  11.2054  11.2932
    11.3771  11.4437  11.4765  11.6563  14.9342  15.0121  15.1611  15.2048
    15.3637  15.7415  15.8255  16.1260  16.1333  16.2700  16.2953  16.3629
    16.3890  16.3991  16.4426  16.4650  16.5497

          k =-0.5230 0.1723 0.1723 (  5304 PWs)   bands (ev):

   -68.6225 -68.5748 -68.5719 -68.4594 -63.5189 -63.4117 -63.4074 -63.3547
   -37.5168 -37.4991 -37.4757 -37.4678 -37.4632 -37.4493 -37.4468 -37.4318
   -37.4253 -37.3527 -37.3313 -37.3220 -32.5208 -32.5088 -32.4964 -32.4222
   -32.4197 -32.4021 -32.4020 -32.3867 -32.3791 -32.3677 -32.3452 -32.3245
    -6.2344  -6.0085  -5.9011  -5.7475  -5.7140  -5.6634  -5.5794  -5.4717
     5.7747   5.7831   5.8011   5.9249   6.2513   6.2681   6.3150   6.6327
     6.7552   6.8158   6.9035   6.9684   7.0299   7.0529   7.1159   7.1596
     7.3551   7.4139   7.9918   8.0632   8.1113   8.2383   8.4888   8.6031
     8.9001   8.9737   9.2995   9.3413   9.5279   9.5433   9.6318   9.7569
     9.7934   9.8419   9.8768   9.9240  11.0338  11.1056  11.1271  11.1829
    11.2413  11.3542  11.3852  11.5202  15.0686  15.2984  15.5137  15.5642
    15.5885  15.6902  15.7340  15.7757  15.9691  16.0038  16.1332  16.1656
    16.2748  16.3007  16.4860  16.5412  16.5751

          k = 0.1723-0.5230 0.1723 (  5304 PWs)   bands (ev):

   -68.6225 -68.5750 -68.5716 -68.4594 -63.5189 -63.4120 -63.4071 -63.3547
   -37.5168 -37.4959 -37.4763 -37.4695 -37.4664 -37.4574 -37.4371 -37.4308
   -37.4250 -37.3526 -37.3301 -37.3239 -32.5207 -32.5056 -32.4986 -32.4234
   -32.4193 -32.4075 -32.4044 -32.3917 -32.3671 -32.3624 -32.3446 -32.3300
    -6.2348  -6.0027  -5.9008  -5.7562  -5.7060  -5.6814  -5.5583  -5.4797
     5.7671   5.7849   5.8100   5.9197   6.2385   6.2700   6.3304   6.6299
     6.7820   6.8137   6.8468   6.9735   7.0107   7.0812   7.1342   7.1734
     7.3514   7.4031   8.0212   8.0804   8.0989   8.1859   8.4787   8.5922
     8.9089   8.9870   9.3140   9.3583   9.5207   9.5543   9.6193   9.7429
     9.7852   9.8459   9.8871   9.9575  10.9886  11.1062  11.1621  11.2328
    11.2474  11.3185  11.3742  11.4789  15.0821  15.3123  15.5289  15.5826
    15.6005  15.6260  15.7483  15.7659  15.9993  16.0511  16.0889  16.1599
    16.2505  16.2756  16.4976  16.5317  16.6127

          k =-0.1693 0.8736-0.1693 (  5303 PWs)   bands (ev):

   -68.6236 -68.5760 -68.5727 -68.4605 -63.5177 -63.4110 -63.4059 -63.3536
   -37.5165 -37.4981 -37.4780 -37.4688 -37.4649 -37.4563 -37.4365 -37.4293
   -37.4247 -37.3522 -37.3293 -37.3220 -32.5216 -32.5088 -32.5004 -32.4233
   -32.4200 -32.4091 -32.4047 -32.3932 -32.3677 -32.3625 -32.3433 -32.3268
    -6.2129  -6.0030  -5.9318  -5.8049  -5.7692  -5.6090  -5.5224  -5.4701
     5.6844   5.7025   5.7323   6.0578   6.0871   6.2925   6.3511   6.5366
     6.6136   6.6289   6.9254   6.9771   7.1192   7.1886   7.2371   7.6987
     7.7514   7.8079   7.8600   7.9140   8.1061   8.3368   8.3493   8.3758
     8.7102   8.8474   9.1529   9.1884   9.4154   9.4573   9.5168   9.5670
     9.8949   9.9539  10.0422  10.0990  10.9252  11.0834  11.1642  11.2262
    11.3006  11.3578  11.4172  11.5306  15.0365  15.0923  15.1427  15.1742
    15.4665  15.6923  15.7982  16.0020  16.1847  16.1951  16.2574  16.2885
    16.3151  16.3816  16.4969  16.5432  16.5866

          k =-0.1693-0.1693 0.8736 (  5303 PWs)   bands (ev):

   -68.6236 -68.5759 -68.5729 -68.4605 -63.5177 -63.4108 -63.4060 -63.3535
   -37.5166 -37.4984 -37.4790 -37.4678 -37.4638 -37.4542 -37.4400 -37.4277
   -37.4261 -37.3521 -37.3299 -37.3210 -32.5217 -32.5100 -32.4996 -32.4224
   -32.4202 -32.4099 -32.4016 -32.3928 -32.3698 -32.3647 -32.3422 -32.3266
    -6.2135  -6.0276  -5.8523  -5.8403  -5.8121  -5.5694  -5.5234  -5.4845
     5.6763   5.6929   5.7145   6.0468   6.1108   6.3321   6.3624   6.5531
     6.6264   6.6536   6.8777   6.9351   7.0751   7.2170   7.2612   7.6629
     7.7176   7.7829   7.8512   7.9192   8.1821   8.3520   8.3691   8.4225
     8.7300   8.8784   9.1022   9.1656   9.4039   9.4486   9.5008   9.5605
     9.8927   9.9575  10.0388  10.0946  10.8891  11.0313  11.0628  11.2036
    11.3918  11.4310  11.4491  11.5754  14.9950  15.0982  15.1305  15.1700
    15.4798  15.6503  15.8191  15.9640  16.1922  16.2175  16.2658  16.3188
    16.3552  16.3925  16.5016  16.5429  16.5764

          k =-0.3447 0.6983 0.0030 (  5306 PWs)   bands (ev):

   -68.6227 -68.5751 -68.5720 -68.4597 -63.5185 -63.4116 -63.4068 -63.3544
   -37.5166 -37.4962 -37.4776 -37.4681 -37.4652 -37.4552 -37.4401 -37.4290
   -37.4266 -37.3524 -37.3306 -37.3228 -32.5212 -32.5068 -32.4981 -32.4227
   -32.4201 -32.4068 -32.4033 -32.3908 -32.3686 -32.3655 -32.3436 -32.3298
    -6.0977  -6.0228  -5.9504  -5.8753  -5.7420  -5.6214  -5.5318  -5.4896
     5.9217   5.9759   6.0110   6.0493   6.1006   6.2632   6.2916   6.4086
     6.5935   6.8111   6.8657   6.9744   7.0364   7.0788   7.2658   7.3573
     7.5594   7.6066   7.7073   7.7417   7.7875   8.2245   8.2842   8.7013
     8.8895   9.0404   9.0902   9.2318   9.5981   9.6224   9.6650   9.7310
     9.8978  10.0548  10.1148  10.2588  10.5803  10.7542  10.9042  11.1211
    11.2924  11.3718  11.4216  11.5143  15.3024  15.3409  15.4406  15.5602
    15.6076  15.6335  15.8028  15.8316  15.9054  15.9553  16.0702  16.1445
    16.1707  16.3860  16.4025  16.4379  16.5437

          k = 0.6983 0.0030-0.3447 (  5306 PWs)   bands (ev):

   -68.6227 -68.5751 -68.5720 -68.4597 -63.5185 -63.4116 -63.4068 -63.3544
   -37.5167 -37.4975 -37.4759 -37.4683 -37.4646 -37.4553 -37.4396 -37.4312
   -37.4254 -37.3525 -37.3306 -37.3229 -32.5210 -32.5073 -32.4977 -32.4229
   -32.4200 -32.4044 -32.4034 -32.3919 -32.3690 -32.3677 -32.3449 -32.3271
    -6.1006  -6.0156  -5.9506  -5.8807  -5.7044  -5.6589  -5.5481  -5.4726
     5.9488   5.9728   5.9947   6.0344   6.1220   6.2161   6.3162   6.4399
     6.6027   6.8166   6.8412   7.0131   7.0366   7.0800   7.2514   7.3857
     7.5228   7.6041   7.6830   7.7314   7.7404   8.2019   8.3167   8.7047
     8.8941   9.0400   9.0883   9.2593   9.5770   9.6148   9.6922   9.7190
     9.8961  10.0774  10.0998  10.2482  10.6266  10.8442  10.9318  11.1442
    11.2295  11.2991  11.3651  11.5447  15.3101  15.3520  15.4335  15.5582
    15.5842  15.6350  15.7949  15.8418  15.9062  15.9208  16.0835  16.1350
    16.1628  16.3925  16.4023  16.4815  16.5244

     the Fermi energy is    12.5233 ev

!    total energy              =   -1946.25599565 Ry
     Harris-Foulkes estimate   =   -1946.25599560 Ry
     estimated scf accuracy    <          1.3E-09 Ry

     The total energy is the sum of the following terms:

     one-electron contribution =    -881.24239790 Ry
     hartree contribution      =     527.07885189 Ry
     xc contribution           =    -270.06913247 Ry
     ewald contribution        =   -1322.43765017 Ry
     Hubbard energy            =       0.41433299 Ry
     smearing contrib. (-TS)   =      -0.00000000 Ry

     total magnetization       =    -0.00 Bohr mag/cell
     absolute magnetization    =    37.50 Bohr mag/cell

     convergence has been achieved in  13 iterations

     Forces acting on atoms (Ry/au):


     negative rho (up, down):  7.928E-04 1.213E-04
     atom    1 type  1   force =  -0.12494043E-01  0.43779980E-02 -0.29268704E-02
     atom    2 type  3   force =  -0.55417342E-02 -0.32830466E-02 -0.78056096E-02
     atom    3 type  2   force =   0.67035723E-02  0.79344519E-02 -0.84040932E-02
     atom    4 type  3   force =   0.68123657E-03  0.12494854E-01  0.43330503E-02
     atom    5 type  1   force =   0.68695842E-02 -0.10655145E-01  0.17993113E-01
     atom    6 type  3   force =   0.32387659E-02  0.17005215E-02  0.11095931E-01
     atom    7 type  2   force =   0.11887038E-01  0.14047041E-01  0.36704391E-02
     atom    8 type  3   force =   0.78426861E-02 -0.10119018E-02 -0.49967398E-02
     atom    9 type  1   force =   0.83775452E-03 -0.24972462E-02 -0.20190020E-01
     atom   10 type  3   force =  -0.81969693E-02  0.92907829E-02 -0.34439073E-02
     atom   11 type  2   force =   0.27493968E-02 -0.14833444E-01  0.66295199E-03
     atom   12 type  3   force =  -0.35048944E-02 -0.73592520E-02  0.56273124E-02
     atom   13 type  1   force =   0.94159257E-02  0.68235427E-02 -0.87373505E-02
     atom   14 type  3   force =  -0.70676239E-03 -0.45854597E-02 -0.49741525E-02
     atom   15 type  2   force =  -0.72359312E-02 -0.56521622E-02  0.49081010E-02
     atom   16 type  3   force =  -0.12545625E-01 -0.67915348E-02  0.13187844E-01

     Total force =     0.057883     Total SCF correction =     0.000200


     entering subroutine stress ...


     negative rho (up, down):  7.928E-04 1.213E-04
          total   stress  (Ry/bohr**3)                   (kbar)     P=    3.15
   0.0000149964  -0.0000024893  -0.0000005181          2.21     -0.37     -0.08
  -0.0000024893   0.0000223791   0.0000025233         -0.37      3.29      0.37
  -0.0000005181   0.0000025233   0.0000268128         -0.08      0.37      3.94


     Writing output data file mno_afm.in.222.044.save

     init_run     :     62.78s CPU     59.18s WALL (       1 calls)
     electrons    :   2135.21s CPU   2179.02s WALL (       1 calls)
     forces       :    141.89s CPU    155.08s WALL (       1 calls)
     stress       :    413.96s CPU    434.45s WALL (       1 calls)

     Called by init_run:
     wfcinit      :     60.60s CPU     56.97s WALL (       1 calls)
     potinit      :      0.48s CPU      0.49s WALL (       1 calls)

     Called by electrons:
     c_bands      :   1937.12s CPU   1987.60s WALL (      13 calls)
     sum_band     :    189.82s CPU    183.07s WALL (      13 calls)
     v_of_rho     :      1.81s CPU      1.83s WALL (      14 calls)
     newd         :      5.92s CPU      5.94s WALL (      14 calls)
     mix_rho      :      0.86s CPU      0.86s WALL (      13 calls)

     Called by c_bands:
     init_us_2    :      9.16s CPU      9.46s WALL (    2880 calls)
     cegterg      :   1903.15s CPU   1951.99s WALL (     936 calls)

     Called by *egterg:
     h_psi        :    909.30s CPU    897.39s WALL (    4027 calls)
     s_psi        :    131.94s CPU     99.01s WALL (    4819 calls)
     g_psi        :      1.30s CPU      1.30s WALL (    3019 calls)
     cdiaghg      :    519.88s CPU    634.35s WALL (    3955 calls)

     Called by h_psi:
     add_vuspsi   :     99.64s CPU     78.46s WALL (    4027 calls)
     vhpsi        :     88.95s CPU    110.01s WALL (    4027 calls)

     General routines
     calbec       :    701.35s CPU    720.92s WALL (   53702 calls)
     fft          :      1.33s CPU      1.33s WALL (     468 calls)
     ffts         :      0.49s CPU      0.52s WALL (     328 calls)
     fftw         :    648.34s CPU    654.24s WALL (  574592 calls)
     interpolate  :      0.22s CPU      0.23s WALL (      54 calls)
     davcio       :      0.02s CPU      0.04s WALL (      72 calls)

     Parallel routines
     fft_scatter  :    237.57s CPU    240.74s WALL (  575388 calls)
     Hubbard U routines
     new_ns       :     17.03s CPU     17.66s WALL (      13 calls)
     vhpsi        :     88.95s CPU    110.01s WALL (    4027 calls)
     force_hub    :    124.42s CPU    140.84s WALL (       1 calls)
     stres_hub    :    377.20s CPU    398.38s WALL (       1 calls)

     PWSCF        : 45m58.98s CPU    47m13.69s WALL


   This run was terminated on:  19:37:21  16Aug2017            

=------------------------------------------------------------------------------=
   JOB DONE.
=------------------------------------------------------------------------------=
