
     Program PWSCF v.5.1 starts on 17Aug2017 at 11:22:51 

     This program is part of the open-source Quantum ESPRESSO suite
     for quantum simulation of materials; please cite
         "P. Giannozzi et al., J. Phys.:Condens. Matter 21 395502 (2009);
          URL http://www.quantum-espresso.org", 
     in publications or presentations arising from this work. More details at
     http://www.quantum-espresso.org/quote

     Parallel version (MPI), running on     8 processors
     R & G space division:  proc/nbgrp/npool/nimage =       8
     Reading input from /tmp/mno_fm.scf.in.super.222.sub_frozen.06.31175/mno_fm.scf.in.super.222.sub_frozen.06.t
Warning: card &IONS ignored
Warning: card   ION_DYNAMICS='BFGS', ignored
Warning: card / ignored
Warning: card &CELL ignored
Warning: card  CELL_DYNAMICS = 'BFGS' ignored
Warning: card / ignored

     Current dimensions of program PWSCF are:
     Max number of different atomic species (ntypx) = 10
     Max number of k-points (npk) =  40000
     Max angular momentum in pseudopotentials (lmaxx) =  3
 kfg - two_fermi_energies  T

     Subspace diagonalization in iterative solution of the eigenvalue problem:
     a serial algorithm will be used


     Parallelization info
     --------------------
     sticks:   dense  smooth     PW     G-vecs:    dense   smooth      PW
     Min         246     204     56                 7264     5421     802
     Max         247     205     57                 7267     5438     805
     Sum        1969    1639    451                58119    43407    6423

     Generating pointlists ...
     new r_m :   0.1458 (alat units)  1.7495 (a.u.) for type    1
     new r_m :   0.1458 (alat units)  1.7495 (a.u.) for type    2
     new r_m :   0.1458 (alat units)  1.7495 (a.u.) for type    3


     bravais-lattice index     =            0
     lattice parameter (alat)  =    11.996146938  a.u.
     unit-cell volume          =    1220.7039 (a.u.)^3
     number of atoms/cell      =           16
     number of atomic types    =            3
     number of electrons       =       168.00 (up:  84.00, down:  84.00)
     number of Kohn-Sham states=          101
     kinetic-energy cutoff     =      41.0000  Ry
     charge density cutoff     =     200.0000  Ry
     convergence threshold     =      1.0E-08
     mixing beta               =       0.3000
     number of iterations used =            8  local-TF  mixing
     Exchange-correlation      = SLA  PW   PSX  PSC ( 1  4 10  8 0)
     A smooth kinetic-energy cutoff is imposed at      40.0000 Ry
     height of the smooth step-function =             800.0000 Ry
     width of the smooth step-function  =               1.0000 Ry


     celldm(1)=  11.996147  celldm(2)=   0.000000  celldm(3)=   0.000000
     celldm(4)=   0.000000  celldm(5)=   0.000000  celldm(6)=   0.000000

     crystal axes: (cart. coord. in units of alat)
               a(1) = (   0.707106781187   0.707106781187   0.000000000000 )  
               a(2) = (   0.707106781187   0.000000000000   0.707106781187 )  
               a(3) = (   0.000000000000   0.707106781187   0.707106781187 )  

     reciprocal axes: (cart. coord. in units 2 pi/alat)
               b(1) = (  0.707107  0.707107 -0.707107 )  
               b(2) = (  0.707107 -0.707107  0.707107 )  
               b(3) = ( -0.707107  0.707107  0.707107 )  


     PseudoPot. # 1 for Mn read from file:
     /users/kfg/psuedo/gbrv_1.5/mn.pbesol.UPF
     MD5 check sum: 0716d5f563e6e95a34f9080f4c78c109
     Pseudo is Ultrasoft + core correction, Zval = 15.0
     Generated by new atomic code, or converted to UPF format
     Using radial grid of  859 points,  6 beta functions with: 
                l(1) =   0
                l(2) =   0
                l(3) =   1
                l(4) =   1
                l(5) =   2
                l(6) =   2
     Q(r) pseudized with  8 coefficients,  rinner =    0.950   0.950   0.950
                                                       0.950   0.950

     PseudoPot. # 2 for Mn read from file:
     /users/kfg/psuedo/gbrv_1.5/mn.pbesol.UPF
     MD5 check sum: 0716d5f563e6e95a34f9080f4c78c109
     Pseudo is Ultrasoft + core correction, Zval = 15.0
     Generated by new atomic code, or converted to UPF format
     Using radial grid of  859 points,  6 beta functions with: 
                l(1) =   0
                l(2) =   0
                l(3) =   1
                l(4) =   1
                l(5) =   2
                l(6) =   2
     Q(r) pseudized with  8 coefficients,  rinner =    0.950   0.950   0.950
                                                       0.950   0.950

     PseudoPot. # 3 for O  read from file:
     /users/kfg/psuedo/gbrv_1.5/o.pbesol.UPF
     MD5 check sum: 501638753501ef6325af9037351f7734
     Pseudo is Ultrasoft + core correction, Zval =  6.0
     Generated by new atomic code, or converted to UPF format
     Using radial grid of  737 points,  5 beta functions with: 
                l(1) =   0
                l(2) =   0
                l(3) =   1
                l(4) =   1
                l(5) =   2
     Q(r) pseudized with  8 coefficients,  rinner =    0.900   0.900   0.900
                                                       0.900   0.900

     atomic species   valence    mass     pseudopotential
        Mn            15.00    54.90000     Mn( 1.00)
        Fe            15.00    54.90000     Mn( 1.00)
        O              6.00    15.99900     O ( 1.00)

     Starting magnetic structure 
     atomic species   magnetization
        Mn           1.000
        Fe          -1.000
        O            0.000


     Simplified LDA+U calculation (l_max = 2) with parameters (eV):
     atomic species    L          U    alpha       J0     beta
        Mn             2     3.0000   0.0000   0.0000   0.0000
        Fe             2     3.0000   0.0000   0.0000   0.0000



     48 Sym. Ops., with inversion, found (36 have fractional translation)



   Cartesian axes

     site n.     atom                  positions (alat units)
         1           Mn  tau(   1) = (    0.00000000000    0.00000000000    0.00000000000  )
         2           O   tau(   2) = (    0.35355339059    0.35355339059    0.35355339059  )
         3           Mn  tau(   3) = (    0.00000000000    0.35355339059    0.35355339059  )
         4           O   tau(   4) = (    0.35355339059    0.70710678119    0.70710678119  )
         5           Mn  tau(   5) = (    0.35355339059    0.00000000000    0.35355339059  )
         6           O   tau(   6) = (    0.70710678119    0.35355339059    0.70710678119  )
         7           Fe  tau(   7) = (    0.35355339059    0.35355339059    0.70710678119  )
         8           O   tau(   8) = (    0.70710678119    0.70710678119    1.06066017178  )
         9           Mn  tau(   9) = (    0.35355339059    0.35355339059    0.00000000000  )
        10           O   tau(  10) = (    0.70710678119    0.70710678119    0.35355339059  )
        11           Fe  tau(  11) = (    0.35355339059    0.70710678119    0.35355339059  )
        12           O   tau(  12) = (    0.70710678119    1.06066017178    0.70710678119  )
        13           Fe  tau(  13) = (    0.70710678119    0.35355339059    0.35355339059  )
        14           O   tau(  14) = (    1.06066017178    0.70710678119    0.70710678119  )
        15           Fe  tau(  15) = (    0.70710678119    0.70710678119    0.70710678119  )
        16           O   tau(  16) = (    1.06066017178    1.06066017178    1.06066017178  )

     number of k points=    16  gaussian smearing, width (Ry)=  0.0100
                       cart. coord. in units 2pi/alat
        k(    1) = (   0.0000000   0.0000000   0.0000000), wk =   0.0156250
        k(    2) = (  -0.1767767   0.1767767   0.1767767), wk =   0.1250000
        k(    3) = (   0.3535534  -0.3535534  -0.3535534), wk =   0.0625000
        k(    4) = (   0.0000000   0.0000000   0.3535534), wk =   0.0937500
        k(    5) = (   0.5303301  -0.5303301  -0.1767767), wk =   0.3750000
        k(    6) = (   0.3535534  -0.3535534   0.0000000), wk =   0.1875000
        k(    7) = (   0.0000000   0.0000000  -0.7071068), wk =   0.0468750
        k(    8) = (   0.0000000   0.3535534  -0.7071068), wk =   0.0937500
        k(    9) = (   0.0000000   0.0000000   0.0000000), wk =   0.0156250
        k(   10) = (  -0.1767767   0.1767767   0.1767767), wk =   0.1250000
        k(   11) = (   0.3535534  -0.3535534  -0.3535534), wk =   0.0625000
        k(   12) = (   0.0000000   0.0000000   0.3535534), wk =   0.0937500
        k(   13) = (   0.5303301  -0.5303301  -0.1767767), wk =   0.3750000
        k(   14) = (   0.3535534  -0.3535534   0.0000000), wk =   0.1875000
        k(   15) = (   0.0000000   0.0000000  -0.7071068), wk =   0.0468750
        k(   16) = (   0.0000000   0.3535534  -0.7071068), wk =   0.0937500

     Dense  grid:    58119 G-vectors     FFT dimensions: (  54,  54,  54)

     Smooth grid:    43407 G-vectors     FFT dimensions: (  50,  50,  50)

     Largest allocated arrays     est. size (Mb)     dimensions
        Kohn-Sham Wavefunctions         1.06 Mb     (     685,  101)
        Atomic Hubbard wavefuncts       0.42 Mb     (     685,   40)
        NL pseudopotentials             2.59 Mb     (     685,  248)
        Each V/rho on FFT grid          0.62 Mb     (   20412,   2)
        Each G-vector array             0.06 Mb     (    7265)
        G-vector shells                 0.00 Mb     (     487)
     Largest temporary arrays     est. size (Mb)     dimensions
        Auxiliary wavefunctions         4.22 Mb     (     685,  404)
        Each subspace H/S matrix        2.49 Mb     (     404,  404)
        Each <psi_i|beta_j> matrix      0.38 Mb     (     248,  101)
        Arrays for rho mixing           2.49 Mb     (   20412,    8)

     Check: negative/imaginary core charge=   -0.000056    0.000000

     Initial potential from superposition of free atoms

     starting charge  163.99935, renormalised to  168.00000
     Number of +U iterations with fixed ns =  0
     Starting occupations:
 --- enter write_ns ---
 LDA+U parameters:
U( 1)     =  3.00000000
alpha( 1) =  0.00000000
U( 2)     =  3.00000000
alpha( 2) =  0.00000000
atom    1   Tr[ns(na)] (up, down, total) =   5.00000  0.00000  5.00000
   spin  1
    eigenvalues: 
  1.000  1.000  1.000  1.000  1.000
    eigenvectors:
  1.000  0.000  0.000  0.000  0.000
  0.000  1.000  0.000  0.000  0.000
  0.000  0.000  1.000  0.000  0.000
  0.000  0.000  0.000  1.000  0.000
  0.000  0.000  0.000  0.000  1.000
    occupations:
  1.000  0.000  0.000  0.000  0.000
  0.000  1.000  0.000  0.000  0.000
  0.000  0.000  1.000  0.000  0.000
  0.000  0.000  0.000  1.000  0.000
  0.000  0.000  0.000  0.000  1.000
   spin  2
    eigenvalues: 
  0.000  0.000  0.000  0.000  0.000
    eigenvectors:
  1.000  0.000  0.000  0.000  0.000
  0.000  1.000  0.000  0.000  0.000
  0.000  0.000  1.000  0.000  0.000
  0.000  0.000  0.000  1.000  0.000
  0.000  0.000  0.000  0.000  1.000
    occupations:
  0.000  0.000  0.000  0.000  0.000
  0.000  0.000  0.000  0.000  0.000
  0.000  0.000  0.000  0.000  0.000
  0.000  0.000  0.000  0.000  0.000
  0.000  0.000  0.000  0.000  0.000
atomic mag. moment =     5.000000
atom    3   Tr[ns(na)] (up, down, total) =   5.00000  0.00000  5.00000
   spin  1
    eigenvalues: 
  1.000  1.000  1.000  1.000  1.000
    eigenvectors:
  1.000  0.000  0.000  0.000  0.000
  0.000  1.000  0.000  0.000  0.000
  0.000  0.000  1.000  0.000  0.000
  0.000  0.000  0.000  1.000  0.000
  0.000  0.000  0.000  0.000  1.000
    occupations:
  1.000  0.000  0.000  0.000  0.000
  0.000  1.000  0.000  0.000  0.000
  0.000  0.000  1.000  0.000  0.000
  0.000  0.000  0.000  1.000  0.000
  0.000  0.000  0.000  0.000  1.000
   spin  2
    eigenvalues: 
  0.000  0.000  0.000  0.000  0.000
    eigenvectors:
  1.000  0.000  0.000  0.000  0.000
  0.000  1.000  0.000  0.000  0.000
  0.000  0.000  1.000  0.000  0.000
  0.000  0.000  0.000  1.000  0.000
  0.000  0.000  0.000  0.000  1.000
    occupations:
  0.000  0.000  0.000  0.000  0.000
  0.000  0.000  0.000  0.000  0.000
  0.000  0.000  0.000  0.000  0.000
  0.000  0.000  0.000  0.000  0.000
  0.000  0.000  0.000  0.000  0.000
atomic mag. moment =     5.000000
atom    5   Tr[ns(na)] (up, down, total) =   5.00000  0.00000  5.00000
   spin  1
    eigenvalues: 
  1.000  1.000  1.000  1.000  1.000
    eigenvectors:
  1.000  0.000  0.000  0.000  0.000
  0.000  1.000  0.000  0.000  0.000
  0.000  0.000  1.000  0.000  0.000
  0.000  0.000  0.000  1.000  0.000
  0.000  0.000  0.000  0.000  1.000
    occupations:
  1.000  0.000  0.000  0.000  0.000
  0.000  1.000  0.000  0.000  0.000
  0.000  0.000  1.000  0.000  0.000
  0.000  0.000  0.000  1.000  0.000
  0.000  0.000  0.000  0.000  1.000
   spin  2
    eigenvalues: 
  0.000  0.000  0.000  0.000  0.000
    eigenvectors:
  1.000  0.000  0.000  0.000  0.000
  0.000  1.000  0.000  0.000  0.000
  0.000  0.000  1.000  0.000  0.000
  0.000  0.000  0.000  1.000  0.000
  0.000  0.000  0.000  0.000  1.000
    occupations:
  0.000  0.000  0.000  0.000  0.000
  0.000  0.000  0.000  0.000  0.000
  0.000  0.000  0.000  0.000  0.000
  0.000  0.000  0.000  0.000  0.000
  0.000  0.000  0.000  0.000  0.000
atomic mag. moment =     5.000000
atom    7   Tr[ns(na)] (up, down, total) =   0.00000  5.00000  5.00000
   spin  1
    eigenvalues: 
  0.000  0.000  0.000  0.000  0.000
    eigenvectors:
  1.000  0.000  0.000  0.000  0.000
  0.000  1.000  0.000  0.000  0.000
  0.000  0.000  1.000  0.000  0.000
  0.000  0.000  0.000  1.000  0.000
  0.000  0.000  0.000  0.000  1.000
    occupations:
  0.000  0.000  0.000  0.000  0.000
  0.000  0.000  0.000  0.000  0.000
  0.000  0.000  0.000  0.000  0.000
  0.000  0.000  0.000  0.000  0.000
  0.000  0.000  0.000  0.000  0.000
   spin  2
    eigenvalues: 
  1.000  1.000  1.000  1.000  1.000
    eigenvectors:
  1.000  0.000  0.000  0.000  0.000
  0.000  1.000  0.000  0.000  0.000
  0.000  0.000  1.000  0.000  0.000
  0.000  0.000  0.000  1.000  0.000
  0.000  0.000  0.000  0.000  1.000
    occupations:
  1.000  0.000  0.000  0.000  0.000
  0.000  1.000  0.000  0.000  0.000
  0.000  0.000  1.000  0.000  0.000
  0.000  0.000  0.000  1.000  0.000
  0.000  0.000  0.000  0.000  1.000
atomic mag. moment =    -5.000000
atom    9   Tr[ns(na)] (up, down, total) =   5.00000  0.00000  5.00000
   spin  1
    eigenvalues: 
  1.000  1.000  1.000  1.000  1.000
    eigenvectors:
  1.000  0.000  0.000  0.000  0.000
  0.000  1.000  0.000  0.000  0.000
  0.000  0.000  1.000  0.000  0.000
  0.000  0.000  0.000  1.000  0.000
  0.000  0.000  0.000  0.000  1.000
    occupations:
  1.000  0.000  0.000  0.000  0.000
  0.000  1.000  0.000  0.000  0.000
  0.000  0.000  1.000  0.000  0.000
  0.000  0.000  0.000  1.000  0.000
  0.000  0.000  0.000  0.000  1.000
   spin  2
    eigenvalues: 
  0.000  0.000  0.000  0.000  0.000
    eigenvectors:
  1.000  0.000  0.000  0.000  0.000
  0.000  1.000  0.000  0.000  0.000
  0.000  0.000  1.000  0.000  0.000
  0.000  0.000  0.000  1.000  0.000
  0.000  0.000  0.000  0.000  1.000
    occupations:
  0.000  0.000  0.000  0.000  0.000
  0.000  0.000  0.000  0.000  0.000
  0.000  0.000  0.000  0.000  0.000
  0.000  0.000  0.000  0.000  0.000
  0.000  0.000  0.000  0.000  0.000
atomic mag. moment =     5.000000
atom   11   Tr[ns(na)] (up, down, total) =   0.00000  5.00000  5.00000
   spin  1
    eigenvalues: 
  0.000  0.000  0.000  0.000  0.000
    eigenvectors:
  1.000  0.000  0.000  0.000  0.000
  0.000  1.000  0.000  0.000  0.000
  0.000  0.000  1.000  0.000  0.000
  0.000  0.000  0.000  1.000  0.000
  0.000  0.000  0.000  0.000  1.000
    occupations:
  0.000  0.000  0.000  0.000  0.000
  0.000  0.000  0.000  0.000  0.000
  0.000  0.000  0.000  0.000  0.000
  0.000  0.000  0.000  0.000  0.000
  0.000  0.000  0.000  0.000  0.000
   spin  2
    eigenvalues: 
  1.000  1.000  1.000  1.000  1.000
    eigenvectors:
  1.000  0.000  0.000  0.000  0.000
  0.000  1.000  0.000  0.000  0.000
  0.000  0.000  1.000  0.000  0.000
  0.000  0.000  0.000  1.000  0.000
  0.000  0.000  0.000  0.000  1.000
    occupations:
  1.000  0.000  0.000  0.000  0.000
  0.000  1.000  0.000  0.000  0.000
  0.000  0.000  1.000  0.000  0.000
  0.000  0.000  0.000  1.000  0.000
  0.000  0.000  0.000  0.000  1.000
atomic mag. moment =    -5.000000
atom   13   Tr[ns(na)] (up, down, total) =   0.00000  5.00000  5.00000
   spin  1
    eigenvalues: 
  0.000  0.000  0.000  0.000  0.000
    eigenvectors:
  1.000  0.000  0.000  0.000  0.000
  0.000  1.000  0.000  0.000  0.000
  0.000  0.000  1.000  0.000  0.000
  0.000  0.000  0.000  1.000  0.000
  0.000  0.000  0.000  0.000  1.000
    occupations:
  0.000  0.000  0.000  0.000  0.000
  0.000  0.000  0.000  0.000  0.000
  0.000  0.000  0.000  0.000  0.000
  0.000  0.000  0.000  0.000  0.000
  0.000  0.000  0.000  0.000  0.000
   spin  2
    eigenvalues: 
  1.000  1.000  1.000  1.000  1.000
    eigenvectors:
  1.000  0.000  0.000  0.000  0.000
  0.000  1.000  0.000  0.000  0.000
  0.000  0.000  1.000  0.000  0.000
  0.000  0.000  0.000  1.000  0.000
  0.000  0.000  0.000  0.000  1.000
    occupations:
  1.000  0.000  0.000  0.000  0.000
  0.000  1.000  0.000  0.000  0.000
  0.000  0.000  1.000  0.000  0.000
  0.000  0.000  0.000  1.000  0.000
  0.000  0.000  0.000  0.000  1.000
atomic mag. moment =    -5.000000
atom   15   Tr[ns(na)] (up, down, total) =   0.00000  5.00000  5.00000
   spin  1
    eigenvalues: 
  0.000  0.000  0.000  0.000  0.000
    eigenvectors:
  1.000  0.000  0.000  0.000  0.000
  0.000  1.000  0.000  0.000  0.000
  0.000  0.000  1.000  0.000  0.000
  0.000  0.000  0.000  1.000  0.000
  0.000  0.000  0.000  0.000  1.000
    occupations:
  0.000  0.000  0.000  0.000  0.000
  0.000  0.000  0.000  0.000  0.000
  0.000  0.000  0.000  0.000  0.000
  0.000  0.000  0.000  0.000  0.000
  0.000  0.000  0.000  0.000  0.000
   spin  2
    eigenvalues: 
  1.000  1.000  1.000  1.000  1.000
    eigenvectors:
  1.000  0.000  0.000  0.000  0.000
  0.000  1.000  0.000  0.000  0.000
  0.000  0.000  1.000  0.000  0.000
  0.000  0.000  0.000  1.000  0.000
  0.000  0.000  0.000  0.000  1.000
    occupations:
  1.000  0.000  0.000  0.000  0.000
  0.000  1.000  0.000  0.000  0.000
  0.000  0.000  1.000  0.000  0.000
  0.000  0.000  0.000  1.000  0.000
  0.000  0.000  0.000  0.000  1.000
atomic mag. moment =    -5.000000
N of occupied +U levels =   40.000000
 --- exit write_ns ---
 Atomic wfc used for LDA+U Projector are NOT orthogonalized
     Starting wfc are  136 randomized atomic wfcs

     total cpu time spent up to now is       14.5 secs

     Self-consistent Calculation

     iteration #  1     ecut=    41.00 Ry     beta=0.30
     Davidson diagonalization with overlap
     ethr =  1.00E-02,  avg # of iterations =  5.4
 --- enter write_ns ---
 LDA+U parameters:
U( 1)     =  3.00000000
alpha( 1) =  0.00000000
U( 2)     =  3.00000000
alpha( 2) =  0.00000000
atom    1   Tr[ns(na)] (up, down, total) =   4.99489  0.19737  5.19227
   spin  1
    eigenvalues: 
  0.998  0.999  0.999  1.000  1.000
    eigenvectors:
  0.000  0.002  0.000  0.275  0.722
  0.333  0.199  0.466  0.000  0.001
  0.333  0.135  0.530  0.002  0.000
  0.000  0.000  0.002  0.722  0.275
  0.333  0.663  0.002  0.000  0.001
    occupations:
  1.000  0.000  0.000  0.000  0.000
  0.000  0.998 -0.000  0.000  0.000
  0.000 -0.000  0.998 -0.000  0.000
  0.000  0.000 -0.000  1.000 -0.000
  0.000  0.000  0.000 -0.000  0.998
   spin  2
    eigenvalues: 
  0.023  0.024  0.024  0.063  0.063
    eigenvectors:
  0.000  0.000  0.000  0.246  0.754
  0.333  0.243  0.423  0.000  0.000
  0.333  0.100  0.566  0.000  0.000
  0.000  0.000  0.000  0.754  0.246
  0.333  0.656  0.010  0.000  0.000
    occupations:
  0.063  0.000  0.000  0.000  0.001
  0.000  0.024 -0.000  0.001  0.000
  0.000 -0.000  0.024 -0.001  0.000
  0.000  0.001 -0.001  0.063 -0.000
  0.001  0.000  0.000 -0.000  0.024
atomic mag. moment =     4.797519
atom    3   Tr[ns(na)] (up, down, total) =   4.99489  0.19737  5.19227
   spin  1
    eigenvalues: 
  0.998  0.999  0.999  1.000  1.000
    eigenvectors:
  0.000  0.001  0.001  0.332  0.666
  0.333  0.034  0.631  0.000  0.001
  0.333  0.609  0.056  0.002  0.000
  0.000  0.001  0.001  0.666  0.332
  0.333  0.354  0.311  0.001  0.001
    occupations:
  1.000 -0.000  0.000  0.000 -0.000
 -0.000  0.998  0.000 -0.000  0.000
  0.000  0.000  0.998 -0.000 -0.000
  0.000 -0.000 -0.000  1.000 -0.000
 -0.000  0.000 -0.000 -0.000  0.998
   spin  2
    eigenvalues: 
  0.023  0.024  0.024  0.063  0.063
    eigenvectors:
  0.000  0.000  0.000  0.327  0.672
  0.333  0.037  0.629  0.000  0.000
  0.333  0.613  0.053  0.000  0.000
  0.000  0.000  0.000  0.672  0.327
  0.333  0.349  0.317  0.000  0.000
    occupations:
  0.063 -0.000  0.000  0.000 -0.001
 -0.000  0.024  0.000 -0.001  0.000
  0.000  0.000  0.024 -0.001 -0.000
  0.000 -0.001 -0.001  0.063 -0.000
 -0.001  0.000 -0.000 -0.000  0.024
atomic mag. moment =     4.797519
atom    5   Tr[ns(na)] (up, down, total) =   4.99489  0.19737  5.19227
   spin  1
    eigenvalues: 
  0.998  0.999  0.999  1.000  1.000
    eigenvectors:
  0.000  0.001  0.002  0.351  0.647
  0.333  0.659  0.006  0.000  0.001
  0.333  0.116  0.549  0.002  0.000
  0.000  0.002  0.001  0.647  0.351
  0.333  0.222  0.443  0.001  0.001
    occupations:
  1.000  0.000 -0.000  0.000 -0.000
  0.000  0.998  0.000  0.000 -0.000
 -0.000  0.000  0.998  0.000  0.000
  0.000  0.000  0.000  1.000 -0.000
 -0.000 -0.000  0.000 -0.000  0.998
   spin  2
    eigenvalues: 
  0.023  0.024  0.024  0.063  0.063
    eigenvectors:
  0.000  0.000  0.000  0.338  0.662
  0.333  0.663  0.003  0.000  0.000
  0.333  0.129  0.537  0.000  0.000
  0.000  0.000  0.000  0.662  0.338
  0.333  0.207  0.459  0.000  0.000
    occupations:
  0.063  0.000 -0.000  0.000 -0.001
  0.000  0.024  0.000  0.001 -0.000
 -0.000  0.000  0.024  0.001  0.000
  0.000  0.001  0.001  0.063 -0.000
 -0.001 -0.000  0.000 -0.000  0.024
atomic mag. moment =     4.797519
atom    7   Tr[ns(na)] (up, down, total) =   0.19733  4.99488  5.19221
   spin  1
    eigenvalues: 
  0.023  0.024  0.024  0.063  0.063
    eigenvectors:
  0.000  0.001  0.000  0.260  0.740
  0.333  0.097  0.570  0.000  0.000
  0.333  0.248  0.418  0.000  0.000
  0.000  0.000  0.001  0.740  0.260
  0.333  0.655  0.012  0.000  0.000
    occupations:
  0.063 -0.000 -0.000  0.000  0.001
 -0.000  0.024 -0.000 -0.001 -0.000
 -0.000 -0.000  0.024  0.001 -0.000
  0.000 -0.001  0.001  0.063 -0.000
  0.001 -0.000 -0.000 -0.000  0.024
   spin  2
    eigenvalues: 
  0.998  0.999  0.999  1.000  1.000
    eigenvectors:
  0.000  0.002  0.000  0.207  0.790
  0.333  0.087  0.578  0.000  0.001
  0.333  0.261  0.404  0.001  0.000
  0.000  0.000  0.002  0.790  0.207
  0.333  0.650  0.016  0.000  0.001
    occupations:
  1.000 -0.000 -0.000  0.000  0.000
 -0.000  0.998 -0.000 -0.000 -0.000
 -0.000 -0.000  0.998  0.000 -0.000
  0.000 -0.000  0.000  1.000 -0.000
  0.000 -0.000 -0.000 -0.000  0.998
atomic mag. moment =    -4.797555
atom    9   Tr[ns(na)] (up, down, total) =   4.99489  0.19737  5.19227
   spin  1
    eigenvalues: 
  0.998  0.999  0.999  1.000  1.000
    eigenvectors:
  0.000  0.002  0.000  0.186  0.812
  0.333  0.091  0.574  0.001  0.001
  0.333  0.256  0.410  0.002  0.000
  0.000  0.000  0.002  0.812  0.186
  0.333  0.651  0.014  0.000  0.001
    occupations:
  1.000 -0.000 -0.000  0.000  0.000
 -0.000  0.998 -0.000 -0.000 -0.000
 -0.000 -0.000  0.998  0.000 -0.000
  0.000 -0.000  0.000  1.000 -0.000
  0.000 -0.000 -0.000 -0.000  0.998
   spin  2
    eigenvalues: 
  0.023  0.024  0.024  0.063  0.063
    eigenvectors:
  0.000  0.000  0.000  0.288  0.711
  0.333  0.088  0.578  0.000  0.000
  0.333  0.260  0.406  0.000  0.000
  0.000  0.000  0.000  0.711  0.288
  0.333  0.651  0.015  0.000  0.000
    occupations:
  0.063 -0.000 -0.000  0.000  0.001
 -0.000  0.024 -0.000 -0.001 -0.000
 -0.000 -0.000  0.024  0.001 -0.000
  0.000 -0.001  0.001  0.063 -0.000
  0.001 -0.000 -0.000 -0.000  0.024
atomic mag. moment =     4.797519
atom   11   Tr[ns(na)] (up, down, total) =   0.19733  4.99488  5.19221
   spin  1
    eigenvalues: 
  0.023  0.024  0.024  0.063  0.063
    eigenvectors:
  0.000  0.000  0.000  0.284  0.716
  0.333  0.664  0.002  0.000  0.000
  0.333  0.134  0.532  0.000  0.000
  0.000  0.000  0.000  0.716  0.284
  0.333  0.201  0.465  0.000  0.000
    occupations:
  0.063  0.000 -0.000  0.000 -0.001
  0.000  0.024  0.000  0.001 -0.000
 -0.000  0.000  0.024  0.001  0.000
  0.000  0.001  0.001  0.063 -0.000
 -0.001 -0.000  0.000 -0.000  0.024
   spin  2
    eigenvalues: 
  0.998  0.999  0.999  1.000  1.000
    eigenvectors:
  0.000  0.001  0.001  0.346  0.652
  0.333  0.660  0.005  0.000  0.001
  0.333  0.120  0.545  0.001  0.000
  0.000  0.001  0.001  0.652  0.346
  0.333  0.218  0.448  0.001  0.001
    occupations:
  1.000  0.000 -0.000  0.000 -0.000
  0.000  0.998  0.000  0.000 -0.000
 -0.000  0.000  0.998  0.000  0.000
  0.000  0.000  0.000  1.000 -0.000
 -0.000 -0.000  0.000 -0.000  0.998
atomic mag. moment =    -4.797555
atom   13   Tr[ns(na)] (up, down, total) =   0.19733  4.99488  5.19221
   spin  1
    eigenvalues: 
  0.023  0.024  0.024  0.063  0.063
    eigenvectors:
  0.000  0.000  0.000  0.324  0.676
  0.333  0.035  0.631  0.000  0.000
  0.333  0.611  0.055  0.000  0.000
  0.000  0.000  0.000  0.676  0.324
  0.333  0.353  0.313  0.000  0.000
    occupations:
  0.063 -0.000  0.000  0.000 -0.001
 -0.000  0.024  0.000 -0.001  0.000
  0.000  0.000  0.024 -0.001 -0.000
  0.000 -0.001 -0.001  0.063 -0.000
 -0.001  0.000 -0.000 -0.000  0.024
   spin  2
    eigenvalues: 
  0.998  0.999  0.999  1.000  1.000
    eigenvectors:
  0.000  0.001  0.001  0.264  0.734
  0.333  0.027  0.638  0.000  0.001
  0.333  0.600  0.065  0.001  0.000
  0.000  0.001  0.001  0.734  0.264
  0.333  0.371  0.295  0.000  0.001
    occupations:
  1.000 -0.000  0.000  0.000 -0.000
 -0.000  0.998  0.000 -0.000  0.000
  0.000  0.000  0.998 -0.000 -0.000
  0.000 -0.000 -0.000  1.000 -0.000
 -0.000  0.000 -0.000 -0.000  0.998
atomic mag. moment =    -4.797555
atom   15   Tr[ns(na)] (up, down, total) =   0.19733  4.99488  5.19221
   spin  1
    eigenvalues: 
  0.023  0.024  0.024  0.063  0.063
    eigenvectors:
  0.000  0.001  0.000  0.291  0.709
  0.333  0.221  0.445  0.000  0.000
  0.333  0.117  0.549  0.000  0.000
  0.000  0.000  0.001  0.709  0.291
  0.333  0.661  0.005  0.000  0.000
    occupations:
  0.063  0.000  0.000  0.000  0.001
  0.000  0.024 -0.000  0.001  0.000
  0.000 -0.000  0.024 -0.001  0.000
  0.000  0.001 -0.001  0.063 -0.000
  0.001  0.000  0.000 -0.000  0.024
   spin  2
    eigenvalues: 
  0.998  0.999  0.999  1.000  1.000
    eigenvectors:
  0.000  0.002  0.000  0.262  0.736
  0.333  0.246  0.420  0.000  0.001
  0.333  0.098  0.567  0.001  0.000
  0.000  0.000  0.002  0.736  0.262
  0.333  0.654  0.011  0.000  0.001
    occupations:
  1.000  0.000  0.000  0.000  0.000
  0.000  0.998 -0.000  0.000  0.000
  0.000 -0.000  0.998 -0.000  0.000
  0.000  0.000 -0.000  1.000 -0.000
  0.000  0.000  0.000 -0.000  0.998
atomic mag. moment =    -4.797555
N of occupied +U levels =   41.537911
 --- exit write_ns ---

     negative rho (up, down):  9.261E-04 9.260E-04

     Magnetic moment per site:
     atom:    1    charge:   12.8390    magn:   10.2592    constr:    0.0000
     atom:    2    charge:    5.7474    magn:    0.0000    constr:    0.0000
     atom:    3    charge:   12.8390    magn:   10.2592    constr:    0.0000
     atom:    4    charge:    5.7474    magn:    0.0000    constr:    0.0000
     atom:    5    charge:   12.8390    magn:   10.2592    constr:    0.0000
     atom:    6    charge:    5.7474    magn:    0.0000    constr:    0.0000
     atom:    7    charge:   12.8390    magn:  -10.2592    constr:    0.0000
     atom:    8    charge:    5.7474    magn:    0.0000    constr:    0.0000
     atom:    9    charge:   12.8390    magn:   10.2592    constr:    0.0000
     atom:   10    charge:    5.7474    magn:    0.0000    constr:    0.0000
     atom:   11    charge:   12.8390    magn:  -10.2592    constr:    0.0000
     atom:   12    charge:    5.7474    magn:    0.0000    constr:    0.0000
     atom:   13    charge:   12.8390    magn:  -10.2592    constr:    0.0000
     atom:   14    charge:    5.7474    magn:    0.0000    constr:    0.0000
     atom:   15    charge:   12.8390    magn:  -10.2592    constr:    0.0000
     atom:   16    charge:    5.7474    magn:    0.0000    constr:    0.0000

     total cpu time spent up to now is       57.0 secs

     total energy              =   -1937.91866114 Ry
     Harris-Foulkes estimate   =   -1921.68984082 Ry
     estimated scf accuracy    <      25.39466294 Ry

     total magnetization       =     0.00 Bohr mag/cell
     absolute magnetization    =    40.75 Bohr mag/cell

     iteration #  2     ecut=    41.00 Ry     beta=0.30
     Davidson diagonalization with overlap
     ethr =  1.00E-02,  avg # of iterations =  1.1

     negative rho (up, down):  3.344E-03 3.344E-03

     Magnetic moment per site:
     atom:    1    charge:   12.7195    magn:    4.5241    constr:    0.0000
     atom:    2    charge:    5.9791    magn:   -0.0000    constr:    0.0000
     atom:    3    charge:   12.7195    magn:    4.5241    constr:    0.0000
     atom:    4    charge:    5.9791    magn:   -0.0000    constr:    0.0000
     atom:    5    charge:   12.7195    magn:    4.5241    constr:    0.0000
     atom:    6    charge:    5.9791    magn:   -0.0000    constr:    0.0000
     atom:    7    charge:   12.7195    magn:   -4.5240    constr:    0.0000
     atom:    8    charge:    5.9791    magn:   -0.0000    constr:    0.0000
     atom:    9    charge:   12.7195    magn:    4.5241    constr:    0.0000
     atom:   10    charge:    5.9791    magn:   -0.0000    constr:    0.0000
     atom:   11    charge:   12.7195    magn:   -4.5240    constr:    0.0000
     atom:   12    charge:    5.9791    magn:   -0.0000    constr:    0.0000
     atom:   13    charge:   12.7195    magn:   -4.5240    constr:    0.0000
     atom:   14    charge:    5.9791    magn:   -0.0000    constr:    0.0000
     atom:   15    charge:   12.7195    magn:   -4.5240    constr:    0.0000
     atom:   16    charge:    5.9791    magn:   -0.0000    constr:    0.0000

     total cpu time spent up to now is       81.4 secs

     total energy              =   -1945.60100978 Ry
     Harris-Foulkes estimate   =   -1938.18426230 Ry
     estimated scf accuracy    <      12.61794277 Ry

     total magnetization       =    -0.00 Bohr mag/cell
     absolute magnetization    =    40.33 Bohr mag/cell

     iteration #  3     ecut=    41.00 Ry     beta=0.30
     Davidson diagonalization with overlap
     ethr =  7.51E-03,  avg # of iterations =  3.8

     negative rho (up, down):  3.540E-03 3.540E-03

     Magnetic moment per site:
     atom:    1    charge:   12.6436    magn:    4.2988    constr:    0.0000
     atom:    2    charge:    5.9552    magn:   -0.0001    constr:    0.0000
     atom:    3    charge:   12.6436    magn:    4.2988    constr:    0.0000
     atom:    4    charge:    5.9552    magn:   -0.0001    constr:    0.0000
     atom:    5    charge:   12.6436    magn:    4.2988    constr:    0.0000
     atom:    6    charge:    5.9552    magn:   -0.0001    constr:    0.0000
     atom:    7    charge:   12.6437    magn:   -4.2986    constr:    0.0000
     atom:    8    charge:    5.9552    magn:   -0.0001    constr:    0.0000
     atom:    9    charge:   12.6436    magn:    4.2988    constr:    0.0000
     atom:   10    charge:    5.9552    magn:   -0.0001    constr:    0.0000
     atom:   11    charge:   12.6437    magn:   -4.2986    constr:    0.0000
     atom:   12    charge:    5.9552    magn:   -0.0001    constr:    0.0000
     atom:   13    charge:   12.6437    magn:   -4.2986    constr:    0.0000
     atom:   14    charge:    5.9552    magn:   -0.0001    constr:    0.0000
     atom:   15    charge:   12.6437    magn:   -4.2986    constr:    0.0000
     atom:   16    charge:    5.9552    magn:   -0.0001    constr:    0.0000

     total cpu time spent up to now is      118.9 secs

     total energy              =   -1946.15449354 Ry
     Harris-Foulkes estimate   =   -1946.29528733 Ry
     estimated scf accuracy    <       0.41318571 Ry

     total magnetization       =    -0.00 Bohr mag/cell
     absolute magnetization    =    38.08 Bohr mag/cell

     iteration #  4     ecut=    41.00 Ry     beta=0.30
     Davidson diagonalization with overlap
     ethr =  2.46E-04,  avg # of iterations =  6.7

     negative rho (up, down):  3.606E-03 3.606E-03

     Magnetic moment per site:
     atom:    1    charge:   12.6355    magn:    4.1904    constr:    0.0000
     atom:    2    charge:    5.9659    magn:   -0.0001    constr:    0.0000
     atom:    3    charge:   12.6355    magn:    4.1904    constr:    0.0000
     atom:    4    charge:    5.9659    magn:   -0.0001    constr:    0.0000
     atom:    5    charge:   12.6355    magn:    4.1904    constr:    0.0000
     atom:    6    charge:    5.9659    magn:   -0.0001    constr:    0.0000
     atom:    7    charge:   12.6356    magn:   -4.1902    constr:    0.0000
     atom:    8    charge:    5.9659    magn:   -0.0001    constr:    0.0000
     atom:    9    charge:   12.6355    magn:    4.1904    constr:    0.0000
     atom:   10    charge:    5.9659    magn:   -0.0001    constr:    0.0000
     atom:   11    charge:   12.6356    magn:   -4.1902    constr:    0.0000
     atom:   12    charge:    5.9659    magn:   -0.0001    constr:    0.0000
     atom:   13    charge:   12.6356    magn:   -4.1902    constr:    0.0000
     atom:   14    charge:    5.9659    magn:   -0.0001    constr:    0.0000
     atom:   15    charge:   12.6356    magn:   -4.1902    constr:    0.0000
     atom:   16    charge:    5.9659    magn:   -0.0001    constr:    0.0000

     total cpu time spent up to now is      185.8 secs

     total energy              =   -1946.25661579 Ry
     Harris-Foulkes estimate   =   -1946.26305056 Ry
     estimated scf accuracy    <       0.03031909 Ry

     total magnetization       =     0.00 Bohr mag/cell
     absolute magnetization    =    37.89 Bohr mag/cell

     iteration #  5     ecut=    41.00 Ry     beta=0.30
     Davidson diagonalization with overlap
     ethr =  1.80E-05,  avg # of iterations =  5.6

     negative rho (up, down):  3.638E-03 3.638E-03

     Magnetic moment per site:
     atom:    1    charge:   12.6064    magn:    4.2345    constr:    0.0000
     atom:    2    charge:    5.9730    magn:    0.0000    constr:    0.0000
     atom:    3    charge:   12.6064    magn:    4.2345    constr:    0.0000
     atom:    4    charge:    5.9730    magn:    0.0000    constr:    0.0000
     atom:    5    charge:   12.6064    magn:    4.2345    constr:    0.0000
     atom:    6    charge:    5.9730    magn:    0.0000    constr:    0.0000
     atom:    7    charge:   12.6064    magn:   -4.2345    constr:    0.0000
     atom:    8    charge:    5.9730    magn:    0.0000    constr:    0.0000
     atom:    9    charge:   12.6064    magn:    4.2345    constr:    0.0000
     atom:   10    charge:    5.9730    magn:    0.0000    constr:    0.0000
     atom:   11    charge:   12.6064    magn:   -4.2345    constr:    0.0000
     atom:   12    charge:    5.9730    magn:    0.0000    constr:    0.0000
     atom:   13    charge:   12.6064    magn:   -4.2345    constr:    0.0000
     atom:   14    charge:    5.9730    magn:    0.0000    constr:    0.0000
     atom:   15    charge:   12.6064    magn:   -4.2345    constr:    0.0000
     atom:   16    charge:    5.9730    magn:    0.0000    constr:    0.0000

     total cpu time spent up to now is      234.3 secs

     total energy              =   -1946.25849327 Ry
     Harris-Foulkes estimate   =   -1946.25914923 Ry
     estimated scf accuracy    <       0.00922332 Ry

     total magnetization       =    -0.00 Bohr mag/cell
     absolute magnetization    =    37.78 Bohr mag/cell
 kfg - setting two_fermi_energies to FALSE

     iteration #  6     ecut=    41.00 Ry     beta=0.30
     Davidson diagonalization with overlap
     ethr =  5.49E-06,  avg # of iterations =  5.8

     negative rho (up, down):  3.623E-03 3.623E-03

     Magnetic moment per site:
     atom:    1    charge:   12.6028    magn:    4.2433    constr:    0.0000
     atom:    2    charge:    5.9727    magn:    0.0000    constr:    0.0000
     atom:    3    charge:   12.6028    magn:    4.2433    constr:    0.0000
     atom:    4    charge:    5.9727    magn:    0.0000    constr:    0.0000
     atom:    5    charge:   12.6028    magn:    4.2433    constr:    0.0000
     atom:    6    charge:    5.9727    magn:    0.0000    constr:    0.0000
     atom:    7    charge:   12.6028    magn:   -4.2433    constr:    0.0000
     atom:    8    charge:    5.9727    magn:    0.0000    constr:    0.0000
     atom:    9    charge:   12.6028    magn:    4.2433    constr:    0.0000
     atom:   10    charge:    5.9727    magn:    0.0000    constr:    0.0000
     atom:   11    charge:   12.6028    magn:   -4.2433    constr:    0.0000
     atom:   12    charge:    5.9727    magn:    0.0000    constr:    0.0000
     atom:   13    charge:   12.6028    magn:   -4.2433    constr:    0.0000
     atom:   14    charge:    5.9727    magn:    0.0000    constr:    0.0000
     atom:   15    charge:   12.6028    magn:   -4.2433    constr:    0.0000
     atom:   16    charge:    5.9727    magn:    0.0000    constr:    0.0000

     total cpu time spent up to now is      290.3 secs

     total energy              =   -1946.26030747 Ry
     Harris-Foulkes estimate   =   -1946.26035236 Ry
     estimated scf accuracy    <       0.00046785 Ry

     total magnetization       =    -0.00 Bohr mag/cell
     absolute magnetization    =    37.69 Bohr mag/cell

     iteration #  7     ecut=    41.00 Ry     beta=0.30
     Davidson diagonalization with overlap
     ethr =  2.78E-07,  avg # of iterations =  1.8

     negative rho (up, down):  3.613E-03 3.613E-03

     Magnetic moment per site:
     atom:    1    charge:   12.6009    magn:    4.2305    constr:    0.0000
     atom:    2    charge:    5.9727    magn:    0.0000    constr:    0.0000
     atom:    3    charge:   12.6009    magn:    4.2305    constr:    0.0000
     atom:    4    charge:    5.9727    magn:    0.0000    constr:    0.0000
     atom:    5    charge:   12.6009    magn:    4.2305    constr:    0.0000
     atom:    6    charge:    5.9727    magn:    0.0000    constr:    0.0000
     atom:    7    charge:   12.6009    magn:   -4.2305    constr:    0.0000
     atom:    8    charge:    5.9727    magn:    0.0000    constr:    0.0000
     atom:    9    charge:   12.6009    magn:    4.2305    constr:    0.0000
     atom:   10    charge:    5.9727    magn:    0.0000    constr:    0.0000
     atom:   11    charge:   12.6009    magn:   -4.2305    constr:    0.0000
     atom:   12    charge:    5.9727    magn:    0.0000    constr:    0.0000
     atom:   13    charge:   12.6009    magn:   -4.2305    constr:    0.0000
     atom:   14    charge:    5.9727    magn:    0.0000    constr:    0.0000
     atom:   15    charge:   12.6009    magn:   -4.2305    constr:    0.0000
     atom:   16    charge:    5.9727    magn:    0.0000    constr:    0.0000

     total cpu time spent up to now is      319.2 secs

     total energy              =   -1946.26035502 Ry
     Harris-Foulkes estimate   =   -1946.26033809 Ry
     estimated scf accuracy    <       0.00009456 Ry

     total magnetization       =     0.00 Bohr mag/cell
     absolute magnetization    =    37.68 Bohr mag/cell

     iteration #  8     ecut=    41.00 Ry     beta=0.30
     Davidson diagonalization with overlap
     ethr =  5.63E-08,  avg # of iterations =  3.2

     negative rho (up, down):  3.596E-03 3.596E-03

     Magnetic moment per site:
     atom:    1    charge:   12.6008    magn:    4.2297    constr:    0.0000
     atom:    2    charge:    5.9724    magn:    0.0000    constr:    0.0000
     atom:    3    charge:   12.6008    magn:    4.2297    constr:    0.0000
     atom:    4    charge:    5.9724    magn:    0.0000    constr:    0.0000
     atom:    5    charge:   12.6008    magn:    4.2297    constr:    0.0000
     atom:    6    charge:    5.9724    magn:    0.0000    constr:    0.0000
     atom:    7    charge:   12.6008    magn:   -4.2298    constr:    0.0000
     atom:    8    charge:    5.9724    magn:    0.0000    constr:    0.0000
     atom:    9    charge:   12.6008    magn:    4.2297    constr:    0.0000
     atom:   10    charge:    5.9724    magn:    0.0000    constr:    0.0000
     atom:   11    charge:   12.6008    magn:   -4.2298    constr:    0.0000
     atom:   12    charge:    5.9724    magn:    0.0000    constr:    0.0000
     atom:   13    charge:   12.6008    magn:   -4.2298    constr:    0.0000
     atom:   14    charge:    5.9724    magn:    0.0000    constr:    0.0000
     atom:   15    charge:   12.6008    magn:   -4.2298    constr:    0.0000
     atom:   16    charge:    5.9724    magn:    0.0000    constr:    0.0000

     total cpu time spent up to now is      356.7 secs

     total energy              =   -1946.26037324 Ry
     Harris-Foulkes estimate   =   -1946.26037094 Ry
     estimated scf accuracy    <       0.00000219 Ry

     total magnetization       =     0.00 Bohr mag/cell
     absolute magnetization    =    37.67 Bohr mag/cell

     iteration #  9     ecut=    41.00 Ry     beta=0.30
     Davidson diagonalization with overlap
     ethr =  1.31E-09,  avg # of iterations =  4.4

     negative rho (up, down):  3.587E-03 3.587E-03

     Magnetic moment per site:
     atom:    1    charge:   12.6007    magn:    4.2299    constr:    0.0000
     atom:    2    charge:    5.9722    magn:    0.0000    constr:    0.0000
     atom:    3    charge:   12.6007    magn:    4.2299    constr:    0.0000
     atom:    4    charge:    5.9722    magn:    0.0000    constr:    0.0000
     atom:    5    charge:   12.6007    magn:    4.2299    constr:    0.0000
     atom:    6    charge:    5.9722    magn:    0.0000    constr:    0.0000
     atom:    7    charge:   12.6007    magn:   -4.2299    constr:    0.0000
     atom:    8    charge:    5.9722    magn:    0.0000    constr:    0.0000
     atom:    9    charge:   12.6007    magn:    4.2299    constr:    0.0000
     atom:   10    charge:    5.9722    magn:    0.0000    constr:    0.0000
     atom:   11    charge:   12.6007    magn:   -4.2299    constr:    0.0000
     atom:   12    charge:    5.9722    magn:    0.0000    constr:    0.0000
     atom:   13    charge:   12.6007    magn:   -4.2299    constr:    0.0000
     atom:   14    charge:    5.9722    magn:    0.0000    constr:    0.0000
     atom:   15    charge:   12.6007    magn:   -4.2299    constr:    0.0000
     atom:   16    charge:    5.9722    magn:    0.0000    constr:    0.0000

     total cpu time spent up to now is      401.0 secs

     total energy              =   -1946.26037415 Ry
     Harris-Foulkes estimate   =   -1946.26037374 Ry
     estimated scf accuracy    <       0.00000072 Ry

     total magnetization       =     0.00 Bohr mag/cell
     absolute magnetization    =    37.67 Bohr mag/cell

     iteration # 10     ecut=    41.00 Ry     beta=0.30
     Davidson diagonalization with overlap
     ethr =  4.27E-10,  avg # of iterations =  2.0

     negative rho (up, down):  3.589E-03 3.589E-03

     Magnetic moment per site:
     atom:    1    charge:   12.6007    magn:    4.2299    constr:    0.0000
     atom:    2    charge:    5.9722    magn:    0.0000    constr:    0.0000
     atom:    3    charge:   12.6007    magn:    4.2299    constr:    0.0000
     atom:    4    charge:    5.9722    magn:    0.0000    constr:    0.0000
     atom:    5    charge:   12.6007    magn:    4.2299    constr:    0.0000
     atom:    6    charge:    5.9722    magn:    0.0000    constr:    0.0000
     atom:    7    charge:   12.6007    magn:   -4.2299    constr:    0.0000
     atom:    8    charge:    5.9722    magn:    0.0000    constr:    0.0000
     atom:    9    charge:   12.6007    magn:    4.2299    constr:    0.0000
     atom:   10    charge:    5.9722    magn:    0.0000    constr:    0.0000
     atom:   11    charge:   12.6007    magn:   -4.2299    constr:    0.0000
     atom:   12    charge:    5.9722    magn:    0.0000    constr:    0.0000
     atom:   13    charge:   12.6007    magn:   -4.2299    constr:    0.0000
     atom:   14    charge:    5.9722    magn:    0.0000    constr:    0.0000
     atom:   15    charge:   12.6007    magn:   -4.2299    constr:    0.0000
     atom:   16    charge:    5.9722    magn:    0.0000    constr:    0.0000

     total cpu time spent up to now is      433.3 secs

     total energy              =   -1946.26037451 Ry
     Harris-Foulkes estimate   =   -1946.26037427 Ry
     estimated scf accuracy    <       0.00000003 Ry

     total magnetization       =    -0.00 Bohr mag/cell
     absolute magnetization    =    37.67 Bohr mag/cell

     iteration # 11     ecut=    41.00 Ry     beta=0.30
     Davidson diagonalization with overlap
     ethr =  1.76E-11,  avg # of iterations =  3.6

     negative rho (up, down):  3.589E-03 3.589E-03

     Magnetic moment per site:
     atom:    1    charge:   12.6007    magn:    4.2299    constr:    0.0000
     atom:    2    charge:    5.9722    magn:   -0.0000    constr:    0.0000
     atom:    3    charge:   12.6007    magn:    4.2299    constr:    0.0000
     atom:    4    charge:    5.9722    magn:   -0.0000    constr:    0.0000
     atom:    5    charge:   12.6007    magn:    4.2299    constr:    0.0000
     atom:    6    charge:    5.9722    magn:   -0.0000    constr:    0.0000
     atom:    7    charge:   12.6007    magn:   -4.2299    constr:    0.0000
     atom:    8    charge:    5.9722    magn:   -0.0000    constr:    0.0000
     atom:    9    charge:   12.6007    magn:    4.2299    constr:    0.0000
     atom:   10    charge:    5.9722    magn:   -0.0000    constr:    0.0000
     atom:   11    charge:   12.6007    magn:   -4.2299    constr:    0.0000
     atom:   12    charge:    5.9722    magn:   -0.0000    constr:    0.0000
     atom:   13    charge:   12.6007    magn:   -4.2299    constr:    0.0000
     atom:   14    charge:    5.9722    magn:   -0.0000    constr:    0.0000
     atom:   15    charge:   12.6007    magn:   -4.2299    constr:    0.0000
     atom:   16    charge:    5.9722    magn:   -0.0000    constr:    0.0000

     total cpu time spent up to now is      476.2 secs

     total energy              =   -1946.26037462 Ry
     Harris-Foulkes estimate   =   -1946.26037452 Ry
     estimated scf accuracy    <       0.00000003 Ry

     total magnetization       =     0.00 Bohr mag/cell
     absolute magnetization    =    37.67 Bohr mag/cell

     iteration # 12     ecut=    41.00 Ry     beta=0.30
     Davidson diagonalization with overlap
     ethr =  1.76E-11,  avg # of iterations =  3.0

     negative rho (up, down):  3.588E-03 3.588E-03

     Magnetic moment per site:
     atom:    1    charge:   12.6007    magn:    4.2299    constr:    0.0000
     atom:    2    charge:    5.9722    magn:   -0.0000    constr:    0.0000
     atom:    3    charge:   12.6007    magn:    4.2299    constr:    0.0000
     atom:    4    charge:    5.9722    magn:   -0.0000    constr:    0.0000
     atom:    5    charge:   12.6007    magn:    4.2299    constr:    0.0000
     atom:    6    charge:    5.9722    magn:   -0.0000    constr:    0.0000
     atom:    7    charge:   12.6007    magn:   -4.2299    constr:    0.0000
     atom:    8    charge:    5.9722    magn:   -0.0000    constr:    0.0000
     atom:    9    charge:   12.6007    magn:    4.2299    constr:    0.0000
     atom:   10    charge:    5.9722    magn:   -0.0000    constr:    0.0000
     atom:   11    charge:   12.6007    magn:   -4.2299    constr:    0.0000
     atom:   12    charge:    5.9722    magn:   -0.0000    constr:    0.0000
     atom:   13    charge:   12.6007    magn:   -4.2299    constr:    0.0000
     atom:   14    charge:    5.9722    magn:   -0.0000    constr:    0.0000
     atom:   15    charge:   12.6007    magn:   -4.2299    constr:    0.0000
     atom:   16    charge:    5.9722    magn:   -0.0000    constr:    0.0000

     total cpu time spent up to now is      512.9 secs

     End of self-consistent calculation
 --- enter write_ns ---
 LDA+U parameters:
U( 1)     =  3.00000000
alpha( 1) =  0.00000000
U( 2)     =  3.00000000
alpha( 2) =  0.00000000
atom    1   Tr[ns(na)] (up, down, total) =   4.98544  0.49926  5.48470
   spin  1
    eigenvalues: 
  0.996  0.996  0.997  0.998  0.998
    eigenvectors:
  0.365  0.464  0.000  0.134  0.037
  0.011  0.103  0.333  0.394  0.159
  0.109  0.005  0.333  0.001  0.552
  0.464  0.365  0.000  0.037  0.134
  0.050  0.064  0.333  0.434  0.118
    occupations:
  0.997  0.000  0.000  0.000  0.000
  0.000  0.997  0.000  0.000 -0.000
  0.000  0.000  0.997 -0.000 -0.000
  0.000  0.000 -0.000  0.997 -0.000
  0.000 -0.000 -0.000 -0.000  0.997
   spin  2
    eigenvalues: 
  0.056  0.056  0.057  0.165  0.165
    eigenvectors:
  0.001  0.000  0.000  0.308  0.692
  0.285  0.381  0.333  0.000  0.000
  0.071  0.595  0.333  0.000  0.000
  0.000  0.001  0.000  0.692  0.308
  0.642  0.024  0.333  0.000  0.000
    occupations:
  0.165 -0.001 -0.001  0.000 -0.002
 -0.001  0.056  0.000 -0.002 -0.000
 -0.001  0.000  0.056  0.002 -0.000
  0.000 -0.002  0.002  0.165 -0.000
 -0.002 -0.000 -0.000 -0.000  0.056
atomic mag. moment =     4.486185
atom    3   Tr[ns(na)] (up, down, total) =   4.98544  0.49926  5.48470
   spin  1
    eigenvalues: 
  0.996  0.996  0.997  0.998  0.998
    eigenvectors:
  0.187  0.642  0.000  0.079  0.092
  0.031  0.083  0.333  0.049  0.504
  0.114  0.000  0.333  0.526  0.027
  0.642  0.187  0.000  0.092  0.079
  0.026  0.088  0.333  0.254  0.299
    occupations:
  0.997 -0.000  0.000  0.000 -0.000
 -0.000  0.997 -0.000 -0.000 -0.000
  0.000 -0.000  0.997 -0.000  0.000
  0.000 -0.000 -0.000  0.997 -0.000
 -0.000 -0.000  0.000 -0.000  0.997
   spin  2
    eigenvalues: 
  0.056  0.056  0.057  0.165  0.165
    eigenvectors:
  0.000  0.000  0.000  0.231  0.768
  0.055  0.611  0.333  0.000  0.000
  0.631  0.035  0.333  0.000  0.000
  0.000  0.000  0.000  0.768  0.231
  0.313  0.353  0.333  0.000  0.000
    occupations:
  0.165  0.001 -0.001  0.000  0.002
  0.001  0.056 -0.000  0.002 -0.000
 -0.001 -0.000  0.056  0.002  0.000
  0.000  0.002  0.002  0.165 -0.000
  0.002 -0.000  0.000 -0.000  0.056
atomic mag. moment =     4.486185
atom    5   Tr[ns(na)] (up, down, total) =   4.98544  0.49926  5.48470
   spin  1
    eigenvalues: 
  0.996  0.996  0.997  0.998  0.998
    eigenvectors:
  0.007  0.822  0.000  0.159  0.012
  0.076  0.038  0.333  0.282  0.271
  0.094  0.020  0.333  0.034  0.518
  0.822  0.007  0.000  0.012  0.159
  0.001  0.113  0.333  0.513  0.040
    occupations:
  0.997  0.000 -0.000  0.000 -0.000
  0.000  0.997 -0.000  0.000  0.000
 -0.000 -0.000  0.997  0.000 -0.000
  0.000  0.000  0.000  0.997 -0.000
 -0.000  0.000 -0.000 -0.000  0.997
   spin  2
    eigenvalues: 
  0.056  0.056  0.057  0.165  0.165
    eigenvectors:
  0.000  0.000  0.000  0.237  0.762
  0.649  0.017  0.333  0.000  0.000
  0.084  0.582  0.333  0.000  0.000
  0.000  0.000  0.000  0.762  0.237
  0.266  0.400  0.333  0.000  0.000
    occupations:
  0.165 -0.001  0.001  0.000  0.002
 -0.001  0.056 -0.000 -0.002  0.000
  0.001 -0.000  0.056 -0.002 -0.000
  0.000 -0.002 -0.002  0.165 -0.000
  0.002  0.000 -0.000 -0.000  0.056
atomic mag. moment =     4.486185
atom    7   Tr[ns(na)] (up, down, total) =   0.49926  4.98544  5.48470
   spin  1
    eigenvalues: 
  0.056  0.056  0.057  0.165  0.165
    eigenvectors:
  0.001  0.000  0.000  0.381  0.619
  0.106  0.560  0.333  0.000  0.000
  0.235  0.431  0.333  0.000  0.000
  0.000  0.001  0.000  0.619  0.381
  0.658  0.008  0.333  0.000  0.000
    occupations:
  0.165  0.001  0.001  0.000 -0.002
  0.001  0.056  0.000  0.002  0.000
  0.001  0.000  0.056 -0.002  0.000
  0.000  0.002 -0.002  0.165 -0.000
 -0.002  0.000  0.000 -0.000  0.056
   spin  2
    eigenvalues: 
  0.996  0.996  0.997  0.998  0.998
    eigenvectors:
  0.584  0.245  0.000  0.161  0.010
  0.000  0.114  0.333  0.264  0.289
  0.090  0.024  0.333  0.043  0.509
  0.245  0.584  0.000  0.010  0.161
  0.080  0.034  0.333  0.522  0.031
    occupations:
  0.997 -0.000 -0.000  0.000  0.000
 -0.000  0.997  0.000 -0.000  0.000
 -0.000  0.000  0.997  0.000  0.000
  0.000 -0.000  0.000  0.997 -0.000
  0.000  0.000  0.000 -0.000  0.997
atomic mag. moment =    -4.486185
atom    9   Tr[ns(na)] (up, down, total) =   4.98544  0.49926  5.48470
   spin  1
    eigenvalues: 
  0.996  0.996  0.997  0.998  0.998
    eigenvectors:
  0.602  0.227  0.000  0.163  0.008
  0.000  0.114  0.333  0.255  0.297
  0.088  0.026  0.333  0.048  0.504
  0.227  0.602  0.000  0.008  0.163
  0.083  0.031  0.333  0.525  0.027
    occupations:
  0.997 -0.000 -0.000  0.000  0.000
 -0.000  0.997  0.000 -0.000  0.000
 -0.000  0.000  0.997  0.000  0.000
  0.000 -0.000  0.000  0.997 -0.000
  0.000  0.000  0.000 -0.000  0.997
   spin  2
    eigenvalues: 
  0.056  0.056  0.057  0.165  0.165
    eigenvectors:
  0.001  0.000  0.000  0.310  0.689
  0.106  0.561  0.333  0.000  0.000
  0.236  0.430  0.333  0.000  0.000
  0.000  0.001  0.000  0.689  0.310
  0.658  0.009  0.333  0.000  0.000
    occupations:
  0.165  0.001  0.001  0.000 -0.002
  0.001  0.056  0.000  0.002  0.000
  0.001  0.000  0.056 -0.002  0.000
  0.000  0.002 -0.002  0.165 -0.000
 -0.002  0.000  0.000 -0.000  0.056
atomic mag. moment =     4.486185
atom   11   Tr[ns(na)] (up, down, total) =   0.49926  4.98544  5.48470
   spin  1
    eigenvalues: 
  0.056  0.056  0.057  0.165  0.165
    eigenvectors:
  0.000  0.000  0.000  0.301  0.698
  0.642  0.024  0.333  0.000  0.000
  0.071  0.595  0.333  0.000  0.000
  0.000  0.000  0.000  0.698  0.301
  0.286  0.381  0.333  0.000  0.000
    occupations:
  0.165 -0.001  0.001  0.000  0.002
 -0.001  0.056 -0.000 -0.002  0.000
  0.001 -0.000  0.056 -0.002 -0.000
  0.000 -0.002 -0.002  0.165 -0.000
  0.002  0.000 -0.000 -0.000  0.056
   spin  2
    eigenvalues: 
  0.996  0.996  0.997  0.998  0.998
    eigenvectors:
  0.005  0.824  0.000  0.159  0.012
  0.077  0.037  0.333  0.280  0.273
  0.093  0.021  0.333  0.035  0.517
  0.824  0.005  0.000  0.012  0.159
  0.001  0.113  0.333  0.514  0.039
    occupations:
  0.997  0.000 -0.000  0.000 -0.000
  0.000  0.997 -0.000  0.000  0.000
 -0.000 -0.000  0.997  0.000 -0.000
  0.000  0.000  0.000  0.997 -0.000
 -0.000  0.000 -0.000 -0.000  0.997
atomic mag. moment =    -4.486185
atom   13   Tr[ns(na)] (up, down, total) =   0.49926  4.98544  5.48470
   spin  1
    eigenvalues: 
  0.056  0.056  0.057  0.165  0.165
    eigenvectors:
  0.000  0.000  0.000  0.229  0.770
  0.039  0.628  0.333  0.000  0.000
  0.615  0.051  0.333  0.000  0.000
  0.000  0.000  0.000  0.770  0.229
  0.346  0.320  0.333  0.000  0.000
    occupations:
  0.165  0.001 -0.001  0.000  0.002
  0.001  0.056 -0.000  0.002 -0.000
 -0.001 -0.000  0.056  0.002  0.000
  0.000  0.002  0.002  0.165 -0.000
  0.002 -0.000  0.000 -0.000  0.056
   spin  2
    eigenvalues: 
  0.996  0.996  0.997  0.998  0.998
    eigenvectors:
  0.041  0.788  0.000  0.077  0.094
  0.061  0.053  0.333  0.052  0.500
  0.104  0.010  0.333  0.529  0.024
  0.788  0.041  0.000  0.094  0.077
  0.006  0.108  0.333  0.248  0.305
    occupations:
  0.997 -0.000  0.000  0.000 -0.000
 -0.000  0.997 -0.000 -0.000 -0.000
  0.000 -0.000  0.997 -0.000  0.000
  0.000 -0.000 -0.000  0.997 -0.000
 -0.000 -0.000  0.000 -0.000  0.997
atomic mag. moment =    -4.486185
atom   15   Tr[ns(na)] (up, down, total) =   0.49926  4.98544  5.48470
   spin  1
    eigenvalues: 
  0.056  0.056  0.057  0.165  0.165
    eigenvectors:
  0.001  0.000  0.000  0.294  0.705
  0.292  0.375  0.333  0.000  0.000
  0.068  0.599  0.333  0.000  0.000
  0.000  0.001  0.000  0.705  0.294
  0.640  0.026  0.333  0.000  0.000
    occupations:
  0.165 -0.001 -0.001  0.000 -0.002
 -0.001  0.056  0.000 -0.002 -0.000
 -0.001  0.000  0.056  0.002 -0.000
  0.000 -0.002  0.002  0.165 -0.000
 -0.002 -0.000 -0.000 -0.000  0.056
   spin  2
    eigenvalues: 
  0.996  0.996  0.997  0.998  0.998
    eigenvectors:
  0.327  0.502  0.000  0.127  0.044
  0.015  0.099  0.333  0.419  0.133
  0.111  0.003  0.333  0.000  0.553
  0.502  0.327  0.000  0.044  0.127
  0.045  0.069  0.333  0.410  0.143
    occupations:
  0.997  0.000  0.000  0.000  0.000
  0.000  0.997  0.000  0.000 -0.000
  0.000  0.000  0.997 -0.000 -0.000
  0.000  0.000 -0.000  0.997 -0.000
  0.000 -0.000 -0.000 -0.000  0.997
atomic mag. moment =    -4.486185
N of occupied +U levels =   43.877581
 --- exit write_ns ---

 ------ SPIN UP ------------


          k = 0.0000 0.0000 0.0000 (  5329 PWs)   bands (ev):

   -68.9473 -68.9437 -68.9437 -68.9437 -63.8136 -63.8091 -63.8091 -63.8091
   -37.8414 -37.8289 -37.8289 -37.8289 -37.8235 -37.8235 -37.8084 -37.8084
   -37.8084 -37.7956 -37.7956 -37.7956 -32.8409 -32.8140 -32.8140 -32.8140
   -32.8029 -32.8029 -32.7835 -32.7835 -32.7835 -32.7773 -32.7773 -32.7773
    -6.8289  -5.9775  -5.9775  -5.9775  -5.8604  -5.8604  -5.8604  -5.8603
     4.6648   4.7960   4.7960   4.7960   6.2573   6.2573   6.2613   6.4752
     6.4752   6.6400   6.6400   6.6400   6.6951   6.6951   6.6951   7.7486
     7.7486   8.3195   8.4396   8.4396   8.4396   8.4420   8.4420   8.4420
     8.4569   8.4569   8.4569   8.9107   8.9107   8.9107   9.3856   9.3856
     9.3856   9.4706   9.4706   9.4706  10.7039  10.7039  10.9856  10.9856
    10.9856  11.1095  11.1095  11.1095  12.6422  14.6862  14.7122  14.7122
    15.3874  15.3874  15.3874  16.0880  16.0880  16.0880  16.1427  16.1427
    16.1428  16.2573  16.2573  16.4679  16.4679

          k =-0.1768 0.1768 0.1768 (  5402 PWs)   bands (ev):

   -68.9470 -68.9439 -68.9439 -68.9434 -63.8130 -63.8100 -63.8088 -63.8088
   -37.8379 -37.8273 -37.8273 -37.8269 -37.8222 -37.8222 -37.8105 -37.8105
   -37.8083 -37.8016 -37.7963 -37.7963 -32.8356 -32.8121 -32.8117 -32.8117
   -32.8017 -32.8017 -32.7867 -32.7867 -32.7844 -32.7836 -32.7780 -32.7780
    -6.7010  -6.0248  -6.0158  -5.9691  -5.9691  -5.8715  -5.8715  -5.8180
     4.9501   5.0613   5.0613   5.1977   6.1102   6.1102   6.1918   6.4600
     6.4600   6.6216   6.6449   6.6669   6.6669   6.8982   6.8982   7.4106
     7.4106   7.6822   8.0154   8.1250   8.1250   8.3314   8.3314   8.3986
     8.5721   8.5721   8.7729   8.9112   9.0381   9.1114   9.1114   9.2403
     9.2403   9.4034   9.4034   9.4234  10.8949  10.8949  10.9402  11.0065
    11.0065  11.0640  11.1037  11.1037  13.6045  14.6791  14.7554  14.7554
    15.3127  15.3906  15.3906  15.6940  15.8525  15.8525  16.0362  16.0362
    16.1288  16.1288  16.1345  16.1432  16.2972

          k = 0.3536-0.3536-0.3536 (  5444 PWs)   bands (ev):

   -68.9468 -68.9441 -68.9441 -68.9429 -63.8118 -63.8116 -63.8084 -63.8084
   -37.8347 -37.8259 -37.8259 -37.8196 -37.8181 -37.8181 -37.8153 -37.8153
   -37.8125 -37.8082 -37.7969 -37.7969 -32.8304 -32.8097 -32.8097 -32.8016
   -32.8001 -32.7955 -32.7955 -32.7947 -32.7947 -32.7837 -32.7785 -32.7785
    -6.3880  -6.3616  -6.0527  -5.9586  -5.9586  -5.8846  -5.8846  -5.7894
     5.3908   5.5291   5.5291   5.9320   5.9320   5.9815   6.0302   6.3165
     6.3165   6.5049   6.6498   6.6892   6.6892   6.7193   6.8227   6.8227
     7.5389   7.5389   7.5878   7.7105   7.7105   8.3261   8.3261   8.3591
     8.4752   8.4752   8.7626   8.9117   9.0778   9.1106   9.1106   9.3011
     9.3011   9.3690   9.3690   9.4059  10.7780  10.9502  10.9502  10.9811
    10.9811  11.1421  11.2392  11.2392  14.5914  14.7920  14.7921  14.9903
    15.1156  15.5143  15.5143  15.5882  15.6684  15.6686  15.7517  15.9906
    15.9907  16.0256  16.1032  16.1032  16.1142

          k = 0.0000 0.0000 0.3536 (  5425 PWs)   bands (ev):

   -68.9467 -68.9441 -68.9436 -68.9436 -63.8128 -63.8098 -63.8089 -63.8089
   -37.8361 -37.8284 -37.8256 -37.8256 -37.8229 -37.8213 -37.8106 -37.8101
   -37.8101 -37.8021 -37.7972 -37.7972 -32.8331 -32.8145 -32.8092 -32.8092
   -32.8033 -32.8001 -32.7868 -32.7868 -32.7864 -32.7847 -32.7790 -32.7790
    -6.6654  -6.0881  -5.9580  -5.9580  -5.9220  -5.8883  -5.8854  -5.8854
     5.0438   5.1358   5.1812   5.1812   5.9257   6.2916   6.3238   6.3893
     6.5524   6.5524   6.5589   6.7326   6.7674   6.7674   7.0556   7.2166
     7.3369   7.7392   7.7392   7.9368   8.1505   8.1505   8.3372   8.4480
     8.5022   8.5022   8.7830   8.9227   9.1042   9.1353   9.1353   9.3742
     9.3919   9.3919   9.6494   9.6494  10.6691  10.7362  10.7382  10.9148
    10.9199  10.9199  11.0702  11.0702  13.8647  14.7744  14.7820  14.8833
    15.2551  15.3777  15.3777  15.5610  15.8606  15.8606  15.9232  15.9399
    15.9740  16.0365  16.0365  16.2007  16.2007

          k = 0.5303-0.5303-0.1768 (  5413 PWs)   bands (ev):

   -68.9462 -68.9444 -68.9438 -68.9433 -63.8119 -63.8109 -63.8088 -63.8086
   -37.8316 -37.8259 -37.8236 -37.8234 -37.8181 -37.8179 -37.8157 -37.8155
   -37.8101 -37.8089 -37.7992 -37.7979 -32.8256 -32.8127 -32.8059 -32.8058
   -32.7992 -32.7975 -32.7958 -32.7944 -32.7882 -32.7866 -32.7818 -32.7795
    -6.4252  -6.1986  -6.1365  -5.9885  -5.9715  -5.8736  -5.8718  -5.8196
     5.4503   5.5476   5.5719   5.7907   5.8863   6.1010   6.1259   6.2914
     6.4006   6.5231   6.6165   6.6750   6.7184   6.8079   6.8583   7.2028
     7.2371   7.3774   7.4684   7.5965   7.7951   7.9508   7.9881   8.3706
     8.4919   8.8064   8.8665   8.9220   9.1372   9.1558   9.2073   9.3350
     9.4262   9.5355   9.6276   9.6377  10.5159  10.7098  10.7431  10.7543
    10.9275  10.9652  10.9847  11.0934  14.7401  14.8604  14.9348  15.0098
    15.2025  15.2658  15.4903  15.5348  15.5735  15.6623  15.8683  15.9132
    15.9345  15.9478  15.9629  16.1555  16.1995

          k = 0.3536-0.3536 0.0000 (  5416 PWs)   bands (ev):

   -68.9465 -68.9441 -68.9439 -68.9433 -63.8122 -63.8107 -63.8089 -63.8084
   -37.8334 -37.8258 -37.8245 -37.8245 -37.8220 -37.8173 -37.8165 -37.8112
   -37.8096 -37.8065 -37.7992 -37.7971 -32.8287 -32.8114 -32.8079 -32.8078
   -32.8019 -32.7973 -32.7959 -32.7879 -32.7872 -32.7857 -32.7821 -32.7788
    -6.5138  -6.1130  -6.1123  -6.0222  -5.9797  -5.8684  -5.8626  -5.8036
     5.3273   5.4097   5.5308   5.6073   5.9124   5.9682   6.1892   6.3215
     6.3925   6.6130   6.6316   6.6622   6.6751   6.9313   6.9804   7.2084
     7.2416   7.4926   7.6035   7.6878   7.7765   7.9625   8.0928   8.4265
     8.5032   8.7470   8.9038   8.9350   8.9845   9.0695   9.0980   9.3443
     9.3599   9.4401   9.5385   9.7158  10.6644  10.7347  10.8514  10.8817
    10.9452  10.9892  11.0747  11.2082  14.6013  14.7137  14.8977  14.9193
    15.1933  15.3716  15.3805  15.5847  15.7389  15.8465  15.8812  15.8899
    15.9165  15.9666  16.0410  16.0736  16.1509

          k = 0.0000 0.0000-0.7071 (  5434 PWs)   bands (ev):

   -68.9453 -68.9453 -68.9435 -68.9435 -63.8113 -63.8113 -63.8088 -63.8088
   -37.8285 -37.8285 -37.8195 -37.8195 -37.8163 -37.8163 -37.8160 -37.8160
   -37.8149 -37.8149 -37.7986 -37.7986 -32.8188 -32.8188 -32.7992 -32.7992
   -32.7987 -32.7987 -32.7965 -32.7965 -32.7933 -32.7933 -32.7800 -32.7800
    -6.3255  -6.3255  -5.9823  -5.9823  -5.9738  -5.9738  -5.8646  -5.8646
     5.5028   5.5028   5.6050   5.6050   6.2024   6.2024   6.3302   6.3302
     6.5551   6.5551   6.7450   6.7450   6.7649   6.7649   6.8718   6.8718
     6.8742   6.8742   7.4714   7.4714   7.9292   7.9292   8.3119   8.3119
     8.5936   8.5936   8.9513   8.9513   9.1966   9.1966   9.5009   9.5009
     9.6504   9.6504   9.9059   9.9059  10.0372  10.0372  10.4653  10.4653
    10.7965  10.7965  11.0313  11.0313  14.8551  14.8551  15.0135  15.0135
    15.2760  15.2760  15.4081  15.4081  15.5947  15.5947  15.7449  15.7449
    15.7924  15.7924  16.1319  16.1319  16.3511

          k = 0.0000 0.3536-0.7071 (  5400 PWs)   bands (ev):

   -68.9453 -68.9453 -68.9435 -68.9435 -63.8113 -63.8113 -63.8088 -63.8088
   -37.8267 -37.8267 -37.8234 -37.8234 -37.8175 -37.8175 -37.8161 -37.8161
   -37.8106 -37.8106 -37.7996 -37.7996 -32.8174 -32.8174 -32.8054 -32.8054
   -32.7977 -32.7977 -32.7960 -32.7960 -32.7881 -32.7881 -32.7821 -32.7821
    -6.2267  -6.2267  -6.1847  -6.1847  -5.9018  -5.9018  -5.8343  -5.8343
     5.7445   5.7445   5.7571   5.7571   5.9440   5.9440   6.1308   6.1308
     6.3577   6.3577   6.7508   6.7508   6.8238   6.8238   6.8753   6.8753
     7.3558   7.3558   7.4672   7.4672   7.8486   7.8486   7.8558   7.8558
     8.8009   8.8009   8.8613   8.8613   9.2255   9.2255   9.2555   9.2555
     9.6077   9.6077   9.8478   9.8478  10.2917  10.2917  10.6216  10.6216
    10.9261  10.9261  11.0431  11.0431  15.0713  15.0713  15.0766  15.0766
    15.1353  15.1353  15.3431  15.3431  15.6748  15.6748  15.8171  15.8171
    15.9157  15.9157  15.9454  15.9454  16.1805

 ------ SPIN DOWN ----------


          k = 0.0000 0.0000 0.0000 (  5329 PWs)   bands (ev):

   -68.9473 -68.9437 -68.9437 -68.9437 -63.8136 -63.8091 -63.8091 -63.8091
   -37.8414 -37.8289 -37.8289 -37.8289 -37.8235 -37.8235 -37.8084 -37.8084
   -37.8084 -37.7956 -37.7956 -37.7956 -32.8409 -32.8140 -32.8140 -32.8140
   -32.8029 -32.8029 -32.7835 -32.7835 -32.7835 -32.7773 -32.7773 -32.7773
    -6.8289  -5.9775  -5.9775  -5.9775  -5.8604  -5.8604  -5.8604  -5.8603
     4.6648   4.7960   4.7960   4.7960   6.2573   6.2573   6.2613   6.4752
     6.4752   6.6400   6.6400   6.6400   6.6951   6.6951   6.6951   7.7486
     7.7486   8.3195   8.4396   8.4396   8.4396   8.4420   8.4420   8.4420
     8.4569   8.4569   8.4569   8.9107   8.9107   8.9107   9.3856   9.3856
     9.3856   9.4706   9.4706   9.4706  10.7039  10.7039  10.9856  10.9856
    10.9856  11.1095  11.1095  11.1095  12.6422  14.6862  14.7122  14.7122
    15.3874  15.3874  15.3874  16.0880  16.0880  16.0880  16.1427  16.1427
    16.1427  16.2573  16.2573  16.4679  16.4680

          k =-0.1768 0.1768 0.1768 (  5402 PWs)   bands (ev):

   -68.9470 -68.9439 -68.9439 -68.9434 -63.8130 -63.8100 -63.8088 -63.8088
   -37.8379 -37.8273 -37.8273 -37.8269 -37.8222 -37.8222 -37.8105 -37.8105
   -37.8083 -37.8016 -37.7963 -37.7963 -32.8356 -32.8121 -32.8117 -32.8117
   -32.8017 -32.8017 -32.7867 -32.7867 -32.7844 -32.7836 -32.7780 -32.7780
    -6.7010  -6.0248  -6.0158  -5.9691  -5.9691  -5.8715  -5.8715  -5.8180
     4.9501   5.0613   5.0613   5.1977   6.1102   6.1102   6.1918   6.4600
     6.4600   6.6216   6.6449   6.6669   6.6669   6.8982   6.8982   7.4106
     7.4106   7.6822   8.0154   8.1250   8.1250   8.3314   8.3314   8.3986
     8.5721   8.5721   8.7729   8.9112   9.0381   9.1114   9.1114   9.2403
     9.2403   9.4034   9.4034   9.4234  10.8949  10.8949  10.9402  11.0065
    11.0065  11.0640  11.1037  11.1037  13.6045  14.6791  14.7554  14.7554
    15.3127  15.3906  15.3906  15.6940  15.8525  15.8525  16.0362  16.0362
    16.1288  16.1288  16.1345  16.1432  16.2972

          k = 0.3536-0.3536-0.3536 (  5444 PWs)   bands (ev):

   -68.9468 -68.9441 -68.9441 -68.9429 -63.8118 -63.8116 -63.8084 -63.8084
   -37.8347 -37.8260 -37.8260 -37.8196 -37.8181 -37.8181 -37.8153 -37.8153
   -37.8125 -37.8082 -37.7969 -37.7969 -32.8304 -32.8097 -32.8097 -32.8016
   -32.8001 -32.7955 -32.7955 -32.7947 -32.7947 -32.7837 -32.7785 -32.7785
    -6.3880  -6.3616  -6.0527  -5.9586  -5.9586  -5.8846  -5.8846  -5.7894
     5.3908   5.5291   5.5291   5.9320   5.9320   5.9815   6.0302   6.3165
     6.3165   6.5049   6.6498   6.6892   6.6892   6.7193   6.8227   6.8227
     7.5389   7.5389   7.5878   7.7105   7.7105   8.3261   8.3261   8.3591
     8.4752   8.4752   8.7626   8.9117   9.0778   9.1106   9.1106   9.3011
     9.3011   9.3690   9.3690   9.4059  10.7780  10.9502  10.9502  10.9811
    10.9811  11.1421  11.2392  11.2392  14.5914  14.7921  14.7921  14.9903
    15.1156  15.5143  15.5143  15.5882  15.6684  15.6685  15.7517  15.9906
    15.9908  16.0256  16.1032  16.1032  16.1142

          k = 0.0000 0.0000 0.3536 (  5425 PWs)   bands (ev):

   -68.9467 -68.9441 -68.9436 -68.9436 -63.8128 -63.8098 -63.8089 -63.8089
   -37.8361 -37.8284 -37.8256 -37.8256 -37.8229 -37.8213 -37.8106 -37.8101
   -37.8101 -37.8021 -37.7972 -37.7972 -32.8331 -32.8145 -32.8092 -32.8092
   -32.8033 -32.8001 -32.7868 -32.7868 -32.7864 -32.7847 -32.7790 -32.7790
    -6.6654  -6.0881  -5.9580  -5.9580  -5.9220  -5.8883  -5.8854  -5.8854
     5.0438   5.1358   5.1812   5.1812   5.9257   6.2916   6.3238   6.3893
     6.5524   6.5524   6.5589   6.7326   6.7674   6.7674   7.0556   7.2166
     7.3369   7.7392   7.7392   7.9368   8.1505   8.1505   8.3372   8.4480
     8.5022   8.5022   8.7830   8.9227   9.1042   9.1353   9.1353   9.3742
     9.3919   9.3919   9.6494   9.6494  10.6690  10.7362  10.7382  10.9148
    10.9199  10.9199  11.0702  11.0702  13.8647  14.7744  14.7820  14.8833
    15.2551  15.3777  15.3777  15.5610  15.8606  15.8606  15.9232  15.9399
    15.9740  16.0365  16.0365  16.2007  16.2007

          k = 0.5303-0.5303-0.1768 (  5413 PWs)   bands (ev):

   -68.9462 -68.9444 -68.9438 -68.9433 -63.8119 -63.8109 -63.8088 -63.8086
   -37.8316 -37.8259 -37.8236 -37.8234 -37.8181 -37.8179 -37.8157 -37.8155
   -37.8101 -37.8089 -37.7992 -37.7979 -32.8256 -32.8127 -32.8059 -32.8058
   -32.7992 -32.7975 -32.7958 -32.7944 -32.7882 -32.7865 -32.7818 -32.7795
    -6.4252  -6.1986  -6.1365  -5.9885  -5.9715  -5.8736  -5.8718  -5.8196
     5.4503   5.5476   5.5719   5.7907   5.8863   6.1010   6.1259   6.2914
     6.4006   6.5231   6.6165   6.6750   6.7184   6.8079   6.8583   7.2028
     7.2371   7.3774   7.4684   7.5965   7.7951   7.9508   7.9881   8.3706
     8.4919   8.8063   8.8665   8.9220   9.1372   9.1558   9.2073   9.3350
     9.4262   9.5355   9.6276   9.6377  10.5159  10.7098  10.7431  10.7543
    10.9275  10.9652  10.9847  11.0934  14.7401  14.8604  14.9348  15.0098
    15.2025  15.2658  15.4903  15.5348  15.5735  15.6623  15.8683  15.9132
    15.9345  15.9478  15.9629  16.1555  16.1995

          k = 0.3536-0.3536 0.0000 (  5416 PWs)   bands (ev):

   -68.9465 -68.9441 -68.9439 -68.9433 -63.8122 -63.8107 -63.8089 -63.8084
   -37.8334 -37.8258 -37.8245 -37.8245 -37.8220 -37.8173 -37.8165 -37.8112
   -37.8096 -37.8065 -37.7992 -37.7971 -32.8287 -32.8114 -32.8079 -32.8078
   -32.8019 -32.7973 -32.7959 -32.7879 -32.7872 -32.7857 -32.7821 -32.7788
    -6.5138  -6.1130  -6.1123  -6.0222  -5.9797  -5.8684  -5.8626  -5.8036
     5.3273   5.4097   5.5308   5.6073   5.9124   5.9682   6.1892   6.3215
     6.3924   6.6130   6.6316   6.6622   6.6751   6.9313   6.9804   7.2084
     7.2416   7.4926   7.6035   7.6878   7.7765   7.9625   8.0928   8.4265
     8.5032   8.7470   8.9038   8.9350   8.9845   9.0695   9.0980   9.3443
     9.3599   9.4401   9.5385   9.7158  10.6644  10.7347  10.8514  10.8817
    10.9452  10.9892  11.0747  11.2082  14.6013  14.7137  14.8977  14.9193
    15.1933  15.3716  15.3805  15.5847  15.7389  15.8465  15.8812  15.8899
    15.9165  15.9667  16.0410  16.0736  16.1509

          k = 0.0000 0.0000-0.7071 (  5434 PWs)   bands (ev):

   -68.9453 -68.9453 -68.9435 -68.9435 -63.8113 -63.8113 -63.8088 -63.8088
   -37.8285 -37.8285 -37.8195 -37.8195 -37.8163 -37.8163 -37.8160 -37.8160
   -37.8149 -37.8149 -37.7986 -37.7986 -32.8188 -32.8188 -32.7992 -32.7992
   -32.7987 -32.7987 -32.7965 -32.7965 -32.7933 -32.7933 -32.7800 -32.7800
    -6.3256  -6.3256  -5.9823  -5.9823  -5.9738  -5.9738  -5.8646  -5.8646
     5.5028   5.5028   5.6050   5.6050   6.2024   6.2024   6.3302   6.3302
     6.5551   6.5551   6.7450   6.7450   6.7649   6.7649   6.8718   6.8718
     6.8742   6.8742   7.4714   7.4714   7.9292   7.9292   8.3119   8.3119
     8.5936   8.5936   8.9513   8.9513   9.1966   9.1966   9.5009   9.5009
     9.6504   9.6504   9.9059   9.9059  10.0372  10.0372  10.4653  10.4653
    10.7965  10.7965  11.0313  11.0313  14.8551  14.8551  15.0135  15.0135
    15.2760  15.2760  15.4081  15.4081  15.5947  15.5947  15.7449  15.7449
    15.7924  15.7924  16.1319  16.1319  16.3511

          k = 0.0000 0.3536-0.7071 (  5400 PWs)   bands (ev):

   -68.9453 -68.9453 -68.9435 -68.9435 -63.8113 -63.8113 -63.8088 -63.8088
   -37.8267 -37.8267 -37.8234 -37.8234 -37.8175 -37.8175 -37.8161 -37.8161
   -37.8106 -37.8106 -37.7996 -37.7996 -32.8174 -32.8174 -32.8054 -32.8054
   -32.7977 -32.7977 -32.7960 -32.7960 -32.7881 -32.7881 -32.7821 -32.7821
    -6.2267  -6.2267  -6.1847  -6.1847  -5.9018  -5.9018  -5.8343  -5.8343
     5.7445   5.7445   5.7571   5.7571   5.9440   5.9440   6.1308   6.1308
     6.3577   6.3577   6.7508   6.7508   6.8238   6.8238   6.8753   6.8753
     7.3558   7.3558   7.4672   7.4672   7.8486   7.8486   7.8558   7.8558
     8.8009   8.8009   8.8613   8.8613   9.2255   9.2255   9.2555   9.2555
     9.6077   9.6077   9.8478   9.8478  10.2917  10.2917  10.6216  10.6216
    10.9261  10.9261  11.0431  11.0431  15.0713  15.0713  15.0766  15.0766
    15.1353  15.1353  15.3431  15.3431  15.6748  15.6748  15.8171  15.8171
    15.9157  15.9157  15.9454  15.9454  16.1805

     the Fermi energy is    12.0392 ev

!    total energy              =   -1946.26037474 Ry
     Harris-Foulkes estimate   =   -1946.26037463 Ry
     estimated scf accuracy    <          6.1E-10 Ry

     The total energy is the sum of the following terms:

     one-electron contribution =    -894.92759494 Ry
     hartree contribution      =     531.70937332 Ry
     xc contribution           =    -269.87164121 Ry
     ewald contribution        =   -1313.56707236 Ry
     Hubbard energy            =       0.39656044 Ry
     smearing contrib. (-TS)   =      -0.00000000 Ry

     total magnetization       =     0.00 Bohr mag/cell
     absolute magnetization    =    37.67 Bohr mag/cell

     convergence has been achieved in  12 iterations

     Forces acting on atoms (Ry/au):


     negative rho (up, down):  3.588E-03 3.588E-03
     atom    1 type  1   force =   0.00000000E+00  0.14874904E-29  0.14874904E-29
     atom    2 type  3   force =  -0.46634207E-07 -0.46634207E-07 -0.46634207E-07
     atom    3 type  1   force =  -0.37187260E-30  0.00000000E+00  0.37187260E-30
     atom    4 type  3   force =  -0.46634207E-07  0.46634207E-07  0.46634207E-07
     atom    5 type  1   force =  -0.18593630E-29  0.18593630E-29 -0.26031082E-29
     atom    6 type  3   force =   0.46634207E-07 -0.46634207E-07  0.46634207E-07
     atom    7 type  2   force =  -0.37187260E-30  0.26031082E-29 -0.11156178E-29
     atom    8 type  3   force =  -0.46634207E-07 -0.46634207E-07  0.46634207E-07
     atom    9 type  1   force =  -0.24171719E-29 -0.31609171E-29  0.27890445E-29
     atom   10 type  3   force =   0.46634207E-07  0.46634207E-07 -0.46634207E-07
     atom   11 type  2   force =   0.55780890E-30 -0.55780890E-30  0.55780890E-30
     atom   12 type  3   force =  -0.46634207E-07  0.46634207E-07 -0.46634207E-07
     atom   13 type  2   force =  -0.11156178E-29  0.37187260E-30  0.37187260E-30
     atom   14 type  3   force =   0.46634207E-07 -0.46634207E-07 -0.46634207E-07
     atom   15 type  2   force =   0.74374519E-30  0.00000000E+00 -0.74374519E-30
     atom   16 type  3   force =   0.46634207E-07  0.46634207E-07  0.46634207E-07

     Total force =     0.000000     Total SCF correction =     0.000002
     SCF correction compared to forces is large: reduce conv_thr to get better values


     entering subroutine stress ...


     negative rho (up, down):  3.588E-03 3.588E-03
          total   stress  (Ry/bohr**3)                   (kbar)     P=  -29.22
  -0.0001986257  -0.0000000000  -0.0000000000        -29.22     -0.00     -0.00
  -0.0000000000  -0.0001986257  -0.0000000000         -0.00    -29.22     -0.00
  -0.0000000000  -0.0000000000  -0.0001986257         -0.00     -0.00    -29.22


     Writing output data file mno_fm.scf.in.super.222.sub_frozen.066.save

     init_run     :     13.72s CPU     14.18s WALL (       1 calls)
     electrons    :    450.25s CPU    498.49s WALL (       1 calls)
     forces       :     32.71s CPU     37.09s WALL (       1 calls)
     stress       :     99.70s CPU    111.66s WALL (       1 calls)

     Called by init_run:
     wfcinit      :     12.59s CPU     12.99s WALL (       1 calls)
     potinit      :      0.17s CPU      0.19s WALL (       1 calls)

     Called by electrons:
     c_bands      :    401.62s CPU    447.46s WALL (      12 calls)
     sum_band     :     42.97s CPU     45.07s WALL (      12 calls)
     v_of_rho     :      1.44s CPU      1.55s WALL (      13 calls)
     newd         :      3.65s CPU      3.72s WALL (      13 calls)
     mix_rho      :      0.78s CPU      0.88s WALL (      12 calls)

     Called by c_bands:
     init_us_2    :      2.00s CPU      2.18s WALL (     608 calls)
     cegterg      :    394.82s CPU    440.21s WALL (     192 calls)

     Called by *egterg:
     h_psi        :    190.73s CPU    208.53s WALL (     946 calls)
     s_psi        :     25.25s CPU     20.52s WALL (    1122 calls)
     g_psi        :      0.25s CPU      0.24s WALL (     738 calls)
     cdiaghg      :    107.25s CPU    137.77s WALL (     930 calls)

     Called by h_psi:
     add_vuspsi   :     19.11s CPU     16.52s WALL (     946 calls)
     vhpsi        :     19.01s CPU     24.75s WALL (     946 calls)

     General routines
     calbec       :    160.04s CPU    174.91s WALL (   12004 calls)
     fft          :      1.30s CPU      1.42s WALL (     437 calls)
     ffts         :      0.48s CPU      0.54s WALL (     299 calls)
     fftw         :    139.40s CPU    157.31s WALL (  117888 calls)
     interpolate  :      0.20s CPU      0.25s WALL (      50 calls)
     davcio       :      0.00s CPU      0.01s WALL (      16 calls)

     Parallel routines
     fft_scatter  :     60.06s CPU     67.59s WALL (  118624 calls)
     Hubbard U routines
     new_ns       :      3.52s CPU      3.85s WALL (      12 calls)
     vhpsi        :     19.01s CPU     24.75s WALL (     946 calls)
     force_hub    :     28.75s CPU     33.56s WALL (       1 calls)
     stres_hub    :     90.07s CPU    102.08s WALL (       1 calls)

     PWSCF        :  9m57.80s CPU    11m 3.13s WALL


   This run was terminated on:  11:33:54  17Aug2017            

=------------------------------------------------------------------------------=
   JOB DONE.
=------------------------------------------------------------------------------=
