
     Program PWSCF v.5.1 starts on 17Aug2017 at 11: 7:22 

     This program is part of the open-source Quantum ESPRESSO suite
     for quantum simulation of materials; please cite
         "P. Giannozzi et al., J. Phys.:Condens. Matter 21 395502 (2009);
          URL http://www.quantum-espresso.org", 
     in publications or presentations arising from this work. More details at
     http://www.quantum-espresso.org/quote

     Parallel version (MPI), running on     8 processors
     R & G space division:  proc/nbgrp/npool/nimage =       8
     Reading input from /tmp/mno_fm.scf.in.super.222.sub_frozen.03.30865/mno_fm.scf.in.super.222.sub_frozen.03.t
Warning: card &IONS ignored
Warning: card   ION_DYNAMICS='BFGS', ignored
Warning: card / ignored
Warning: card &CELL ignored
Warning: card  CELL_DYNAMICS = 'BFGS' ignored
Warning: card / ignored

     Current dimensions of program PWSCF are:
     Max number of different atomic species (ntypx) = 10
     Max number of k-points (npk) =  40000
     Max angular momentum in pseudopotentials (lmaxx) =  3
 kfg - two_fermi_energies  T

     Subspace diagonalization in iterative solution of the eigenvalue problem:
     a serial algorithm will be used


     Parallelization info
     --------------------
     sticks:   dense  smooth     PW     G-vecs:    dense   smooth      PW
     Min         246     204     56                 7264     5421     802
     Max         247     205     57                 7267     5438     805
     Sum        1969    1639    451                58119    43407    6423

     Generating pointlists ...
     new r_m :   0.1458 (alat units)  1.7495 (a.u.) for type    1
     new r_m :   0.1458 (alat units)  1.7495 (a.u.) for type    2
     new r_m :   0.1458 (alat units)  1.7495 (a.u.) for type    3


     bravais-lattice index     =            0
     lattice parameter (alat)  =    11.996146938  a.u.
     unit-cell volume          =    1220.7039 (a.u.)^3
     number of atoms/cell      =           16
     number of atomic types    =            3
     number of electrons       =       168.00 (up:  84.00, down:  84.00)
     number of Kohn-Sham states=          101
     kinetic-energy cutoff     =      41.0000  Ry
     charge density cutoff     =     200.0000  Ry
     convergence threshold     =      1.0E-08
     mixing beta               =       0.3000
     number of iterations used =            8  local-TF  mixing
     Exchange-correlation      = SLA  PW   PSX  PSC ( 1  4 10  8 0)
     A smooth kinetic-energy cutoff is imposed at      40.0000 Ry
     height of the smooth step-function =             800.0000 Ry
     width of the smooth step-function  =               1.0000 Ry


     celldm(1)=  11.996147  celldm(2)=   0.000000  celldm(3)=   0.000000
     celldm(4)=   0.000000  celldm(5)=   0.000000  celldm(6)=   0.000000

     crystal axes: (cart. coord. in units of alat)
               a(1) = (   0.707106781187   0.707106781187   0.000000000000 )  
               a(2) = (   0.707106781187   0.000000000000   0.707106781187 )  
               a(3) = (   0.000000000000   0.707106781187   0.707106781187 )  

     reciprocal axes: (cart. coord. in units 2 pi/alat)
               b(1) = (  0.707107  0.707107 -0.707107 )  
               b(2) = (  0.707107 -0.707107  0.707107 )  
               b(3) = ( -0.707107  0.707107  0.707107 )  


     PseudoPot. # 1 for Mn read from file:
     /users/kfg/psuedo/gbrv_1.5/mn.pbesol.UPF
     MD5 check sum: 0716d5f563e6e95a34f9080f4c78c109
     Pseudo is Ultrasoft + core correction, Zval = 15.0
     Generated by new atomic code, or converted to UPF format
     Using radial grid of  859 points,  6 beta functions with: 
                l(1) =   0
                l(2) =   0
                l(3) =   1
                l(4) =   1
                l(5) =   2
                l(6) =   2
     Q(r) pseudized with  8 coefficients,  rinner =    0.950   0.950   0.950
                                                       0.950   0.950

     PseudoPot. # 2 for Mn read from file:
     /users/kfg/psuedo/gbrv_1.5/mn.pbesol.UPF
     MD5 check sum: 0716d5f563e6e95a34f9080f4c78c109
     Pseudo is Ultrasoft + core correction, Zval = 15.0
     Generated by new atomic code, or converted to UPF format
     Using radial grid of  859 points,  6 beta functions with: 
                l(1) =   0
                l(2) =   0
                l(3) =   1
                l(4) =   1
                l(5) =   2
                l(6) =   2
     Q(r) pseudized with  8 coefficients,  rinner =    0.950   0.950   0.950
                                                       0.950   0.950

     PseudoPot. # 3 for O  read from file:
     /users/kfg/psuedo/gbrv_1.5/o.pbesol.UPF
     MD5 check sum: 501638753501ef6325af9037351f7734
     Pseudo is Ultrasoft + core correction, Zval =  6.0
     Generated by new atomic code, or converted to UPF format
     Using radial grid of  737 points,  5 beta functions with: 
                l(1) =   0
                l(2) =   0
                l(3) =   1
                l(4) =   1
                l(5) =   2
     Q(r) pseudized with  8 coefficients,  rinner =    0.900   0.900   0.900
                                                       0.900   0.900

     atomic species   valence    mass     pseudopotential
        Mn            15.00    54.90000     Mn( 1.00)
        Fe            15.00    54.90000     Mn( 1.00)
        O              6.00    15.99900     O ( 1.00)

     Starting magnetic structure 
     atomic species   magnetization
        Mn           1.000
        Fe          -1.000
        O            0.000


     Simplified LDA+U calculation (l_max = 2) with parameters (eV):
     atomic species    L          U    alpha       J0     beta
        Mn             2     3.0000   0.0000   0.0000   0.0000
        Fe             2     3.0000   0.0000   0.0000   0.0000



      8 Sym. Ops., with inversion, found ( 4 have fractional translation)



   Cartesian axes

     site n.     atom                  positions (alat units)
         1           Mn  tau(   1) = (    0.00000000000    0.00000000000    0.00000000000  )
         2           O   tau(   2) = (    0.35355339059    0.35355339059    0.35355339059  )
         3           Mn  tau(   3) = (    0.00000000000    0.35355339059    0.35355339059  )
         4           O   tau(   4) = (    0.35355339059    0.70710678119    0.70710678119  )
         5           Mn  tau(   5) = (    0.35355339059    0.00000000000    0.35355339059  )
         6           O   tau(   6) = (    0.70710678119    0.35355339059    0.70710678119  )
         7           Fe  tau(   7) = (    0.35355339059    0.35355339059    0.70710678119  )
         8           O   tau(   8) = (    0.70710678119    0.70710678119    1.06066017178  )
         9           Fe  tau(   9) = (    0.35355339059    0.35355339059    0.00000000000  )
        10           O   tau(  10) = (    0.70710678119    0.70710678119    0.35355339059  )
        11           Mn  tau(  11) = (    0.35355339059    0.70710678119    0.35355339059  )
        12           O   tau(  12) = (    0.70710678119    1.06066017178    0.70710678119  )
        13           Fe  tau(  13) = (    0.70710678119    0.35355339059    0.35355339059  )
        14           O   tau(  14) = (    1.06066017178    0.70710678119    0.70710678119  )
        15           Fe  tau(  15) = (    0.70710678119    0.70710678119    0.70710678119  )
        16           O   tau(  16) = (    1.06066017178    1.06066017178    1.06066017178  )

     number of k points=    36  gaussian smearing, width (Ry)=  0.0100
                       cart. coord. in units 2pi/alat
        k(    1) = (   0.0000000   0.0000000   0.0000000), wk =   0.0156250
        k(    2) = (  -0.1767767   0.1767767   0.1767767), wk =   0.0625000
        k(    3) = (   0.3535534  -0.3535534  -0.3535534), wk =   0.0312500
        k(    4) = (   0.0000000   0.0000000   0.3535534), wk =   0.0625000
        k(    5) = (   0.5303301  -0.5303301  -0.1767767), wk =   0.1250000
        k(    6) = (   0.3535534  -0.3535534   0.0000000), wk =   0.1250000
        k(    7) = (   0.0000000   0.0000000  -0.7071068), wk =   0.0312500
        k(    8) = (   0.0000000   0.3535534  -0.7071068), wk =   0.0625000
        k(    9) = (  -0.1767767  -0.1767767   0.1767767), wk =   0.0625000
        k(   10) = (   0.3535534   0.3535534  -0.3535534), wk =   0.0312500
        k(   11) = (   0.3535534   0.0000000   0.0000000), wk =   0.0312500
        k(   12) = (  -0.1767767   0.5303301   0.5303301), wk =   0.0625000
        k(   13) = (   0.1767767   0.5303301  -0.5303301), wk =   0.0625000
        k(   14) = (  -0.5303301  -0.5303301   0.1767767), wk =   0.1250000
        k(   15) = (   0.0000000   0.3535534   0.3535534), wk =   0.0312500
        k(   16) = (   0.0000000   0.3535534  -0.3535534), wk =   0.0312500
        k(   17) = (  -0.7071068   0.0000000   0.0000000), wk =   0.0156250
        k(   18) = (   0.3535534  -0.7071068   0.0000000), wk =   0.0312500
        k(   19) = (   0.0000000   0.0000000   0.0000000), wk =   0.0156250
        k(   20) = (  -0.1767767   0.1767767   0.1767767), wk =   0.0625000
        k(   21) = (   0.3535534  -0.3535534  -0.3535534), wk =   0.0312500
        k(   22) = (   0.0000000   0.0000000   0.3535534), wk =   0.0625000
        k(   23) = (   0.5303301  -0.5303301  -0.1767767), wk =   0.1250000
        k(   24) = (   0.3535534  -0.3535534   0.0000000), wk =   0.1250000
        k(   25) = (   0.0000000   0.0000000  -0.7071068), wk =   0.0312500
        k(   26) = (   0.0000000   0.3535534  -0.7071068), wk =   0.0625000
        k(   27) = (  -0.1767767  -0.1767767   0.1767767), wk =   0.0625000
        k(   28) = (   0.3535534   0.3535534  -0.3535534), wk =   0.0312500
        k(   29) = (   0.3535534   0.0000000   0.0000000), wk =   0.0312500
        k(   30) = (  -0.1767767   0.5303301   0.5303301), wk =   0.0625000
        k(   31) = (   0.1767767   0.5303301  -0.5303301), wk =   0.0625000
        k(   32) = (  -0.5303301  -0.5303301   0.1767767), wk =   0.1250000
        k(   33) = (   0.0000000   0.3535534   0.3535534), wk =   0.0312500
        k(   34) = (   0.0000000   0.3535534  -0.3535534), wk =   0.0312500
        k(   35) = (  -0.7071068   0.0000000   0.0000000), wk =   0.0156250
        k(   36) = (   0.3535534  -0.7071068   0.0000000), wk =   0.0312500

     Dense  grid:    58119 G-vectors     FFT dimensions: (  54,  54,  54)

     Smooth grid:    43407 G-vectors     FFT dimensions: (  50,  50,  50)

     Largest allocated arrays     est. size (Mb)     dimensions
        Kohn-Sham Wavefunctions         1.06 Mb     (     686,  101)
        Atomic Hubbard wavefuncts       0.42 Mb     (     686,   40)
        NL pseudopotentials             2.60 Mb     (     686,  248)
        Each V/rho on FFT grid          0.62 Mb     (   20412,   2)
        Each G-vector array             0.06 Mb     (    7265)
        G-vector shells                 0.00 Mb     (     487)
     Largest temporary arrays     est. size (Mb)     dimensions
        Auxiliary wavefunctions         4.23 Mb     (     686,  404)
        Each subspace H/S matrix        2.49 Mb     (     404,  404)
        Each <psi_i|beta_j> matrix      0.38 Mb     (     248,  101)
        Arrays for rho mixing           2.49 Mb     (   20412,    8)

     Check: negative/imaginary core charge=   -0.000056    0.000000

     Initial potential from superposition of free atoms

     starting charge  163.99935, renormalised to  168.00000
     Number of +U iterations with fixed ns =  0
     Starting occupations:
 --- enter write_ns ---
 LDA+U parameters:
U( 1)     =  3.00000000
alpha( 1) =  0.00000000
U( 2)     =  3.00000000
alpha( 2) =  0.00000000
atom    1   Tr[ns(na)] (up, down, total) =   5.00000  0.00000  5.00000
   spin  1
    eigenvalues: 
  1.000  1.000  1.000  1.000  1.000
    eigenvectors:
  1.000  0.000  0.000  0.000  0.000
  0.000  1.000  0.000  0.000  0.000
  0.000  0.000  1.000  0.000  0.000
  0.000  0.000  0.000  1.000  0.000
  0.000  0.000  0.000  0.000  1.000
    occupations:
  1.000  0.000  0.000  0.000  0.000
  0.000  1.000  0.000  0.000  0.000
  0.000  0.000  1.000  0.000  0.000
  0.000  0.000  0.000  1.000  0.000
  0.000  0.000  0.000  0.000  1.000
   spin  2
    eigenvalues: 
  0.000  0.000  0.000  0.000  0.000
    eigenvectors:
  1.000  0.000  0.000  0.000  0.000
  0.000  1.000  0.000  0.000  0.000
  0.000  0.000  1.000  0.000  0.000
  0.000  0.000  0.000  1.000  0.000
  0.000  0.000  0.000  0.000  1.000
    occupations:
  0.000  0.000  0.000  0.000  0.000
  0.000  0.000  0.000  0.000  0.000
  0.000  0.000  0.000  0.000  0.000
  0.000  0.000  0.000  0.000  0.000
  0.000  0.000  0.000  0.000  0.000
atomic mag. moment =     5.000000
atom    3   Tr[ns(na)] (up, down, total) =   5.00000  0.00000  5.00000
   spin  1
    eigenvalues: 
  1.000  1.000  1.000  1.000  1.000
    eigenvectors:
  1.000  0.000  0.000  0.000  0.000
  0.000  1.000  0.000  0.000  0.000
  0.000  0.000  1.000  0.000  0.000
  0.000  0.000  0.000  1.000  0.000
  0.000  0.000  0.000  0.000  1.000
    occupations:
  1.000  0.000  0.000  0.000  0.000
  0.000  1.000  0.000  0.000  0.000
  0.000  0.000  1.000  0.000  0.000
  0.000  0.000  0.000  1.000  0.000
  0.000  0.000  0.000  0.000  1.000
   spin  2
    eigenvalues: 
  0.000  0.000  0.000  0.000  0.000
    eigenvectors:
  1.000  0.000  0.000  0.000  0.000
  0.000  1.000  0.000  0.000  0.000
  0.000  0.000  1.000  0.000  0.000
  0.000  0.000  0.000  1.000  0.000
  0.000  0.000  0.000  0.000  1.000
    occupations:
  0.000  0.000  0.000  0.000  0.000
  0.000  0.000  0.000  0.000  0.000
  0.000  0.000  0.000  0.000  0.000
  0.000  0.000  0.000  0.000  0.000
  0.000  0.000  0.000  0.000  0.000
atomic mag. moment =     5.000000
atom    5   Tr[ns(na)] (up, down, total) =   5.00000  0.00000  5.00000
   spin  1
    eigenvalues: 
  1.000  1.000  1.000  1.000  1.000
    eigenvectors:
  1.000  0.000  0.000  0.000  0.000
  0.000  1.000  0.000  0.000  0.000
  0.000  0.000  1.000  0.000  0.000
  0.000  0.000  0.000  1.000  0.000
  0.000  0.000  0.000  0.000  1.000
    occupations:
  1.000  0.000  0.000  0.000  0.000
  0.000  1.000  0.000  0.000  0.000
  0.000  0.000  1.000  0.000  0.000
  0.000  0.000  0.000  1.000  0.000
  0.000  0.000  0.000  0.000  1.000
   spin  2
    eigenvalues: 
  0.000  0.000  0.000  0.000  0.000
    eigenvectors:
  1.000  0.000  0.000  0.000  0.000
  0.000  1.000  0.000  0.000  0.000
  0.000  0.000  1.000  0.000  0.000
  0.000  0.000  0.000  1.000  0.000
  0.000  0.000  0.000  0.000  1.000
    occupations:
  0.000  0.000  0.000  0.000  0.000
  0.000  0.000  0.000  0.000  0.000
  0.000  0.000  0.000  0.000  0.000
  0.000  0.000  0.000  0.000  0.000
  0.000  0.000  0.000  0.000  0.000
atomic mag. moment =     5.000000
atom    7   Tr[ns(na)] (up, down, total) =   0.00000  5.00000  5.00000
   spin  1
    eigenvalues: 
  0.000  0.000  0.000  0.000  0.000
    eigenvectors:
  1.000  0.000  0.000  0.000  0.000
  0.000  1.000  0.000  0.000  0.000
  0.000  0.000  1.000  0.000  0.000
  0.000  0.000  0.000  1.000  0.000
  0.000  0.000  0.000  0.000  1.000
    occupations:
  0.000  0.000  0.000  0.000  0.000
  0.000  0.000  0.000  0.000  0.000
  0.000  0.000  0.000  0.000  0.000
  0.000  0.000  0.000  0.000  0.000
  0.000  0.000  0.000  0.000  0.000
   spin  2
    eigenvalues: 
  1.000  1.000  1.000  1.000  1.000
    eigenvectors:
  1.000  0.000  0.000  0.000  0.000
  0.000  1.000  0.000  0.000  0.000
  0.000  0.000  1.000  0.000  0.000
  0.000  0.000  0.000  1.000  0.000
  0.000  0.000  0.000  0.000  1.000
    occupations:
  1.000  0.000  0.000  0.000  0.000
  0.000  1.000  0.000  0.000  0.000
  0.000  0.000  1.000  0.000  0.000
  0.000  0.000  0.000  1.000  0.000
  0.000  0.000  0.000  0.000  1.000
atomic mag. moment =    -5.000000
atom    9   Tr[ns(na)] (up, down, total) =   0.00000  5.00000  5.00000
   spin  1
    eigenvalues: 
  0.000  0.000  0.000  0.000  0.000
    eigenvectors:
  1.000  0.000  0.000  0.000  0.000
  0.000  1.000  0.000  0.000  0.000
  0.000  0.000  1.000  0.000  0.000
  0.000  0.000  0.000  1.000  0.000
  0.000  0.000  0.000  0.000  1.000
    occupations:
  0.000  0.000  0.000  0.000  0.000
  0.000  0.000  0.000  0.000  0.000
  0.000  0.000  0.000  0.000  0.000
  0.000  0.000  0.000  0.000  0.000
  0.000  0.000  0.000  0.000  0.000
   spin  2
    eigenvalues: 
  1.000  1.000  1.000  1.000  1.000
    eigenvectors:
  1.000  0.000  0.000  0.000  0.000
  0.000  1.000  0.000  0.000  0.000
  0.000  0.000  1.000  0.000  0.000
  0.000  0.000  0.000  1.000  0.000
  0.000  0.000  0.000  0.000  1.000
    occupations:
  1.000  0.000  0.000  0.000  0.000
  0.000  1.000  0.000  0.000  0.000
  0.000  0.000  1.000  0.000  0.000
  0.000  0.000  0.000  1.000  0.000
  0.000  0.000  0.000  0.000  1.000
atomic mag. moment =    -5.000000
atom   11   Tr[ns(na)] (up, down, total) =   5.00000  0.00000  5.00000
   spin  1
    eigenvalues: 
  1.000  1.000  1.000  1.000  1.000
    eigenvectors:
  1.000  0.000  0.000  0.000  0.000
  0.000  1.000  0.000  0.000  0.000
  0.000  0.000  1.000  0.000  0.000
  0.000  0.000  0.000  1.000  0.000
  0.000  0.000  0.000  0.000  1.000
    occupations:
  1.000  0.000  0.000  0.000  0.000
  0.000  1.000  0.000  0.000  0.000
  0.000  0.000  1.000  0.000  0.000
  0.000  0.000  0.000  1.000  0.000
  0.000  0.000  0.000  0.000  1.000
   spin  2
    eigenvalues: 
  0.000  0.000  0.000  0.000  0.000
    eigenvectors:
  1.000  0.000  0.000  0.000  0.000
  0.000  1.000  0.000  0.000  0.000
  0.000  0.000  1.000  0.000  0.000
  0.000  0.000  0.000  1.000  0.000
  0.000  0.000  0.000  0.000  1.000
    occupations:
  0.000  0.000  0.000  0.000  0.000
  0.000  0.000  0.000  0.000  0.000
  0.000  0.000  0.000  0.000  0.000
  0.000  0.000  0.000  0.000  0.000
  0.000  0.000  0.000  0.000  0.000
atomic mag. moment =     5.000000
atom   13   Tr[ns(na)] (up, down, total) =   0.00000  5.00000  5.00000
   spin  1
    eigenvalues: 
  0.000  0.000  0.000  0.000  0.000
    eigenvectors:
  1.000  0.000  0.000  0.000  0.000
  0.000  1.000  0.000  0.000  0.000
  0.000  0.000  1.000  0.000  0.000
  0.000  0.000  0.000  1.000  0.000
  0.000  0.000  0.000  0.000  1.000
    occupations:
  0.000  0.000  0.000  0.000  0.000
  0.000  0.000  0.000  0.000  0.000
  0.000  0.000  0.000  0.000  0.000
  0.000  0.000  0.000  0.000  0.000
  0.000  0.000  0.000  0.000  0.000
   spin  2
    eigenvalues: 
  1.000  1.000  1.000  1.000  1.000
    eigenvectors:
  1.000  0.000  0.000  0.000  0.000
  0.000  1.000  0.000  0.000  0.000
  0.000  0.000  1.000  0.000  0.000
  0.000  0.000  0.000  1.000  0.000
  0.000  0.000  0.000  0.000  1.000
    occupations:
  1.000  0.000  0.000  0.000  0.000
  0.000  1.000  0.000  0.000  0.000
  0.000  0.000  1.000  0.000  0.000
  0.000  0.000  0.000  1.000  0.000
  0.000  0.000  0.000  0.000  1.000
atomic mag. moment =    -5.000000
atom   15   Tr[ns(na)] (up, down, total) =   0.00000  5.00000  5.00000
   spin  1
    eigenvalues: 
  0.000  0.000  0.000  0.000  0.000
    eigenvectors:
  1.000  0.000  0.000  0.000  0.000
  0.000  1.000  0.000  0.000  0.000
  0.000  0.000  1.000  0.000  0.000
  0.000  0.000  0.000  1.000  0.000
  0.000  0.000  0.000  0.000  1.000
    occupations:
  0.000  0.000  0.000  0.000  0.000
  0.000  0.000  0.000  0.000  0.000
  0.000  0.000  0.000  0.000  0.000
  0.000  0.000  0.000  0.000  0.000
  0.000  0.000  0.000  0.000  0.000
   spin  2
    eigenvalues: 
  1.000  1.000  1.000  1.000  1.000
    eigenvectors:
  1.000  0.000  0.000  0.000  0.000
  0.000  1.000  0.000  0.000  0.000
  0.000  0.000  1.000  0.000  0.000
  0.000  0.000  0.000  1.000  0.000
  0.000  0.000  0.000  0.000  1.000
    occupations:
  1.000  0.000  0.000  0.000  0.000
  0.000  1.000  0.000  0.000  0.000
  0.000  0.000  1.000  0.000  0.000
  0.000  0.000  0.000  1.000  0.000
  0.000  0.000  0.000  0.000  1.000
atomic mag. moment =    -5.000000
N of occupied +U levels =   40.000000
 --- exit write_ns ---
 Atomic wfc used for LDA+U Projector are NOT orthogonalized
     Starting wfc are  136 randomized atomic wfcs

     total cpu time spent up to now is       31.6 secs

     per-process dynamical memory:    81.7 Mb

     Self-consistent Calculation

     iteration #  1     ecut=    41.00 Ry     beta=0.30
     Davidson diagonalization with overlap
     ethr =  1.00E-02,  avg # of iterations =  5.1
 --- enter write_ns ---
 LDA+U parameters:
U( 1)     =  3.00000000
alpha( 1) =  0.00000000
U( 2)     =  3.00000000
alpha( 2) =  0.00000000
atom    1   Tr[ns(na)] (up, down, total) =   4.99490  0.19732  5.19222
   spin  1
    eigenvalues: 
  0.998  0.998  0.999  1.000  1.000
    eigenvectors:
  0.000  0.001  0.000  0.956  0.043
  0.811  0.000  0.189  0.000  0.000
  0.000  0.998  0.000  0.000  0.001
  0.000  0.001  0.000  0.043  0.956
  0.189  0.000  0.811  0.000  0.000
    occupations:
  1.000 -0.000  0.000 -0.000  0.000
 -0.000  0.998 -0.000  0.000  0.000
  0.000 -0.000  0.999 -0.000  0.000
 -0.000  0.000 -0.000  1.000 -0.000
  0.000  0.000  0.000 -0.000  0.999
   spin  2
    eigenvalues: 
  0.021  0.024  0.026  0.063  0.064
    eigenvectors:
  0.000  0.000  0.000  0.024  0.976
  0.994  0.000  0.006  0.000  0.000
  0.000  1.000  0.000  0.000  0.000
  0.000  0.000  0.000  0.976  0.024
  0.006  0.000  0.994  0.000  0.000
    occupations:
  0.064 -0.000  0.000 -0.000  0.000
 -0.000  0.022 -0.000  0.000  0.000
  0.000 -0.000  0.024 -0.001  0.000
 -0.000  0.000 -0.001  0.063 -0.000
  0.000  0.000  0.000 -0.000  0.026
atomic mag. moment =     4.797582
atom    3   Tr[ns(na)] (up, down, total) =   4.99490  0.19732  5.19222
   spin  1
    eigenvalues: 
  0.998  0.998  0.999  1.000  1.000
    eigenvectors:
  0.000  0.000  0.000  0.448  0.552
  0.189  0.000  0.811  0.000  0.000
  0.000  0.998  0.000  0.000  0.001
  0.000  0.001  0.000  0.551  0.447
  0.811  0.000  0.189  0.000  0.000
    occupations:
  1.000 -0.000  0.000 -0.000  0.000
 -0.000  0.999 -0.000  0.000  0.000
  0.000 -0.000  0.999 -0.000  0.000
 -0.000  0.000 -0.000  1.000 -0.000
  0.000  0.000  0.000 -0.000  0.998
   spin  2
    eigenvalues: 
  0.021  0.024  0.026  0.063  0.064
    eigenvectors:
  0.000  0.000  0.000  0.870  0.130
  0.006  0.000  0.994  0.000  0.000
  0.000  1.000  0.000  0.000  0.000
  0.000  0.000  0.000  0.130  0.870
  0.994  0.000  0.006  0.000  0.000
    occupations:
  0.063 -0.000  0.000  0.000  0.000
 -0.000  0.026 -0.000  0.000  0.000
  0.000 -0.000  0.024 -0.001  0.000
  0.000  0.000 -0.001  0.064 -0.000
  0.000  0.000  0.000 -0.000  0.022
atomic mag. moment =     4.797582
atom    5   Tr[ns(na)] (up, down, total) =   4.99130  0.20205  5.19335
   spin  1
    eigenvalues: 
  0.998  0.998  0.998  0.998  0.999
    eigenvectors:
  0.247  0.735  0.002  0.015  0.000
  0.005  0.010  0.338  0.490  0.157
  0.000  0.000  0.316  0.000  0.684
  0.742  0.245  0.007  0.005  0.001
  0.005  0.010  0.338  0.490  0.157
    occupations:
  0.998  0.000  0.000  0.000 -0.000
  0.000  0.998  0.000  0.000  0.000
  0.000  0.000  0.999 -0.000  0.000
  0.000  0.000 -0.000  0.998  0.000
 -0.000  0.000  0.000  0.000  0.998
   spin  2
    eigenvalues: 
  0.024  0.024  0.026  0.064  0.064
    eigenvectors:
  0.000  0.000  0.000  0.750  0.250
  0.480  0.500  0.020  0.000  0.000
  0.041  0.000  0.959  0.000  0.000
  0.000  0.000  0.000  0.250  0.750
  0.480  0.500  0.020  0.000  0.000
    occupations:
  0.064  0.000  0.000 -0.000 -0.001
  0.000  0.024  0.000  0.001 -0.000
  0.000  0.000  0.026 -0.000  0.000
 -0.000  0.001 -0.000  0.064 -0.000
 -0.001 -0.000  0.000 -0.000  0.024
atomic mag. moment =     4.789256
atom    7   Tr[ns(na)] (up, down, total) =   0.20209  4.99131  5.19340
   spin  1
    eigenvalues: 
  0.024  0.024  0.026  0.064  0.064
    eigenvectors:
  0.000  0.000  0.000  0.750  0.250
  0.480  0.500  0.019  0.000  0.000
  0.039  0.000  0.961  0.000  0.000
  0.000  0.000  0.000  0.250  0.750
  0.480  0.500  0.019  0.000  0.000
    occupations:
  0.064 -0.000  0.000 -0.000  0.001
 -0.000  0.024 -0.000 -0.001  0.000
  0.000 -0.000  0.026 -0.000 -0.000
 -0.000 -0.001 -0.000  0.064 -0.000
  0.001  0.000 -0.000 -0.000  0.024
   spin  2
    eigenvalues: 
  0.998  0.998  0.998  0.998  0.999
    eigenvectors:
  0.248  0.735  0.002  0.015  0.000
  0.004  0.010  0.344  0.490  0.152
  0.000  0.000  0.305  0.000  0.695
  0.743  0.245  0.006  0.005  0.001
  0.004  0.010  0.344  0.490  0.152
    occupations:
  0.998 -0.000  0.000  0.000  0.000
 -0.000  0.998 -0.000 -0.000  0.000
  0.000 -0.000  0.999 -0.000 -0.000
  0.000 -0.000 -0.000  0.998 -0.000
  0.000  0.000 -0.000 -0.000  0.998
atomic mag. moment =    -4.789221
atom    9   Tr[ns(na)] (up, down, total) =   0.20209  4.99131  5.19340
   spin  1
    eigenvalues: 
  0.024  0.024  0.026  0.064  0.064
    eigenvectors:
  0.000  0.000  0.000  0.750  0.250
  0.480  0.500  0.019  0.000  0.000
  0.039  0.000  0.961  0.000  0.000
  0.000  0.000  0.000  0.250  0.750
  0.480  0.500  0.019  0.000  0.000
    occupations:
  0.064  0.000  0.000 -0.000 -0.001
  0.000  0.024  0.000  0.001  0.000
  0.000  0.000  0.026 -0.000  0.000
 -0.000  0.001 -0.000  0.064  0.000
 -0.001  0.000  0.000  0.000  0.024
   spin  2
    eigenvalues: 
  0.998  0.998  0.998  0.998  0.999
    eigenvectors:
  0.248  0.735  0.002  0.015  0.000
  0.004  0.010  0.344  0.490  0.152
  0.000  0.000  0.305  0.000  0.695
  0.743  0.245  0.006  0.005  0.001
  0.004  0.010  0.344  0.490  0.152
    occupations:
  0.998  0.000  0.000  0.000 -0.000
  0.000  0.998  0.000  0.000  0.000
  0.000  0.000  0.999 -0.000  0.000
  0.000  0.000 -0.000  0.998  0.000
 -0.000  0.000  0.000  0.000  0.998
atomic mag. moment =    -4.789221
atom   11   Tr[ns(na)] (up, down, total) =   4.99130  0.20205  5.19335
   spin  1
    eigenvalues: 
  0.998  0.998  0.998  0.998  0.999
    eigenvectors:
  0.247  0.735  0.002  0.015  0.000
  0.005  0.010  0.338  0.490  0.157
  0.000  0.000  0.316  0.000  0.684
  0.742  0.245  0.007  0.005  0.001
  0.005  0.010  0.338  0.490  0.157
    occupations:
  0.998 -0.000  0.000  0.000  0.000
 -0.000  0.998 -0.000 -0.000  0.000
  0.000 -0.000  0.999 -0.000 -0.000
  0.000 -0.000 -0.000  0.998 -0.000
  0.000  0.000 -0.000 -0.000  0.998
   spin  2
    eigenvalues: 
  0.024  0.024  0.026  0.064  0.064
    eigenvectors:
  0.000  0.000  0.000  0.750  0.250
  0.480  0.500  0.020  0.000  0.000
  0.041  0.000  0.959  0.000  0.000
  0.000  0.000  0.000  0.250  0.750
  0.480  0.500  0.020  0.000  0.000
    occupations:
  0.064 -0.000  0.000 -0.000  0.001
 -0.000  0.024 -0.000 -0.001 -0.000
  0.000 -0.000  0.026 -0.000 -0.000
 -0.000 -0.001 -0.000  0.064  0.000
  0.001 -0.000 -0.000  0.000  0.024
atomic mag. moment =     4.789256
atom   13   Tr[ns(na)] (up, down, total) =   0.19744  4.99492  5.19236
   spin  1
    eigenvalues: 
  0.022  0.024  0.026  0.063  0.064
    eigenvectors:
  0.000  0.000  0.000  0.095  0.905
  0.993  0.000  0.007  0.000  0.000
  0.000  1.000  0.000  0.000  0.000
  0.000  0.000  0.000  0.905  0.095
  0.007  0.000  0.993  0.000  0.000
    occupations:
  0.064 -0.000  0.000 -0.000  0.000
 -0.000  0.022 -0.000  0.000  0.000
  0.000 -0.000  0.024 -0.001  0.000
 -0.000  0.000 -0.001  0.063 -0.000
  0.000  0.000  0.000 -0.000  0.026
   spin  2
    eigenvalues: 
  0.998  0.999  0.999  1.000  1.000
    eigenvectors:
  0.000  0.001  0.000  0.939  0.060
  0.815  0.000  0.185  0.000  0.000
  0.000  0.999  0.000  0.000  0.001
  0.000  0.001  0.000  0.061  0.939
  0.185  0.000  0.815  0.000  0.000
    occupations:
  1.000 -0.000  0.000 -0.000  0.000
 -0.000  0.998 -0.000  0.000  0.000
  0.000 -0.000  0.999 -0.000  0.000
 -0.000  0.000 -0.000  1.000 -0.000
  0.000  0.000  0.000 -0.000  0.999
atomic mag. moment =    -4.797480
atom   15   Tr[ns(na)] (up, down, total) =   0.19744  4.99492  5.19236
   spin  1
    eigenvalues: 
  0.022  0.024  0.026  0.063  0.064
    eigenvectors:
  0.000  0.000  0.000  0.956  0.043
  0.007  0.000  0.993  0.000  0.000
  0.000  1.000  0.000  0.000  0.000
  0.000  0.000  0.000  0.043  0.956
  0.993  0.000  0.007  0.000  0.000
    occupations:
  0.063 -0.000  0.000  0.000  0.000
 -0.000  0.026 -0.000  0.000  0.000
  0.000 -0.000  0.024 -0.001  0.000
  0.000  0.000 -0.001  0.064 -0.000
  0.000  0.000  0.000 -0.000  0.022
   spin  2
    eigenvalues: 
  0.998  0.999  0.999  1.000  1.000
    eigenvectors:
  0.000  0.000  0.000  0.487  0.513
  0.185  0.000  0.815  0.000  0.000
  0.000  0.999  0.000  0.000  0.001
  0.000  0.001  0.000  0.512  0.486
  0.815  0.000  0.185  0.000  0.000
    occupations:
  1.000 -0.000  0.000 -0.000  0.000
 -0.000  0.999 -0.000  0.000  0.000
  0.000 -0.000  0.999 -0.000  0.000
 -0.000  0.000 -0.000  1.000 -0.000
  0.000  0.000  0.000 -0.000  0.998
atomic mag. moment =    -4.797480
N of occupied +U levels =   41.542641
 --- exit write_ns ---

     negative rho (up, down):  9.233E-04 9.231E-04

     Magnetic moment per site:
     atom:    1    charge:   12.8389    magn:   10.2592    constr:    0.0000
     atom:    2    charge:    5.7468    magn:   -0.0000    constr:    0.0000
     atom:    3    charge:   12.8389    magn:   10.2592    constr:    0.0000
     atom:    4    charge:    5.7468    magn:   -0.0000    constr:    0.0000
     atom:    5    charge:   12.8383    magn:   10.2461    constr:    0.0000
     atom:    6    charge:    5.7473    magn:   -0.0638    constr:    0.0000
     atom:    7    charge:   12.8383    magn:  -10.2461    constr:    0.0000
     atom:    8    charge:    5.7473    magn:    0.0638    constr:    0.0000
     atom:    9    charge:   12.8383    magn:  -10.2461    constr:    0.0000
     atom:   10    charge:    5.7473    magn:    0.0638    constr:    0.0000
     atom:   11    charge:   12.8383    magn:   10.2461    constr:    0.0000
     atom:   12    charge:    5.7473    magn:   -0.0638    constr:    0.0000
     atom:   13    charge:   12.8389    magn:  -10.2592    constr:    0.0000
     atom:   14    charge:    5.7468    magn:   -0.0000    constr:    0.0000
     atom:   15    charge:   12.8389    magn:  -10.2592    constr:    0.0000
     atom:   16    charge:    5.7468    magn:   -0.0000    constr:    0.0000

     total cpu time spent up to now is      132.0 secs

     total energy              =   -1937.95227638 Ry
     Harris-Foulkes estimate   =   -1921.77041328 Ry
     estimated scf accuracy    <      25.41931700 Ry

     total magnetization       =    -0.00 Bohr mag/cell
     absolute magnetization    =    40.71 Bohr mag/cell

     iteration #  2     ecut=    41.00 Ry     beta=0.30
     Davidson diagonalization with overlap
     ethr =  1.00E-02,  avg # of iterations =  1.1

     negative rho (up, down):  3.340E-03 3.340E-03

     Magnetic moment per site:
     atom:    1    charge:   12.7192    magn:    4.5242    constr:    0.0000
     atom:    2    charge:    5.9772    magn:   -0.0002    constr:    0.0000
     atom:    3    charge:   12.7192    magn:    4.5242    constr:    0.0000
     atom:    4    charge:    5.9772    magn:   -0.0002    constr:    0.0000
     atom:    5    charge:   12.7167    magn:    4.5172    constr:    0.0000
     atom:    6    charge:    5.9785    magn:    0.0155    constr:    0.0000
     atom:    7    charge:   12.7166    magn:   -4.5170    constr:    0.0000
     atom:    8    charge:    5.9785    magn:   -0.0156    constr:    0.0000
     atom:    9    charge:   12.7166    magn:   -4.5170    constr:    0.0000
     atom:   10    charge:    5.9785    magn:   -0.0156    constr:    0.0000
     atom:   11    charge:   12.7167    magn:    4.5172    constr:    0.0000
     atom:   12    charge:    5.9785    magn:    0.0155    constr:    0.0000
     atom:   13    charge:   12.7192    magn:   -4.5242    constr:    0.0000
     atom:   14    charge:    5.9772    magn:   -0.0002    constr:    0.0000
     atom:   15    charge:   12.7192    magn:   -4.5242    constr:    0.0000
     atom:   16    charge:    5.9772    magn:   -0.0002    constr:    0.0000

     total cpu time spent up to now is      191.5 secs

     total energy              =   -1945.61913793 Ry
     Harris-Foulkes estimate   =   -1938.21731863 Ry
     estimated scf accuracy    <      12.62687028 Ry

     total magnetization       =    -0.00 Bohr mag/cell
     absolute magnetization    =    40.36 Bohr mag/cell

     iteration #  3     ecut=    41.00 Ry     beta=0.30
     Davidson diagonalization with overlap
     ethr =  7.52E-03,  avg # of iterations =  4.1

     negative rho (up, down):  3.574E-03 3.575E-03

     Magnetic moment per site:
     atom:    1    charge:   12.6422    magn:    4.2898    constr:    0.0000
     atom:    2    charge:    5.9557    magn:   -0.0002    constr:    0.0000
     atom:    3    charge:   12.6422    magn:    4.2898    constr:    0.0000
     atom:    4    charge:    5.9557    magn:   -0.0002    constr:    0.0000
     atom:    5    charge:   12.6369    magn:    4.3061    constr:    0.0000
     atom:    6    charge:    5.9554    magn:   -0.0202    constr:    0.0000
     atom:    7    charge:   12.6370    magn:   -4.3058    constr:    0.0000
     atom:    8    charge:    5.9554    magn:    0.0201    constr:    0.0000
     atom:    9    charge:   12.6370    magn:   -4.3058    constr:    0.0000
     atom:   10    charge:    5.9554    magn:    0.0201    constr:    0.0000
     atom:   11    charge:   12.6369    magn:    4.3061    constr:    0.0000
     atom:   12    charge:    5.9554    magn:   -0.0202    constr:    0.0000
     atom:   13    charge:   12.6422    magn:   -4.2898    constr:    0.0000
     atom:   14    charge:    5.9557    magn:   -0.0002    constr:    0.0000
     atom:   15    charge:   12.6422    magn:   -4.2898    constr:    0.0000
     atom:   16    charge:    5.9557    magn:   -0.0002    constr:    0.0000

     total cpu time spent up to now is      289.1 secs

     total energy              =   -1946.14973810 Ry
     Harris-Foulkes estimate   =   -1946.29316951 Ry
     estimated scf accuracy    <       0.40375442 Ry

     total magnetization       =     0.00 Bohr mag/cell
     absolute magnetization    =    38.45 Bohr mag/cell

     iteration #  4     ecut=    41.00 Ry     beta=0.30
     Davidson diagonalization with overlap
     ethr =  2.40E-04,  avg # of iterations =  6.7

     negative rho (up, down):  3.636E-03 3.636E-03

     Magnetic moment per site:
     atom:    1    charge:   12.6355    magn:    4.1935    constr:    0.0000
     atom:    2    charge:    5.9667    magn:   -0.0002    constr:    0.0000
     atom:    3    charge:   12.6355    magn:    4.1935    constr:    0.0000
     atom:    4    charge:    5.9667    magn:   -0.0002    constr:    0.0000
     atom:    5    charge:   12.6300    magn:    4.2128    constr:    0.0000
     atom:    6    charge:    5.9664    magn:   -0.0236    constr:    0.0000
     atom:    7    charge:   12.6300    magn:   -4.2125    constr:    0.0000
     atom:    8    charge:    5.9664    magn:    0.0235    constr:    0.0000
     atom:    9    charge:   12.6300    magn:   -4.2125    constr:    0.0000
     atom:   10    charge:    5.9664    magn:    0.0235    constr:    0.0000
     atom:   11    charge:   12.6300    magn:    4.2128    constr:    0.0000
     atom:   12    charge:    5.9664    magn:   -0.0236    constr:    0.0000
     atom:   13    charge:   12.6355    magn:   -4.1935    constr:    0.0000
     atom:   14    charge:    5.9667    magn:   -0.0002    constr:    0.0000
     atom:   15    charge:   12.6355    magn:   -4.1935    constr:    0.0000
     atom:   16    charge:    5.9667    magn:   -0.0002    constr:    0.0000

     total cpu time spent up to now is      446.8 secs

     total energy              =   -1946.24985540 Ry
     Harris-Foulkes estimate   =   -1946.25716697 Ry
     estimated scf accuracy    <       0.03064895 Ry

     total magnetization       =     0.00 Bohr mag/cell
     absolute magnetization    =    38.27 Bohr mag/cell

     iteration #  5     ecut=    41.00 Ry     beta=0.30
     Davidson diagonalization with overlap
     ethr =  1.82E-05,  avg # of iterations =  3.9

     negative rho (up, down):  3.690E-03 3.690E-03

     Magnetic moment per site:
     atom:    1    charge:   12.6052    magn:    4.2364    constr:    0.0000
     atom:    2    charge:    5.9750    magn:   -0.0000    constr:    0.0000
     atom:    3    charge:   12.6052    magn:    4.2364    constr:    0.0000
     atom:    4    charge:    5.9750    magn:   -0.0000    constr:    0.0000
     atom:    5    charge:   12.5981    magn:    4.2706    constr:    0.0000
     atom:    6    charge:    5.9741    magn:   -0.0496    constr:    0.0000
     atom:    7    charge:   12.5981    magn:   -4.2706    constr:    0.0000
     atom:    8    charge:    5.9741    magn:    0.0496    constr:    0.0000
     atom:    9    charge:   12.5981    magn:   -4.2706    constr:    0.0000
     atom:   10    charge:    5.9741    magn:    0.0496    constr:    0.0000
     atom:   11    charge:   12.5981    magn:    4.2706    constr:    0.0000
     atom:   12    charge:    5.9741    magn:   -0.0496    constr:    0.0000
     atom:   13    charge:   12.6052    magn:   -4.2365    constr:    0.0000
     atom:   14    charge:    5.9750    magn:   -0.0000    constr:    0.0000
     atom:   15    charge:   12.6052    magn:   -4.2365    constr:    0.0000
     atom:   16    charge:    5.9750    magn:   -0.0000    constr:    0.0000

     total cpu time spent up to now is      541.0 secs

     total energy              =   -1946.25135343 Ry
     Harris-Foulkes estimate   =   -1946.25244176 Ry
     estimated scf accuracy    <       0.00983298 Ry

     total magnetization       =    -0.00 Bohr mag/cell
     absolute magnetization    =    38.19 Bohr mag/cell
 kfg - setting two_fermi_energies to FALSE

     iteration #  6     ecut=    41.00 Ry     beta=0.30
     Davidson diagonalization with overlap
     ethr =  5.85E-06,  avg # of iterations =  5.1

     negative rho (up, down):  3.675E-03 3.675E-03

     Magnetic moment per site:
     atom:    1    charge:   12.6023    magn:    4.2420    constr:    0.0000
     atom:    2    charge:    5.9751    magn:   -0.0000    constr:    0.0000
     atom:    3    charge:   12.6023    magn:    4.2420    constr:    0.0000
     atom:    4    charge:    5.9751    magn:   -0.0000    constr:    0.0000
     atom:    5    charge:   12.5946    magn:    4.2782    constr:    0.0000
     atom:    6    charge:    5.9739    magn:   -0.0541    constr:    0.0000
     atom:    7    charge:   12.5947    magn:   -4.2782    constr:    0.0000
     atom:    8    charge:    5.9739    magn:    0.0541    constr:    0.0000
     atom:    9    charge:   12.5947    magn:   -4.2782    constr:    0.0000
     atom:   10    charge:    5.9739    magn:    0.0541    constr:    0.0000
     atom:   11    charge:   12.5946    magn:    4.2782    constr:    0.0000
     atom:   12    charge:    5.9739    magn:   -0.0541    constr:    0.0000
     atom:   13    charge:   12.6023    magn:   -4.2420    constr:    0.0000
     atom:   14    charge:    5.9751    magn:   -0.0000    constr:    0.0000
     atom:   15    charge:   12.6023    magn:   -4.2420    constr:    0.0000
     atom:   16    charge:    5.9751    magn:   -0.0000    constr:    0.0000

     total cpu time spent up to now is      669.7 secs

     total energy              =   -1946.25319126 Ry
     Harris-Foulkes estimate   =   -1946.25325467 Ry
     estimated scf accuracy    <       0.00046976 Ry

     total magnetization       =     0.00 Bohr mag/cell
     absolute magnetization    =    38.12 Bohr mag/cell

     iteration #  7     ecut=    41.00 Ry     beta=0.30
     Davidson diagonalization with overlap
     ethr =  2.80E-07,  avg # of iterations =  2.1

     negative rho (up, down):  3.664E-03 3.664E-03

     Magnetic moment per site:
     atom:    1    charge:   12.6004    magn:    4.2298    constr:    0.0000
     atom:    2    charge:    5.9753    magn:   -0.0000    constr:    0.0000
     atom:    3    charge:   12.6004    magn:    4.2298    constr:    0.0000
     atom:    4    charge:    5.9753    magn:   -0.0000    constr:    0.0000
     atom:    5    charge:   12.5923    magn:    4.2673    constr:    0.0000
     atom:    6    charge:    5.9740    magn:   -0.0568    constr:    0.0000
     atom:    7    charge:   12.5923    magn:   -4.2672    constr:    0.0000
     atom:    8    charge:    5.9740    magn:    0.0568    constr:    0.0000
     atom:    9    charge:   12.5923    magn:   -4.2672    constr:    0.0000
     atom:   10    charge:    5.9740    magn:    0.0568    constr:    0.0000
     atom:   11    charge:   12.5923    magn:    4.2673    constr:    0.0000
     atom:   12    charge:    5.9740    magn:   -0.0568    constr:    0.0000
     atom:   13    charge:   12.6004    magn:   -4.2298    constr:    0.0000
     atom:   14    charge:    5.9753    magn:   -0.0000    constr:    0.0000
     atom:   15    charge:   12.6004    magn:   -4.2298    constr:    0.0000
     atom:   16    charge:    5.9753    magn:   -0.0000    constr:    0.0000

     total cpu time spent up to now is      741.8 secs

     total energy              =   -1946.25323534 Ry
     Harris-Foulkes estimate   =   -1946.25322220 Ry
     estimated scf accuracy    <       0.00009896 Ry

     total magnetization       =     0.00 Bohr mag/cell
     absolute magnetization    =    38.12 Bohr mag/cell

     iteration #  8     ecut=    41.00 Ry     beta=0.30
     Davidson diagonalization with overlap
     ethr =  5.89E-08,  avg # of iterations =  2.6

     negative rho (up, down):  3.646E-03 3.645E-03

     Magnetic moment per site:
     atom:    1    charge:   12.6003    magn:    4.2285    constr:    0.0000
     atom:    2    charge:    5.9752    magn:   -0.0000    constr:    0.0000
     atom:    3    charge:   12.6003    magn:    4.2285    constr:    0.0000
     atom:    4    charge:    5.9752    magn:   -0.0000    constr:    0.0000
     atom:    5    charge:   12.5917    magn:    4.2663    constr:    0.0000
     atom:    6    charge:    5.9738    magn:   -0.0586    constr:    0.0000
     atom:    7    charge:   12.5917    magn:   -4.2663    constr:    0.0000
     atom:    8    charge:    5.9738    magn:    0.0586    constr:    0.0000
     atom:    9    charge:   12.5917    magn:   -4.2663    constr:    0.0000
     atom:   10    charge:    5.9738    magn:    0.0586    constr:    0.0000
     atom:   11    charge:   12.5917    magn:    4.2663    constr:    0.0000
     atom:   12    charge:    5.9738    magn:   -0.0586    constr:    0.0000
     atom:   13    charge:   12.6003    magn:   -4.2285    constr:    0.0000
     atom:   14    charge:    5.9752    magn:   -0.0000    constr:    0.0000
     atom:   15    charge:   12.6003    magn:   -4.2285    constr:    0.0000
     atom:   16    charge:    5.9752    magn:   -0.0000    constr:    0.0000

     total cpu time spent up to now is      828.8 secs

     total energy              =   -1946.25325371 Ry
     Harris-Foulkes estimate   =   -1946.25325190 Ry
     estimated scf accuracy    <       0.00000683 Ry

     total magnetization       =     0.00 Bohr mag/cell
     absolute magnetization    =    38.11 Bohr mag/cell

     iteration #  9     ecut=    41.00 Ry     beta=0.30
     Davidson diagonalization with overlap
     ethr =  4.06E-09,  avg # of iterations =  3.7

     negative rho (up, down):  3.634E-03 3.634E-03

     Magnetic moment per site:
     atom:    1    charge:   12.6005    magn:    4.2287    constr:    0.0000
     atom:    2    charge:    5.9749    magn:    0.0000    constr:    0.0000
     atom:    3    charge:   12.6005    magn:    4.2287    constr:    0.0000
     atom:    4    charge:    5.9749    magn:    0.0000    constr:    0.0000
     atom:    5    charge:   12.5917    magn:    4.2666    constr:    0.0000
     atom:    6    charge:    5.9735    magn:   -0.0597    constr:    0.0000
     atom:    7    charge:   12.5917    magn:   -4.2666    constr:    0.0000
     atom:    8    charge:    5.9735    magn:    0.0597    constr:    0.0000
     atom:    9    charge:   12.5917    magn:   -4.2666    constr:    0.0000
     atom:   10    charge:    5.9735    magn:    0.0597    constr:    0.0000
     atom:   11    charge:   12.5917    magn:    4.2666    constr:    0.0000
     atom:   12    charge:    5.9735    magn:   -0.0597    constr:    0.0000
     atom:   13    charge:   12.6005    magn:   -4.2287    constr:    0.0000
     atom:   14    charge:    5.9749    magn:    0.0000    constr:    0.0000
     atom:   15    charge:   12.6005    magn:   -4.2287    constr:    0.0000
     atom:   16    charge:    5.9749    magn:    0.0000    constr:    0.0000

     total cpu time spent up to now is      938.4 secs

     total energy              =   -1946.25325471 Ry
     Harris-Foulkes estimate   =   -1946.25325496 Ry
     estimated scf accuracy    <       0.00000225 Ry

     total magnetization       =     0.00 Bohr mag/cell
     absolute magnetization    =    38.11 Bohr mag/cell

     iteration # 10     ecut=    41.00 Ry     beta=0.30
     Davidson diagonalization with overlap
     ethr =  1.34E-09,  avg # of iterations =  3.2

     negative rho (up, down):  3.641E-03 3.641E-03

     Magnetic moment per site:
     atom:    1    charge:   12.6006    magn:    4.2289    constr:    0.0000
     atom:    2    charge:    5.9750    magn:    0.0000    constr:    0.0000
     atom:    3    charge:   12.6006    magn:    4.2289    constr:    0.0000
     atom:    4    charge:    5.9750    magn:    0.0000    constr:    0.0000
     atom:    5    charge:   12.5917    magn:    4.2667    constr:    0.0000
     atom:    6    charge:    5.9736    magn:   -0.0598    constr:    0.0000
     atom:    7    charge:   12.5917    magn:   -4.2667    constr:    0.0000
     atom:    8    charge:    5.9736    magn:    0.0598    constr:    0.0000
     atom:    9    charge:   12.5917    magn:   -4.2667    constr:    0.0000
     atom:   10    charge:    5.9736    magn:    0.0598    constr:    0.0000
     atom:   11    charge:   12.5917    magn:    4.2667    constr:    0.0000
     atom:   12    charge:    5.9736    magn:   -0.0598    constr:    0.0000
     atom:   13    charge:   12.6006    magn:   -4.2289    constr:    0.0000
     atom:   14    charge:    5.9750    magn:    0.0000    constr:    0.0000
     atom:   15    charge:   12.6006    magn:   -4.2289    constr:    0.0000
     atom:   16    charge:    5.9750    magn:    0.0000    constr:    0.0000

     total cpu time spent up to now is     1041.2 secs

     total energy              =   -1946.25325532 Ry
     Harris-Foulkes estimate   =   -1946.25325513 Ry
     estimated scf accuracy    <       0.00000031 Ry

     total magnetization       =     0.00 Bohr mag/cell
     absolute magnetization    =    38.11 Bohr mag/cell

     iteration # 11     ecut=    41.00 Ry     beta=0.30
     Davidson diagonalization with overlap
     ethr =  1.82E-10,  avg # of iterations =  3.2

     negative rho (up, down):  3.642E-03 3.642E-03

     Magnetic moment per site:
     atom:    1    charge:   12.6007    magn:    4.2289    constr:    0.0000
     atom:    2    charge:    5.9750    magn:    0.0000    constr:    0.0000
     atom:    3    charge:   12.6007    magn:    4.2289    constr:    0.0000
     atom:    4    charge:    5.9750    magn:    0.0000    constr:    0.0000
     atom:    5    charge:   12.5917    magn:    4.2666    constr:    0.0000
     atom:    6    charge:    5.9736    magn:   -0.0598    constr:    0.0000
     atom:    7    charge:   12.5917    magn:   -4.2666    constr:    0.0000
     atom:    8    charge:    5.9736    magn:    0.0598    constr:    0.0000
     atom:    9    charge:   12.5917    magn:   -4.2666    constr:    0.0000
     atom:   10    charge:    5.9736    magn:    0.0598    constr:    0.0000
     atom:   11    charge:   12.5917    magn:    4.2666    constr:    0.0000
     atom:   12    charge:    5.9736    magn:   -0.0598    constr:    0.0000
     atom:   13    charge:   12.6007    magn:   -4.2289    constr:    0.0000
     atom:   14    charge:    5.9750    magn:    0.0000    constr:    0.0000
     atom:   15    charge:   12.6007    magn:   -4.2289    constr:    0.0000
     atom:   16    charge:    5.9750    magn:    0.0000    constr:    0.0000

     total cpu time spent up to now is     1145.6 secs

     total energy              =   -1946.25325545 Ry
     Harris-Foulkes estimate   =   -1946.25325538 Ry
     estimated scf accuracy    <       0.00000012 Ry

     total magnetization       =     0.00 Bohr mag/cell
     absolute magnetization    =    38.11 Bohr mag/cell

     iteration # 12     ecut=    41.00 Ry     beta=0.30
     Davidson diagonalization with overlap
     ethr =  7.27E-11,  avg # of iterations =  2.9

     negative rho (up, down):  3.639E-03 3.639E-03

     Magnetic moment per site:
     atom:    1    charge:   12.6007    magn:    4.2289    constr:    0.0000
     atom:    2    charge:    5.9750    magn:    0.0000    constr:    0.0000
     atom:    3    charge:   12.6007    magn:    4.2289    constr:    0.0000
     atom:    4    charge:    5.9750    magn:    0.0000    constr:    0.0000
     atom:    5    charge:   12.5917    magn:    4.2666    constr:    0.0000
     atom:    6    charge:    5.9736    magn:   -0.0597    constr:    0.0000
     atom:    7    charge:   12.5917    magn:   -4.2666    constr:    0.0000
     atom:    8    charge:    5.9736    magn:    0.0597    constr:    0.0000
     atom:    9    charge:   12.5917    magn:   -4.2666    constr:    0.0000
     atom:   10    charge:    5.9736    magn:    0.0597    constr:    0.0000
     atom:   11    charge:   12.5917    magn:    4.2666    constr:    0.0000
     atom:   12    charge:    5.9736    magn:   -0.0597    constr:    0.0000
     atom:   13    charge:   12.6007    magn:   -4.2289    constr:    0.0000
     atom:   14    charge:    5.9750    magn:    0.0000    constr:    0.0000
     atom:   15    charge:   12.6007    magn:   -4.2289    constr:    0.0000
     atom:   16    charge:    5.9750    magn:    0.0000    constr:    0.0000

     total cpu time spent up to now is     1236.6 secs

     End of self-consistent calculation
 --- enter write_ns ---
 LDA+U parameters:
U( 1)     =  3.00000000
alpha( 1) =  0.00000000
U( 2)     =  3.00000000
alpha( 2) =  0.00000000
atom    1   Tr[ns(na)] (up, down, total) =   4.98508  0.49968  5.48476
   spin  1
    eigenvalues: 
  0.996  0.996  0.997  0.998  0.999
    eigenvectors:
  0.000  0.145  0.827  0.029  0.000
  0.000  0.000  0.000  0.000  1.000
  0.000  0.119  0.001  0.880  0.000
  0.000  0.737  0.172  0.091  0.000
  1.000  0.000  0.000  0.000  0.000
    occupations:
  0.997 -0.000  0.000  0.000  0.000
 -0.000  0.999 -0.000  0.000 -0.000
  0.000 -0.000  0.997 -0.000  0.000
  0.000  0.000 -0.000  0.997 -0.000
  0.000 -0.000  0.000 -0.000  0.996
   spin  2
    eigenvalues: 
  0.053  0.056  0.059  0.164  0.167
    eigenvectors:
  0.000  0.000  0.000  0.075  0.924
  0.996  0.000  0.004  0.000  0.000
  0.000  1.000  0.000  0.000  0.000
  0.000  0.000  0.000  0.924  0.075
  0.004  0.000  0.996  0.000  0.000
    occupations:
  0.167 -0.000 -0.001 -0.001  0.000
 -0.000  0.053 -0.000  0.000 -0.000
 -0.001 -0.000  0.056  0.002  0.000
 -0.001  0.000  0.002  0.164 -0.000
  0.000 -0.000  0.000 -0.000  0.059
atomic mag. moment =     4.485391
atom    3   Tr[ns(na)] (up, down, total) =   4.98508  0.49968  5.48476
   spin  1
    eigenvalues: 
  0.996  0.996  0.997  0.998  0.999
    eigenvectors:
  0.000  0.306  0.663  0.031  0.000
  1.000  0.000  0.000  0.000  0.000
  0.000  0.119  0.001  0.880  0.000
  0.000  0.575  0.336  0.089  0.000
  0.000  0.000  0.000  0.000  1.000
    occupations:
  0.997 -0.000  0.000  0.000  0.000
 -0.000  0.996 -0.000  0.000 -0.000
  0.000 -0.000  0.997 -0.000  0.000
  0.000  0.000 -0.000  0.997 -0.000
  0.000 -0.000  0.000 -0.000  0.999
   spin  2
    eigenvalues: 
  0.053  0.056  0.059  0.164  0.167
    eigenvectors:
  0.000  0.000  0.000  0.941  0.059
  0.004  0.000  0.996  0.000  0.000
  0.000  1.000  0.000  0.000  0.000
  0.000  0.000  0.000  0.059  0.941
  0.996  0.000  0.004  0.000  0.000
    occupations:
  0.164 -0.000 -0.001  0.001  0.000
 -0.000  0.059 -0.000  0.000 -0.000
 -0.001 -0.000  0.056  0.002  0.000
  0.001  0.000  0.002  0.167 -0.000
  0.000 -0.000  0.000 -0.000  0.053
atomic mag. moment =     4.485391
atom    5   Tr[ns(na)] (up, down, total) =   4.98661  0.47223  5.45884
   spin  1
    eigenvalues: 
  0.997  0.997  0.997  0.998  0.998
    eigenvectors:
  0.000  0.618  0.225  0.025  0.132
  0.000  0.088  0.049  0.451  0.412
  1.000  0.000  0.000  0.000  0.000
  0.000  0.206  0.676  0.074  0.044
  0.000  0.088  0.049  0.451  0.412
    occupations:
  0.997  0.000  0.000 -0.000 -0.000
  0.000  0.998 -0.000  0.000 -0.000
  0.000 -0.000  0.997 -0.000 -0.000
 -0.000  0.000 -0.000  0.997 -0.000
 -0.000 -0.000 -0.000 -0.000  0.998
   spin  2
    eigenvalues: 
  0.055  0.055  0.059  0.151  0.152
    eigenvectors:
  0.001  0.000  0.000  0.749  0.250
  0.500  0.487  0.013  0.000  0.000
  0.000  0.026  0.974  0.000  0.000
  0.000  0.000  0.000  0.250  0.750
  0.500  0.487  0.013  0.000  0.000
    occupations:
  0.151 -0.001  0.000 -0.001  0.002
 -0.001  0.056 -0.000 -0.002  0.000
  0.000 -0.000  0.058 -0.000 -0.000
 -0.001 -0.002 -0.000  0.152 -0.000
  0.002  0.000 -0.000 -0.000  0.056
atomic mag. moment =     4.514386
atom    7   Tr[ns(na)] (up, down, total) =   0.47223  4.98661  5.45884
   spin  1
    eigenvalues: 
  0.055  0.055  0.059  0.151  0.152
    eigenvectors:
  0.001  0.000  0.000  0.749  0.250
  0.500  0.487  0.013  0.000  0.000
  0.000  0.026  0.974  0.000  0.000
  0.000  0.000  0.000  0.250  0.750
  0.500  0.487  0.013  0.000  0.000
    occupations:
  0.151  0.001  0.000 -0.001 -0.002
  0.001  0.056  0.000  0.002  0.000
  0.000  0.000  0.058 -0.000  0.000
 -0.001  0.002 -0.000  0.152  0.000
 -0.002  0.000  0.000  0.000  0.056
   spin  2
    eigenvalues: 
  0.997  0.997  0.997  0.998  0.998
    eigenvectors:
  0.000  0.618  0.225  0.025  0.132
  0.000  0.088  0.049  0.451  0.412
  1.000  0.000  0.000  0.000  0.000
  0.000  0.206  0.676  0.074  0.044
  0.000  0.088  0.049  0.451  0.412
    occupations:
  0.997 -0.000  0.000 -0.000  0.000
 -0.000  0.998  0.000 -0.000 -0.000
  0.000  0.000  0.997 -0.000  0.000
 -0.000 -0.000 -0.000  0.997  0.000
  0.000 -0.000  0.000  0.000  0.998
atomic mag. moment =    -4.514387
atom    9   Tr[ns(na)] (up, down, total) =   0.47223  4.98661  5.45884
   spin  1
    eigenvalues: 
  0.055  0.055  0.059  0.151  0.152
    eigenvectors:
  0.001  0.000  0.000  0.749  0.250
  0.500  0.487  0.013  0.000  0.000
  0.000  0.026  0.974  0.000  0.000
  0.000  0.000  0.000  0.250  0.750
  0.500  0.487  0.013  0.000  0.000
    occupations:
  0.151 -0.001  0.000 -0.001  0.002
 -0.001  0.056 -0.000 -0.002  0.000
  0.000 -0.000  0.058 -0.000 -0.000
 -0.001 -0.002 -0.000  0.152 -0.000
  0.002  0.000 -0.000 -0.000  0.056
   spin  2
    eigenvalues: 
  0.997  0.997  0.997  0.998  0.998
    eigenvectors:
  0.000  0.618  0.225  0.025  0.132
  0.000  0.088  0.049  0.451  0.412
  1.000  0.000  0.000  0.000  0.000
  0.000  0.206  0.676  0.074  0.044
  0.000  0.088  0.049  0.451  0.412
    occupations:
  0.997  0.000  0.000 -0.000 -0.000
  0.000  0.998 -0.000  0.000 -0.000
  0.000 -0.000  0.997 -0.000 -0.000
 -0.000  0.000 -0.000  0.997 -0.000
 -0.000 -0.000 -0.000 -0.000  0.998
atomic mag. moment =    -4.514387
atom   11   Tr[ns(na)] (up, down, total) =   4.98661  0.47223  5.45884
   spin  1
    eigenvalues: 
  0.997  0.997  0.997  0.998  0.998
    eigenvectors:
  0.000  0.618  0.225  0.025  0.132
  0.000  0.088  0.049  0.451  0.412
  1.000  0.000  0.000  0.000  0.000
  0.000  0.206  0.676  0.074  0.044
  0.000  0.088  0.049  0.451  0.412
    occupations:
  0.997 -0.000  0.000 -0.000  0.000
 -0.000  0.998  0.000 -0.000 -0.000
  0.000  0.000  0.997 -0.000  0.000
 -0.000 -0.000 -0.000  0.997  0.000
  0.000 -0.000  0.000  0.000  0.998
   spin  2
    eigenvalues: 
  0.055  0.055  0.059  0.151  0.152
    eigenvectors:
  0.001  0.000  0.000  0.749  0.250
  0.500  0.487  0.013  0.000  0.000
  0.000  0.026  0.974  0.000  0.000
  0.000  0.000  0.000  0.250  0.750
  0.500  0.487  0.013  0.000  0.000
    occupations:
  0.151  0.001  0.000 -0.001 -0.002
  0.001  0.056  0.000  0.002  0.000
  0.000  0.000  0.058 -0.000  0.000
 -0.001  0.002 -0.000  0.152  0.000
 -0.002  0.000  0.000  0.000  0.056
atomic mag. moment =     4.514386
atom   13   Tr[ns(na)] (up, down, total) =   0.49968  4.98507  5.48476
   spin  1
    eigenvalues: 
  0.053  0.056  0.059  0.164  0.167
    eigenvectors:
  0.000  0.000  0.000  0.075  0.924
  0.996  0.000  0.004  0.000  0.000
  0.000  1.000  0.000  0.000  0.000
  0.000  0.000  0.000  0.924  0.075
  0.004  0.000  0.996  0.000  0.000
    occupations:
  0.167 -0.000 -0.001 -0.001  0.000
 -0.000  0.053 -0.000  0.000 -0.000
 -0.001 -0.000  0.056  0.002  0.000
 -0.001  0.000  0.002  0.164 -0.000
  0.000 -0.000  0.000 -0.000  0.059
   spin  2
    eigenvalues: 
  0.996  0.996  0.997  0.998  0.999
    eigenvectors:
  0.000  0.145  0.827  0.029  0.000
  0.000  0.000  0.000  0.000  1.000
  0.000  0.119  0.001  0.880  0.000
  0.000  0.737  0.172  0.091  0.000
  1.000  0.000  0.000  0.000  0.000
    occupations:
  0.997 -0.000  0.000  0.000  0.000
 -0.000  0.999 -0.000  0.000 -0.000
  0.000 -0.000  0.997 -0.000  0.000
  0.000  0.000 -0.000  0.997 -0.000
  0.000 -0.000  0.000 -0.000  0.996
atomic mag. moment =    -4.485392
atom   15   Tr[ns(na)] (up, down, total) =   0.49968  4.98507  5.48476
   spin  1
    eigenvalues: 
  0.053  0.056  0.059  0.164  0.167
    eigenvectors:
  0.000  0.000  0.000  0.941  0.059
  0.004  0.000  0.996  0.000  0.000
  0.000  1.000  0.000  0.000  0.000
  0.000  0.000  0.000  0.059  0.941
  0.996  0.000  0.004  0.000  0.000
    occupations:
  0.164 -0.000 -0.001  0.001  0.000
 -0.000  0.059 -0.000  0.000 -0.000
 -0.001 -0.000  0.056  0.002  0.000
  0.001  0.000  0.002  0.167 -0.000
  0.000 -0.000  0.000 -0.000  0.053
   spin  2
    eigenvalues: 
  0.996  0.996  0.997  0.998  0.999
    eigenvectors:
  0.000  0.306  0.663  0.031  0.000
  1.000  0.000  0.000  0.000  0.000
  0.000  0.119  0.001  0.880  0.000
  0.000  0.575  0.336  0.089  0.000
  0.000  0.000  0.000  0.000  1.000
    occupations:
  0.997 -0.000  0.000  0.000  0.000
 -0.000  0.996 -0.000  0.000 -0.000
  0.000 -0.000  0.997 -0.000  0.000
  0.000  0.000 -0.000  0.997 -0.000
  0.000 -0.000  0.000 -0.000  0.999
atomic mag. moment =    -4.485392
N of occupied +U levels =   43.774402
 --- exit write_ns ---

 ------ SPIN UP ------------


          k = 0.0000 0.0000 0.0000 (  5329 PWs)   bands (ev):

   -69.0576 -69.0566 -68.9319 -68.9302 -63.8857 -63.8846 -63.7990 -63.7968
   -37.9287 -37.9286 -37.9281 -37.9278 -37.9256 -37.9246 -37.8160 -37.8030
   -37.8010 -37.8010 -37.8000 -37.7837 -32.8757 -32.8757 -32.8726 -32.8705
   -32.8637 -32.8622 -32.8072 -32.7841 -32.7816 -32.7815 -32.7772 -32.7625
    -6.8141  -6.0879  -5.9522  -5.9017  -5.8388  -5.8388  -5.8221  -5.7837
     4.7441   4.7447   4.7804   4.7905   5.9198   6.0208   6.2651   6.2676
     6.2689   6.5664   6.5970   6.7499   6.8073   7.4149   7.4934   7.7337
     7.7563   7.8193   8.3752   8.4417   8.4426   8.4571   8.4629   8.4759
     8.4767   8.7764   8.7842   8.8334   8.9288   9.0814   9.1113   9.1660
     9.2104   9.3590   9.4921   9.4928   9.4941   9.6025  10.8763  10.9305
    11.0568  11.1219  12.2285  12.2908  12.6052  14.5289  14.5324  14.7867
    15.4893  15.5185  15.5373  15.6377  15.6960  15.8380  15.8454  15.8519
    16.1322  16.1862  16.3030  16.3865  16.3895

          k =-0.1768 0.1768 0.1768 (  5402 PWs)   bands (ev):

   -69.0576 -69.0569 -68.9313 -68.9301 -63.8852 -63.8844 -63.7989 -63.7974
   -37.9284 -37.9281 -37.9280 -37.9275 -37.9250 -37.9243 -37.8130 -37.8040
   -37.8013 -37.8011 -37.7999 -37.7879 -32.8745 -32.8744 -32.8719 -32.8706
   -32.8636 -32.8623 -32.8030 -32.7863 -32.7828 -32.7826 -32.7768 -32.7667
    -6.6862  -6.0615  -6.0136  -5.9525  -5.8932  -5.8657  -5.8092  -5.7980
     5.0245   5.0338   5.0661   5.1941   6.0275   6.1371   6.1516   6.1553
     6.1769   6.5862   6.7005   6.7305   6.8688   7.1407   7.2110   7.3459
     7.5802   7.6485   7.8282   7.9123   8.0179   8.3010   8.4367   8.5080
     8.6216   8.6502   8.6791   9.0234   9.0484   9.1444   9.2012   9.2167
     9.2643   9.3025   9.3400   9.5013   9.9261   9.9623  10.9136  10.9591
    11.0435  11.1244  11.7959  11.8591  13.5745  14.6486  14.6709  14.9382
    15.4920  15.5204  15.5416  15.5462  15.6724  15.6981  15.7035  15.7499
    15.8851  16.1081  16.1252  16.1294  16.2190

          k = 0.3536-0.3536-0.3536 (  5444 PWs)   bands (ev):

   -69.0574 -69.0574 -68.9304 -68.9304 -63.8845 -63.8845 -63.7983 -63.7983
   -37.9281 -37.9281 -37.9275 -37.9275 -37.9241 -37.9241 -37.8071 -37.8071
   -37.8016 -37.8016 -37.7962 -37.7962 -32.8739 -32.8739 -32.8702 -32.8702
   -32.8629 -32.8629 -32.7934 -32.7934 -32.7840 -32.7840 -32.7738 -32.7738
    -6.3610  -6.3610  -5.9974  -5.9974  -5.8987  -5.8987  -5.8028  -5.8028
     5.6424   5.6424   5.7075   5.7075   5.7491   5.7491   6.1452   6.1452
     6.4895   6.4895   6.6285   6.6285   6.7571   6.7571   6.8038   6.8038
     7.2015   7.2015   7.8463   7.8463   7.9992   7.9992   8.2072   8.2072
     8.5724   8.5724   8.9529   8.9529   9.1678   9.1678   9.2623   9.2623
     9.2881   9.2881   9.3370   9.3370  10.7117  10.7117  10.9526  10.9526
    11.0999  11.0999  11.1132  11.1132  14.7569  14.7569  15.1342  15.1342
    15.2608  15.2608  15.3270  15.3270  15.7383  15.7383  15.7465  15.7465
    16.0661  16.0661  16.0849  16.0850  16.1042

          k = 0.0000 0.0000 0.3536 (  5425 PWs)   bands (ev):

   -69.0578 -69.0572 -68.9318 -68.9301 -63.8848 -63.8842 -63.7988 -63.7969
   -37.9285 -37.9281 -37.9276 -37.9274 -37.9249 -37.9242 -37.8129 -37.8038
   -37.8017 -37.8002 -37.8002 -37.7879 -32.8750 -32.8746 -32.8717 -32.8708
   -32.8637 -32.8624 -32.8031 -32.7866 -32.7834 -32.7819 -32.7772 -32.7668
    -6.6531  -6.0915  -5.9781  -5.9468  -5.9368  -5.8636  -5.8547  -5.7642
     5.0267   5.0540   5.1844   5.2348   5.9425   6.0039   6.2745   6.2936
     6.3823   6.5555   6.6524   6.7277   6.8205   7.1379   7.2226   7.3333
     7.3875   7.6346   7.8158   7.8846   8.0899   8.1347   8.3439   8.5473
     8.5700   8.7816   8.8257   8.9812   9.0134   9.0568   9.0750   9.1921
     9.3075   9.4196   9.4840   9.6498   9.7358  10.0163  10.8071  10.8758
    10.9503  11.0187  11.1571  12.2520  13.8736  14.5418  14.7806  14.9179
    15.4863  15.4970  15.5401  15.5446  15.6127  15.6882  15.6951  15.8283
    15.9135  15.9166  16.0605  16.1063  16.1073

          k = 0.5303-0.5303-0.1768 (  5413 PWs)   bands (ev):

   -69.0577 -69.0577 -68.9311 -68.9301 -63.8842 -63.8842 -63.7986 -63.7975
   -37.9282 -37.9281 -37.9272 -37.9270 -37.9242 -37.9239 -37.8070 -37.8067
   -37.8022 -37.8008 -37.7969 -37.7956 -32.8742 -32.8730 -32.8714 -32.8703
   -32.8634 -32.8626 -32.7938 -32.7934 -32.7847 -32.7830 -32.7751 -32.7731
    -6.4189  -6.1885  -6.0961  -5.9905  -5.9536  -5.9280  -5.8059  -5.7433
     5.3599   5.4456   5.7175   5.7902   5.9104   6.0143   6.1819   6.2271
     6.2770   6.5094   6.6128   6.7123   6.7423   6.8190   6.9562   7.1127
     7.1895   7.2633   7.5517   7.7164   7.8698   8.0934   8.1482   8.3737
     8.5017   8.7964   8.8602   8.9780   9.0030   9.1244   9.1745   9.3578
     9.3844   9.4318   9.5763   9.7275   9.8912  10.2402  10.6251  10.7469
    10.8869  10.9434  11.0315  11.8517  14.6568  14.9363  15.0256  15.2403
    15.2935  15.3848  15.3942  15.4593  15.6164  15.6680  15.7103  15.7364
    15.7515  15.7706  15.9423  16.1177  16.1832

          k = 0.3536-0.3536 0.0000 (  5416 PWs)   bands (ev):

   -69.0580 -69.0569 -68.9315 -68.9303 -63.8851 -63.8839 -63.7986 -63.7970
   -37.9283 -37.9279 -37.9276 -37.9272 -37.9245 -37.9237 -37.8128 -37.8038
   -37.8024 -37.8012 -37.8002 -37.7880 -32.8748 -32.8724 -32.8712 -32.8699
   -32.8637 -32.8622 -32.8036 -32.7868 -32.7847 -32.7833 -32.7783 -32.7668
    -6.4994  -6.1384  -6.0647  -6.0110  -5.9510  -5.8998  -5.8109  -5.7402
     5.3364   5.4270   5.5730   5.5814   5.7886   6.0437   6.0967   6.2723
     6.3874   6.4804   6.5683   6.7228   6.7660   6.8920   6.9593   7.0840
     7.3517   7.5018   7.5466   7.8360   7.8941   8.1244   8.2302   8.4292
     8.4414   8.7104   8.7876   8.9336   9.0654   9.1295   9.1791   9.2507
     9.3456   9.4655   9.5132   9.5522   9.7307  10.6985  10.7560  10.8908
    10.9224  11.0769  11.1704  11.6465  14.5913  14.7664  14.8311  14.9896
    15.3133  15.3875  15.4932  15.5269  15.6387  15.7133  15.7442  15.8752
    15.9309  15.9531  15.9971  16.0933  16.1096

          k = 0.0000 0.0000-0.7071 (  5434 PWs)   bands (ev):

   -69.0579 -69.0579 -68.9319 -68.9298 -63.8839 -63.8839 -63.7988 -63.7967
   -37.9283 -37.9280 -37.9271 -37.9266 -37.9241 -37.9238 -37.8070 -37.8064
   -37.8029 -37.8000 -37.7974 -37.7951 -32.8749 -32.8739 -32.8709 -32.8702
   -32.8635 -32.8623 -32.7942 -32.7934 -32.7853 -32.7822 -32.7761 -32.7728
    -6.3758  -6.2336  -6.0319  -6.0136  -5.9705  -5.9058  -5.8878  -5.7109
     5.2508   5.2579   5.8183   5.9196   6.0235   6.0551   6.2248   6.2479
     6.5528   6.5737   6.6056   6.6621   6.6882   6.7021   6.8239   6.8417
     7.4326   7.4943   7.5491   7.6399   7.8925   7.9146   8.4353   8.6168
     8.6178   8.7863   8.8552   8.8996   8.9032   8.9273   9.1744   9.5355
     9.5720   9.5768   9.5773   9.6467   9.9042   9.9379  10.1211  10.2191
    10.6581  10.9335  10.9389  12.2571  14.5550  14.9332  15.2259  15.2361
    15.2402  15.4459  15.4625  15.5153  15.5373  15.5458  15.5530  15.5541
    15.7379  15.7430  15.7992  16.1210  16.2092

          k = 0.0000 0.3536-0.7071 (  5400 PWs)   bands (ev):

   -69.0576 -69.0571 -68.9317 -68.9300 -63.8847 -63.8841 -63.7988 -63.7967
   -37.9281 -37.9278 -37.9274 -37.9269 -37.9237 -37.9236 -37.8128 -37.8038
   -37.8029 -37.8020 -37.8008 -37.7880 -32.8723 -32.8721 -32.8706 -32.8698
   -32.8632 -32.8623 -32.8042 -32.7869 -32.7862 -32.7835 -32.7804 -32.7667
    -6.2539  -6.2047  -6.1822  -6.1192  -5.9453  -5.8490  -5.8464  -5.7333
     5.5721   5.6236   5.7895   5.8105   5.9104   6.0164   6.0550   6.3321
     6.3370   6.5186   6.5571   6.5799   6.7263   6.8360   6.8445   6.8783
     7.1928   7.3884   7.6074   7.6497   7.6869   7.9795   8.2779   8.2915
     8.6198   8.7612   8.8025   9.1046   9.1806   9.1847   9.2866   9.3726
     9.3866   9.4196   9.5457   9.6961   9.7017   9.8918  10.3630  10.5969
    10.9594  11.0411  11.4571  11.4767  14.8316  15.0754  15.1530  15.2593
    15.3347  15.4430  15.4741  15.4927  15.5161  15.5807  15.5871  15.6212
    15.7172  15.8341  15.9733  16.0243  16.0761

          k =-0.1768-0.1768 0.1768 (  5402 PWs)   bands (ev):

   -69.0579 -69.0566 -68.9321 -68.9303 -63.8855 -63.8842 -63.7987 -63.7965
   -37.9283 -37.9283 -37.9278 -37.9277 -37.9251 -37.9241 -37.8160 -37.8028
   -37.8022 -37.8009 -37.8003 -37.7838 -32.8761 -32.8731 -32.8722 -32.8701
   -32.8639 -32.8622 -32.8078 -32.7847 -32.7834 -32.7823 -32.7784 -32.7627
    -6.6864  -6.0828  -6.0084  -5.9449  -5.8880  -5.8702  -5.8496  -5.7492
     5.0032   5.0313   5.0464   5.1867   6.0478   6.1308   6.1528   6.1611
     6.1765   6.5642   6.6546   6.7903   6.7944   7.1292   7.2062   7.4880
     7.5948   7.7033   7.8925   7.9020   8.1256   8.3226   8.3472   8.4319
     8.6059   8.7153   8.7890   8.8831   8.8949   9.0972   9.1540   9.1915
     9.2846   9.3281   9.3957   9.5206   9.9208   9.9568  10.9441  10.9958
    11.0660  11.1078  11.7956  11.8580  13.5779  14.6269  14.6478  14.7683
    15.4210  15.4857  15.5860  15.6292  15.6944  15.7039  15.7133  15.7316
    16.0755  16.0853  16.1260  16.1545  16.2107

          k = 0.3536 0.3536-0.3536 (  5444 PWs)   bands (ev):

   -69.0584 -69.0564 -68.9323 -68.9305 -63.8855 -63.8834 -63.7984 -63.7961
   -37.9280 -37.9279 -37.9277 -37.9274 -37.9247 -37.9234 -37.8160 -37.8034
   -37.8027 -37.8008 -37.8006 -37.7839 -32.8764 -32.8722 -32.8706 -32.8693
   -32.8644 -32.8615 -32.8085 -32.7859 -32.7854 -32.7828 -32.7791 -32.7630
    -6.3756  -6.3469  -6.0698  -5.9360  -5.9047  -5.8969  -5.8621  -5.7270
     5.4406   5.4808   5.5235   5.9162   5.9509   5.9538   6.0064   6.2796
     6.3467   6.4844   6.6022   6.6233   6.6437   6.6850   6.7885   6.8415
     7.5695   7.5852   7.6537   7.7398   7.7450   8.3071   8.3086   8.3867
     8.4829   8.5073   8.7498   8.8853   9.0216   9.1251   9.1494   9.2577
     9.2804   9.3434   9.3624   9.4133  10.7105  10.8649  10.8828  10.8974
    10.9391  11.1315  11.2262  11.2414  14.6236  14.7967  14.7975  14.9813
    15.0558  15.4698  15.4810  15.5483  15.6328  15.6606  15.7426  15.9976
    16.0115  16.0733  16.1090  16.1191  16.1520

          k = 0.3536 0.0000 0.0000 (  5425 PWs)   bands (ev):

   -69.0575 -69.0565 -68.9318 -68.9301 -63.8856 -63.8845 -63.7990 -63.7967
   -37.9285 -37.9282 -37.9277 -37.9275 -37.9245 -37.9240 -37.8161 -37.8031
   -37.8024 -37.8022 -37.8006 -37.7840 -32.8734 -32.8723 -32.8714 -32.8699
   -32.8634 -32.8624 -32.8082 -32.7846 -32.7845 -32.7830 -32.7798 -32.7628
    -6.6492  -6.0951  -5.9981  -5.9346  -5.9009  -5.8619  -5.8395  -5.8100
     5.0998   5.1269   5.1792   5.2123   5.9290   5.9814   6.2097   6.3105
     6.3596   6.5239   6.5753   6.7749   6.8442   7.0128   7.0571   7.3156
     7.5094   7.8005   7.8456   7.9054   8.1311   8.3161   8.3498   8.4721
     8.5270   8.5821   8.7826   8.9804   9.0139   9.1284   9.2357   9.2409
     9.3101   9.3485   9.5146   9.5880   9.7049  10.0159  10.7106  10.8224
    10.9743  11.0860  11.1373  12.2830  13.8665  14.7665  14.8211  14.8627
    15.3705  15.5080  15.5145  15.5226  15.5717  15.6644  15.8178  15.8275
    15.8705  15.9815  16.0035  16.0553  16.2023

          k =-0.1768 0.5303 0.5303 (  5413 PWs)   bands (ev):

   -69.0575 -69.0568 -68.9312 -68.9300 -63.8851 -63.8843 -63.7989 -63.7971
   -37.9283 -37.9276 -37.9276 -37.9272 -37.9237 -37.9236 -37.8129 -37.8040
   -37.8026 -37.8024 -37.8009 -37.7881 -32.8723 -32.8717 -32.8700 -32.8699
   -32.8628 -32.8626 -32.8041 -32.7867 -32.7860 -32.7840 -32.7800 -32.7666
    -6.4079  -6.1972  -6.1201  -5.9897  -5.9308  -5.8589  -5.8432  -5.7774
     5.5237   5.5531   5.6372   5.7656   5.8718   6.0918   6.1515   6.1937
     6.2287   6.3517   6.5469   6.6263   6.7589   6.8921   6.8959   7.2018
     7.2576   7.3086   7.5000   7.6156   7.8665   8.1103   8.2363   8.3569
     8.5479   8.7681   8.8705   8.9460   9.1787   9.2217   9.2401   9.3203
     9.3674   9.4031   9.4312   9.6189   9.9496  10.2776  10.5498  10.7591
    10.8300  10.9471  11.0577  11.8723  14.8768  14.9815  15.0772  15.0929
    15.3284  15.3312  15.3775  15.5060  15.6043  15.6561  15.6765  15.7229
    15.7334  15.8951  15.9628  15.9633  16.0276

          k = 0.1768 0.5303-0.5303 (  5413 PWs)   bands (ev):

   -69.0578 -69.0565 -68.9320 -68.9303 -63.8854 -63.8840 -63.7987 -63.7963
   -37.9282 -37.9278 -37.9274 -37.9273 -37.9240 -37.9233 -37.8160 -37.8035
   -37.8029 -37.8022 -37.8009 -37.7841 -32.8734 -32.8710 -32.8703 -32.8695
   -32.8636 -32.8619 -32.8090 -32.7864 -32.7851 -32.7837 -32.7811 -32.7631
    -6.4085  -6.1987  -6.1261  -5.9865  -5.9497  -5.8557  -5.8494  -5.7503
     5.5038   5.5691   5.5710   5.7125   5.9121   6.0864   6.0971   6.2034
     6.2163   6.4760   6.4932   6.6406   6.7627   6.8262   6.8419   7.2172
     7.3298   7.4737   7.6610   7.7233   7.7612   8.1177   8.1961   8.4207
     8.4534   8.5998   8.7760   9.1007   9.1019   9.1523   9.1984   9.3153
     9.3636   9.4133   9.4143   9.6947   9.9902  10.2118  10.6398  10.7808
    10.8417  10.9728  11.0247  11.8729  14.7909  14.9162  14.9595  15.0102
    15.2814  15.4069  15.4625  15.5109  15.6448  15.6696  15.7206  15.7290
    15.7854  15.9162  15.9534  15.9693  16.1691

          k =-0.5303-0.5303 0.1768 (  5413 PWs)   bands (ev):

   -69.0582 -69.0572 -68.9320 -68.9303 -63.8847 -63.8837 -63.7985 -63.7965
   -37.9282 -37.9279 -37.9273 -37.9270 -37.9244 -37.9237 -37.8128 -37.8036
   -37.8026 -37.8009 -37.8002 -37.7879 -32.8751 -32.8726 -32.8714 -32.8701
   -32.8639 -32.8622 -32.8038 -32.7870 -32.7850 -32.7829 -32.7786 -32.7668
    -6.4184  -6.1875  -6.1138  -5.9979  -5.9540  -5.9153  -5.8136  -5.7240
     5.3454   5.4249   5.6719   5.7737   5.9059   6.0379   6.1658   6.2403
     6.3058   6.3784   6.5257   6.7598   6.7826   6.9360   7.0093   7.1554
     7.1824   7.3756   7.6221   7.6940   7.9049   8.1070   8.1650   8.3065
     8.3856   8.6885   8.8428   8.8568   9.0694   9.1388   9.2302   9.3405
     9.3610   9.4460   9.6536   9.7239   9.8908  10.2370  10.5961  10.7374
    10.8871  10.9860  11.0535  11.8515  14.6377  14.8911  14.9406  15.0029
    15.3185  15.4487  15.4496  15.5674  15.6340  15.6713  15.7146  15.7233
    15.7642  15.9175  15.9599  16.0384  16.1799

          k = 0.0000 0.3536 0.3536 (  5416 PWs)   bands (ev):

   -69.0574 -69.0574 -68.9304 -68.9304 -63.8845 -63.8845 -63.7984 -63.7982
   -37.9282 -37.9279 -37.9274 -37.9273 -37.9243 -37.9239 -37.8071 -37.8070
   -37.8018 -37.8011 -37.7970 -37.7958 -32.8728 -32.8726 -32.8717 -32.8711
   -32.8634 -32.8624 -32.7935 -32.7933 -32.7845 -32.7829 -32.7752 -32.7728
    -6.5028  -6.1026  -6.0761  -6.0358  -5.9480  -5.8399  -5.8311  -5.7793
     5.3623   5.3908   5.5171   5.5872   5.9369   5.9719   6.1807   6.4332
     6.4338   6.4443   6.5586   6.7409   6.8162   6.8696   6.9874   7.0974
     7.1342   7.1660   7.4842   7.7083   7.9111   8.0579   8.2861   8.3812
     8.7784   8.8690   8.9110   9.0255   9.0902   9.1707   9.2483   9.2761
     9.3036   9.3530   9.3633   9.3870   9.7260  10.7523  10.8017  10.9081
    10.9456  11.0852  11.0869  11.5884  14.6064  14.8167  14.8480  15.2343
    15.3275  15.3669  15.4559  15.5791  15.5863  15.6491  15.6912  15.7704
    15.7875  15.9749  16.0394  16.0996  16.1534

          k = 0.0000 0.3536-0.3536 (  5416 PWs)   bands (ev):

   -69.0574 -69.0574 -68.9323 -68.9305 -63.8845 -63.8845 -63.7984 -63.7961
   -37.9279 -37.9279 -37.9277 -37.9275 -37.9242 -37.9239 -37.8159 -37.8026
   -37.8022 -37.8020 -37.8006 -37.7839 -32.8738 -32.8732 -32.8711 -32.8704
   -32.8637 -32.8625 -32.8085 -32.7851 -32.7844 -32.7830 -32.7804 -32.7630
    -6.5032  -6.1279  -6.0761  -6.0316  -5.9572  -5.8524  -5.8399  -5.7269
     5.3008   5.3837   5.5285   5.5445   5.9089   5.9334   6.2007   6.3108
     6.3287   6.5103   6.6217   6.6734   6.7531   6.8117   7.0969   7.2768
     7.3080   7.5613   7.5904   7.6700   7.8355   8.0346   8.1950   8.4874
     8.5388   8.5505   9.0175   9.0249   9.0506   9.1208   9.1994   9.2374
     9.2891   9.3606   9.4322   9.4533   9.7551  10.8316  10.8418  10.8932
    10.9323  10.9748  11.2305  11.5884  14.5855  14.7338  14.7720  14.7880
    15.3460  15.4906  15.5643  15.5861  15.6394  15.6482  15.7147  15.9041
    15.9553  15.9964  16.0327  16.1206  16.1411

          k =-0.7071 0.0000 0.0000 (  5434 PWs)   bands (ev):

   -69.0574 -69.0563 -68.9317 -68.9300 -63.8855 -63.8844 -63.7990 -63.7965
   -37.9284 -37.9277 -37.9273 -37.9272 -37.9233 -37.9232 -37.8162 -37.8039
   -37.8034 -37.8032 -37.8012 -37.7842 -32.8710 -32.8702 -32.8695 -32.8693
   -32.8626 -32.8621 -32.8095 -32.7875 -32.7850 -32.7845 -32.7825 -32.7632
    -6.3151  -6.2959  -6.0915  -5.9609  -5.9532  -5.8393  -5.8392  -5.8358
     5.5177   5.6200   5.6288   5.6422   5.8134   6.0613   6.2091   6.3424
     6.4773   6.4793   6.5661   6.7593   6.7789   6.8022   6.8024   6.8881
     6.8936   7.4790   7.5106   7.9452   7.9607   8.3217   8.3260   8.3262
     8.4268   8.6183   8.7878   8.9652   9.2111   9.4190   9.4255   9.4259
     9.4263   9.5203   9.5836   9.5855   9.6587   9.9307  10.0516  10.4046
    10.4814  10.8131  11.0477  12.2716  14.8675  15.0263  15.1839  15.2870
    15.4200  15.4345  15.4590  15.4650  15.4753  15.4753  15.5701  15.5772
    15.6096  15.7590  15.8034  15.8051  16.1448

          k = 0.3536-0.7071 0.0000 (  5400 PWs)   bands (ev):

   -69.0579 -69.0579 -68.9308 -68.9308 -63.8839 -63.8839 -63.7977 -63.7977
   -37.9281 -37.9281 -37.9268 -37.9268 -37.9240 -37.9240 -37.8067 -37.8067
   -37.8015 -37.8015 -37.7962 -37.7962 -32.8735 -32.8735 -32.8713 -32.8713
   -32.8631 -32.8631 -32.7938 -32.7938 -32.7838 -32.7838 -32.7743 -32.7743
    -6.2472  -6.2472  -6.1224  -6.1224  -5.9528  -5.9528  -5.7445  -5.7445
     5.5800   5.5800   5.6389   5.6389   6.0917   6.0917   6.2246   6.2246
     6.3996   6.3996   6.5882   6.5882   6.7488   6.7488   6.8985   6.8985
     7.4463   7.4463   7.6576   7.6576   7.7002   7.7002   8.2976   8.2976
     8.8099   8.8099   8.8723   8.8723   8.9444   8.9444   9.2595   9.2595
     9.5901   9.5901   9.6116   9.6116   9.8468   9.8468  10.4879  10.4879
    11.0044  11.0044  11.4684  11.4684  14.8410  14.8410  15.2510  15.2510
    15.3043  15.3043  15.3874  15.3874  15.6449  15.6449  15.7228  15.7228
    15.7666  15.7666  16.0281  16.0282  16.1063

 ------ SPIN DOWN ----------


          k = 0.0000 0.0000 0.0000 (  5329 PWs)   bands (ev):

   -69.0576 -69.0566 -68.9319 -68.9302 -63.8857 -63.8846 -63.7990 -63.7969
   -37.9287 -37.9286 -37.9281 -37.9278 -37.9256 -37.9246 -37.8160 -37.8030
   -37.8010 -37.8009 -37.8000 -37.7837 -32.8758 -32.8758 -32.8726 -32.8705
   -32.8637 -32.8622 -32.8072 -32.7841 -32.7816 -32.7815 -32.7772 -32.7625
    -6.8141  -6.0879  -5.9522  -5.9018  -5.8388  -5.8388  -5.8221  -5.7837
     4.7441   4.7447   4.7804   4.7905   5.9198   6.0208   6.2651   6.2676
     6.2689   6.5664   6.5970   6.7498   6.8073   7.4149   7.4934   7.7337
     7.7563   7.8193   8.3752   8.4417   8.4426   8.4571   8.4629   8.4759
     8.4767   8.7764   8.7842   8.8334   8.9288   9.0814   9.1113   9.1660
     9.2104   9.3590   9.4922   9.4928   9.4941   9.6026  10.8763  10.9305
    11.0568  11.1219  12.2285  12.2908  12.6052  14.5289  14.5324  14.7867
    15.4893  15.5185  15.5373  15.6377  15.6960  15.8379  15.8453  15.8519
    16.1321  16.1861  16.2231  16.3030  16.3868

          k =-0.1768 0.1768 0.1768 (  5402 PWs)   bands (ev):

   -69.0576 -69.0569 -68.9313 -68.9301 -63.8852 -63.8844 -63.7989 -63.7974
   -37.9284 -37.9281 -37.9280 -37.9275 -37.9250 -37.9243 -37.8130 -37.8040
   -37.8013 -37.8011 -37.7999 -37.7879 -32.8745 -32.8744 -32.8719 -32.8706
   -32.8636 -32.8624 -32.8030 -32.7863 -32.7828 -32.7826 -32.7768 -32.7667
    -6.6862  -6.0615  -6.0136  -5.9525  -5.8932  -5.8657  -5.8092  -5.7979
     5.0245   5.0338   5.0661   5.1940   6.0275   6.1371   6.1516   6.1553
     6.1769   6.5863   6.7005   6.7305   6.8688   7.1407   7.2110   7.3459
     7.5802   7.6485   7.8282   7.9123   8.0179   8.3010   8.4367   8.5080
     8.6216   8.6502   8.6791   9.0234   9.0484   9.1444   9.2012   9.2167
     9.2643   9.3025   9.3400   9.5013   9.9261   9.9623  10.9135  10.9591
    11.0435  11.1244  11.7959  11.8591  13.5745  14.6486  14.6709  14.9382
    15.4920  15.5204  15.5416  15.5462  15.6724  15.6981  15.7035  15.7499
    15.8851  16.1081  16.1252  16.1294  16.2190

          k = 0.3536-0.3536-0.3536 (  5444 PWs)   bands (ev):

   -69.0574 -69.0574 -68.9304 -68.9304 -63.8845 -63.8845 -63.7983 -63.7983
   -37.9280 -37.9280 -37.9274 -37.9274 -37.9240 -37.9240 -37.8071 -37.8071
   -37.8016 -37.8016 -37.7962 -37.7962 -32.8739 -32.8739 -32.8702 -32.8702
   -32.8629 -32.8629 -32.7935 -32.7935 -32.7840 -32.7840 -32.7738 -32.7738
    -6.3610  -6.3610  -5.9974  -5.9974  -5.8987  -5.8987  -5.8027  -5.8027
     5.6424   5.6424   5.7075   5.7075   5.7491   5.7491   6.1452   6.1452
     6.4895   6.4895   6.6285   6.6285   6.7572   6.7572   6.8038   6.8038
     7.2015   7.2015   7.8463   7.8463   7.9992   7.9992   8.2072   8.2072
     8.5724   8.5724   8.9529   8.9529   9.1678   9.1678   9.2623   9.2623
     9.2881   9.2881   9.3370   9.3370  10.7117  10.7117  10.9526  10.9526
    11.0999  11.0999  11.1132  11.1132  14.7569  14.7569  15.1342  15.1342
    15.2608  15.2608  15.3270  15.3270  15.7383  15.7383  15.7465  15.7465
    16.0661  16.0661  16.0849  16.0850  16.1040

          k = 0.0000 0.0000 0.3536 (  5425 PWs)   bands (ev):

   -69.0577 -69.0572 -68.9318 -68.9301 -63.8848 -63.8842 -63.7988 -63.7969
   -37.9285 -37.9280 -37.9276 -37.9274 -37.9249 -37.9242 -37.8129 -37.8038
   -37.8017 -37.8002 -37.8002 -37.7879 -32.8750 -32.8746 -32.8718 -32.8708
[...]
     5.0267   5.0540   5.1844   5.2348   5.9425   6.0039   6.2745   6.2936
     6.3823   6.5555   6.6524   6.7277   6.8205   7.1379   7.2226   7.3333
     7.3875   7.6346   7.8158   7.8846   8.0899   8.1347   8.3439   8.5473
     8.5700   8.7816   8.8257   8.9812   9.0134   9.0568   9.0750   9.1921
     9.3075   9.4196   9.4840   9.6498   9.7358  10.0163  10.8071  10.8758
    10.9503  11.0187  11.1571  12.2520  13.8736  14.5418  14.7806  14.9179
    15.4863  15.4970  15.5401  15.5446  15.6127  15.6882  15.6951  15.8283
    15.9135  15.9166  16.0605  16.1062  16.1073

          k = 0.5303-0.5303-0.1768 (  5413 PWs)   bands (ev):

   -69.0577 -69.0577 -68.9311 -68.9301 -63.8842 -63.8842 -63.7986 -63.7975
   -37.9282 -37.9281 -37.9272 -37.9270 -37.9241 -37.9239 -37.8070 -37.8067
   -37.8022 -37.8008 -37.7969 -37.7956 -32.8742 -32.8730 -32.8714 -32.8703
   -32.8634 -32.8626 -32.7938 -32.7934 -32.7847 -32.7830 -32.7752 -32.7731
    -6.4189  -6.1885  -6.0961  -5.9905  -5.9536  -5.9280  -5.8059  -5.7432
     5.3599   5.4456   5.7175   5.7902   5.9104   6.0143   6.1819   6.2271
     6.2770   6.5094   6.6128   6.7123   6.7423   6.8190   6.9562   7.1127
     7.1895   7.2633   7.5517   7.7164   7.8698   8.0934   8.1482   8.3737
     8.5017   8.7964   8.8602   8.9780   9.0030   9.1244   9.1745   9.3578
     9.3844   9.4318   9.5763   9.7275   9.8912  10.2402  10.6251  10.7469
    10.8869  10.9434  11.0315  11.8517  14.6568  14.9363  15.0256  15.2403
    15.2935  15.3848  15.3942  15.4593  15.6164  15.6680  15.7103  15.7364
    15.7515  15.7706  15.9423  16.1177  16.1832

          k = 0.3536-0.3536 0.0000 (  5416 PWs)   bands (ev):

   -69.0580 -69.0569 -68.9315 -68.9303 -63.8851 -63.8839 -63.7986 -63.7970
   -37.9283 -37.9279 -37.9276 -37.9272 -37.9244 -37.9237 -37.8128 -37.8038
   -37.8024 -37.8012 -37.8002 -37.7880 -32.8748 -32.8724 -32.8712 -32.8699
   -32.8637 -32.8622 -32.8036 -32.7868 -32.7847 -32.7833 -32.7783 -32.7668
    -6.4994  -6.1384  -6.0647  -6.0110  -5.9510  -5.8998  -5.8109  -5.7402
     5.3364   5.4270   5.5730   5.5814   5.7886   6.0437   6.0967   6.2723
     6.3874   6.4804   6.5683   6.7228   6.7660   6.8920   6.9593   7.0840
     7.3517   7.5018   7.5466   7.8360   7.8941   8.1244   8.2302   8.4292
     8.4414   8.7104   8.7876   8.9336   9.0654   9.1295   9.1791   9.2507
     9.3456   9.4655   9.5132   9.5522   9.7307  10.6985  10.7560  10.8908
    10.9224  11.0769  11.1704  11.6465  14.5913  14.7664  14.8310  14.9896
    15.3132  15.3875  15.4932  15.5269  15.6387  15.7133  15.7442  15.8752
    15.9309  15.9531  15.9970  16.0933  16.1096

          k = 0.0000 0.0000-0.7071 (  5434 PWs)   bands (ev):

   -69.0579 -69.0579 -68.9319 -68.9298 -63.8839 -63.8839 -63.7988 -63.7967
   -37.9283 -37.9280 -37.9270 -37.9266 -37.9241 -37.9238 -37.8070 -37.8064
   -37.8029 -37.8000 -37.7974 -37.7951 -32.8749 -32.8739 -32.8709 -32.8702
   -32.8635 -32.8624 -32.7942 -32.7934 -32.7853 -32.7822 -32.7761 -32.7728
    -6.3759  -6.2336  -6.0319  -6.0137  -5.9705  -5.9057  -5.8878  -5.7109
     5.2508   5.2579   5.8183   5.9196   6.0235   6.0551   6.2248   6.2479
     6.5528   6.5737   6.6056   6.6621   6.6882   6.7022   6.8239   6.8417
     7.4326   7.4944   7.5491   7.6399   7.8925   7.9146   8.4353   8.6168
     8.6178   8.7863   8.8552   8.8996   8.9032   8.9273   9.1744   9.5354
     9.5720   9.5768   9.5773   9.6467   9.9042   9.9379  10.1211  10.2191
    10.6581  10.9335  10.9389  12.2571  14.5550  14.9332  15.2259  15.2361
    15.2402  15.4459  15.4625  15.5153  15.5373  15.5458  15.5530  15.5541
    15.7379  15.7430  15.7992  16.1210  16.2092

          k = 0.0000 0.3536-0.7071 (  5400 PWs)   bands (ev):

   -69.0576 -69.0571 -68.9317 -68.9300 -63.8847 -63.8841 -63.7988 -63.7967
   -37.9281 -37.9278 -37.9274 -37.9269 -37.9236 -37.9235 -37.8128 -37.8038
   -37.8029 -37.8020 -37.8008 -37.7880 -32.8724 -32.8721 -32.8706 -32.8698
   -32.8632 -32.8623 -32.8042 -32.7869 -32.7862 -32.7835 -32.7804 -32.7667
    -6.2539  -6.2047  -6.1822  -6.1192  -5.9454  -5.8490  -5.8464  -5.7333
     5.5721   5.6236   5.7895   5.8105   5.9104   6.0164   6.0550   6.3321
     6.3370   6.5186   6.5571   6.5799   6.7264   6.8360   6.8445   6.8783
     7.1928   7.3884   7.6074   7.6498   7.6869   7.9795   8.2779   8.2915
     8.6198   8.7612   8.8025   9.1046   9.1806   9.1847   9.2866   9.3726
     9.3866   9.4196   9.5457   9.6961   9.7017   9.8918  10.3630  10.5969
    10.9594  11.0412  11.4571  11.4767  14.8316  15.0754  15.1530  15.2593
    15.3347  15.4430  15.4741  15.4927  15.5161  15.5807  15.5871  15.6212
    15.7172  15.8341  15.9733  16.0243  16.0761

          k =-0.1768-0.1768 0.1768 (  5402 PWs)   bands (ev):

   -69.0579 -69.0566 -68.9321 -68.9303 -63.8855 -63.8842 -63.7987 -63.7965
   -37.9283 -37.9283 -37.9278 -37.9277 -37.9251 -37.9241 -37.8160 -37.8028
   -37.8022 -37.8009 -37.8003 -37.7838 -32.8761 -32.8731 -32.8722 -32.8702
   -32.8639 -32.8622 -32.8078 -32.7847 -32.7834 -32.7823 -32.7784 -32.7627
    -6.6864  -6.0828  -6.0084  -5.9449  -5.8880  -5.8701  -5.8496  -5.7492
     5.0032   5.0313   5.0464   5.1867   6.0478   6.1308   6.1528   6.1611
     6.1765   6.5642   6.6546   6.7903   6.7944   7.1292   7.2062   7.4880
     7.5948   7.7033   7.8925   7.9020   8.1256   8.3227   8.3472   8.4319
     8.6059   8.7153   8.7890   8.8831   8.8949   9.0972   9.1540   9.1915
     9.2846   9.3281   9.3957   9.5206   9.9208   9.9568  10.9441  10.9958
    11.0660  11.1079  11.7955  11.8580  13.5779  14.6269  14.6477  14.7683
    15.4210  15.4857  15.5860  15.6292  15.6944  15.7039  15.7133  15.7316
    16.0755  16.0853  16.1260  16.1545  16.2107

          k = 0.3536 0.3536-0.3536 (  5444 PWs)   bands (ev):

   -69.0584 -69.0564 -68.9323 -68.9305 -63.8855 -63.8835 -63.7984 -63.7962
   -37.9280 -37.9278 -37.9277 -37.9274 -37.9247 -37.9234 -37.8160 -37.8034
   -37.8027 -37.8008 -37.8006 -37.7839 -32.8764 -32.8722 -32.8707 -32.8693
   -32.8644 -32.8615 -32.8085 -32.7859 -32.7854 -32.7828 -32.7791 -32.7630
    -6.3756  -6.3469  -6.0698  -5.9360  -5.9047  -5.8969  -5.8621  -5.7270
     5.4406   5.4808   5.5235   5.9162   5.9509   5.9538   6.0064   6.2796
     6.3467   6.4844   6.6022   6.6233   6.6437   6.6850   6.7885   6.8415
     7.5695   7.5852   7.6537   7.7398   7.7450   8.3071   8.3086   8.3867
     8.4829   8.5073   8.7498   8.8853   9.0216   9.1251   9.1494   9.2577
     9.2804   9.3434   9.3624   9.4133  10.7105  10.8649  10.8828  10.8974
    10.9391  11.1315  11.2262  11.2414  14.6235  14.7966  14.7975  14.9813
    15.0558  15.4698  15.4810  15.5483  15.6328  15.6606  15.7426  15.9976
    16.0117  16.0733  16.1090  16.1190  16.1520

          k = 0.3536 0.0000 0.0000 (  5425 PWs)   bands (ev):

   -69.0575 -69.0565 -68.9318 -68.9301 -63.8856 -63.8845 -63.7990 -63.7967
   -37.9285 -37.9281 -37.9277 -37.9275 -37.9245 -37.9239 -37.8161 -37.8031
   -37.8024 -37.8022 -37.8006 -37.7840 -32.8734 -32.8723 -32.8714 -32.8699
   -32.8634 -32.8624 -32.8082 -32.7846 -32.7845 -32.7831 -32.7798 -32.7628
    -6.6492  -6.0951  -5.9981  -5.9346  -5.9009  -5.8619  -5.8395  -5.8100
     5.0998   5.1269   5.1792   5.2123   5.9290   5.9814   6.2097   6.3105
     6.3596   6.5239   6.5753   6.7749   6.8442   7.0128   7.0571   7.3156
     7.5094   7.8006   7.8456   7.9054   8.1311   8.3161   8.3498   8.4721
     8.5270   8.5821   8.7826   8.9804   9.0139   9.1284   9.2357   9.2409
     9.3101   9.3485   9.5147   9.5880   9.7049  10.0159  10.7106  10.8224
    10.9743  11.0860  11.1373  12.2830  13.8665  14.7665  14.8211  14.8627
    15.3705  15.5080  15.5145  15.5226  15.5717  15.6644  15.8177  15.8275
    15.8705  15.9815  16.0036  16.0553  16.2235

          k =-0.1768 0.5303 0.5303 (  5413 PWs)   bands (ev):

   -69.0575 -69.0568 -68.9312 -68.9300 -63.8851 -63.8843 -63.7989 -63.7971
   -37.9283 -37.9276 -37.9275 -37.9272 -37.9237 -37.9236 -37.8129 -37.8040
   -37.8026 -37.8024 -37.8009 -37.7881 -32.8723 -32.8718 -32.8700 -32.8699
   -32.8628 -32.8626 -32.8041 -32.7867 -32.7860 -32.7840 -32.7800 -32.7666
    -6.4079  -6.1972  -6.1201  -5.9897  -5.9308  -5.8589  -5.8432  -5.7774
     5.5237   5.5531   5.6372   5.7656   5.8718   6.0918   6.1515   6.1937
     6.2287   6.3517   6.5469   6.6263   6.7589   6.8921   6.8959   7.2018
     7.2576   7.3086   7.5000   7.6156   7.8665   8.1103   8.2363   8.3569
     8.5479   8.7681   8.8705   8.9460   9.1787   9.2217   9.2401   9.3203
     9.3674   9.4031   9.4312   9.6189   9.9496  10.2776  10.5498  10.7591
    10.8300  10.9471  11.0577  11.8723  14.8768  14.9815  15.0772  15.0929
    15.3284  15.3312  15.3775  15.5060  15.6043  15.6561  15.6765  15.7229
    15.7334  15.8951  15.9628  15.9633  16.0276

          k = 0.1768 0.5303-0.5303 (  5413 PWs)   bands (ev):

   -69.0578 -69.0565 -68.9320 -68.9302 -63.8854 -63.8841 -63.7987 -63.7963
   -37.9282 -37.9278 -37.9274 -37.9273 -37.9240 -37.9233 -37.8160 -37.8035
   -37.8029 -37.8022 -37.8009 -37.7841 -32.8734 -32.8710 -32.8703 -32.8695
   -32.8636 -32.8619 -32.8090 -32.7864 -32.7852 -32.7837 -32.7811 -32.7631
    -6.4085  -6.1987  -6.1261  -5.9865  -5.9497  -5.8556  -5.8494  -5.7503
     5.5038   5.5691   5.5710   5.7125   5.9121   6.0864   6.0971   6.2034
     6.2163   6.4759   6.4932   6.6406   6.7627   6.8262   6.8419   7.2172
     7.3298   7.4737   7.6610   7.7233   7.7612   8.1178   8.1961   8.4207
     8.4535   8.5998   8.7760   9.1007   9.1019   9.1523   9.1984   9.3153
     9.3636   9.4133   9.4143   9.6948   9.9902  10.2118  10.6398  10.7808
    10.8417  10.9728  11.0248  11.8729  14.7909  14.9162  14.9595  15.0102
    15.2814  15.4069  15.4625  15.5109  15.6448  15.6695  15.7206  15.7290
    15.7854  15.9162  15.9534  15.9693  16.1691

          k =-0.5303-0.5303 0.1768 (  5413 PWs)   bands (ev):

   -69.0582 -69.0572 -68.9319 -68.9303 -63.8847 -63.8837 -63.7985 -63.7966
   -37.9282 -37.9279 -37.9273 -37.9270 -37.9244 -37.9236 -37.8128 -37.8036
   -37.8026 -37.8009 -37.8002 -37.7879 -32.8751 -32.8726 -32.8714 -32.8701
   -32.8639 -32.8622 -32.8038 -32.7870 -32.7850 -32.7829 -32.7787 -32.7669
    -6.4184  -6.1875  -6.1138  -5.9979  -5.9540  -5.9153  -5.8136  -5.7239
     5.3454   5.4249   5.6719   5.7737   5.9059   6.0379   6.1658   6.2403
     6.3058   6.3784   6.5257   6.7598   6.7826   6.9360   7.0093   7.1554
     7.1824   7.3756   7.6221   7.6940   7.9050   8.1070   8.1650   8.3065
     8.3856   8.6885   8.8428   8.8568   9.0694   9.1388   9.2302   9.3405
     9.3610   9.4460   9.6536   9.7239   9.8908  10.2370  10.5961  10.7374
    10.8871  10.9860  11.0535  11.8515  14.6377  14.8911  14.9406  15.0028
    15.3185  15.4487  15.4496  15.5674  15.6340  15.6713  15.7146  15.7233
    15.7641  15.9174  15.9598  16.0384  16.1799

          k = 0.0000 0.3536 0.3536 (  5416 PWs)   bands (ev):

   -69.0574 -69.0574 -68.9304 -68.9304 -63.8845 -63.8845 -63.7984 -63.7982
   -37.9282 -37.9279 -37.9274 -37.9273 -37.9243 -37.9239 -37.8071 -37.8070
   -37.8018 -37.8011 -37.7970 -37.7958 -32.8728 -32.8726 -32.8717 -32.8711
   -32.8634 -32.8624 -32.7936 -32.7933 -32.7845 -32.7829 -32.7753 -32.7728
    -6.5028  -6.1026  -6.0761  -6.0358  -5.9480  -5.8399  -5.8311  -5.7793
     5.3623   5.3908   5.5171   5.5872   5.9369   5.9719   6.1807   6.4332
     6.4338   6.4443   6.5586   6.7409   6.8162   6.8696   6.9874   7.0974
     7.1342   7.1660   7.4842   7.7083   7.9111   8.0579   8.2861   8.3812
     8.7784   8.8690   8.9110   9.0256   9.0902   9.1707   9.2483   9.2761
     9.3036   9.3530   9.3633   9.3870   9.7260  10.7523  10.8017  10.9081
    10.9456  11.0852  11.0869  11.5884  14.6064  14.8167  14.8480  15.2343
    15.3275  15.3669  15.4559  15.5791  15.5863  15.6491  15.6912  15.7704
    15.7875  15.9747  16.0394  16.0996  16.1534

          k = 0.0000 0.3536-0.3536 (  5416 PWs)   bands (ev):

   -69.0574 -69.0574 -68.9323 -68.9305 -63.8845 -63.8845 -63.7984 -63.7962
   -37.9279 -37.9279 -37.9277 -37.9275 -37.9242 -37.9239 -37.8159 -37.8026
   -37.8022 -37.8020 -37.8006 -37.7839 -32.8738 -32.8732 -32.8711 -32.8704
   -32.8637 -32.8625 -32.8085 -32.7851 -32.7844 -32.7830 -32.7804 -32.7630
    -6.5032  -6.1279  -6.0761  -6.0316  -5.9572  -5.8524  -5.8399  -5.7269
     5.3008   5.3837   5.5285   5.5445   5.9089   5.9334   6.2007   6.3108
     6.3287   6.5103   6.6217   6.6734   6.7531   6.8117   7.0969   7.2768
     7.3080   7.5613   7.5904   7.6700   7.8355   8.0346   8.1950   8.4874
     8.5388   8.5505   9.0175   9.0249   9.0506   9.1208   9.1994   9.2374
     9.2891   9.3606   9.4322   9.4533   9.7551  10.8316  10.8418  10.8932
    10.9323  10.9748  11.2305  11.5884  14.5855  14.7338  14.7720  14.7880
    15.3460  15.4906  15.5643  15.5861  15.6394  15.6482  15.7147  15.9041
    15.9553  15.9964  16.0327  16.1205  16.1411

          k =-0.7071 0.0000 0.0000 (  5434 PWs)   bands (ev):

   -69.0574 -69.0563 -68.9317 -68.9300 -63.8855 -63.8844 -63.7991 -63.7965
   -37.9284 -37.9277 -37.9273 -37.9272 -37.9233 -37.9232 -37.8162 -37.8039
   -37.8034 -37.8032 -37.8012 -37.7842 -32.8710 -32.8702 -32.8695 -32.8693
   -32.8626 -32.8621 -32.8095 -32.7876 -32.7850 -32.7845 -32.7825 -32.7632
    -6.3151  -6.2959  -6.0915  -5.9609  -5.9532  -5.8393  -5.8392  -5.8358
     5.5177   5.6200   5.6288   5.6422   5.8134   6.0613   6.2091   6.3424
     6.4773   6.4793   6.5661   6.7593   6.7789   6.8022   6.8024   6.8881
     6.8937   7.4790   7.5106   7.9452   7.9607   8.3217   8.3260   8.3262
     8.4268   8.6183   8.7878   8.9652   9.2111   9.4190   9.4255   9.4259
     9.4264   9.5203   9.5836   9.5855   9.6587   9.9307  10.0516  10.4046
    10.4814  10.8131  11.0477  12.2716  14.8675  15.0263  15.1839  15.2870
    15.4200  15.4345  15.4590  15.4650  15.4753  15.4753  15.5701  15.5772
    15.6096  15.7590  15.8034  15.8051  16.1448

          k = 0.3536-0.7071 0.0000 (  5400 PWs)   bands (ev):

   -69.0579 -69.0579 -68.9308 -68.9308 -63.8839 -63.8839 -63.7978 -63.7978
   -37.9281 -37.9281 -37.9268 -37.9268 -37.9240 -37.9240 -37.8067 -37.8067
   -37.8015 -37.8015 -37.7962 -37.7962 -32.8735 -32.8735 -32.8713 -32.8713
   -32.8631 -32.8631 -32.7938 -32.7938 -32.7838 -32.7838 -32.7743 -32.7743
    -6.2472  -6.2472  -6.1224  -6.1224  -5.9528  -5.9528  -5.7445  -5.7445
     5.5800   5.5800   5.6389   5.6389   6.0917   6.0917   6.2246   6.2246
     6.3996   6.3996   6.5882   6.5882   6.7488   6.7488   6.8985   6.8985
     7.4463   7.4463   7.6576   7.6576   7.7002   7.7002   8.2976   8.2976
     8.8099   8.8099   8.8723   8.8723   8.9444   8.9444   9.2595   9.2595
     9.5901   9.5901   9.6116   9.6116   9.8468   9.8468  10.4879  10.4879
    11.0044  11.0044  11.4684  11.4684  14.8410  14.8410  15.2510  15.2510
    15.3043  15.3043  15.3874  15.3874  15.6449  15.6449  15.7228  15.7228
    15.7666  15.7666  16.0281  16.0281  16.1063

     the Fermi energy is    12.4884 ev

!    total energy              =   -1946.25325558 Ry
     Harris-Foulkes estimate   =   -1946.25325547 Ry
     estimated scf accuracy    <          9.0E-09 Ry

     The total energy is the sum of the following terms:

     one-electron contribution =    -894.67397075 Ry
     hartree contribution      =     531.48468536 Ry
     xc contribution           =    -269.88502309 Ry
     ewald contribution        =   -1313.56707236 Ry
     Hubbard energy            =       0.38823248 Ry
     smearing contrib. (-TS)   =      -0.00010721 Ry

     total magnetization       =     0.00 Bohr mag/cell
     absolute magnetization    =    38.11 Bohr mag/cell

     convergence has been achieved in  12 iterations

     Forces acting on atoms (Ry/au):


     negative rho (up, down):  3.639E-03 3.639E-03
     atom    1 type  1   force =  -0.11156178E-29 -0.11156178E-29  0.11156178E-29
     atom    2 type  3   force =  -0.15510464E-07  0.00000000E+00  0.00000000E+00
     atom    3 type  1   force =  -0.11156178E-29 -0.11156178E-29  0.11156178E-29
     atom    4 type  3   force =  -0.15510464E-07  0.00000000E+00  0.00000000E+00
     atom    5 type  1   force =   0.00000000E+00  0.00000000E+00  0.89249423E-29
     atom    6 type  3   force =   0.21684043E-18  0.18504561E-02 -0.18504561E-02
     atom    7 type  2   force =  -0.11156178E-29 -0.11156178E-29  0.55780890E-29
     atom    8 type  3   force =   0.10842022E-18 -0.18504636E-02  0.18504636E-02
     atom    9 type  2   force =   0.55780890E-29 -0.55780890E-29  0.11156178E-29
     atom   10 type  3   force =   0.00000000E+00  0.18504636E-02 -0.18504636E-02
     atom   11 type  1   force =   0.33468534E-29  0.55780890E-29 -0.78093245E-29
     atom   12 type  3   force =   0.21684043E-18 -0.18504561E-02  0.18504561E-02
     atom   13 type  2   force =   0.15618649E-28 -0.22312356E-29  0.22312356E-29
     atom   14 type  3   force =   0.15510464E-07  0.16543612E-23 -0.16543612E-23
     atom   15 type  2   force =   0.00000000E+00  0.00000000E+00  0.00000000E+00
     atom   16 type  3   force =   0.15510464E-07  0.00000000E+00  0.00000000E+00

     Total force =     0.005234     Total SCF correction =     0.000031


     entering subroutine stress ...


     negative rho (up, down):  3.639E-03 3.639E-03
          total   stress  (Ry/bohr**3)                   (kbar)     P=  -23.35
  -0.0001511079  -0.0000000000   0.0000000000        -22.23     -0.00      0.00
  -0.0000000000  -0.0001625229   0.0000353952         -0.00    -23.91      5.21
   0.0000000000   0.0000353952  -0.0001625229          0.00      5.21    -23.91


     Writing output data file mno_fm.scf.in.super.222.sub_frozen.033.save

     init_run     :     34.17s CPU     31.24s WALL (       1 calls)
     electrons    :   1144.99s CPU   1205.09s WALL (       1 calls)
     forces       :     73.57s CPU     79.29s WALL (       1 calls)
     stress       :    241.82s CPU    265.26s WALL (       1 calls)

     Called by init_run:
     wfcinit      :     32.75s CPU     29.80s WALL (       1 calls)
     potinit      :      0.21s CPU      0.21s WALL (       1 calls)

     Called by electrons:
     c_bands      :   1033.26s CPU   1095.71s WALL (      12 calls)
     sum_band     :    104.33s CPU    101.88s WALL (      12 calls)
     v_of_rho     :      1.90s CPU      1.93s WALL (      13 calls)
     newd         :      4.68s CPU      4.70s WALL (      13 calls)
     mix_rho      :      1.06s CPU      1.06s WALL (      12 calls)

     Called by c_bands:
     init_us_2    :      5.05s CPU      5.18s WALL (    1368 calls)
     cegterg      :   1015.55s CPU   1077.22s WALL (     432 calls)

     Called by *egterg:
     h_psi        :    486.68s CPU    487.39s WALL (    2042 calls)
     s_psi        :     68.92s CPU     53.30s WALL (    2438 calls)
     g_psi        :      0.63s CPU      0.65s WALL (    1574 calls)
     cdiaghg      :    282.86s CPU    362.89s WALL (    2006 calls)

     Called by h_psi:
     add_vuspsi   :     51.70s CPU     41.58s WALL (    2042 calls)
     vhpsi        :     46.73s CPU     61.30s WALL (    2042 calls)

     General routines
     calbec       :    386.69s CPU    410.33s WALL (   26836 calls)
     fft          :      1.71s CPU      1.71s WALL (     437 calls)
     ffts         :      0.56s CPU      0.56s WALL (     301 calls)
     fftw         :    351.72s CPU    356.49s WALL (  264432 calls)
     interpolate  :      0.27s CPU      0.28s WALL (      50 calls)
     davcio       :      0.00s CPU      0.02s WALL (      36 calls)

     Parallel routines
     fft_scatter  :    155.11s CPU    158.09s WALL (  265170 calls)
     Hubbard U routines
     new_ns       :      9.21s CPU      9.72s WALL (      12 calls)
     vhpsi        :     46.73s CPU     61.30s WALL (    2042 calls)
     force_hub    :     63.90s CPU     71.10s WALL (       1 calls)
     stres_hub    :    220.10s CPU    243.75s WALL (       1 calls)

     PWSCF        : 24m57.50s CPU    26m24.46s WALL


   This run was terminated on:  11:33:47  17Aug2017            

=------------------------------------------------------------------------------=
   JOB DONE.
=------------------------------------------------------------------------------=
