
     Program PWSCF v.5.1 starts on  9Mar2018 at  9:52:53 

     This program is part of the open-source Quantum ESPRESSO suite
     for quantum simulation of materials; please cite
         "P. Giannozzi et al., J. Phys.:Condens. Matter 21 395502 (2009);
          URL http://www.quantum-espresso.org", 
     in publications or presentations arising from this work. More details at
     http://www.quantum-espresso.org/quote

     Parallel version (MPI), running on     8 processors
     R & G space division:  proc/nbgrp/npool/nimage =       8
     Reading input from /tmp/mno_fm.in.sx.27360/mno_fm.in.sx.t
Warning: card &IONS ignored
Warning: card   ION_DYNAMICS='BFGS', ignored
Warning: card / ignored
Warning: card &CELL ignored
Warning: card  CELL_DYNAMICS = 'BFGS' ignored
Warning: card / ignored

     Current dimensions of program PWSCF are:
     Max number of different atomic species (ntypx) = 10
     Max number of k-points (npk) =  40000
     Max angular momentum in pseudopotentials (lmaxx) =  3
 kfg - two_fermi_energies  F

     Subspace diagonalization in iterative solution of the eigenvalue problem:
     a serial algorithm will be used


     Parallelization info
     --------------------
     sticks:   dense  smooth     PW     G-vecs:    dense   smooth      PW
     Min          62      52     16                  924      685     124
     Max          63      53     18                  928      692     126
     Sum         499     417    135                 7407     5513     999

     Generating pointlists ...
     new r_m :   0.2902 (alat units)  1.7490 (a.u.) for type    1
     new r_m :   0.2902 (alat units)  1.7490 (a.u.) for type    2


     bravais-lattice index     =            0
     lattice parameter (alat)  =     6.026487717  a.u.
     unit-cell volume          =     153.9873 (a.u.)^3
     number of atoms/cell      =            2
     number of atomic types    =            2
     number of electrons       =        21.00
     number of Kohn-Sham states=           15
     kinetic-energy cutoff     =      41.0000  Ry
     charge density cutoff     =     200.0000  Ry
     convergence threshold     =      1.0E-08
     mixing beta               =       0.3000
     number of iterations used =            8  local-TF  mixing
     Exchange-correlation      = SLA  PW   PSX  PSC ( 1  4 10  8 0)
     A smooth kinetic-energy cutoff is imposed at      40.0000 Ry
     height of the smooth step-function =             800.0000 Ry
     width of the smooth step-function  =               1.0000 Ry


     celldm(1)=   6.026488  celldm(2)=   0.000000  celldm(3)=   0.000000
     celldm(4)=   0.000000  celldm(5)=   0.000000  celldm(6)=   0.000000

     crystal axes: (cart. coord. in units of alat)
               a(1) = (   0.710615930892   0.703580129596   0.000000000000 )  
               a(2) = (   0.710615930892   0.000000000000   0.703580129596 )  
               a(3) = (   0.000000000000   0.703580129596   0.703580129596 )  

     reciprocal axes: (cart. coord. in units 2 pi/alat)
               b(1) = (  0.703615  0.710651 -0.710651 )  
               b(2) = (  0.703615 -0.710651  0.710651 )  
               b(3) = ( -0.703615  0.710651  0.710651 )  


     PseudoPot. # 1 for Mn read from file:
     /users/kfg/psuedo/gbrv_1.5/mn.pbesol.UPF
     MD5 check sum: 0716d5f563e6e95a34f9080f4c78c109
     Pseudo is Ultrasoft + core correction, Zval = 15.0
     Generated by new atomic code, or converted to UPF format
     Using radial grid of  859 points,  6 beta functions with: 
                l(1) =   0
                l(2) =   0
                l(3) =   1
                l(4) =   1
                l(5) =   2
                l(6) =   2
     Q(r) pseudized with  8 coefficients,  rinner =    0.950   0.950   0.950
                                                       0.950   0.950

     PseudoPot. # 2 for O  read from file:
     /users/kfg/psuedo/gbrv_1.5/o.pbesol.UPF
     MD5 check sum: 501638753501ef6325af9037351f7734
     Pseudo is Ultrasoft + core correction, Zval =  6.0
     Generated by new atomic code, or converted to UPF format
     Using radial grid of  737 points,  5 beta functions with: 
                l(1) =   0
                l(2) =   0
                l(3) =   1
                l(4) =   1
                l(5) =   2
     Q(r) pseudized with  8 coefficients,  rinner =    0.900   0.900   0.900
                                                       0.900   0.900

     atomic species   valence    mass     pseudopotential
        Mn            15.00    54.90000     Mn( 1.00)
        O              6.00    15.99900     O ( 1.00)

     Starting magnetic structure 
     atomic species   magnetization
        Mn           1.000
        O            0.000


     Simplified LDA+U calculation (l_max = 2) with parameters (eV):
     atomic species    L          U    alpha       J0     beta
        Mn             2     3.0000   0.0000   0.0000   0.0000



     16 Sym. Ops., with inversion, found



   Cartesian axes

     site n.     atom                  positions (alat units)
         1           Mn  tau(   1) = (    0.00000000000    0.00000000000    0.00000000000  )
         2           O   tau(   2) = (    0.71061593089    0.70358012960    0.70358012960  )

     number of k points=   118  gaussian smearing, width (Ry)=  0.0100

     Number of k-points >= 100: set verbosity='high' to print them.

     Dense  grid:     7407 G-vectors     FFT dimensions: (  27,  27,  27)

     Smooth grid:     5513 G-vectors     FFT dimensions: (  25,  25,  25)

     Largest allocated arrays     est. size (Mb)     dimensions
        Kohn-Sham Wavefunctions         0.02 Mb     (      91,   15)
        Atomic Hubbard wavefuncts       0.01 Mb     (      91,    5)
        NL pseudopotentials             0.04 Mb     (      91,   31)
        Each V/rho on FFT grid          0.09 Mb     (    2916,   2)
        Each G-vector array             0.01 Mb     (     925)
        G-vector shells                 0.00 Mb     (     425)
     Largest temporary arrays     est. size (Mb)     dimensions
        Auxiliary wavefunctions         0.08 Mb     (      91,   60)
        Each subspace H/S matrix        0.05 Mb     (      60,   60)
        Each <psi_i|beta_j> matrix      0.01 Mb     (      31,   15)
        Arrays for rho mixing           0.36 Mb     (    2916,    8)

     Check: negative/imaginary core charge=   -0.000057    0.000000

     Initial potential from superposition of free atoms

     starting charge   20.49992, renormalised to   21.00000
     Number of +U iterations with fixed ns =  0
     Starting occupations:
 --- enter write_ns ---
 LDA+U parameters:
U( 1)     =  3.00000000
alpha( 1) =  0.00000000
atom    1   Tr[ns(na)] (up, down, total) =   5.00000  0.00000  5.00000
   spin  1
    eigenvalues: 
  1.000  1.000  1.000  1.000  1.000
    eigenvectors:
  1.000  0.000  0.000  0.000  0.000
  0.000  1.000  0.000  0.000  0.000
  0.000  0.000  1.000  0.000  0.000
  0.000  0.000  0.000  1.000  0.000
  0.000  0.000  0.000  0.000  1.000
    occupations:
  1.000  0.000  0.000  0.000  0.000
  0.000  1.000  0.000  0.000  0.000
  0.000  0.000  1.000  0.000  0.000
  0.000  0.000  0.000  1.000  0.000
  0.000  0.000  0.000  0.000  1.000
   spin  2
    eigenvalues: 
  0.000  0.000  0.000  0.000  0.000
    eigenvectors:
  1.000  0.000  0.000  0.000  0.000
  0.000  1.000  0.000  0.000  0.000
  0.000  0.000  1.000  0.000  0.000
  0.000  0.000  0.000  1.000  0.000
  0.000  0.000  0.000  0.000  1.000
    occupations:
  0.000  0.000  0.000  0.000  0.000
  0.000  0.000  0.000  0.000  0.000
  0.000  0.000  0.000  0.000  0.000
  0.000  0.000  0.000  0.000  0.000
  0.000  0.000  0.000  0.000  0.000
atomic mag. moment =     5.000000
N of occupied +U levels =    5.000000
 --- exit write_ns ---
 Atomic wfc used for LDA+U Projector are NOT orthogonalized
     Starting wfc are   17 randomized atomic wfcs

     total cpu time spent up to now is        1.2 secs

     Self-consistent Calculation

     iteration #  1     ecut=    41.00 Ry     beta=0.30
     Davidson diagonalization with overlap
     ethr =  1.00E-02,  avg # of iterations =  2.8
 --- enter write_ns ---
 LDA+U parameters:
U( 1)     =  3.00000000
alpha( 1) =  0.00000000
atom    1   Tr[ns(na)] (up, down, total) =   4.98863  0.18997  5.17860
   spin  1
    eigenvalues: 
  0.996  0.997  0.998  0.998  0.998
    eigenvectors:
  0.750  0.250  0.000  0.000  0.000
  0.000  0.000  0.136  0.864  0.000
  0.000  0.000  0.000  0.000  1.000
  0.250  0.750  0.000  0.000  0.000
  0.000  0.000  0.864  0.136  0.000
    occupations:
  0.997 -0.000 -0.000 -0.000  0.000
 -0.000  0.998 -0.000  0.000  0.000
 -0.000 -0.000  0.998  0.000  0.000
 -0.000  0.000  0.000  0.997 -0.000
  0.000  0.000  0.000 -0.000  0.998
   spin  2
    eigenvalues: 
  0.020  0.020  0.021  0.063  0.066
    eigenvectors:
  0.000  0.000  0.000  0.250  0.750
  0.144  0.856  0.000  0.000  0.000
  0.000  0.000  1.000  0.000  0.000
  0.000  0.000  0.000  0.750  0.250
  0.856  0.144  0.000  0.000  0.000
    occupations:
  0.065 -0.000 -0.000  0.001  0.000
 -0.000  0.020 -0.000  0.000  0.000
 -0.000 -0.000  0.021  0.000  0.000
  0.001  0.000  0.000  0.064 -0.000
  0.000  0.000  0.000 -0.000  0.020
atomic mag. moment =     4.798655
N of occupied +U levels =    5.178601
 --- exit write_ns ---

     negative rho (up, down):  0.000E+00 2.295E-04

     Magnetic moment per site:
     atom:    1    charge:   12.8338    magn:   10.2869    constr:    0.0000
     atom:    2    charge:    5.7404    magn:    0.1929    constr:    0.0000

     total cpu time spent up to now is        3.6 secs

     total energy              =    -242.22910246 Ry
     Harris-Foulkes estimate   =    -240.11470953 Ry
     estimated scf accuracy    <       3.20420165 Ry

     total magnetization       =     5.00 Bohr mag/cell
     absolute magnetization    =     5.23 Bohr mag/cell

     iteration #  2     ecut=    41.00 Ry     beta=0.30
     Davidson diagonalization with overlap
     ethr =  1.00E-02,  avg # of iterations =  1.2

     negative rho (up, down):  0.000E+00 8.373E-04

     Magnetic moment per site:
     atom:    1    charge:   12.7153    magn:    4.5620    constr:    0.0000
     atom:    2    charge:    5.9672    magn:   -0.0484    constr:    0.0000

     total cpu time spent up to now is        5.3 secs

     total energy              =    -243.20517643 Ry
     Harris-Foulkes estimate   =    -242.26224714 Ry
     estimated scf accuracy    <       1.58304402 Ry

     total magnetization       =     5.00 Bohr mag/cell
     absolute magnetization    =     5.15 Bohr mag/cell

     iteration #  3     ecut=    41.00 Ry     beta=0.30
     Davidson diagonalization with overlap
     ethr =  7.54E-03,  avg # of iterations =  1.6

     negative rho (up, down):  0.000E+00 9.091E-04

     Magnetic moment per site:
     atom:    1    charge:   12.6483    magn:    4.3216    constr:    0.0000
     atom:    2    charge:    5.9505    magn:    0.0633    constr:    0.0000

     total cpu time spent up to now is        7.1 secs

     total energy              =    -243.26933508 Ry
     Harris-Foulkes estimate   =    -243.28238456 Ry
     estimated scf accuracy    <       0.04621300 Ry

     total magnetization       =     5.00 Bohr mag/cell
     absolute magnetization    =     5.00 Bohr mag/cell

     iteration #  4     ecut=    41.00 Ry     beta=0.30
     Davidson diagonalization with overlap
     ethr =  2.20E-04,  avg # of iterations =  2.1

     negative rho (up, down):  0.000E+00 9.292E-04

     Magnetic moment per site:
     atom:    1    charge:   12.6346    magn:    4.2268    constr:    0.0000
     atom:    2    charge:    5.9592    magn:    0.0806    constr:    0.0000

     total cpu time spent up to now is        9.2 secs

     total energy              =    -243.27624406 Ry
     Harris-Foulkes estimate   =    -243.27674190 Ry
     estimated scf accuracy    <       0.00365662 Ry

     total magnetization       =     5.00 Bohr mag/cell
     absolute magnetization    =     5.00 Bohr mag/cell

     iteration #  5     ecut=    41.00 Ry     beta=0.30
     Davidson diagonalization with overlap
     ethr =  1.74E-05,  avg # of iterations =  1.8

     negative rho (up, down):  0.000E+00 9.490E-04

     Magnetic moment per site:
     atom:    1    charge:   12.5997    magn:    4.2936    constr:    0.0000
     atom:    2    charge:    5.9682    magn:    0.1550    constr:    0.0000

     total cpu time spent up to now is       11.0 secs

     total energy              =    -243.27632726 Ry
     Harris-Foulkes estimate   =    -243.27643162 Ry
     estimated scf accuracy    <       0.00160224 Ry

     total magnetization       =     5.00 Bohr mag/cell
     absolute magnetization    =     5.00 Bohr mag/cell

     iteration #  6     ecut=    41.00 Ry     beta=0.30
     Davidson diagonalization with overlap
     ethr =  7.63E-06,  avg # of iterations =  2.1

     negative rho (up, down):  0.000E+00 9.489E-04

     Magnetic moment per site:
     atom:    1    charge:   12.5927    magn:    4.2950    constr:    0.0000
     atom:    2    charge:    5.9692    magn:    0.1710    constr:    0.0000

     total cpu time spent up to now is       13.1 secs

     total energy              =    -243.27667800 Ry
     Harris-Foulkes estimate   =    -243.27666363 Ry
     estimated scf accuracy    <       0.00006527 Ry

     total magnetization       =     5.00 Bohr mag/cell
     absolute magnetization    =     5.00 Bohr mag/cell

     iteration #  7     ecut=    41.00 Ry     beta=0.30
     Davidson diagonalization with overlap
     ethr =  3.11E-07,  avg # of iterations =  2.1

     negative rho (up, down):  0.000E+00 9.451E-04

     Magnetic moment per site:
     atom:    1    charge:   12.5927    magn:    4.2852    constr:    0.0000
     atom:    2    charge:    5.9689    magn:    0.1725    constr:    0.0000

     total cpu time spent up to now is       15.3 secs

     total energy              =    -243.27669635 Ry
     Harris-Foulkes estimate   =    -243.27669344 Ry
     estimated scf accuracy    <       0.00001210 Ry

     total magnetization       =     5.00 Bohr mag/cell
     absolute magnetization    =     5.00 Bohr mag/cell

     iteration #  8     ecut=    41.00 Ry     beta=0.30
     Davidson diagonalization with overlap
     ethr =  5.76E-08,  avg # of iterations =  2.0

     negative rho (up, down):  0.000E+00 9.381E-04

     Magnetic moment per site:
     atom:    1    charge:   12.5936    magn:    4.2834    constr:    0.0000
     atom:    2    charge:    5.9682    magn:    0.1752    constr:    0.0000

     total cpu time spent up to now is       17.2 secs

     total energy              =    -243.27669874 Ry
     Harris-Foulkes estimate   =    -243.27669813 Ry
     estimated scf accuracy    <       0.00000147 Ry

     total magnetization       =     5.00 Bohr mag/cell
     absolute magnetization    =     5.00 Bohr mag/cell

     iteration #  9     ecut=    41.00 Ry     beta=0.30
     Davidson diagonalization with overlap
     ethr =  7.01E-09,  avg # of iterations =  2.1

     negative rho (up, down):  0.000E+00 9.377E-04

     Magnetic moment per site:
     atom:    1    charge:   12.5936    magn:    4.2833    constr:    0.0000
     atom:    2    charge:    5.9682    magn:    0.1762    constr:    0.0000

     total cpu time spent up to now is       19.1 secs

     total energy              =    -243.27669930 Ry
     Harris-Foulkes estimate   =    -243.27669928 Ry
     estimated scf accuracy    <       0.00000022 Ry

     total magnetization       =     5.00 Bohr mag/cell
     absolute magnetization    =     5.00 Bohr mag/cell

     iteration # 10     ecut=    41.00 Ry     beta=0.30
     Davidson diagonalization with overlap
     ethr =  1.03E-09,  avg # of iterations =  2.1

     negative rho (up, down):  0.000E+00 9.389E-04

     Magnetic moment per site:
     atom:    1    charge:   12.5936    magn:    4.2832    constr:    0.0000
     atom:    2    charge:    5.9682    magn:    0.1764    constr:    0.0000

     total cpu time spent up to now is       21.1 secs

     total energy              =    -243.27669939 Ry
     Harris-Foulkes estimate   =    -243.27669936 Ry
     estimated scf accuracy    <       0.00000001 Ry

     total magnetization       =     5.00 Bohr mag/cell
     absolute magnetization    =     5.00 Bohr mag/cell

     iteration # 11     ecut=    41.00 Ry     beta=0.30
     Davidson diagonalization with overlap
     ethr =  6.10E-11,  avg # of iterations =  2.0

     negative rho (up, down):  0.000E+00 9.384E-04

     Magnetic moment per site:
     atom:    1    charge:   12.5936    magn:    4.2832    constr:    0.0000
     atom:    2    charge:    5.9682    magn:    0.1764    constr:    0.0000

     total cpu time spent up to now is       23.0 secs

     End of self-consistent calculation
 --- enter write_ns ---
 LDA+U parameters:
U( 1)     =  3.00000000
alpha( 1) =  0.00000000
atom    1   Tr[ns(na)] (up, down, total) =   4.99208  0.45365  5.44572
   spin  1
    eigenvalues: 
  0.997  0.998  0.999  0.999  0.999
    eigenvectors:
  0.750  0.250  0.000  0.000  0.000
  0.000  0.000  0.134  0.866  0.000
  0.000  0.000  0.000  0.000  1.000
  0.250  0.750  0.000  0.000  0.000
  0.000  0.000  0.866  0.134  0.000
    occupations:
  0.997 -0.000 -0.000 -0.000  0.000
 -0.000  0.999 -0.000  0.000  0.000
 -0.000 -0.000  0.999  0.000  0.000
 -0.000  0.000  0.000  0.998 -0.000
  0.000  0.000  0.000 -0.000  0.999
   spin  2
    eigenvalues: 
  0.051  0.051  0.052  0.148  0.153
    eigenvectors:
  0.000  0.000  0.000  0.250  0.750
  0.160  0.840  0.000  0.000  0.000
  0.000  0.000  1.000  0.000  0.000
  0.000  0.000  0.000  0.750  0.250
  0.840  0.160  0.000  0.000  0.000
    occupations:
  0.151 -0.000 -0.000  0.002  0.000
 -0.000  0.051 -0.000  0.000  0.000
 -0.000 -0.000  0.052  0.000  0.000
  0.002  0.000  0.000  0.149 -0.000
  0.000  0.000  0.000 -0.000  0.051
atomic mag. moment =     4.538429
N of occupied +U levels =    5.445724
 --- exit write_ns ---

     Number of k-points >= 100: set verbosity='high' to print the bands.

     the Fermi energy is    12.3025 ev

!    total energy              =    -243.27669942 Ry
     Harris-Foulkes estimate   =    -243.27669939 Ry
     estimated scf accuracy    <          3.6E-10 Ry

     The total energy is the sum of the following terms:

     one-electron contribution =    -112.64426432 Ry
     hartree contribution      =      66.75578479 Ry
     xc contribution           =     -33.74032382 Ry
     ewald contribution        =    -163.69291544 Ry
     Hubbard energy            =       0.04504842 Ry
     smearing contrib. (-TS)   =      -0.00002905 Ry

     total magnetization       =     5.00 Bohr mag/cell
     absolute magnetization    =     5.00 Bohr mag/cell

     convergence has been achieved in  11 iterations

     Forces acting on atoms (Ry/au):


     negative rho (up, down):  0.000E+00 9.384E-04
     atom    1 type  1   force =   0.34690896E-31 -0.35037805E-31 -0.35037805E-31
     atom    2 type  2   force =  -0.34690896E-31  0.35037805E-31  0.35037805E-31

     Total force =     0.000000     Total SCF correction =     0.000000


     entering subroutine stress ...


     negative rho (up, down):  0.000E+00 9.384E-04
          total   stress  (Ry/bohr**3)                   (kbar)     P=  -13.66
  -0.0001266051  -0.0000000000  -0.0000000000        -18.62     -0.00     -0.00
   0.0000000000  -0.0000760001   0.0000000000          0.00    -11.18      0.00
   0.0000000000   0.0000000000  -0.0000760001          0.00      0.00    -11.18


     Writing output data file mno_fm.in.sx.save

     init_run     :      1.06s CPU      1.08s WALL (       1 calls)
     electrons    :     21.28s CPU     21.75s WALL (       1 calls)
     forces       :      0.55s CPU      0.56s WALL (       1 calls)
     stress       :      2.98s CPU      3.04s WALL (       1 calls)

     Called by init_run:
     wfcinit      :      0.78s CPU      0.80s WALL (       1 calls)
     potinit      :      0.04s CPU      0.04s WALL (       1 calls)

     Called by electrons:
     c_bands      :     17.77s CPU     18.18s WALL (      11 calls)
     sum_band     :      3.05s CPU      3.10s WALL (      11 calls)
     v_of_rho     :      0.18s CPU      0.18s WALL (      12 calls)
     newd         :      0.19s CPU      0.20s WALL (      12 calls)
     mix_rho      :      0.08s CPU      0.09s WALL (      11 calls)

     Called by c_bands:
     init_us_2    :      0.34s CPU      0.39s WALL (    4248 calls)
     cegterg      :     17.12s CPU     17.48s WALL (    1298 calls)

     Called by *egterg:
     h_psi        :     11.71s CPU     12.01s WALL (    4015 calls)
     s_psi        :      0.48s CPU      0.55s WALL (    5313 calls)
     g_psi        :      0.02s CPU      0.03s WALL (    2599 calls)
     cdiaghg      :      3.11s CPU      3.15s WALL (    3897 calls)

     Called by h_psi:
     add_vuspsi   :      0.35s CPU      0.39s WALL (    4015 calls)
     vhpsi        :      0.46s CPU      0.46s WALL (    4015 calls)

     General routines
     calbec       :      3.12s CPU      3.20s WALL (   22898 calls)
     fft          :      0.16s CPU      0.16s WALL (     406 calls)
     ffts         :      0.04s CPU      0.05s WALL (     270 calls)
     fftw         :     11.37s CPU     11.71s WALL (  112812 calls)
     interpolate  :      0.03s CPU      0.02s WALL (      46 calls)
     davcio       :      0.00s CPU      0.00s WALL (     118 calls)

     Parallel routines
     fft_scatter  :      5.04s CPU      5.28s WALL (  113488 calls)
     Hubbard U routines
     new_ns       :      0.10s CPU      0.09s WALL (      11 calls)
     vhpsi        :      0.46s CPU      0.46s WALL (    4015 calls)
     force_hub    :      0.31s CPU      0.31s WALL (       1 calls)
     stres_hub    :      2.40s CPU      2.44s WALL (       1 calls)

     PWSCF        :    26.77s CPU        28.13s WALL


   This run was terminated on:   9:53:21   9Mar2018            

=------------------------------------------------------------------------------=
   JOB DONE.
=------------------------------------------------------------------------------=
