
     Program PWSCF v.5.1 starts on 24Aug2017 at  3: 0:25 

     This program is part of the open-source Quantum ESPRESSO suite
     for quantum simulation of materials; please cite
         "P. Giannozzi et al., J. Phys.:Condens. Matter 21 395502 (2009);
          URL http://www.quantum-espresso.org", 
     in publications or presentations arising from this work. More details at
     http://www.quantum-espresso.org/quote

     Parallel version (MPI), running on     8 processors
     R & G space division:  proc/nbgrp/npool/nimage =       8
     Reading input from /tmp/mno_fm.scf.in.k.4.02.1197/mno_fm.scf.in.k.4.02.t
Warning: card &IONS ignored
Warning: card   ION_DYNAMICS='BFGS', ignored
Warning: card / ignored
Warning: card &CELL ignored
Warning: card  CELL_DYNAMICS = 'BFGS' ignored
Warning: card / ignored

     Current dimensions of program PWSCF are:
     Max number of different atomic species (ntypx) = 10
     Max number of k-points (npk) =  40000
     Max angular momentum in pseudopotentials (lmaxx) =  3
 kfg - two_fermi_energies  T

     Subspace diagonalization in iterative solution of the eigenvalue problem:
     a serial algorithm will be used


     Parallelization info
     --------------------
     sticks:   dense  smooth     PW     G-vecs:    dense   smooth      PW
     Min         203     167     50                 3658     2695     453
     Max         204     168     52                 3659     2705     454
     Sum        1627    1337    403                29269    21613    3631

     Generating pointlists ...
     new r_m :   0.1014 (alat units)  1.7206 (a.u.) for type    1
     new r_m :   0.1014 (alat units)  1.7206 (a.u.) for type    2


     bravais-lattice index     =            0
     lattice parameter (alat)  =    16.965113696  a.u.
     unit-cell volume          =     610.3520 (a.u.)^3
     number of atoms/cell      =            8
     number of atomic types    =            2
     number of electrons       =        84.00 (up:  52.00, down:  32.00)
     number of Kohn-Sham states=           62
     kinetic-energy cutoff     =      41.0000  Ry
     charge density cutoff     =     200.0000  Ry
     convergence threshold     =      1.0E-08
     mixing beta               =       0.3000
     number of iterations used =            8  local-TF  mixing
     Exchange-correlation      = SLA  PW   PSX  PSC ( 1  4 10  8 0)
     A smooth kinetic-energy cutoff is imposed at      40.0000 Ry
     height of the smooth step-function =             800.0000 Ry
     width of the smooth step-function  =               1.0000 Ry


     celldm(1)=  16.965114  celldm(2)=   0.000000  celldm(3)=   0.000000
     celldm(4)=   0.000000  celldm(5)=   0.000000  celldm(6)=   0.000000

     crystal axes: (cart. coord. in units of alat)
               a(1) = (   1.000000000000   0.000000000000   0.000000000000 )  
               a(2) = (   0.000000000000   0.250000000000  -0.250000000000 )  
               a(3) = (   0.000000000000   0.250000000000   0.250000000000 )  

     reciprocal axes: (cart. coord. in units 2 pi/alat)
               b(1) = (  1.000000 -0.000000  0.000000 )  
               b(2) = (  0.000000  2.000000 -2.000000 )  
               b(3) = ( -0.000000  2.000000  2.000000 )  


     PseudoPot. # 1 for Mn read from file:
     /users/kfg/psuedo/gbrv_1.5/mn.pbesol.UPF
     MD5 check sum: 0716d5f563e6e95a34f9080f4c78c109
     Pseudo is Ultrasoft + core correction, Zval = 15.0
     Generated by new atomic code, or converted to UPF format
     Using radial grid of  859 points,  6 beta functions with: 
                l(1) =   0
                l(2) =   0
                l(3) =   1
                l(4) =   1
                l(5) =   2
                l(6) =   2
     Q(r) pseudized with  8 coefficients,  rinner =    0.950   0.950   0.950
                                                       0.950   0.950

     PseudoPot. # 2 for O  read from file:
     /users/kfg/psuedo/gbrv_1.5/o.pbesol.UPF
     MD5 check sum: 501638753501ef6325af9037351f7734
     Pseudo is Ultrasoft + core correction, Zval =  6.0
     Generated by new atomic code, or converted to UPF format
     Using radial grid of  737 points,  5 beta functions with: 
                l(1) =   0
                l(2) =   0
                l(3) =   1
                l(4) =   1
                l(5) =   2
     Q(r) pseudized with  8 coefficients,  rinner =    0.900   0.900   0.900
                                                       0.900   0.900

     atomic species   valence    mass     pseudopotential
        Mn            15.00    54.90000     Mn( 1.00)
        O              6.00    15.99900     O ( 1.00)

     Starting magnetic structure 
     atomic species   magnetization
        Mn           1.000
        O            0.000


     Simplified LDA+U calculation (l_max = 2) with parameters (eV):
     atomic species    L          U    alpha       J0     beta
        Mn             2     3.0000   0.0000   0.0000   0.0000



     No symmetry found



   Cartesian axes

     site n.     atom                  positions (alat units)
         1           Mn  tau(   1) = (    0.00179179163    0.00233295690   -0.00154778192  )
         2           O   tau(   2) = (    0.24763036373   -0.00053703824    0.00039794854  )
         3           Mn  tau(   3) = (    0.24842761655    0.25011739463    0.00074731990  )
         4           O   tau(   4) = (    0.50092763595    0.25047385699   -0.00194187561  )
         5           Mn  tau(   5) = (    0.49863023756   -0.00132722997   -0.00180747354  )
         6           O   tau(   6) = (    0.75154525296    0.25047050499   -0.24982885293  )
         7           Mn  tau(   7) = (    0.74981519066    0.25283877311   -0.00050539854  )
         8           O   tau(   8) = (   -0.00282338987    0.25193752662    0.00021671638  )

     number of k points=   148  gaussian smearing, width (Ry)=  0.0100

     Number of k-points >= 100: set verbosity='high' to print them.

     Dense  grid:    29269 G-vectors     FFT dimensions: (  80,  27,  27)

     Smooth grid:    21613 G-vectors     FFT dimensions: (  72,  25,  25)

     Largest allocated arrays     est. size (Mb)     dimensions
        Kohn-Sham Wavefunctions         0.33 Mb     (     347,   62)
        Atomic Hubbard wavefuncts       0.11 Mb     (     347,   20)
        NL pseudopotentials             0.66 Mb     (     347,  124)
        Each V/rho on FFT grid          0.26 Mb     (    8640,   2)
        Each G-vector array             0.03 Mb     (    3659)
        G-vector shells                 0.00 Mb     (     449)
     Largest temporary arrays     est. size (Mb)     dimensions
        Auxiliary wavefunctions         1.31 Mb     (     347,  248)
        Each subspace H/S matrix        0.94 Mb     (     248,  248)
        Each <psi_i|beta_j> matrix      0.12 Mb     (     124,   62)
        Arrays for rho mixing           1.05 Mb     (    8640,    8)

     Check: negative/imaginary core charge=   -0.000057    0.000000

     Initial potential from superposition of free atoms

     starting charge   81.99968, renormalised to   84.00000
     Number of +U iterations with fixed ns =  0
     Starting occupations:
 --- enter write_ns ---
 LDA+U parameters:
U( 1)     =  3.00000000
alpha( 1) =  0.00000000
atom    1   Tr[ns(na)] (up, down, total) =   5.00000  0.00000  5.00000
   spin  1
    eigenvalues: 
  1.000  1.000  1.000  1.000  1.000
    eigenvectors:
  1.000  0.000  0.000  0.000  0.000
  0.000  1.000  0.000  0.000  0.000
  0.000  0.000  1.000  0.000  0.000
  0.000  0.000  0.000  1.000  0.000
  0.000  0.000  0.000  0.000  1.000
    occupations:
  1.000  0.000  0.000  0.000  0.000
  0.000  1.000  0.000  0.000  0.000
  0.000  0.000  1.000  0.000  0.000
  0.000  0.000  0.000  1.000  0.000
  0.000  0.000  0.000  0.000  1.000
   spin  2
    eigenvalues: 
  0.000  0.000  0.000  0.000  0.000
    eigenvectors:
  1.000  0.000  0.000  0.000  0.000
  0.000  1.000  0.000  0.000  0.000
  0.000  0.000  1.000  0.000  0.000
  0.000  0.000  0.000  1.000  0.000
  0.000  0.000  0.000  0.000  1.000
    occupations:
  0.000  0.000  0.000  0.000  0.000
  0.000  0.000  0.000  0.000  0.000
  0.000  0.000  0.000  0.000  0.000
  0.000  0.000  0.000  0.000  0.000
  0.000  0.000  0.000  0.000  0.000
atomic mag. moment =     5.000000
atom    3   Tr[ns(na)] (up, down, total) =   5.00000  0.00000  5.00000
   spin  1
    eigenvalues: 
  1.000  1.000  1.000  1.000  1.000
    eigenvectors:
  1.000  0.000  0.000  0.000  0.000
  0.000  1.000  0.000  0.000  0.000
  0.000  0.000  1.000  0.000  0.000
  0.000  0.000  0.000  1.000  0.000
  0.000  0.000  0.000  0.000  1.000
    occupations:
  1.000  0.000  0.000  0.000  0.000
  0.000  1.000  0.000  0.000  0.000
  0.000  0.000  1.000  0.000  0.000
  0.000  0.000  0.000  1.000  0.000
  0.000  0.000  0.000  0.000  1.000
   spin  2
    eigenvalues: 
  0.000  0.000  0.000  0.000  0.000
    eigenvectors:
  1.000  0.000  0.000  0.000  0.000
  0.000  1.000  0.000  0.000  0.000
  0.000  0.000  1.000  0.000  0.000
  0.000  0.000  0.000  1.000  0.000
  0.000  0.000  0.000  0.000  1.000
    occupations:
  0.000  0.000  0.000  0.000  0.000
  0.000  0.000  0.000  0.000  0.000
  0.000  0.000  0.000  0.000  0.000
  0.000  0.000  0.000  0.000  0.000
  0.000  0.000  0.000  0.000  0.000
atomic mag. moment =     5.000000
atom    5   Tr[ns(na)] (up, down, total) =   5.00000  0.00000  5.00000
   spin  1
    eigenvalues: 
  1.000  1.000  1.000  1.000  1.000
    eigenvectors:
  1.000  0.000  0.000  0.000  0.000
  0.000  1.000  0.000  0.000  0.000
  0.000  0.000  1.000  0.000  0.000
  0.000  0.000  0.000  1.000  0.000
  0.000  0.000  0.000  0.000  1.000
    occupations:
  1.000  0.000  0.000  0.000  0.000
  0.000  1.000  0.000  0.000  0.000
  0.000  0.000  1.000  0.000  0.000
  0.000  0.000  0.000  1.000  0.000
  0.000  0.000  0.000  0.000  1.000
   spin  2
    eigenvalues: 
  0.000  0.000  0.000  0.000  0.000
    eigenvectors:
  1.000  0.000  0.000  0.000  0.000
  0.000  1.000  0.000  0.000  0.000
  0.000  0.000  1.000  0.000  0.000
  0.000  0.000  0.000  1.000  0.000
  0.000  0.000  0.000  0.000  1.000
    occupations:
  0.000  0.000  0.000  0.000  0.000
  0.000  0.000  0.000  0.000  0.000
  0.000  0.000  0.000  0.000  0.000
  0.000  0.000  0.000  0.000  0.000
  0.000  0.000  0.000  0.000  0.000
atomic mag. moment =     5.000000
atom    7   Tr[ns(na)] (up, down, total) =   5.00000  0.00000  5.00000
   spin  1
    eigenvalues: 
  1.000  1.000  1.000  1.000  1.000
    eigenvectors:
  1.000  0.000  0.000  0.000  0.000
  0.000  1.000  0.000  0.000  0.000
  0.000  0.000  1.000  0.000  0.000
  0.000  0.000  0.000  1.000  0.000
  0.000  0.000  0.000  0.000  1.000
    occupations:
  1.000  0.000  0.000  0.000  0.000
  0.000  1.000  0.000  0.000  0.000
  0.000  0.000  1.000  0.000  0.000
  0.000  0.000  0.000  1.000  0.000
  0.000  0.000  0.000  0.000  1.000
   spin  2
    eigenvalues: 
  0.000  0.000  0.000  0.000  0.000
    eigenvectors:
  1.000  0.000  0.000  0.000  0.000
  0.000  1.000  0.000  0.000  0.000
  0.000  0.000  1.000  0.000  0.000
  0.000  0.000  0.000  1.000  0.000
  0.000  0.000  0.000  0.000  1.000
    occupations:
  0.000  0.000  0.000  0.000  0.000
  0.000  0.000  0.000  0.000  0.000
  0.000  0.000  0.000  0.000  0.000
  0.000  0.000  0.000  0.000  0.000
  0.000  0.000  0.000  0.000  0.000
atomic mag. moment =     5.000000
N of occupied +U levels =   20.000000
 --- exit write_ns ---
 Atomic wfc used for LDA+U Projector are NOT orthogonalized
     Starting wfc are   68 randomized atomic wfcs

     total cpu time spent up to now is       24.2 secs

     Self-consistent Calculation

     iteration #  1     ecut=    41.00 Ry     beta=0.30
     Davidson diagonalization with overlap
     ethr =  1.00E-02,  avg # of iterations =  3.4
 --- enter write_ns ---
 LDA+U parameters:
U( 1)     =  3.00000000
alpha( 1) =  0.00000000
atom    1   Tr[ns(na)] (up, down, total) =   4.98793  0.19631  5.18424
   spin  1
    eigenvalues: 
  0.997  0.997  0.998  0.998  0.998
    eigenvectors:
  0.257  0.743  0.000  0.000  0.000
  0.000  0.000  0.000  0.174  0.826
  0.000  0.000  0.997  0.002  0.000
  0.743  0.257  0.000  0.000  0.000
  0.000  0.000  0.002  0.823  0.174
    occupations:
  0.997  0.000  0.000  0.000  0.000
  0.000  0.998 -0.000  0.000 -0.000
  0.000 -0.000  0.998 -0.000 -0.000
  0.000  0.000 -0.000  0.997  0.000
  0.000 -0.000 -0.000  0.000  0.998
   spin  2
    eigenvalues: 
  0.021  0.021  0.021  0.066  0.068
    eigenvectors:
  0.000  0.000  0.000  0.740  0.260
  0.001  0.042  0.957  0.000  0.000
  0.999  0.000  0.001  0.000  0.000
  0.000  0.000  0.000  0.260  0.740
  0.000  0.958  0.042  0.000  0.000
    occupations:
  0.066 -0.000  0.000 -0.001  0.000
 -0.000  0.021 -0.000 -0.000  0.000
  0.000 -0.000  0.021 -0.000 -0.000
 -0.001 -0.000 -0.000  0.067 -0.000
  0.000  0.000 -0.000 -0.000  0.021
atomic mag. moment =     4.791627
atom    3   Tr[ns(na)] (up, down, total) =   4.98843  0.19061  5.17903
   spin  1
    eigenvalues: 
  0.997  0.997  0.998  0.998  0.998
    eigenvectors:
  0.553  0.446  0.000  0.000  0.000
  0.000  0.000  0.000  0.044  0.956
  0.000  0.000  0.996  0.003  0.000
  0.446  0.554  0.000  0.000  0.000
  0.000  0.000  0.004  0.952  0.044
    occupations:
  0.997  0.000  0.000 -0.000  0.000
  0.000  0.998 -0.000 -0.000  0.000
  0.000 -0.000  0.998 -0.000  0.000
 -0.000 -0.000 -0.000  0.997  0.000
  0.000  0.000  0.000  0.000  0.998
   spin  2
    eigenvalues: 
  0.020  0.020  0.021  0.064  0.066
    eigenvectors:
  0.000  0.000  0.000  0.251  0.749
  0.195  0.804  0.001  0.000  0.000
  0.004  0.000  0.996  0.000  0.000
  0.000  0.000  0.000  0.749  0.251
  0.800  0.196  0.004  0.000  0.000
    occupations:
  0.065 -0.000 -0.000  0.001  0.000
 -0.000  0.020 -0.000  0.000  0.000
 -0.000 -0.000  0.021 -0.000  0.000
  0.001  0.000 -0.000  0.064 -0.000
  0.000  0.000  0.000 -0.000  0.020
atomic mag. moment =     4.797820
atom    5   Tr[ns(na)] (up, down, total) =   4.98844  0.19031  5.17875
   spin  1
    eigenvalues: 
  0.997  0.997  0.998  0.998  0.998
    eigenvectors:
  0.451  0.548  0.000  0.000  0.000
  0.000  0.000  0.002  0.962  0.035
  0.000  0.000  0.997  0.003  0.000
  0.548  0.452  0.000  0.000  0.000
  0.000  0.000  0.000  0.035  0.964
    occupations:
  0.997  0.000  0.000 -0.000 -0.000
  0.000  0.998 -0.000  0.000 -0.000
  0.000 -0.000  0.998  0.000 -0.000
 -0.000  0.000  0.000  0.997 -0.000
 -0.000 -0.000 -0.000 -0.000  0.998
   spin  2
    eigenvalues: 
  0.020  0.020  0.021  0.064  0.066
    eigenvectors:
  0.000  0.000  0.000  0.262  0.738
  0.992  0.008  0.000  0.000  0.000
  0.000  0.000  1.000  0.000  0.000
  0.000  0.000  0.000  0.738  0.262
  0.008  0.992  0.000  0.000  0.000
    occupations:
  0.065 -0.000 -0.000  0.001 -0.000
 -0.000  0.020  0.000  0.000 -0.000
 -0.000  0.000  0.021  0.000  0.000
  0.001  0.000  0.000  0.064  0.000
 -0.000 -0.000  0.000  0.000  0.020
atomic mag. moment =     4.798131
atom    7   Tr[ns(na)] (up, down, total) =   4.98752  0.19627  5.18379
   spin  1
    eigenvalues: 
  0.996  0.997  0.998  0.998  0.998
    eigenvectors:
  0.199  0.801  0.000  0.000  0.000
  0.000  0.000  0.001  0.206  0.792
  0.000  0.000  0.999  0.001  0.000
  0.801  0.199  0.000  0.000  0.000
  0.000  0.000  0.000  0.793  0.207
    occupations:
  0.997 -0.000  0.000  0.000 -0.000
 -0.000  0.998  0.000  0.000  0.000
  0.000  0.000  0.998 -0.000 -0.000
  0.000  0.000 -0.000  0.996  0.000
 -0.000  0.000 -0.000  0.000  0.998
   spin  2
    eigenvalues: 
  0.021  0.021  0.021  0.066  0.068
    eigenvectors:
  0.000  0.000  0.000  0.761  0.239
  0.001  0.975  0.024  0.000  0.000
  0.993  0.000  0.007  0.000  0.000
  0.000  0.000  0.000  0.239  0.761
  0.006  0.024  0.969  0.000  0.000
    occupations:
  0.066  0.000 -0.000 -0.001 -0.000
  0.000  0.021  0.000 -0.000 -0.000
 -0.000  0.000  0.021  0.000 -0.000
 -0.001 -0.000  0.000  0.067  0.000
 -0.000 -0.000 -0.000  0.000  0.021
atomic mag. moment =     4.791251
N of occupied +U levels =   20.725814
 --- exit write_ns ---

     negative rho (up, down):  0.000E+00 4.540E-04

     Magnetic moment per site:
     atom:    1    charge:   12.7666    magn:   10.2313    constr:    0.0000
     atom:    2    charge:    5.6845    magn:    0.1854    constr:    0.0000
     atom:    3    charge:   12.7653    magn:   10.2319    constr:    0.0000
     atom:    4    charge:    5.6801    magn:    0.1812    constr:    0.0000
     atom:    5    charge:   12.7629    magn:   10.2304    constr:    0.0000
     atom:    6    charge:    5.6769    magn:    0.1799    constr:    0.0000
     atom:    7    charge:   12.7668    magn:   10.2316    constr:    0.0000
     atom:    8    charge:    5.6839    magn:    0.1845    constr:    0.0000

     total cpu time spent up to now is      112.3 secs

     total energy              =    -968.91494070 Ry
     Harris-Foulkes estimate   =    -960.51698825 Ry
     estimated scf accuracy    <      12.82407732 Ry

     total magnetization       =    20.00 Bohr mag/cell
     absolute magnetization    =    20.90 Bohr mag/cell

     iteration #  2     ecut=    41.00 Ry     beta=0.30
     Davidson diagonalization with overlap
     ethr =  1.00E-02,  avg # of iterations =  1.1

     negative rho (up, down):  0.000E+00 1.703E-03

     Magnetic moment per site:
     atom:    1    charge:   12.6519    magn:    4.5363    constr:    0.0000
     atom:    2    charge:    5.9068    magn:   -0.0494    constr:    0.0000
     atom:    3    charge:   12.6518    magn:    4.5360    constr:    0.0000
     atom:    4    charge:    5.9021    magn:   -0.0517    constr:    0.0000
     atom:    5    charge:   12.6492    magn:    4.5357    constr:    0.0000
     atom:    6    charge:    5.8992    magn:   -0.0505    constr:    0.0000
     atom:    7    charge:   12.6514    magn:    4.5370    constr:    0.0000
     atom:    8    charge:    5.9068    magn:   -0.0479    constr:    0.0000

     total cpu time spent up to now is      164.8 secs

     total energy              =    -972.82014504 Ry
     Harris-Foulkes estimate   =    -969.04625480 Ry
     estimated scf accuracy    <       6.32813297 Ry

     total magnetization       =    20.00 Bohr mag/cell
     absolute magnetization    =    20.61 Bohr mag/cell

     iteration #  3     ecut=    41.00 Ry     beta=0.30
     Davidson diagonalization with overlap
     ethr =  7.53E-03,  avg # of iterations =  2.0

     negative rho (up, down):  0.000E+00 1.869E-03

     Magnetic moment per site:
     atom:    1    charge:   12.5858    magn:    4.2765    constr:    0.0000
     atom:    2    charge:    5.8875    magn:    0.0629    constr:    0.0000
     atom:    3    charge:   12.5847    magn:    4.2788    constr:    0.0000
     atom:    4    charge:    5.8825    magn:    0.0598    constr:    0.0000
     atom:    5    charge:   12.5822    magn:    4.2786    constr:    0.0000
     atom:    6    charge:    5.8792    magn:    0.0598    constr:    0.0000
     atom:    7    charge:   12.5852    magn:    4.2765    constr:    0.0000
     atom:    8    charge:    5.8874    magn:    0.0641    constr:    0.0000

     total cpu time spent up to now is      230.9 secs

     total energy              =    -973.07747050 Ry
     Harris-Foulkes estimate   =    -973.12786987 Ry
     estimated scf accuracy    <       0.18367148 Ry

     total magnetization       =    20.00 Bohr mag/cell
     absolute magnetization    =    20.00 Bohr mag/cell

     iteration #  4     ecut=    41.00 Ry     beta=0.30
     Davidson diagonalization with overlap
     ethr =  2.19E-04,  avg # of iterations =  2.4

     negative rho (up, down):  0.000E+00 1.911E-03

     Magnetic moment per site:
     atom:    1    charge:   12.5726    magn:    4.1916    constr:    0.0000
     atom:    2    charge:    5.8955    magn:    0.0815    constr:    0.0000
     atom:    3    charge:   12.5713    magn:    4.1942    constr:    0.0000
     atom:    4    charge:    5.8905    magn:    0.0784    constr:    0.0000
     atom:    5    charge:   12.5688    magn:    4.1940    constr:    0.0000
     atom:    6    charge:    5.8873    magn:    0.0786    constr:    0.0000
     atom:    7    charge:   12.5720    magn:    4.1918    constr:    0.0000
     atom:    8    charge:    5.8954    magn:    0.0828    constr:    0.0000

     total cpu time spent up to now is      301.6 secs

     total energy              =    -973.10425569 Ry
     Harris-Foulkes estimate   =    -973.10607032 Ry
     estimated scf accuracy    <       0.01394824 Ry

     total magnetization       =    20.00 Bohr mag/cell
     absolute magnetization    =    20.00 Bohr mag/cell

     iteration #  5     ecut=    41.00 Ry     beta=0.30
     Davidson diagonalization with overlap
     ethr =  1.66E-05,  avg # of iterations =  2.3

     negative rho (up, down):  0.000E+00 1.961E-03

     Magnetic moment per site:
     atom:    1    charge:   12.5388    magn:    4.2593    constr:    0.0000
     atom:    2    charge:    5.9033    magn:    0.1575    constr:    0.0000
     atom:    3    charge:   12.5366    magn:    4.2628    constr:    0.0000
     atom:    4    charge:    5.8984    magn:    0.1544    constr:    0.0000
     atom:    5    charge:   12.5341    magn:    4.2630    constr:    0.0000
     atom:    6    charge:    5.8952    magn:    0.1548    constr:    0.0000
     atom:    7    charge:   12.5381    magn:    4.2600    constr:    0.0000
     atom:    8    charge:    5.9031    magn:    0.1592    constr:    0.0000

     total cpu time spent up to now is      365.7 secs

     total energy              =    -973.10462856 Ry
     Harris-Foulkes estimate   =    -973.10494326 Ry
     estimated scf accuracy    <       0.00634315 Ry

     total magnetization       =    20.00 Bohr mag/cell
     absolute magnetization    =    20.00 Bohr mag/cell
 kfg - setting two_fermi_energies to FALSE

     iteration #  6     ecut=    41.00 Ry     beta=0.30
     Davidson diagonalization with overlap
     ethr =  7.55E-06,  avg # of iterations =  2.1

     negative rho (up, down):  0.000E+00 1.960E-03

     Magnetic moment per site:
     atom:    1    charge:   12.5324    magn:    4.2589    constr:    0.0000
     atom:    2    charge:    5.9044    magn:    0.1740    constr:    0.0000
     atom:    3    charge:   12.5297    magn:    4.2626    constr:    0.0000
     atom:    4    charge:    5.8995    magn:    0.1709    constr:    0.0000
     atom:    5    charge:   12.5273    magn:    4.2628    constr:    0.0000
     atom:    6    charge:    5.8962    magn:    0.1712    constr:    0.0000
     atom:    7    charge:   12.5317    magn:    4.2595    constr:    0.0000
     atom:    8    charge:    5.9042    magn:    0.1756    constr:    0.0000

     total cpu time spent up to now is      433.3 secs

     total energy              =    -973.10600596 Ry
     Harris-Foulkes estimate   =    -973.10595340 Ry
     estimated scf accuracy    <       0.00030232 Ry

     total magnetization       =    20.00 Bohr mag/cell
     absolute magnetization    =    20.00 Bohr mag/cell

     iteration #  7     ecut=    41.00 Ry     beta=0.30
     Davidson diagonalization with overlap
     ethr =  3.60E-07,  avg # of iterations =  2.2

     negative rho (up, down):  0.000E+00 1.949E-03

     Magnetic moment per site:
     atom:    1    charge:   12.5323    magn:    4.2491    constr:    0.0000
     atom:    2    charge:    5.9040    magn:    0.1763    constr:    0.0000
     atom:    3    charge:   12.5294    magn:    4.2527    constr:    0.0000
     atom:    4    charge:    5.8990    magn:    0.1733    constr:    0.0000
     atom:    5    charge:   12.5271    magn:    4.2529    constr:    0.0000
     atom:    6    charge:    5.8957    magn:    0.1733    constr:    0.0000
     atom:    7    charge:   12.5317    magn:    4.2496    constr:    0.0000
     atom:    8    charge:    5.9038    magn:    0.1779    constr:    0.0000

     total cpu time spent up to now is      500.8 secs

     total energy              =    -973.10607688 Ry
     Harris-Foulkes estimate   =    -973.10607272 Ry
     estimated scf accuracy    <       0.00008490 Ry

     total magnetization       =    20.00 Bohr mag/cell
     absolute magnetization    =    20.00 Bohr mag/cell

     iteration #  8     ecut=    41.00 Ry     beta=0.30
     Davidson diagonalization with overlap
     ethr =  1.01E-07,  avg # of iterations =  1.5

     negative rho (up, down):  0.000E+00 1.919E-03

     Magnetic moment per site:
     atom:    1    charge:   12.5346    magn:    4.2471    constr:    0.0000
     atom:    2    charge:    5.9029    magn:    0.1802    constr:    0.0000
     atom:    3    charge:   12.5312    magn:    4.2507    constr:    0.0000
     atom:    4    charge:    5.8980    magn:    0.1772    constr:    0.0000
     atom:    5    charge:   12.5290    magn:    4.2509    constr:    0.0000
     atom:    6    charge:    5.8947    magn:    0.1765    constr:    0.0000
     atom:    7    charge:   12.5339    magn:    4.2474    constr:    0.0000
     atom:    8    charge:    5.9027    magn:    0.1814    constr:    0.0000

     total cpu time spent up to now is      557.0 secs

     total energy              =    -973.10607614 Ry
     Harris-Foulkes estimate   =    -973.10608654 Ry
     estimated scf accuracy    <       0.00002908 Ry

     total magnetization       =    20.00 Bohr mag/cell
     absolute magnetization    =    20.00 Bohr mag/cell

     iteration #  9     ecut=    41.00 Ry     beta=0.30
     Davidson diagonalization with overlap
     ethr =  3.46E-08,  avg # of iterations =  2.0

     negative rho (up, down):  0.000E+00 1.922E-03

     Magnetic moment per site:
     atom:    1    charge:   12.5341    magn:    4.2474    constr:    0.0000
     atom:    2    charge:    5.9029    magn:    0.1823    constr:    0.0000
     atom:    3    charge:   12.5306    magn:    4.2510    constr:    0.0000
     atom:    4    charge:    5.8980    magn:    0.1793    constr:    0.0000
     atom:    5    charge:   12.5284    magn:    4.2512    constr:    0.0000
     atom:    6    charge:    5.8947    magn:    0.1784    constr:    0.0000
     atom:    7    charge:   12.5334    magn:    4.2477    constr:    0.0000
     atom:    8    charge:    5.9027    magn:    0.1834    constr:    0.0000

     total cpu time spent up to now is      624.2 secs

     total energy              =    -973.10607742 Ry
     Harris-Foulkes estimate   =    -973.10608251 Ry
     estimated scf accuracy    <       0.00000999 Ry

     total magnetization       =    20.00 Bohr mag/cell
     absolute magnetization    =    20.00 Bohr mag/cell

     iteration # 10     ecut=    41.00 Ry     beta=0.30
     Davidson diagonalization with overlap
     ethr =  1.19E-08,  avg # of iterations =  2.2

     negative rho (up, down):  0.000E+00 1.933E-03

     Magnetic moment per site:
     atom:    1    charge:   12.5342    magn:    4.2477    constr:    0.0000
     atom:    2    charge:    5.9031    magn:    0.1806    constr:    0.0000
     atom:    3    charge:   12.5306    magn:    4.2513    constr:    0.0000
     atom:    4    charge:    5.8981    magn:    0.1776    constr:    0.0000
     atom:    5    charge:   12.5285    magn:    4.2515    constr:    0.0000
     atom:    6    charge:    5.8948    magn:    0.1766    constr:    0.0000
     atom:    7    charge:   12.5336    magn:    4.2479    constr:    0.0000
     atom:    8    charge:    5.9029    magn:    0.1817    constr:    0.0000

     total cpu time spent up to now is      697.4 secs

     total energy              =    -973.10608097 Ry
     Harris-Foulkes estimate   =    -973.10608090 Ry
     estimated scf accuracy    <       0.00000527 Ry

     total magnetization       =    20.00 Bohr mag/cell
     absolute magnetization    =    20.00 Bohr mag/cell

     iteration # 11     ecut=    41.00 Ry     beta=0.30
     Davidson diagonalization with overlap
     ethr =  6.27E-09,  avg # of iterations =  1.5

     negative rho (up, down):  0.000E+00 1.937E-03

     Magnetic moment per site:
     atom:    1    charge:   12.5341    magn:    4.2483    constr:    0.0000
     atom:    2    charge:    5.9032    magn:    0.1792    constr:    0.0000
     atom:    3    charge:   12.5306    magn:    4.2519    constr:    0.0000
     atom:    4    charge:    5.8983    magn:    0.1761    constr:    0.0000
     atom:    5    charge:   12.5284    magn:    4.2521    constr:    0.0000
     atom:    6    charge:    5.8950    magn:    0.1751    constr:    0.0000
     atom:    7    charge:   12.5335    magn:    4.2485    constr:    0.0000
     atom:    8    charge:    5.9031    magn:    0.1802    constr:    0.0000

     total cpu time spent up to now is      757.1 secs

     total energy              =    -973.10608171 Ry
     Harris-Foulkes estimate   =    -973.10608167 Ry
     estimated scf accuracy    <       0.00000059 Ry

     total magnetization       =    20.00 Bohr mag/cell
     absolute magnetization    =    20.00 Bohr mag/cell

     iteration # 12     ecut=    41.00 Ry     beta=0.30
     Davidson diagonalization with overlap
     ethr =  7.04E-10,  avg # of iterations =  2.0

     negative rho (up, down):  0.000E+00 1.935E-03

     Magnetic moment per site:
     atom:    1    charge:   12.5341    magn:    4.2481    constr:    0.0000
     atom:    2    charge:    5.9032    magn:    0.1795    constr:    0.0000
     atom:    3    charge:   12.5305    magn:    4.2517    constr:    0.0000
     atom:    4    charge:    5.8983    magn:    0.1764    constr:    0.0000
     atom:    5    charge:   12.5283    magn:    4.2519    constr:    0.0000
     atom:    6    charge:    5.8950    magn:    0.1754    constr:    0.0000
     atom:    7    charge:   12.5334    magn:    4.2483    constr:    0.0000
     atom:    8    charge:    5.9031    magn:    0.1805    constr:    0.0000

     total cpu time spent up to now is      829.6 secs

     total energy              =    -973.10608203 Ry
     Harris-Foulkes estimate   =    -973.10608203 Ry
     estimated scf accuracy    <       0.00000010 Ry

     total magnetization       =    20.00 Bohr mag/cell
     absolute magnetization    =    20.00 Bohr mag/cell

     iteration # 13     ecut=    41.00 Ry     beta=0.30
     Davidson diagonalization with overlap
     ethr =  1.20E-10,  avg # of iterations =  2.0

     negative rho (up, down):  0.000E+00 1.932E-03

     Magnetic moment per site:
     atom:    1    charge:   12.5340    magn:    4.2481    constr:    0.0000
     atom:    2    charge:    5.9032    magn:    0.1794    constr:    0.0000
     atom:    3    charge:   12.5305    magn:    4.2517    constr:    0.0000
     atom:    4    charge:    5.8983    magn:    0.1763    constr:    0.0000
     atom:    5    charge:   12.5283    magn:    4.2519    constr:    0.0000
     atom:    6    charge:    5.8950    magn:    0.1753    constr:    0.0000
     atom:    7    charge:   12.5334    magn:    4.2483    constr:    0.0000
     atom:    8    charge:    5.9031    magn:    0.1804    constr:    0.0000

     total cpu time spent up to now is      904.5 secs

     total energy              =    -973.10608207 Ry
     Harris-Foulkes estimate   =    -973.10608205 Ry
     estimated scf accuracy    <       0.00000001 Ry

     total magnetization       =    20.00 Bohr mag/cell
     absolute magnetization    =    20.00 Bohr mag/cell

     iteration # 14     ecut=    41.00 Ry     beta=0.30
     Davidson diagonalization with overlap
     ethr =  1.28E-11,  avg # of iterations =  2.0

     negative rho (up, down):  0.000E+00 1.932E-03

     Magnetic moment per site:
     atom:    1    charge:   12.5341    magn:    4.2481    constr:    0.0000
     atom:    2    charge:    5.9032    magn:    0.1793    constr:    0.0000
     atom:    3    charge:   12.5305    magn:    4.2517    constr:    0.0000
     atom:    4    charge:    5.8983    magn:    0.1763    constr:    0.0000
     atom:    5    charge:   12.5283    magn:    4.2519    constr:    0.0000
     atom:    6    charge:    5.8950    magn:    0.1752    constr:    0.0000
     atom:    7    charge:   12.5334    magn:    4.2483    constr:    0.0000
     atom:    8    charge:    5.9031    magn:    0.1804    constr:    0.0000

     total cpu time spent up to now is      979.2 secs

     End of self-consistent calculation
 --- enter write_ns ---
 LDA+U parameters:
U( 1)     =  3.00000000
alpha( 1) =  0.00000000
atom    1   Tr[ns(na)] (up, down, total) =   4.99150  0.46448  5.45598
   spin  1
    eigenvalues: 
  0.997  0.997  0.999  0.999  0.999
    eigenvectors:
  0.269  0.731  0.000  0.000  0.000
  0.000  0.000  0.156  0.836  0.008
  0.000  0.000  0.014  0.002  0.984
  0.731  0.269  0.000  0.000  0.000
  0.000  0.000  0.830  0.162  0.008
    occupations:
  0.997  0.000  0.000  0.000  0.000
  0.000  0.999 -0.000  0.000 -0.000
  0.000 -0.000  0.999 -0.000 -0.000
  0.000  0.000 -0.000  0.997  0.000
  0.000 -0.000 -0.000  0.000  0.999
   spin  2
    eigenvalues: 
  0.052  0.053  0.053  0.152  0.155
    eigenvectors:
  0.000  0.000  0.000  0.740  0.260
  0.000  0.023  0.976  0.000  0.000
  1.000  0.000  0.000  0.000  0.000
  0.000  0.000  0.000  0.260  0.740
  0.000  0.976  0.024  0.000  0.000
    occupations:
  0.153 -0.000 -0.000 -0.002  0.000
 -0.000  0.053 -0.000 -0.000  0.000
 -0.000 -0.000  0.052  0.000  0.000
 -0.002 -0.000  0.000  0.154 -0.000
  0.000  0.000  0.000 -0.000  0.053
atomic mag. moment =     4.527018
atom    3   Tr[ns(na)] (up, down, total) =   4.99271  0.45660  5.44931
   spin  1
    eigenvalues: 
  0.998  0.998  0.999  0.999  0.999
    eigenvectors:
  0.748  0.252  0.000  0.000  0.000
  0.000  0.000  0.006  0.845  0.149
  0.000  0.000  0.990  0.002  0.008
  0.252  0.748  0.000  0.000  0.000
  0.000  0.000  0.004  0.153  0.843
    occupations:
  0.998  0.000  0.000 -0.000  0.000
  0.000  0.999 -0.000 -0.000 -0.000
  0.000 -0.000  0.999  0.000  0.000
 -0.000 -0.000  0.000  0.998  0.000
  0.000 -0.000  0.000  0.000  0.999
   spin  2
    eigenvalues: 
  0.051  0.051  0.052  0.150  0.152
    eigenvectors:
  0.000  0.000  0.000  0.254  0.746
  0.030  0.968  0.002  0.000  0.000
  0.024  0.004  0.972  0.000  0.000
  0.000  0.000  0.000  0.746  0.254
  0.946  0.028  0.026  0.000  0.000
    occupations:
  0.151 -0.000  0.000  0.001 -0.000
 -0.000  0.051  0.000  0.000  0.000
  0.000  0.000  0.052 -0.000  0.000
  0.001  0.000 -0.000  0.151 -0.000
 -0.000  0.000  0.000 -0.000  0.051
atomic mag. moment =     4.536110
atom    5   Tr[ns(na)] (up, down, total) =   4.99259  0.45485  5.44744
   spin  1
    eigenvalues: 
  0.998  0.998  0.999  0.999  0.999
    eigenvectors:
  0.715  0.285  0.000  0.000  0.000
  0.000  0.000  0.162  0.836  0.001
  0.000  0.000  0.787  0.160  0.053
  0.285  0.715  0.000  0.000  0.000
  0.000  0.000  0.051  0.004  0.945
    occupations:
  0.998  0.000  0.000 -0.000 -0.000
  0.000  0.999 -0.000  0.000  0.000
  0.000 -0.000  0.999  0.000  0.000
 -0.000  0.000  0.000  0.998 -0.000
 -0.000  0.000  0.000 -0.000  0.999
   spin  2
    eigenvalues: 
  0.051  0.051  0.052  0.149  0.152
    eigenvectors:
  0.000  0.000  0.000  0.260  0.740
  0.996  0.004  0.000  0.000  0.000
  0.000  0.000  1.000  0.000  0.000
  0.000  0.000  0.000  0.740  0.260
  0.004  0.996  0.000  0.000  0.000
    occupations:
  0.151 -0.000  0.000  0.002  0.000
 -0.000  0.051 -0.000 -0.000 -0.000
  0.000 -0.000  0.052  0.000 -0.000
  0.002 -0.000  0.000  0.150  0.000
  0.000 -0.000 -0.000  0.000  0.051
atomic mag. moment =     4.537741
atom    7   Tr[ns(na)] (up, down, total) =   4.99047  0.46309  5.45356
   spin  1
    eigenvalues: 
  0.996  0.997  0.999  0.999  0.999
    eigenvectors:
  0.725  0.275  0.000  0.000  0.000
  0.000  0.000  0.339  0.653  0.008
  0.000  0.000  0.005  0.004  0.991
  0.275  0.725  0.000  0.000  0.000
  0.000  0.000  0.657  0.343  0.000
    occupations:
  0.997 -0.000  0.000 -0.000  0.000
 -0.000  0.999  0.000  0.000  0.000
  0.000  0.000  0.999 -0.000 -0.000
 -0.000  0.000 -0.000  0.997  0.000
  0.000  0.000 -0.000  0.000  0.999
   spin  2
    eigenvalues: 
  0.052  0.052  0.052  0.152  0.154
    eigenvectors:
  0.000  0.000  0.000  0.779  0.221
  0.001  0.998  0.001  0.000  0.000
  0.981  0.001  0.018  0.000  0.000
  0.000  0.000  0.000  0.221  0.779
  0.018  0.000  0.982  0.000  0.000
    occupations:
  0.153  0.000 -0.000 -0.001 -0.000
  0.000  0.052 -0.000 -0.000 -0.000
 -0.000 -0.000  0.052  0.000 -0.000
 -0.001 -0.000  0.000  0.154  0.000
 -0.000 -0.000 -0.000  0.000  0.052
atomic mag. moment =     4.527380
N of occupied +U levels =   21.806283
 --- exit write_ns ---

     Number of k-points >= 100: set verbosity='high' to print the bands.

     the Fermi energy is    12.4603 ev

!    total energy              =    -973.10608208 Ry
     Harris-Foulkes estimate   =    -973.10608207 Ry
     estimated scf accuracy    <          2.4E-09 Ry

     The total energy is the sum of the following terms:

     one-electron contribution =    -447.53419220 Ry
     hartree contribution      =     265.97892234 Ry
     xc contribution           =    -135.00663589 Ry
     ewald contribution        =    -656.72646570 Ry
     Hubbard energy            =       0.18239997 Ry
     smearing contrib. (-TS)   =      -0.00011060 Ry

     total magnetization       =    20.00 Bohr mag/cell
     absolute magnetization    =    20.00 Bohr mag/cell

     convergence has been achieved in  14 iterations

     Forces acting on atoms (Ry/au):


     negative rho (up, down):  0.000E+00 1.932E-03
     atom    1 type  1   force =  -0.12556239E-01 -0.11195896E-02  0.25654259E-02
     atom    2 type  2   force =   0.57637633E-02  0.13897936E-02 -0.45996390E-03
     atom    3 type  1   force =   0.74503865E-03 -0.89497142E-04 -0.18938359E-02
     atom    4 type  2   force =  -0.82944519E-02 -0.15446216E-02  0.13603576E-02
     atom    5 type  1   force =   0.71838562E-02  0.31930242E-02  0.11991222E-02
     atom    6 type  2   force =  -0.58046138E-02  0.22484197E-02 -0.12345847E-02
     atom    7 type  1   force =   0.24163607E-02 -0.33992658E-02 -0.95050703E-04
     atom    8 type  2   force =   0.10546286E-01 -0.67826331E-03 -0.14414705E-02

     Total force =     0.022643     Total SCF correction =     0.000184


     entering subroutine stress ...


     negative rho (up, down):  0.000E+00 1.932E-03
          total   stress  (Ry/bohr**3)                   (kbar)     P=    0.48
   0.0000072228  -0.0000001830   0.0000000511          1.06     -0.03      0.01
  -0.0000001830   0.0000021756   0.0000000316         -0.03      0.32      0.00
   0.0000000511   0.0000000316   0.0000004564          0.01      0.00      0.07


     Writing output data file mno_fm.scf.in.k.4.022.save

     init_run     :     23.50s CPU     24.03s WALL (       1 calls)
     electrons    :    907.28s CPU    955.01s WALL (       1 calls)
     forces       :     68.43s CPU     77.19s WALL (       1 calls)
     stress       :    205.04s CPU    227.89s WALL (       1 calls)

     Called by init_run:
     wfcinit      :     22.95s CPU     23.46s WALL (       1 calls)
     potinit      :      0.09s CPU      0.09s WALL (       1 calls)

     Called by electrons:
     c_bands      :    812.69s CPU    857.93s WALL (      14 calls)
     sum_band     :     92.32s CPU     94.79s WALL (      14 calls)
     v_of_rho     :      0.70s CPU      0.70s WALL (      15 calls)
     newd         :      1.20s CPU      1.23s WALL (      15 calls)
     mix_rho      :      0.40s CPU      0.40s WALL (      14 calls)

     Called by c_bands:
     init_us_2    :      6.97s CPU      7.26s WALL (    6216 calls)
     cegterg      :    792.37s CPU    835.71s WALL (    2072 calls)

     Called by *egterg:
     h_psi        :    387.19s CPU    403.76s WALL (    6468 calls)
     s_psi        :     47.15s CPU     42.43s WALL (    8096 calls)
     g_psi        :      0.74s CPU      0.81s WALL (    4248 calls)
     cdiaghg      :    184.06s CPU    197.51s WALL (    6320 calls)

     Called by h_psi:
     add_vuspsi   :     36.26s CPU     34.40s WALL (    6468 calls)
     vhpsi        :     46.01s CPU     54.15s WALL (    6468 calls)

     General routines
     calbec       :    359.28s CPU    401.68s WALL (   64440 calls)
     fft          :      0.54s CPU      0.55s WALL (     499 calls)
     ffts         :      0.21s CPU      0.21s WALL (     353 calls)
     fftw         :    265.98s CPU    271.49s WALL (  733236 calls)
     interpolate  :      0.10s CPU      0.10s WALL (      58 calls)
     davcio       :      0.01s CPU      0.02s WALL (     148 calls)

     Parallel routines
     fft_scatter  :    126.30s CPU    129.39s WALL (  734088 calls)
     Hubbard U routines
     new_ns       :     12.32s CPU     13.20s WALL (      14 calls)
     vhpsi        :     46.01s CPU     54.15s WALL (    6468 calls)
     force_hub    :     61.01s CPU     69.57s WALL (       1 calls)
     stres_hub    :    193.83s CPU    216.54s WALL (       1 calls)

     PWSCF        : 20m 8.30s CPU    21m28.97s WALL


   This run was terminated on:   3:21:54  24Aug2017            

=------------------------------------------------------------------------------=
   JOB DONE.
=------------------------------------------------------------------------------=
