
     Program PWSCF v.5.1 starts on 24Aug2017 at  3:22:24 

     This program is part of the open-source Quantum ESPRESSO suite
     for quantum simulation of materials; please cite
         "P. Giannozzi et al., J. Phys.:Condens. Matter 21 395502 (2009);
          URL http://www.quantum-espresso.org", 
     in publications or presentations arising from this work. More details at
     http://www.quantum-espresso.org/quote

     Parallel version (MPI), running on     8 processors
     R & G space division:  proc/nbgrp/npool/nimage =       8
     Reading input from /tmp/mno_fm.scf.in.k.6.01.12123/mno_fm.scf.in.k.6.01.t
Warning: card &IONS ignored
Warning: card   ION_DYNAMICS='BFGS', ignored
Warning: card / ignored
Warning: card &CELL ignored
Warning: card  CELL_DYNAMICS = 'BFGS' ignored
Warning: card / ignored

     Current dimensions of program PWSCF are:
     Max number of different atomic species (ntypx) = 10
     Max number of k-points (npk) =  40000
     Max angular momentum in pseudopotentials (lmaxx) =  3
 kfg - two_fermi_energies  T

     Subspace diagonalization in iterative solution of the eigenvalue problem:
     a serial algorithm will be used


     Parallelization info
     --------------------
     sticks:   dense  smooth     PW     G-vecs:    dense   smooth      PW
     Min         202     166     50                 3652     2694     444
     Max         204     167     52                 3653     2705     445
     Sum        1625    1331    405                29219    21595    3553

     Generating pointlists ...
     new r_m :   0.2029 (alat units)  1.7208 (a.u.) for type    1
     new r_m :   0.2029 (alat units)  1.7208 (a.u.) for type    2


     bravais-lattice index     =            0
     lattice parameter (alat)  =     8.482556848  a.u.
     unit-cell volume          =     610.3520 (a.u.)^3
     number of atoms/cell      =            8
     number of atomic types    =            2
     number of electrons       =        84.00 (up:  52.00, down:  32.00)
     number of Kohn-Sham states=           62
     kinetic-energy cutoff     =      41.0000  Ry
     charge density cutoff     =     200.0000  Ry
     convergence threshold     =      1.0E-08
     mixing beta               =       0.3000
     number of iterations used =            8  local-TF  mixing
     Exchange-correlation      = SLA  PW   PSX  PSC ( 1  4 10  8 0)
     A smooth kinetic-energy cutoff is imposed at      40.0000 Ry
     height of the smooth step-function =             800.0000 Ry
     width of the smooth step-function  =               1.0000 Ry


     celldm(1)=   8.482557  celldm(2)=   0.000000  celldm(3)=   0.000000
     celldm(4)=   0.000000  celldm(5)=   0.000000  celldm(6)=   0.000000

     crystal axes: (cart. coord. in units of alat)
               a(1) = (   1.000000000000   0.000000000000   0.000000000000 )  
               a(2) = (   0.000000000000   1.000000000000  -1.000000000000 )  
               a(3) = (   0.000000000000   0.500000000000   0.500000000000 )  

     reciprocal axes: (cart. coord. in units 2 pi/alat)
               b(1) = (  1.000000 -0.000000  0.000000 )  
               b(2) = (  0.000000  0.500000 -0.500000 )  
               b(3) = ( -0.000000  1.000000  1.000000 )  


     PseudoPot. # 1 for Mn read from file:
     /users/kfg/psuedo/gbrv_1.5/mn.pbesol.UPF
     MD5 check sum: 0716d5f563e6e95a34f9080f4c78c109
     Pseudo is Ultrasoft + core correction, Zval = 15.0
     Generated by new atomic code, or converted to UPF format
     Using radial grid of  859 points,  6 beta functions with: 
                l(1) =   0
                l(2) =   0
                l(3) =   1
                l(4) =   1
                l(5) =   2
                l(6) =   2
     Q(r) pseudized with  8 coefficients,  rinner =    0.950   0.950   0.950
                                                       0.950   0.950

     PseudoPot. # 2 for O  read from file:
     /users/kfg/psuedo/gbrv_1.5/o.pbesol.UPF
     MD5 check sum: 501638753501ef6325af9037351f7734
     Pseudo is Ultrasoft + core correction, Zval =  6.0
     Generated by new atomic code, or converted to UPF format
     Using radial grid of  737 points,  5 beta functions with: 
                l(1) =   0
                l(2) =   0
                l(3) =   1
                l(4) =   1
                l(5) =   2
     Q(r) pseudized with  8 coefficients,  rinner =    0.900   0.900   0.900
                                                       0.900   0.900

     atomic species   valence    mass     pseudopotential
        Mn            15.00    54.90000     Mn( 1.00)
        O              6.00    15.99900     O ( 1.00)

     Starting magnetic structure 
     atomic species   magnetization
        Mn           1.000
        O            0.000


     Simplified LDA+U calculation (l_max = 2) with parameters (eV):
     atomic species    L          U    alpha       J0     beta
        Mn             2     3.0000   0.0000   0.0000   0.0000



     No symmetry found



   Cartesian axes

     site n.     atom                  positions (alat units)
         1           Mn  tau(   1) = (    0.00295963477   -0.00511492250   -0.00092200586  )
         2           O   tau(   2) = (    0.49629661358   -0.00280236806    0.00260008101  )
         3           Mn  tau(   3) = (    0.49938684793    1.00025401357   -0.50562092669  )
         4           O   tau(   4) = (   -0.00552043315    0.99796246141   -0.49807902094  )
         5           Mn  tau(   5) = (    0.00353090699    0.50106802677   -0.50554281698  )
         6           O   tau(   6) = (    0.49672570749    0.50545002234   -0.50457384294  )
         7           Mn  tau(   7) = (    0.50547224045    0.49540801328    0.00398340050  )
         8           O   tau(   8) = (    0.00106646755    0.50085501347    0.00472313688  )

     number of k points=   142  gaussian smearing, width (Ry)=  0.0100

     Number of k-points >= 100: set verbosity='high' to print them.

     Dense  grid:    29219 G-vectors     FFT dimensions: (  40,  60,  27)

     Smooth grid:    21595 G-vectors     FFT dimensions: (  36,  50,  25)

     Largest allocated arrays     est. size (Mb)     dimensions
        Kohn-Sham Wavefunctions         0.32 Mb     (     339,   62)
        Atomic Hubbard wavefuncts       0.10 Mb     (     339,   20)
        NL pseudopotentials             0.64 Mb     (     339,  124)
        Each V/rho on FFT grid          0.29 Mb     (    9600,   2)
        Each G-vector array             0.03 Mb     (    3653)
        G-vector shells                 0.00 Mb     (     615)
     Largest temporary arrays     est. size (Mb)     dimensions
        Auxiliary wavefunctions         1.28 Mb     (     339,  248)
        Each subspace H/S matrix        0.94 Mb     (     248,  248)
        Each <psi_i|beta_j> matrix      0.12 Mb     (     124,   62)
        Arrays for rho mixing           1.17 Mb     (    9600,    8)

     Check: negative/imaginary core charge=   -0.000057    0.000000

     Initial potential from superposition of free atoms

     starting charge   81.99968, renormalised to   84.00000
     Number of +U iterations with fixed ns =  0
     Starting occupations:
 --- enter write_ns ---
 LDA+U parameters:
U( 1)     =  3.00000000
alpha( 1) =  0.00000000
atom    1   Tr[ns(na)] (up, down, total) =   5.00000  0.00000  5.00000
   spin  1
    eigenvalues: 
  1.000  1.000  1.000  1.000  1.000
    eigenvectors:
  1.000  0.000  0.000  0.000  0.000
  0.000  1.000  0.000  0.000  0.000
  0.000  0.000  1.000  0.000  0.000
  0.000  0.000  0.000  1.000  0.000
  0.000  0.000  0.000  0.000  1.000
    occupations:
  1.000  0.000  0.000  0.000  0.000
  0.000  1.000  0.000  0.000  0.000
  0.000  0.000  1.000  0.000  0.000
  0.000  0.000  0.000  1.000  0.000
  0.000  0.000  0.000  0.000  1.000
   spin  2
    eigenvalues: 
  0.000  0.000  0.000  0.000  0.000
    eigenvectors:
  1.000  0.000  0.000  0.000  0.000
  0.000  1.000  0.000  0.000  0.000
  0.000  0.000  1.000  0.000  0.000
  0.000  0.000  0.000  1.000  0.000
  0.000  0.000  0.000  0.000  1.000
    occupations:
  0.000  0.000  0.000  0.000  0.000
  0.000  0.000  0.000  0.000  0.000
  0.000  0.000  0.000  0.000  0.000
  0.000  0.000  0.000  0.000  0.000
  0.000  0.000  0.000  0.000  0.000
atomic mag. moment =     5.000000
atom    3   Tr[ns(na)] (up, down, total) =   5.00000  0.00000  5.00000
   spin  1
    eigenvalues: 
  1.000  1.000  1.000  1.000  1.000
    eigenvectors:
  1.000  0.000  0.000  0.000  0.000
  0.000  1.000  0.000  0.000  0.000
  0.000  0.000  1.000  0.000  0.000
  0.000  0.000  0.000  1.000  0.000
  0.000  0.000  0.000  0.000  1.000
    occupations:
  1.000  0.000  0.000  0.000  0.000
  0.000  1.000  0.000  0.000  0.000
  0.000  0.000  1.000  0.000  0.000
  0.000  0.000  0.000  1.000  0.000
  0.000  0.000  0.000  0.000  1.000
   spin  2
    eigenvalues: 
  0.000  0.000  0.000  0.000  0.000
    eigenvectors:
  1.000  0.000  0.000  0.000  0.000
  0.000  1.000  0.000  0.000  0.000
  0.000  0.000  1.000  0.000  0.000
  0.000  0.000  0.000  1.000  0.000
  0.000  0.000  0.000  0.000  1.000
    occupations:
  0.000  0.000  0.000  0.000  0.000
  0.000  0.000  0.000  0.000  0.000
  0.000  0.000  0.000  0.000  0.000
  0.000  0.000  0.000  0.000  0.000
  0.000  0.000  0.000  0.000  0.000
atomic mag. moment =     5.000000
atom    5   Tr[ns(na)] (up, down, total) =   5.00000  0.00000  5.00000
   spin  1
    eigenvalues: 
  1.000  1.000  1.000  1.000  1.000
    eigenvectors:
  1.000  0.000  0.000  0.000  0.000
  0.000  1.000  0.000  0.000  0.000
  0.000  0.000  1.000  0.000  0.000
  0.000  0.000  0.000  1.000  0.000
  0.000  0.000  0.000  0.000  1.000
    occupations:
  1.000  0.000  0.000  0.000  0.000
  0.000  1.000  0.000  0.000  0.000
  0.000  0.000  1.000  0.000  0.000
  0.000  0.000  0.000  1.000  0.000
  0.000  0.000  0.000  0.000  1.000
   spin  2
    eigenvalues: 
  0.000  0.000  0.000  0.000  0.000
    eigenvectors:
  1.000  0.000  0.000  0.000  0.000
  0.000  1.000  0.000  0.000  0.000
  0.000  0.000  1.000  0.000  0.000
  0.000  0.000  0.000  1.000  0.000
  0.000  0.000  0.000  0.000  1.000
    occupations:
  0.000  0.000  0.000  0.000  0.000
  0.000  0.000  0.000  0.000  0.000
  0.000  0.000  0.000  0.000  0.000
  0.000  0.000  0.000  0.000  0.000
  0.000  0.000  0.000  0.000  0.000
atomic mag. moment =     5.000000
atom    7   Tr[ns(na)] (up, down, total) =   5.00000  0.00000  5.00000
   spin  1
    eigenvalues: 
  1.000  1.000  1.000  1.000  1.000
    eigenvectors:
  1.000  0.000  0.000  0.000  0.000
  0.000  1.000  0.000  0.000  0.000
  0.000  0.000  1.000  0.000  0.000
  0.000  0.000  0.000  1.000  0.000
  0.000  0.000  0.000  0.000  1.000
    occupations:
  1.000  0.000  0.000  0.000  0.000
  0.000  1.000  0.000  0.000  0.000
  0.000  0.000  1.000  0.000  0.000
  0.000  0.000  0.000  1.000  0.000
  0.000  0.000  0.000  0.000  1.000
   spin  2
    eigenvalues: 
  0.000  0.000  0.000  0.000  0.000
    eigenvectors:
  1.000  0.000  0.000  0.000  0.000
  0.000  1.000  0.000  0.000  0.000
  0.000  0.000  1.000  0.000  0.000
  0.000  0.000  0.000  1.000  0.000
  0.000  0.000  0.000  0.000  1.000
    occupations:
  0.000  0.000  0.000  0.000  0.000
  0.000  0.000  0.000  0.000  0.000
  0.000  0.000  0.000  0.000  0.000
  0.000  0.000  0.000  0.000  0.000
  0.000  0.000  0.000  0.000  0.000
atomic mag. moment =     5.000000
N of occupied +U levels =   20.000000
 --- exit write_ns ---
 Atomic wfc used for LDA+U Projector are NOT orthogonalized
     Starting wfc are   68 randomized atomic wfcs

     total cpu time spent up to now is       23.4 secs

     Self-consistent Calculation

     iteration #  1     ecut=    41.00 Ry     beta=0.30
     Davidson diagonalization with overlap
     ethr =  1.00E-02,  avg # of iterations =  3.4
 --- enter write_ns ---
 LDA+U parameters:
U( 1)     =  3.00000000
alpha( 1) =  0.00000000
atom    1   Tr[ns(na)] (up, down, total) =   4.98804  0.19361  5.18166
   spin  1
    eigenvalues: 
  0.997  0.997  0.998  0.998  0.998
    eigenvectors:
  0.850  0.149  0.000  0.000  0.001
  0.000  0.000  0.331  0.213  0.455
  0.000  0.000  0.002  0.705  0.293
  0.149  0.850  0.000  0.000  0.000
  0.000  0.000  0.667  0.082  0.251
    occupations:
  0.997 -0.000 -0.000 -0.000 -0.000
 -0.000  0.998  0.000  0.000  0.000
 -0.000  0.000  0.998  0.000  0.000
 -0.000  0.000  0.000  0.997  0.000
 -0.000  0.000  0.000  0.000  0.998
   spin  2
    eigenvalues: 
  0.020  0.021  0.021  0.065  0.066
    eigenvectors:
  0.000  0.000  0.000  0.060  0.940
  0.001  0.041  0.958  0.000  0.000
  0.027  0.931  0.042  0.000  0.000
  0.000  0.000  0.000  0.940  0.060
  0.972  0.028  0.000  0.000  0.000
    occupations:
  0.066  0.000  0.000 -0.000 -0.000
  0.000  0.021  0.000 -0.000 -0.000
  0.000  0.000  0.021  0.000  0.000
 -0.000 -0.000  0.000  0.065 -0.000
 -0.000 -0.000  0.000 -0.000  0.020
atomic mag. moment =     4.794428
atom    3   Tr[ns(na)] (up, down, total) =   4.98741  0.19948  5.18689
   spin  1
    eigenvalues: 
  0.996  0.997  0.998  0.998  0.998
    eigenvectors:
  0.744  0.255  0.000  0.000  0.000
  0.000  0.000  0.357  0.617  0.025
  0.000  0.000  0.034  0.004  0.962
  0.256  0.744  0.000  0.000  0.000
  0.000  0.000  0.609  0.379  0.012
    occupations:
  0.996 -0.000  0.000 -0.000 -0.000
 -0.000  0.998 -0.000  0.000 -0.000
  0.000 -0.000  0.998 -0.000 -0.000
 -0.000  0.000 -0.000  0.997  0.000
 -0.000 -0.000 -0.000  0.000  0.998
   spin  2
    eigenvalues: 
  0.021  0.021  0.022  0.067  0.069
    eigenvectors:
  0.000  0.000  0.000  0.295  0.705
  0.561  0.439  0.000  0.000  0.000
  0.000  0.000  0.999  0.000  0.000
  0.000  0.000  0.000  0.705  0.295
  0.439  0.561  0.000  0.000  0.000
    occupations:
  0.068 -0.000 -0.000  0.001  0.000
 -0.000  0.021 -0.000 -0.000 -0.000
 -0.000 -0.000  0.022  0.000 -0.000
  0.001 -0.000  0.000  0.067  0.000
  0.000 -0.000 -0.000  0.000  0.021
atomic mag. moment =     4.787938
atom    5   Tr[ns(na)] (up, down, total) =   4.98795  0.19362  5.18157
   spin  1
    eigenvalues: 
  0.996  0.997  0.998  0.998  0.998
    eigenvectors:
  0.729  0.271  0.000  0.000  0.000
  0.000  0.000  0.080  0.514  0.405
  0.000  0.000  0.842  0.156  0.001
  0.271  0.729  0.000  0.001  0.000
  0.000  0.000  0.077  0.329  0.594
    occupations:
  0.997  0.000  0.000 -0.000  0.000
  0.000  0.998 -0.000 -0.000 -0.000
  0.000 -0.000  0.998  0.000 -0.000
 -0.000 -0.000  0.000  0.997 -0.000
  0.000 -0.000 -0.000 -0.000  0.998
   spin  2
    eigenvalues: 
  0.021  0.021  0.021  0.065  0.066
    eigenvectors:
  0.000  0.000  0.000  0.970  0.030
  0.882  0.118  0.000  0.000  0.000
  0.117  0.860  0.023  0.000  0.000
  0.000  0.000  0.000  0.030  0.970
  0.001  0.022  0.977  0.000  0.000
    occupations:
  0.065 -0.000 -0.000  0.000  0.000
 -0.000  0.021 -0.000 -0.000 -0.000
 -0.000 -0.000  0.021 -0.000 -0.000
  0.000 -0.000 -0.000  0.066  0.000
  0.000 -0.000 -0.000  0.000  0.021
atomic mag. moment =     4.794332
atom    7   Tr[ns(na)] (up, down, total) =   4.98843  0.18761  5.17604
   spin  1
    eigenvalues: 
  0.997  0.997  0.998  0.998  0.998
    eigenvectors:
  0.737  0.262  0.000  0.000  0.000
  0.000  0.000  0.003  0.495  0.502
  0.000  0.000  0.994  0.006  0.000
  0.262  0.737  0.000  0.000  0.000
  0.000  0.000  0.002  0.499  0.498
    occupations:
  0.997 -0.000  0.000 -0.000  0.000
 -0.000  0.998  0.000 -0.000 -0.000
  0.000  0.000  0.998 -0.000  0.000
 -0.000 -0.000 -0.000  0.997  0.000
  0.000 -0.000  0.000  0.000  0.998
   spin  2
    eigenvalues: 
  0.020  0.020  0.020  0.063  0.065
    eigenvectors:
  0.000  0.000  0.000  0.704  0.296
  0.000  0.404  0.596  0.000  0.000
  1.000  0.000  0.000  0.000  0.000
  0.000  0.000  0.000  0.296  0.704
  0.000  0.596  0.404  0.000  0.000
    occupations:
  0.063  0.000  0.000 -0.001 -0.000
  0.000  0.020  0.000  0.000  0.000
  0.000  0.000  0.020 -0.000 -0.000
 -0.001  0.000 -0.000  0.064 -0.000
 -0.000  0.000 -0.000 -0.000  0.020
atomic mag. moment =     4.800823
N of occupied +U levels =   20.726157
 --- exit write_ns ---

     negative rho (up, down):  0.000E+00 4.586E-04

     Magnetic moment per site:
     atom:    1    charge:   12.7671    magn:   10.2322    constr:    0.0000
     atom:    2    charge:    5.6909    magn:    0.1899    constr:    0.0000
     atom:    3    charge:   12.7704    magn:   10.2330    constr:    0.0000
     atom:    4    charge:    5.6892    magn:    0.1884    constr:    0.0000
     atom:    5    charge:   12.7651    magn:   10.2310    constr:    0.0000
     atom:    6    charge:    5.6737    magn:    0.1767    constr:    0.0000
     atom:    7    charge:   12.7632    magn:   10.2314    constr:    0.0000
     atom:    8    charge:    5.6758    magn:    0.1779    constr:    0.0000

     total cpu time spent up to now is      110.0 secs

     total energy              =    -968.91363193 Ry
     Harris-Foulkes estimate   =    -960.51372439 Ry
     estimated scf accuracy    <      12.82572453 Ry

     total magnetization       =    20.00 Bohr mag/cell
     absolute magnetization    =    20.90 Bohr mag/cell

     iteration #  2     ecut=    41.00 Ry     beta=0.30
     Davidson diagonalization with overlap
     ethr =  1.00E-02,  avg # of iterations =  1.1

     negative rho (up, down):  0.000E+00 1.794E-03

     Magnetic moment per site:
     atom:    1    charge:   12.6530    magn:    4.5368    constr:    0.0000
     atom:    2    charge:    5.9141    magn:   -0.0466    constr:    0.0000
     atom:    3    charge:   12.6551    magn:    4.5375    constr:    0.0000
     atom:    4    charge:    5.9125    magn:   -0.0462    constr:    0.0000
     atom:    5    charge:   12.6505    magn:    4.5370    constr:    0.0000
     atom:    6    charge:    5.8954    magn:   -0.0528    constr:    0.0000
     atom:    7    charge:   12.6496    magn:    4.5369    constr:    0.0000
     atom:    8    charge:    5.8974    magn:   -0.0533    constr:    0.0000

     total cpu time spent up to now is      162.3 secs

     total energy              =    -972.81899852 Ry
     Harris-Foulkes estimate   =    -969.04526939 Ry
     estimated scf accuracy    <       6.32825209 Ry

     total magnetization       =    20.00 Bohr mag/cell
     absolute magnetization    =    20.61 Bohr mag/cell

     iteration #  3     ecut=    41.00 Ry     beta=0.30
     Davidson diagonalization with overlap
     ethr =  7.53E-03,  avg # of iterations =  1.9

     negative rho (up, down):  0.000E+00 1.987E-03

     Magnetic moment per site:
     atom:    1    charge:   12.5865    magn:    4.2772    constr:    0.0000
     atom:    2    charge:    5.8951    magn:    0.0655    constr:    0.0000
     atom:    3    charge:   12.5897    magn:    4.2756    constr:    0.0000
     atom:    4    charge:    5.8934    magn:    0.0660    constr:    0.0000
     atom:    5    charge:   12.5840    magn:    4.2775    constr:    0.0000
     atom:    6    charge:    5.8753    magn:    0.0578    constr:    0.0000
     atom:    7    charge:   12.5819    magn:    4.2797    constr:    0.0000
     atom:    8    charge:    5.8775    magn:    0.0577    constr:    0.0000

     total cpu time spent up to now is      226.7 secs

     total energy              =    -973.07665065 Ry
     Harris-Foulkes estimate   =    -973.12704296 Ry
     estimated scf accuracy    <       0.18379221 Ry

     total magnetization       =    20.00 Bohr mag/cell
     absolute magnetization    =    20.00 Bohr mag/cell

     iteration #  4     ecut=    41.00 Ry     beta=0.30
     Davidson diagonalization with overlap
     ethr =  2.19E-04,  avg # of iterations =  2.5

     negative rho (up, down):  0.000E+00 2.038E-03

     Magnetic moment per site:
     atom:    1    charge:   12.5732    magn:    4.1923    constr:    0.0000
     atom:    2    charge:    5.9031    magn:    0.0843    constr:    0.0000
     atom:    3    charge:   12.5766    magn:    4.1905    constr:    0.0000
     atom:    4    charge:    5.9014    magn:    0.0847    constr:    0.0000
     atom:    5    charge:   12.5707    magn:    4.1929    constr:    0.0000
     atom:    6    charge:    5.8834    magn:    0.0765    constr:    0.0000
     atom:    7    charge:   12.5684    magn:    4.1954    constr:    0.0000
     atom:    8    charge:    5.8856    magn:    0.0763    constr:    0.0000

     total cpu time spent up to now is      298.5 secs

     total energy              =    -973.10346941 Ry
     Harris-Foulkes estimate   =    -973.10528953 Ry
     estimated scf accuracy    <       0.01382401 Ry

     total magnetization       =    20.00 Bohr mag/cell
     absolute magnetization    =    20.00 Bohr mag/cell

     iteration #  5     ecut=    41.00 Ry     beta=0.30
     Davidson diagonalization with overlap
     ethr =  1.65E-05,  avg # of iterations =  2.6

     negative rho (up, down):  0.000E+00 2.103E-03

     Magnetic moment per site:
     atom:    1    charge:   12.5390    magn:    4.2603    constr:    0.0000
     atom:    2    charge:    5.9108    magn:    0.1603    constr:    0.0000
     atom:    3    charge:   12.5433    magn:    4.2575    constr:    0.0000
     atom:    4    charge:    5.9091    magn:    0.1608    constr:    0.0000
     atom:    5    charge:   12.5367    magn:    4.2611    constr:    0.0000
     atom:    6    charge:    5.8913    magn:    0.1521    constr:    0.0000
     atom:    7    charge:   12.5334    magn:    4.2648    constr:    0.0000
     atom:    8    charge:    5.8934    magn:    0.1520    constr:    0.0000

     total cpu time spent up to now is      370.4 secs

     total energy              =    -973.10387881 Ry
     Harris-Foulkes estimate   =    -973.10416366 Ry
     estimated scf accuracy    <       0.00622418 Ry

     total magnetization       =    20.00 Bohr mag/cell
     absolute magnetization    =    20.00 Bohr mag/cell
 kfg - setting two_fermi_energies to FALSE

     iteration #  6     ecut=    41.00 Ry     beta=0.30
     Davidson diagonalization with overlap
     ethr =  7.41E-06,  avg # of iterations =  2.3

     negative rho (up, down):  0.000E+00 2.102E-03

     Magnetic moment per site:
     atom:    1    charge:   12.5327    magn:    4.2602    constr:    0.0000
     atom:    2    charge:    5.9119    magn:    0.1759    constr:    0.0000
     atom:    3    charge:   12.5373    magn:    4.2574    constr:    0.0000
     atom:    4    charge:    5.9102    magn:    0.1765    constr:    0.0000
     atom:    5    charge:   12.5303    magn:    4.2612    constr:    0.0000
     atom:    6    charge:    5.8923    magn:    0.1680    constr:    0.0000
     atom:    7    charge:   12.5266    magn:    4.2649    constr:    0.0000
     atom:    8    charge:    5.8944    magn:    0.1678    constr:    0.0000

     total cpu time spent up to now is      439.2 secs

     total energy              =    -973.10525132 Ry
     Harris-Foulkes estimate   =    -973.10518866 Ry
     estimated scf accuracy    <       0.00025282 Ry

     total magnetization       =    20.00 Bohr mag/cell
     absolute magnetization    =    20.00 Bohr mag/cell

     iteration #  7     ecut=    41.00 Ry     beta=0.30
     Davidson diagonalization with overlap
     ethr =  3.01E-07,  avg # of iterations =  2.3

     negative rho (up, down):  0.000E+00 2.088E-03

     Magnetic moment per site:
     atom:    1    charge:   12.5325    magn:    4.2508    constr:    0.0000
     atom:    2    charge:    5.9115    magn:    0.1780    constr:    0.0000
     atom:    3    charge:   12.5373    magn:    4.2480    constr:    0.0000
     atom:    4    charge:    5.9098    magn:    0.1786    constr:    0.0000
     atom:    5    charge:   12.5302    magn:    4.2518    constr:    0.0000
     atom:    6    charge:    5.8918    magn:    0.1703    constr:    0.0000
     atom:    7    charge:   12.5264    magn:    4.2555    constr:    0.0000
     atom:    8    charge:    5.8940    magn:    0.1701    constr:    0.0000

     total cpu time spent up to now is      505.3 secs

     total energy              =    -973.10532036 Ry
     Harris-Foulkes estimate   =    -973.10531143 Ry
     estimated scf accuracy    <       0.00005725 Ry

     total magnetization       =    20.00 Bohr mag/cell
     absolute magnetization    =    20.00 Bohr mag/cell

     iteration #  8     ecut=    41.00 Ry     beta=0.30
     Davidson diagonalization with overlap
     ethr =  6.82E-08,  avg # of iterations =  1.5

     negative rho (up, down):  0.000E+00 2.064E-03

     Magnetic moment per site:
     atom:    1    charge:   12.5335    magn:    4.2493    constr:    0.0000
     atom:    2    charge:    5.9109    magn:    0.1804    constr:    0.0000
     atom:    3    charge:   12.5384    magn:    4.2466    constr:    0.0000
     atom:    4    charge:    5.9091    magn:    0.1810    constr:    0.0000
     atom:    5    charge:   12.5313    magn:    4.2503    constr:    0.0000
     atom:    6    charge:    5.8913    magn:    0.1730    constr:    0.0000
     atom:    7    charge:   12.5272    magn:    4.2539    constr:    0.0000
     atom:    8    charge:    5.8934    magn:    0.1728    constr:    0.0000

     total cpu time spent up to now is      578.6 secs

     total energy              =    -973.10533034 Ry
     Harris-Foulkes estimate   =    -973.10532915 Ry
     estimated scf accuracy    <       0.00000738 Ry

     total magnetization       =    20.00 Bohr mag/cell
     absolute magnetization    =    20.00 Bohr mag/cell

     iteration #  9     ecut=    41.00 Ry     beta=0.30
     Davidson diagonalization with overlap
     ethr =  8.78E-09,  avg # of iterations =  2.0

     negative rho (up, down):  0.000E+00 2.062E-03

     Magnetic moment per site:
     atom:    1    charge:   12.5334    magn:    4.2492    constr:    0.0000
     atom:    2    charge:    5.9108    magn:    0.1817    constr:    0.0000
     atom:    3    charge:   12.5383    magn:    4.2466    constr:    0.0000
     atom:    4    charge:    5.9091    magn:    0.1822    constr:    0.0000
     atom:    5    charge:   12.5312    magn:    4.2503    constr:    0.0000
     atom:    6    charge:    5.8912    magn:    0.1743    constr:    0.0000
     atom:    7    charge:   12.5271    magn:    4.2539    constr:    0.0000
     atom:    8    charge:    5.8933    magn:    0.1742    constr:    0.0000

     total cpu time spent up to now is      671.8 secs

     total energy              =    -973.10533212 Ry
     Harris-Foulkes estimate   =    -973.10533243 Ry
     estimated scf accuracy    <       0.00000158 Ry

     total magnetization       =    20.00 Bohr mag/cell
     absolute magnetization    =    20.00 Bohr mag/cell

     iteration # 10     ecut=    41.00 Ry     beta=0.30
     Davidson diagonalization with overlap
     ethr =  1.88E-09,  avg # of iterations =  2.1

     negative rho (up, down):  0.000E+00 2.063E-03

     Magnetic moment per site:
     atom:    1    charge:   12.5335    magn:    4.2491    constr:    0.0000
     atom:    2    charge:    5.9107    magn:    0.1818    constr:    0.0000
     atom:    3    charge:   12.5385    magn:    4.2465    constr:    0.0000
     atom:    4    charge:    5.9090    magn:    0.1824    constr:    0.0000
     atom:    5    charge:   12.5313    magn:    4.2502    constr:    0.0000
     atom:    6    charge:    5.8911    magn:    0.1745    constr:    0.0000
     atom:    7    charge:   12.5272    magn:    4.2538    constr:    0.0000
     atom:    8    charge:    5.8933    magn:    0.1743    constr:    0.0000

     total cpu time spent up to now is      770.3 secs

     total energy              =    -973.10533260 Ry
     Harris-Foulkes estimate   =    -973.10533257 Ry
     estimated scf accuracy    <       0.00000024 Ry

     total magnetization       =    20.00 Bohr mag/cell
     absolute magnetization    =    20.00 Bohr mag/cell

     iteration # 11     ecut=    41.00 Ry     beta=0.30
     Davidson diagonalization with overlap
     ethr =  2.84E-10,  avg # of iterations =  1.9

     negative rho (up, down):  0.000E+00 2.067E-03

     Magnetic moment per site:
     atom:    1    charge:   12.5335    magn:    4.2493    constr:    0.0000
     atom:    2    charge:    5.9108    magn:    0.1815    constr:    0.0000
     atom:    3    charge:   12.5385    magn:    4.2466    constr:    0.0000
     atom:    4    charge:    5.9091    magn:    0.1820    constr:    0.0000
     atom:    5    charge:   12.5314    magn:    4.2503    constr:    0.0000
     atom:    6    charge:    5.8912    magn:    0.1742    constr:    0.0000
     atom:    7    charge:   12.5272    magn:    4.2539    constr:    0.0000
     atom:    8    charge:    5.8933    magn:    0.1740    constr:    0.0000

     total cpu time spent up to now is      855.6 secs

     total energy              =    -973.10533267 Ry
     Harris-Foulkes estimate   =    -973.10533263 Ry
     estimated scf accuracy    <       0.00000007 Ry

     total magnetization       =    20.00 Bohr mag/cell
     absolute magnetization    =    20.00 Bohr mag/cell

     iteration # 12     ecut=    41.00 Ry     beta=0.30
     Davidson diagonalization with overlap
     ethr =  8.84E-11,  avg # of iterations =  2.0

     negative rho (up, down):  0.000E+00 2.065E-03

     Magnetic moment per site:
     atom:    1    charge:   12.5334    magn:    4.2492    constr:    0.0000
     atom:    2    charge:    5.9108    magn:    0.1815    constr:    0.0000
     atom:    3    charge:   12.5385    magn:    4.2465    constr:    0.0000
     atom:    4    charge:    5.9091    magn:    0.1820    constr:    0.0000
     atom:    5    charge:   12.5314    magn:    4.2503    constr:    0.0000
     atom:    6    charge:    5.8912    magn:    0.1742    constr:    0.0000
     atom:    7    charge:   12.5272    magn:    4.2539    constr:    0.0000
     atom:    8    charge:    5.8933    magn:    0.1740    constr:    0.0000

     total cpu time spent up to now is      948.4 secs

     End of self-consistent calculation
 --- enter write_ns ---
 LDA+U parameters:
U( 1)     =  3.00000000
alpha( 1) =  0.00000000
atom    1   Tr[ns(na)] (up, down, total) =   4.99190  0.46167  5.45357
   spin  1
    eigenvalues: 
  0.997  0.998  0.999  0.999  0.999
    eigenvectors:
  0.890  0.110  0.000  0.000  0.000
  0.000  0.000  0.542  0.315  0.143
  0.000  0.000  0.001  0.278  0.720
  0.110  0.890  0.000  0.000  0.000
  0.000  0.000  0.457  0.407  0.137
    occupations:
  0.997 -0.000 -0.000 -0.000 -0.000
 -0.000  0.999  0.000  0.000  0.000
 -0.000  0.000  0.999  0.000  0.000
 -0.000  0.000  0.000  0.998  0.000
 -0.000  0.000  0.000  0.000  0.999
   spin  2
    eigenvalues: 
  0.052  0.052  0.053  0.151  0.154
    eigenvectors:
  0.000  0.000  0.000  0.002  0.998
  0.002  0.003  0.995  0.000  0.000
  0.000  0.997  0.003  0.000  0.000
  0.000  0.000  0.000  0.998  0.002
  0.998  0.000  0.002  0.000  0.000
    occupations:
  0.154  0.000  0.001 -0.000 -0.000
  0.000  0.053  0.000 -0.000 -0.000
  0.001  0.000  0.052  0.000  0.000
 -0.000 -0.000  0.000  0.151 -0.000
 -0.000 -0.000  0.000 -0.000  0.052
atomic mag. moment =     4.530235
atom    3   Tr[ns(na)] (up, down, total) =   4.99073  0.46955  5.46028
   spin  1
    eigenvalues: 
  0.996  0.997  0.999  0.999  0.999
    eigenvectors:
  0.739  0.260  0.000  0.000  0.000
  0.000  0.000  0.007  0.988  0.005
  0.000  0.001  0.002  0.005  0.992
  0.260  0.739  0.000  0.000  0.000
  0.000  0.000  0.991  0.006  0.003
    occupations:
  0.997 -0.000  0.000 -0.000 -0.000
 -0.000  0.999 -0.000  0.000  0.000
  0.000 -0.000  0.999 -0.000 -0.000
 -0.000  0.000 -0.000  0.997  0.000
 -0.000  0.000 -0.000  0.000  0.999
   spin  2
    eigenvalues: 
  0.052  0.053  0.054  0.153  0.157
    eigenvectors:
  0.000  0.000  0.000  0.300  0.700
  0.617  0.383  0.000  0.000  0.000
  0.000  0.000  1.000  0.000  0.000
  0.000  0.000  0.000  0.700  0.300
  0.383  0.617  0.000  0.000  0.000
    occupations:
  0.156  0.000 -0.001  0.002  0.000
  0.000  0.053 -0.000 -0.000 -0.000
 -0.001 -0.000  0.054  0.001 -0.000
  0.002 -0.000  0.001  0.154 -0.000
  0.000 -0.000 -0.000 -0.000  0.053
atomic mag. moment =     4.521185
atom    5   Tr[ns(na)] (up, down, total) =   4.99159  0.45904  5.45063
   spin  1
    eigenvalues: 
  0.997  0.997  0.999  0.999  0.999
    eigenvectors:
  0.707  0.293  0.000  0.000  0.000
  0.000  0.000  0.216  0.263  0.522
  0.000  0.000  0.528  0.471  0.000
  0.293  0.707  0.000  0.000  0.000
  0.000  0.000  0.256  0.266  0.478
    occupations:
  0.997  0.000  0.000 -0.000 -0.000
  0.000  0.999 -0.000 -0.000 -0.000
  0.000 -0.000  0.999  0.000 -0.000
 -0.000 -0.000  0.000  0.997 -0.000
 -0.000 -0.000 -0.000 -0.000  0.999
   spin  2
    eigenvalues: 
  0.052  0.052  0.052  0.150  0.153
    eigenvectors:
  0.000  0.000  0.000  0.997  0.003
  0.016  0.978  0.007  0.000  0.000
  0.984  0.015  0.000  0.000  0.000
  0.000  0.000  0.000  0.003  0.997
  0.000  0.007  0.993  0.000  0.000
    occupations:
  0.150 -0.001 -0.001 -0.000  0.000
 -0.001  0.052  0.000 -0.000  0.000
 -0.001  0.000  0.052 -0.000  0.000
 -0.000 -0.000 -0.000  0.153  0.001
  0.000  0.000  0.000  0.001  0.052
atomic mag. moment =     4.532553
atom    7   Tr[ns(na)] (up, down, total) =   4.99260  0.45058  5.44319
   spin  1
    eigenvalues: 
  0.998  0.998  0.999  0.999  0.999
    eigenvectors:
  0.753  0.247  0.000  0.000  0.000
  0.000  0.000  0.021  0.516  0.463
  0.000  0.000  0.969  0.030  0.001
  0.247  0.753  0.000  0.000  0.000
  0.000  0.000  0.010  0.453  0.536
    occupations:
  0.998 -0.000 -0.000 -0.000  0.000
 -0.000  0.999  0.000 -0.000 -0.000
 -0.000  0.000  0.999 -0.000  0.000
 -0.000 -0.000 -0.000  0.998  0.000
  0.000 -0.000  0.000  0.000  0.999
   spin  2
    eigenvalues: 
  0.050  0.051  0.051  0.147  0.151
    eigenvectors:
  0.000  0.000  0.000  0.702  0.298
  0.000  0.376  0.624  0.000  0.000
  1.000  0.000  0.000  0.000  0.000
  0.000  0.000  0.000  0.298  0.702
  0.000  0.624  0.376  0.000  0.000
    occupations:
  0.148  0.000  0.000 -0.002 -0.000
  0.000  0.051 -0.000  0.000  0.000
  0.000 -0.000  0.050 -0.001 -0.000
 -0.002  0.000 -0.001  0.150 -0.000
 -0.000  0.000 -0.000 -0.000  0.051
atomic mag. moment =     4.542017
N of occupied +U levels =   21.807665
 --- exit write_ns ---

     Number of k-points >= 100: set verbosity='high' to print the bands.

     the Fermi energy is    12.4188 ev

!    total energy              =    -973.10533274 Ry
     Harris-Foulkes estimate   =    -973.10533269 Ry
     estimated scf accuracy    <          7.1E-09 Ry

     The total energy is the sum of the following terms:

     one-electron contribution =    -447.79527026 Ry
     hartree contribution      =     266.10701805 Ry
     xc contribution           =    -135.00820382 Ry
     ewald contribution        =    -656.59138871 Ry
     Hubbard energy            =       0.18261254 Ry
     smearing contrib. (-TS)   =      -0.00010054 Ry

     total magnetization       =    20.00 Bohr mag/cell
     absolute magnetization    =    20.00 Bohr mag/cell

     convergence has been achieved in  12 iterations

     Forces acting on atoms (Ry/au):


     negative rho (up, down):  0.000E+00 2.065E-03
     atom    1 type  1   force =  -0.33527242E-02  0.53161774E-02 -0.67810884E-03
     atom    2 type  2   force =   0.38040590E-02  0.38246944E-02 -0.50746109E-02
     atom    3 type  1   force =   0.63774213E-03 -0.67460881E-02  0.96895735E-02
     atom    4 type  2   force =   0.39613133E-02  0.25483542E-02 -0.55705161E-02
     atom    5 type  1   force =  -0.36982487E-02 -0.41132457E-02  0.75590294E-02
     atom    6 type  2   force =   0.35096776E-02 -0.74632995E-02  0.60191871E-02
     atom    7 type  1   force =  -0.41525555E-02  0.95209498E-02 -0.99029911E-02
     atom    8 type  2   force =  -0.70926359E-03 -0.28875426E-02 -0.20415630E-02

     Total force =     0.026435     Total SCF correction =     0.000476


     entering subroutine stress ...


     negative rho (up, down):  0.000E+00 2.065E-03
          total   stress  (Ry/bohr**3)                   (kbar)     P=    1.02
   0.0000093937   0.0000010663   0.0000004784          1.38      0.16      0.07
   0.0000010663   0.0000030085   0.0000014985          0.16      0.44      0.22
   0.0000004784   0.0000014985   0.0000084304          0.07      0.22      1.24


     Writing output data file mno_fm.scf.in.k.6.011.save

     init_run     :     22.69s CPU     23.18s WALL (       1 calls)
     electrons    :    841.26s CPU    925.01s WALL (       1 calls)
     forces       :    104.45s CPU    130.90s WALL (       1 calls)
     stress       :    324.93s CPU    403.16s WALL (       1 calls)

     Called by init_run:
     wfcinit      :     22.21s CPU     22.68s WALL (       1 calls)
     potinit      :      0.11s CPU      0.11s WALL (       1 calls)

     Called by electrons:
     c_bands      :    753.39s CPU    832.61s WALL (      12 calls)
     sum_band     :     85.69s CPU     90.19s WALL (      12 calls)
     v_of_rho     :      0.70s CPU      0.71s WALL (      13 calls)
     newd         :      1.18s CPU      1.19s WALL (      13 calls)
     mix_rho      :      0.36s CPU      0.38s WALL (      12 calls)

     Called by c_bands:
     init_us_2    :      5.62s CPU      5.78s WALL (    5396 calls)
     cegterg      :    732.42s CPU    809.86s WALL (    1704 calls)

     Called by *egterg:
     h_psi        :    370.08s CPU    396.12s WALL (    5484 calls)
     s_psi        :     38.71s CPU     39.73s WALL (    7046 calls)
     g_psi        :      0.59s CPU      0.64s WALL (    3638 calls)
     cdiaghg      :    154.66s CPU    182.78s WALL (    5342 calls)

     Called by h_psi:
     add_vuspsi   :     29.03s CPU     29.01s WALL (    5484 calls)
     vhpsi        :     45.13s CPU     58.63s WALL (    5484 calls)

     General routines
     calbec       :    506.91s CPU    620.21s WALL (   59816 calls)
     fft          :      0.61s CPU      0.62s WALL (     437 calls)
     ffts         :      0.18s CPU      0.19s WALL (     303 calls)
     fftw         :    262.83s CPU    269.07s WALL (  600138 calls)
     interpolate  :      0.10s CPU      0.09s WALL (      50 calls)
     davcio       :      0.01s CPU      0.02s WALL (     142 calls)

     Parallel routines
     fft_scatter  :    115.85s CPU    119.15s WALL (  600878 calls)
     Hubbard U routines
     new_ns       :     12.39s CPU     14.19s WALL (      12 calls)
     vhpsi        :     45.13s CPU     58.63s WALL (    5484 calls)
     force_hub    :     97.31s CPU    122.39s WALL (       1 calls)
     stres_hub    :    313.71s CPU    391.30s WALL (       1 calls)

     PWSCF        : 21m37.35s CPU    24m46.92s WALL


   This run was terminated on:   3:47:11  24Aug2017            

=------------------------------------------------------------------------------=
   JOB DONE.
=------------------------------------------------------------------------------=
