
     Program PWSCF v.5.1 starts on 24Aug2017 at  2: 6:10 

     This program is part of the open-source Quantum ESPRESSO suite
     for quantum simulation of materials; please cite
         "P. Giannozzi et al., J. Phys.:Condens. Matter 21 395502 (2009);
          URL http://www.quantum-espresso.org", 
     in publications or presentations arising from this work. More details at
     http://www.quantum-espresso.org/quote

     Parallel version (MPI), running on     8 processors
     R & G space division:  proc/nbgrp/npool/nimage =       8
     Reading input from /tmp/mno_fm.scf.in.k.2.02.13320/mno_fm.scf.in.k.2.02.t
Warning: card &IONS ignored
Warning: card   ION_DYNAMICS='BFGS', ignored
Warning: card / ignored
Warning: card &CELL ignored
Warning: card  CELL_DYNAMICS = 'BFGS' ignored
Warning: card / ignored

     Current dimensions of program PWSCF are:
     Max number of different atomic species (ntypx) = 10
     Max number of k-points (npk) =  40000
     Max angular momentum in pseudopotentials (lmaxx) =  3
 kfg - two_fermi_energies  T

     Subspace diagonalization in iterative solution of the eigenvalue problem:
     a serial algorithm will be used

     warning: symmetry operation #  3 not compatible with FFT grid. 
  -1   1   0
   0   1   0
   0   1  -1
     warning: symmetry operation #  4 not compatible with FFT grid. 
   0  -1   0
  -1   0   0
  -1   1  -1
     warning: symmetry operation #  5 not compatible with FFT grid. 
   0  -1   0
   1  -1   0
   1  -1   1
     warning: symmetry operation #  6 not compatible with FFT grid. 
  -1   1   0
  -1   0   0
   0  -1   1
     warning: symmetry operation #  9 not compatible with FFT grid. 
   1  -1   0
   0  -1   0
   0  -1   1
     warning: symmetry operation # 10 not compatible with FFT grid. 
   0   1   0
   1   0   0
   1  -1   1
     warning: symmetry operation # 11 not compatible with FFT grid. 
   0   1   0
  -1   1   0
  -1   1  -1
     warning: symmetry operation # 12 not compatible with FFT grid. 
   1  -1   0
   1   0   0
   0   1  -1

     Parallelization info
     --------------------
     sticks:   dense  smooth     PW     G-vecs:    dense   smooth      PW
     Min          62      52     15                 3650     2694     478
     Max          63      53     16                 3663     2701     495
     Sum         499     421    121                29255    21577    3855

     Generating pointlists ...
     new r_m :   0.2882 (alat units)  1.7287 (a.u.) for type    1
     new r_m :   0.2882 (alat units)  1.7287 (a.u.) for type    2


     bravais-lattice index     =            0
     lattice parameter (alat)  =     5.998073469  a.u.
     unit-cell volume          =     610.3520 (a.u.)^3
     number of atoms/cell      =            8
     number of atomic types    =            2
     number of electrons       =        84.00 (up:  52.00, down:  32.00)
     number of Kohn-Sham states=           62
     kinetic-energy cutoff     =      41.0000  Ry
     charge density cutoff     =     200.0000  Ry
     convergence threshold     =      1.0E-08
     mixing beta               =       0.3000
     number of iterations used =            8  local-TF  mixing
     Exchange-correlation      = SLA  PW   PSX  PSC ( 1  4 10  8 0)
     A smooth kinetic-energy cutoff is imposed at      40.0000 Ry
     height of the smooth step-function =             800.0000 Ry
     width of the smooth step-function  =               1.0000 Ry


     celldm(1)=   5.998073  celldm(2)=   0.000000  celldm(3)=   0.000000
     celldm(4)=   0.000000  celldm(5)=   0.000000  celldm(6)=   0.000000

     crystal axes: (cart. coord. in units of alat)
               a(1) = (   0.707106781187   0.707106781187   0.000000000000 )  
               a(2) = (   0.707106781187   0.000000000000   0.707106781187 )  
               a(3) = (   2.121320343560  -2.121320343560  -1.414213562373 )  

     reciprocal axes: (cart. coord. in units 2 pi/alat)
               b(1) = (  0.530330  0.883883 -0.530330 )  
               b(2) = (  0.353553 -0.353553  1.060660 )  
               b(3) = (  0.176777 -0.176777 -0.176777 )  


     PseudoPot. # 1 for Mn read from file:
     /users/kfg/psuedo/gbrv_1.5/mn.pbesol.UPF
     MD5 check sum: 0716d5f563e6e95a34f9080f4c78c109
     Pseudo is Ultrasoft + core correction, Zval = 15.0
     Generated by new atomic code, or converted to UPF format
     Using radial grid of  859 points,  6 beta functions with: 
                l(1) =   0
                l(2) =   0
                l(3) =   1
                l(4) =   1
                l(5) =   2
                l(6) =   2
     Q(r) pseudized with  8 coefficients,  rinner =    0.950   0.950   0.950
                                                       0.950   0.950

     PseudoPot. # 2 for O  read from file:
     /users/kfg/psuedo/gbrv_1.5/o.pbesol.UPF
     MD5 check sum: 501638753501ef6325af9037351f7734
     Pseudo is Ultrasoft + core correction, Zval =  6.0
     Generated by new atomic code, or converted to UPF format
     Using radial grid of  737 points,  5 beta functions with: 
                l(1) =   0
                l(2) =   0
                l(3) =   1
                l(4) =   1
                l(5) =   2
     Q(r) pseudized with  8 coefficients,  rinner =    0.900   0.900   0.900
                                                       0.900   0.900

     atomic species   valence    mass     pseudopotential
        Mn            15.00    54.90000     Mn( 1.00)
        O              6.00    15.99900     O ( 1.00)

     Starting magnetic structure 
     atomic species   magnetization
        Mn           1.000
        O            0.000


     Simplified LDA+U calculation (l_max = 2) with parameters (eV):
     atomic species    L          U    alpha       J0     beta
        Mn             2     3.0000   0.0000   0.0000   0.0000



     No symmetry found



   Cartesian axes

     site n.     atom                  positions (alat units)
         1           Mn  tau(   1) = (   -0.00738661508    0.00046840784   -0.00425605121  )
         2           O   tau(   2) = (    2.82912248770   -1.41424492948   -0.69955588023  )
         3           Mn  tau(   3) = (    2.11863529759   -1.40917193944   -0.70597929087  )
         4           O   tau(   4) = (    2.11994734411   -0.70772811873   -0.70206626571  )
         5           Mn  tau(   5) = (    2.12846296094   -0.69994993170   -0.00215901605  )
         6           O   tau(   6) = (    1.41463748451   -0.70331598371    0.00472150548  )
         7           Mn  tau(   7) = (    1.40803955580   -0.00214623523   -0.00280194730  )
         8           O   tau(   8) = (    0.70013900458    0.00406519733    0.00099611707  )

     number of k points=   304  gaussian smearing, width (Ry)=  0.0100

     Number of k-points >= 100: set verbosity='high' to print them.

     Dense  grid:    29255 G-vectors     FFT dimensions: (  27,  27,  90)

     Smooth grid:    21577 G-vectors     FFT dimensions: (  25,  25,  81)

     Largest allocated arrays     est. size (Mb)     dimensions
        Kohn-Sham Wavefunctions         0.35 Mb     (     369,   62)
        Atomic Hubbard wavefuncts       0.11 Mb     (     369,   20)
        NL pseudopotentials             0.70 Mb     (     369,  124)
        Each V/rho on FFT grid          0.27 Mb     (    8748,   2)
        Each G-vector array             0.03 Mb     (    3656)
        G-vector shells                 0.01 Mb     (     925)
     Largest temporary arrays     est. size (Mb)     dimensions
        Auxiliary wavefunctions         1.40 Mb     (     369,  248)
        Each subspace H/S matrix        0.94 Mb     (     248,  248)
        Each <psi_i|beta_j> matrix      0.12 Mb     (     124,   62)
        Arrays for rho mixing           1.07 Mb     (    8748,    8)

     Check: negative/imaginary core charge=   -0.000057    0.000000

     Initial potential from superposition of free atoms

     starting charge   81.99968, renormalised to   84.00000
     Number of +U iterations with fixed ns =  0
     Starting occupations:
 --- enter write_ns ---
 LDA+U parameters:
U( 1)     =  3.00000000
alpha( 1) =  0.00000000
atom    1   Tr[ns(na)] (up, down, total) =   5.00000  0.00000  5.00000
   spin  1
    eigenvalues: 
  1.000  1.000  1.000  1.000  1.000
    eigenvectors:
  1.000  0.000  0.000  0.000  0.000
  0.000  1.000  0.000  0.000  0.000
  0.000  0.000  1.000  0.000  0.000
  0.000  0.000  0.000  1.000  0.000
  0.000  0.000  0.000  0.000  1.000
    occupations:
  1.000  0.000  0.000  0.000  0.000
  0.000  1.000  0.000  0.000  0.000
  0.000  0.000  1.000  0.000  0.000
  0.000  0.000  0.000  1.000  0.000
  0.000  0.000  0.000  0.000  1.000
   spin  2
    eigenvalues: 
  0.000  0.000  0.000  0.000  0.000
    eigenvectors:
  1.000  0.000  0.000  0.000  0.000
  0.000  1.000  0.000  0.000  0.000
  0.000  0.000  1.000  0.000  0.000
  0.000  0.000  0.000  1.000  0.000
  0.000  0.000  0.000  0.000  1.000
    occupations:
  0.000  0.000  0.000  0.000  0.000
  0.000  0.000  0.000  0.000  0.000
  0.000  0.000  0.000  0.000  0.000
  0.000  0.000  0.000  0.000  0.000
  0.000  0.000  0.000  0.000  0.000
atomic mag. moment =     5.000000
atom    3   Tr[ns(na)] (up, down, total) =   5.00000  0.00000  5.00000
   spin  1
    eigenvalues: 
  1.000  1.000  1.000  1.000  1.000
    eigenvectors:
  1.000  0.000  0.000  0.000  0.000
  0.000  1.000  0.000  0.000  0.000
  0.000  0.000  1.000  0.000  0.000
  0.000  0.000  0.000  1.000  0.000
  0.000  0.000  0.000  0.000  1.000
    occupations:
  1.000  0.000  0.000  0.000  0.000
  0.000  1.000  0.000  0.000  0.000
  0.000  0.000  1.000  0.000  0.000
  0.000  0.000  0.000  1.000  0.000
  0.000  0.000  0.000  0.000  1.000
   spin  2
    eigenvalues: 
  0.000  0.000  0.000  0.000  0.000
    eigenvectors:
  1.000  0.000  0.000  0.000  0.000
  0.000  1.000  0.000  0.000  0.000
  0.000  0.000  1.000  0.000  0.000
  0.000  0.000  0.000  1.000  0.000
  0.000  0.000  0.000  0.000  1.000
    occupations:
  0.000  0.000  0.000  0.000  0.000
  0.000  0.000  0.000  0.000  0.000
  0.000  0.000  0.000  0.000  0.000
  0.000  0.000  0.000  0.000  0.000
  0.000  0.000  0.000  0.000  0.000
atomic mag. moment =     5.000000
atom    5   Tr[ns(na)] (up, down, total) =   5.00000  0.00000  5.00000
   spin  1
    eigenvalues: 
  1.000  1.000  1.000  1.000  1.000
    eigenvectors:
  1.000  0.000  0.000  0.000  0.000
  0.000  1.000  0.000  0.000  0.000
  0.000  0.000  1.000  0.000  0.000
  0.000  0.000  0.000  1.000  0.000
  0.000  0.000  0.000  0.000  1.000
    occupations:
  1.000  0.000  0.000  0.000  0.000
  0.000  1.000  0.000  0.000  0.000
  0.000  0.000  1.000  0.000  0.000
  0.000  0.000  0.000  1.000  0.000
  0.000  0.000  0.000  0.000  1.000
   spin  2
    eigenvalues: 
  0.000  0.000  0.000  0.000  0.000
    eigenvectors:
  1.000  0.000  0.000  0.000  0.000
  0.000  1.000  0.000  0.000  0.000
  0.000  0.000  1.000  0.000  0.000
  0.000  0.000  0.000  1.000  0.000
  0.000  0.000  0.000  0.000  1.000
    occupations:
  0.000  0.000  0.000  0.000  0.000
  0.000  0.000  0.000  0.000  0.000
  0.000  0.000  0.000  0.000  0.000
  0.000  0.000  0.000  0.000  0.000
  0.000  0.000  0.000  0.000  0.000
atomic mag. moment =     5.000000
atom    7   Tr[ns(na)] (up, down, total) =   5.00000  0.00000  5.00000
   spin  1
    eigenvalues: 
  1.000  1.000  1.000  1.000  1.000
    eigenvectors:
  1.000  0.000  0.000  0.000  0.000
  0.000  1.000  0.000  0.000  0.000
  0.000  0.000  1.000  0.000  0.000
  0.000  0.000  0.000  1.000  0.000
  0.000  0.000  0.000  0.000  1.000
    occupations:
  1.000  0.000  0.000  0.000  0.000
  0.000  1.000  0.000  0.000  0.000
  0.000  0.000  1.000  0.000  0.000
  0.000  0.000  0.000  1.000  0.000
  0.000  0.000  0.000  0.000  1.000
   spin  2
    eigenvalues: 
  0.000  0.000  0.000  0.000  0.000
    eigenvectors:
  1.000  0.000  0.000  0.000  0.000
  0.000  1.000  0.000  0.000  0.000
  0.000  0.000  1.000  0.000  0.000
  0.000  0.000  0.000  1.000  0.000
  0.000  0.000  0.000  0.000  1.000
    occupations:
  0.000  0.000  0.000  0.000  0.000
  0.000  0.000  0.000  0.000  0.000
  0.000  0.000  0.000  0.000  0.000
  0.000  0.000  0.000  0.000  0.000
  0.000  0.000  0.000  0.000  0.000
atomic mag. moment =     5.000000
N of occupied +U levels =   20.000000
 --- exit write_ns ---
 Atomic wfc used for LDA+U Projector are NOT orthogonalized
     Starting wfc are   68 randomized atomic wfcs

     total cpu time spent up to now is       65.3 secs

     Self-consistent Calculation

     iteration #  1     ecut=    41.00 Ry     beta=0.30
     Davidson diagonalization with overlap
     ethr =  1.00E-02,  avg # of iterations =  3.4
 --- enter write_ns ---
 LDA+U parameters:
U( 1)     =  3.00000000
alpha( 1) =  0.00000000
atom    1   Tr[ns(na)] (up, down, total) =   4.98778  0.19485  5.18263
   spin  1
    eigenvalues: 
  0.997  0.997  0.998  0.998  0.998
    eigenvectors:
  0.031  0.969  0.000  0.000  0.000
  0.000  0.000  0.504  0.471  0.024
  0.000  0.000  0.471  0.525  0.004
  0.969  0.031  0.000  0.000  0.000
  0.000  0.000  0.024  0.004  0.972
    occupations:
  0.997  0.000 -0.000  0.000  0.000
  0.000  0.998  0.000 -0.000  0.000
 -0.000  0.000  0.998  0.000 -0.000
  0.000 -0.000  0.000  0.997  0.000
  0.000  0.000 -0.000  0.000  0.998
   spin  2
    eigenvalues: 
  0.020  0.021  0.021  0.065  0.067
    eigenvectors:
  0.000  0.000  0.000  0.983  0.017
  0.121  0.879  0.000  0.000  0.000
  0.879  0.121  0.001  0.000  0.000
  0.000  0.000  0.000  0.017  0.983
  0.001  0.000  0.999  0.000  0.000
    occupations:
  0.065 -0.000  0.000 -0.000 -0.000
 -0.000  0.021  0.000  0.000 -0.000
  0.000  0.000  0.021  0.000 -0.000
 -0.000  0.000  0.000  0.067 -0.000
 -0.000 -0.000 -0.000 -0.000  0.021
atomic mag. moment =     4.792936
atom    3   Tr[ns(na)] (up, down, total) =   4.98798  0.19366  5.18164
   spin  1
    eigenvalues: 
  0.997  0.997  0.998  0.998  0.998
    eigenvectors:
  0.838  0.161  0.000  0.000  0.000
  0.000  0.000  0.742  0.247  0.010
  0.000  0.000  0.013  0.000  0.987
  0.161  0.839  0.000  0.000  0.000
  0.000  0.000  0.245  0.753  0.003
    occupations:
  0.997 -0.000  0.000 -0.000 -0.000
 -0.000  0.998  0.000 -0.000  0.000
  0.000  0.000  0.998  0.000 -0.000
 -0.000 -0.000  0.000  0.997 -0.000
 -0.000  0.000 -0.000 -0.000  0.998
   spin  2
    eigenvalues: 
  0.021  0.021  0.021  0.066  0.066
    eigenvectors:
  0.000  0.000  0.000  0.092  0.908
  0.042  0.954  0.004  0.000  0.000
  0.000  0.004  0.996  0.000  0.000
  0.000  0.000  0.000  0.908  0.092
  0.958  0.042  0.000  0.000  0.000
    occupations:
  0.066  0.000 -0.000  0.000  0.000
  0.000  0.021 -0.000 -0.000  0.000
 -0.000 -0.000  0.021 -0.000 -0.000
  0.000 -0.000 -0.000  0.066  0.000
  0.000  0.000 -0.000  0.000  0.021
atomic mag. moment =     4.794316
atom    5   Tr[ns(na)] (up, down, total) =   4.98799  0.19284  5.18083
   spin  1
    eigenvalues: 
  0.997  0.997  0.998  0.998  0.998
    eigenvectors:
  0.667  0.333  0.000  0.000  0.000
  0.000  0.000  0.000  0.002  0.998
  0.000  0.000  0.882  0.117  0.000
  0.333  0.667  0.000  0.000  0.000
  0.000  0.000  0.117  0.881  0.002
    occupations:
  0.997  0.000  0.000  0.000 -0.000
  0.000  0.998 -0.000  0.000 -0.000
  0.000 -0.000  0.998 -0.000 -0.000
  0.000  0.000 -0.000  0.997  0.000
 -0.000 -0.000 -0.000  0.000  0.998
   spin  2
    eigenvalues: 
  0.020  0.020  0.021  0.065  0.066
    eigenvectors:
  0.000  0.000  0.000  0.360  0.640
  0.001  0.005  0.995  0.000  0.000
  0.903  0.097  0.000  0.000  0.000
  0.000  0.000  0.000  0.640  0.360
  0.096  0.898  0.005  0.000  0.000
    occupations:
  0.066 -0.000 -0.000 -0.000  0.000
 -0.000  0.021 -0.000 -0.000 -0.000
 -0.000 -0.000  0.020  0.000 -0.000
 -0.000 -0.000  0.000  0.065 -0.000
  0.000 -0.000 -0.000 -0.000  0.020
atomic mag. moment =     4.795153
atom    7   Tr[ns(na)] (up, down, total) =   4.98806  0.19244  5.18051
   spin  1
    eigenvalues: 
  0.997  0.997  0.998  0.998  0.998
    eigenvectors:
  0.958  0.042  0.000  0.000  0.000
  0.000  0.000  0.057  0.006  0.936
  0.000  0.000  0.000  0.994  0.006
  0.042  0.958  0.000  0.000  0.000
  0.000  0.000  0.942  0.000  0.058
    occupations:
  0.997 -0.000 -0.000 -0.000  0.000
 -0.000  0.998 -0.000  0.000  0.000
 -0.000 -0.000  0.998  0.000 -0.000
 -0.000  0.000  0.000  0.997 -0.000
  0.000  0.000 -0.000 -0.000  0.998
   spin  2
    eigenvalues: 
  0.020  0.020  0.021  0.065  0.066
    eigenvectors:
  0.000  0.000  0.000  0.113  0.887
  0.008  0.975  0.016  0.000  0.000
  0.002  0.015  0.983  0.000  0.000
  0.000  0.000  0.000  0.887  0.113
  0.990  0.009  0.001  0.000  0.000
    occupations:
  0.066  0.000 -0.000  0.001  0.000
  0.000  0.020 -0.000 -0.000  0.000
 -0.000 -0.000  0.021 -0.000  0.000
  0.001 -0.000 -0.000  0.065  0.000
  0.000  0.000  0.000  0.000  0.020
atomic mag. moment =     4.795618
N of occupied +U levels =   20.725600
 --- exit write_ns ---

     negative rho (up, down):  0.000E+00 3.966E-04

     Magnetic moment per site:
     atom:    1    charge:   12.7864    magn:   10.2474    constr:    0.0000
     atom:    2    charge:    5.6980    magn:    0.1855    constr:    0.0000
     atom:    3    charge:   12.7863    magn:   10.2475    constr:    0.0000
     atom:    4    charge:    5.7048    magn:    0.1907    constr:    0.0000
     atom:    5    charge:   12.7860    magn:   10.2474    constr:    0.0000
     atom:    6    charge:    5.6983    magn:    0.1858    constr:    0.0000
     atom:    7    charge:   12.7852    magn:   10.2472    constr:    0.0000
     atom:    8    charge:    5.6990    magn:    0.1862    constr:    0.0000

     total cpu time spent up to now is      325.8 secs

     total energy              =    -968.91559306 Ry
     Harris-Foulkes estimate   =    -960.52523110 Ry
     estimated scf accuracy    <      12.82376766 Ry

     total magnetization       =    20.00 Bohr mag/cell
     absolute magnetization    =    20.90 Bohr mag/cell

     iteration #  2     ecut=    41.00 Ry     beta=0.30
     Davidson diagonalization with overlap
     ethr =  1.00E-02,  avg # of iterations =  1.1

     negative rho (up, down):  0.000E+00 1.496E-03

     Magnetic moment per site:
     atom:    1    charge:   12.6704    magn:    4.5449    constr:    0.0000
     atom:    2    charge:    5.9216    magn:   -0.0492    constr:    0.0000
     atom:    3    charge:   12.6708    magn:    4.5448    constr:    0.0000
     atom:    4    charge:    5.9289    magn:   -0.0472    constr:    0.0000
     atom:    5    charge:   12.6709    magn:    4.5444    constr:    0.0000
     atom:    6    charge:    5.9218    magn:   -0.0495    constr:    0.0000
     atom:    7    charge:   12.6697    magn:    4.5449    constr:    0.0000
     atom:    8    charge:    5.9226    magn:   -0.0490    constr:    0.0000

     total cpu time spent up to now is      468.7 secs

     total energy              =    -972.82048635 Ry
     Harris-Foulkes estimate   =    -969.04654983 Ry
     estimated scf accuracy    <       6.32803700 Ry

     total magnetization       =    20.00 Bohr mag/cell
     absolute magnetization    =    20.61 Bohr mag/cell

     iteration #  3     ecut=    41.00 Ry     beta=0.30
     Davidson diagonalization with overlap
     ethr =  7.53E-03,  avg # of iterations =  1.9

     negative rho (up, down):  0.000E+00 1.643E-03

     Magnetic moment per site:
     atom:    1    charge:   12.6041    magn:    4.2882    constr:    0.0000
     atom:    2    charge:    5.9030    magn:    0.0627    constr:    0.0000
     atom:    3    charge:   12.6042    magn:    4.2887    constr:    0.0000
     atom:    4    charge:    5.9106    magn:    0.0652    constr:    0.0000
     atom:    5    charge:   12.6042    magn:    4.2887    constr:    0.0000
     atom:    6    charge:    5.9032    magn:    0.0624    constr:    0.0000
     atom:    7    charge:   12.6029    magn:    4.2891    constr:    0.0000
     atom:    8    charge:    5.9040    magn:    0.0627    constr:    0.0000

     total cpu time spent up to now is      648.3 secs

     total energy              =    -973.07780221 Ry
     Harris-Foulkes estimate   =    -973.12833414 Ry
     estimated scf accuracy    <       0.18325199 Ry

     total magnetization       =    20.00 Bohr mag/cell
     absolute magnetization    =    20.00 Bohr mag/cell

     iteration #  4     ecut=    41.00 Ry     beta=0.30
     Davidson diagonalization with overlap
     ethr =  2.18E-04,  avg # of iterations =  2.4

     negative rho (up, down):  0.000E+00 1.681E-03

     Magnetic moment per site:
     atom:    1    charge:   12.5909    magn:    4.2015    constr:    0.0000
     atom:    2    charge:    5.9113    magn:    0.0808    constr:    0.0000
     atom:    3    charge:   12.5910    magn:    4.2020    constr:    0.0000
     atom:    4    charge:    5.9189    magn:    0.0833    constr:    0.0000
     atom:    5    charge:   12.5909    magn:    4.2021    constr:    0.0000
     atom:    6    charge:    5.9115    magn:    0.0806    constr:    0.0000
     atom:    7    charge:   12.5897    magn:    4.2025    constr:    0.0000
     atom:    8    charge:    5.9122    magn:    0.0809    constr:    0.0000

     total cpu time spent up to now is      851.3 secs

     total energy              =    -973.10472026 Ry
     Harris-Foulkes estimate   =    -973.10659846 Ry
     estimated scf accuracy    <       0.01397921 Ry

     total magnetization       =    20.00 Bohr mag/cell
     absolute magnetization    =    20.00 Bohr mag/cell

     iteration #  5     ecut=    41.00 Ry     beta=0.30
     Davidson diagonalization with overlap
     ethr =  1.66E-05,  avg # of iterations =  2.7

     negative rho (up, down):  0.000E+00 1.726E-03

     Magnetic moment per site:
     atom:    1    charge:   12.5568    magn:    4.2691    constr:    0.0000
     atom:    2    charge:    5.9193    magn:    0.1565    constr:    0.0000
     atom:    3    charge:   12.5567    magn:    4.2699    constr:    0.0000
     atom:    4    charge:    5.9269    magn:    0.1592    constr:    0.0000
     atom:    5    charge:   12.5565    magn:    4.2702    constr:    0.0000
     atom:    6    charge:    5.9196    magn:    0.1564    constr:    0.0000
     atom:    7    charge:   12.5552    magn:    4.2706    constr:    0.0000
     atom:    8    charge:    5.9203    magn:    0.1565    constr:    0.0000

     total cpu time spent up to now is     1048.6 secs

     total energy              =    -973.10511548 Ry
     Harris-Foulkes estimate   =    -973.10542589 Ry
     estimated scf accuracy    <       0.00625811 Ry

     total magnetization       =    20.00 Bohr mag/cell
     absolute magnetization    =    20.00 Bohr mag/cell
 kfg - setting two_fermi_energies to FALSE

     iteration #  6     ecut=    41.00 Ry     beta=0.30
     Davidson diagonalization with overlap
     ethr =  7.45E-06,  avg # of iterations =  2.2

     negative rho (up, down):  0.000E+00 1.725E-03

     Magnetic moment per site:
     atom:    1    charge:   12.5504    magn:    4.2691    constr:    0.0000
     atom:    2    charge:    5.9204    magn:    0.1723    constr:    0.0000
     atom:    3    charge:   12.5502    magn:    4.2699    constr:    0.0000
     atom:    4    charge:    5.9280    magn:    0.1749    constr:    0.0000
     atom:    5    charge:   12.5500    magn:    4.2702    constr:    0.0000
     atom:    6    charge:    5.9206    magn:    0.1722    constr:    0.0000
     atom:    7    charge:   12.5487    magn:    4.2706    constr:    0.0000
     atom:    8    charge:    5.9214    magn:    0.1723    constr:    0.0000

     total cpu time spent up to now is     1244.3 secs

     total energy              =    -973.10649372 Ry
     Harris-Foulkes estimate   =    -973.10643369 Ry
     estimated scf accuracy    <       0.00026865 Ry

     total magnetization       =    20.00 Bohr mag/cell
     absolute magnetization    =    20.00 Bohr mag/cell

     iteration #  7     ecut=    41.00 Ry     beta=0.30
     Davidson diagonalization with overlap
     ethr =  3.20E-07,  avg # of iterations =  2.5

     negative rho (up, down):  0.000E+00 1.716E-03

     Magnetic moment per site:
     atom:    1    charge:   12.5503    magn:    4.2596    constr:    0.0000
     atom:    2    charge:    5.9200    magn:    0.1744    constr:    0.0000
     atom:    3    charge:   12.5500    magn:    4.2604    constr:    0.0000
     atom:    4    charge:    5.9276    magn:    0.1769    constr:    0.0000
     atom:    5    charge:   12.5498    magn:    4.2607    constr:    0.0000
     atom:    6    charge:    5.9202    magn:    0.1743    constr:    0.0000
     atom:    7    charge:   12.5485    magn:    4.2611    constr:    0.0000
     atom:    8    charge:    5.9210    magn:    0.1743    constr:    0.0000

     total cpu time spent up to now is     1454.8 secs

     total energy              =    -973.10656221 Ry
     Harris-Foulkes estimate   =    -973.10655399 Ry
     estimated scf accuracy    <       0.00006581 Ry

     total magnetization       =    20.00 Bohr mag/cell
     absolute magnetization    =    20.00 Bohr mag/cell

     iteration #  8     ecut=    41.00 Ry     beta=0.30
     Davidson diagonalization with overlap
     ethr =  7.83E-08,  avg # of iterations =  1.5

     negative rho (up, down):  0.000E+00 1.693E-03

     Magnetic moment per site:
     atom:    1    charge:   12.5519    magn:    4.2576    constr:    0.0000
     atom:    2    charge:    5.9191    magn:    0.1779    constr:    0.0000
     atom:    3    charge:   12.5515    magn:    4.2583    constr:    0.0000
     atom:    4    charge:    5.9267    magn:    0.1804    constr:    0.0000
     atom:    5    charge:   12.5512    magn:    4.2586    constr:    0.0000
     atom:    6    charge:    5.9193    magn:    0.1779    constr:    0.0000
     atom:    7    charge:   12.5500    magn:    4.2590    constr:    0.0000
     atom:    8    charge:    5.9201    magn:    0.1778    constr:    0.0000

     total cpu time spent up to now is     1617.7 secs

     total energy              =    -973.10656825 Ry
     Harris-Foulkes estimate   =    -973.10657074 Ry
     estimated scf accuracy    <       0.00001602 Ry

     total magnetization       =    20.00 Bohr mag/cell
     absolute magnetization    =    20.00 Bohr mag/cell

     iteration #  9     ecut=    41.00 Ry     beta=0.30
     Davidson diagonalization with overlap
     ethr =  1.91E-08,  avg # of iterations =  2.1

     negative rho (up, down):  0.000E+00 1.693E-03

     Magnetic moment per site:
     atom:    1    charge:   12.5516    magn:    4.2577    constr:    0.0000
     atom:    2    charge:    5.9191    magn:    0.1804    constr:    0.0000
     atom:    3    charge:   12.5511    magn:    4.2584    constr:    0.0000
     atom:    4    charge:    5.9266    magn:    0.1829    constr:    0.0000
     atom:    5    charge:   12.5508    magn:    4.2587    constr:    0.0000
     atom:    6    charge:    5.9193    magn:    0.1804    constr:    0.0000
     atom:    7    charge:   12.5496    magn:    4.2591    constr:    0.0000
     atom:    8    charge:    5.9201    magn:    0.1803    constr:    0.0000

     total cpu time spent up to now is     1813.4 secs

     total energy              =    -973.10656876 Ry
     Harris-Foulkes estimate   =    -973.10657260 Ry
     estimated scf accuracy    <       0.00000703 Ry

     total magnetization       =    20.00 Bohr mag/cell
     absolute magnetization    =    20.00 Bohr mag/cell

     iteration # 10     ecut=    41.00 Ry     beta=0.30
     Davidson diagonalization with overlap
     ethr =  8.37E-09,  avg # of iterations =  2.2

     negative rho (up, down):  0.000E+00 1.705E-03

     Magnetic moment per site:
     atom:    1    charge:   12.5517    magn:    4.2579    constr:    0.0000
     atom:    2    charge:    5.9192    magn:    0.1789    constr:    0.0000
     atom:    3    charge:   12.5512    magn:    4.2586    constr:    0.0000
     atom:    4    charge:    5.9268    magn:    0.1815    constr:    0.0000
     atom:    5    charge:   12.5508    magn:    4.2589    constr:    0.0000
     atom:    6    charge:    5.9194    magn:    0.1790    constr:    0.0000
     atom:    7    charge:   12.5498    magn:    4.2593    constr:    0.0000
     atom:    8    charge:    5.9202    magn:    0.1788    constr:    0.0000

     total cpu time spent up to now is     2016.6 secs

     total energy              =    -973.10657088 Ry
     Harris-Foulkes estimate   =    -973.10657125 Ry
     estimated scf accuracy    <       0.00000455 Ry

     total magnetization       =    20.00 Bohr mag/cell
     absolute magnetization    =    20.00 Bohr mag/cell

     iteration # 11     ecut=    41.00 Ry     beta=0.30
     Davidson diagonalization with overlap
     ethr =  5.42E-09,  avg # of iterations =  1.5

     negative rho (up, down):  0.000E+00 1.706E-03

     Magnetic moment per site:
     atom:    1    charge:   12.5517    magn:    4.2583    constr:    0.0000
     atom:    2    charge:    5.9193    magn:    0.1778    constr:    0.0000
     atom:    3    charge:   12.5511    magn:    4.2591    constr:    0.0000
     atom:    4    charge:    5.9269    magn:    0.1804    constr:    0.0000
     atom:    5    charge:   12.5507    magn:    4.2594    constr:    0.0000
     atom:    6    charge:    5.9195    magn:    0.1779    constr:    0.0000
     atom:    7    charge:   12.5497    magn:    4.2598    constr:    0.0000
     atom:    8    charge:    5.9203    magn:    0.1777    constr:    0.0000

     total cpu time spent up to now is     2178.5 secs

     total energy              =    -973.10657158 Ry
     Harris-Foulkes estimate   =    -973.10657151 Ry
     estimated scf accuracy    <       0.00000038 Ry

     total magnetization       =    20.00 Bohr mag/cell
     absolute magnetization    =    20.00 Bohr mag/cell

     iteration # 12     ecut=    41.00 Ry     beta=0.30
     Davidson diagonalization with overlap
     ethr =  4.51E-10,  avg # of iterations =  2.0

     negative rho (up, down):  0.000E+00 1.703E-03

     Magnetic moment per site:
     atom:    1    charge:   12.5516    magn:    4.2582    constr:    0.0000
     atom:    2    charge:    5.9193    magn:    0.1780    constr:    0.0000
     atom:    3    charge:   12.5511    magn:    4.2589    constr:    0.0000
     atom:    4    charge:    5.9269    magn:    0.1805    constr:    0.0000
     atom:    5    charge:   12.5507    magn:    4.2592    constr:    0.0000
     atom:    6    charge:    5.9195    magn:    0.1781    constr:    0.0000
     atom:    7    charge:   12.5496    magn:    4.2596    constr:    0.0000
     atom:    8    charge:    5.9203    magn:    0.1778    constr:    0.0000

     total cpu time spent up to now is     2374.5 secs

     total energy              =    -973.10657178 Ry
     Harris-Foulkes estimate   =    -973.10657176 Ry
     estimated scf accuracy    <       0.00000010 Ry

     total magnetization       =    20.00 Bohr mag/cell
     absolute magnetization    =    20.00 Bohr mag/cell

     iteration # 13     ecut=    41.00 Ry     beta=0.30
     Davidson diagonalization with overlap
     ethr =  1.17E-10,  avg # of iterations =  1.9

     negative rho (up, down):  0.000E+00 1.701E-03

     Magnetic moment per site:
     atom:    1    charge:   12.5516    magn:    4.2582    constr:    0.0000
     atom:    2    charge:    5.9193    magn:    0.1779    constr:    0.0000
     atom:    3    charge:   12.5510    magn:    4.2590    constr:    0.0000
     atom:    4    charge:    5.9269    magn:    0.1805    constr:    0.0000
     atom:    5    charge:   12.5506    magn:    4.2593    constr:    0.0000
     atom:    6    charge:    5.9195    magn:    0.1780    constr:    0.0000
     atom:    7    charge:   12.5496    magn:    4.2597    constr:    0.0000
     atom:    8    charge:    5.9203    magn:    0.1778    constr:    0.0000

     total cpu time spent up to now is     2554.3 secs

     total energy              =    -973.10657182 Ry
     Harris-Foulkes estimate   =    -973.10657180 Ry
     estimated scf accuracy    <       0.00000001 Ry

     total magnetization       =    20.00 Bohr mag/cell
     absolute magnetization    =    20.00 Bohr mag/cell

     iteration # 14     ecut=    41.00 Ry     beta=0.30
     Davidson diagonalization with overlap
     ethr =  1.22E-11,  avg # of iterations =  2.0

     negative rho (up, down):  0.000E+00 1.700E-03

     Magnetic moment per site:
     atom:    1    charge:   12.5516    magn:    4.2582    constr:    0.0000
     atom:    2    charge:    5.9193    magn:    0.1779    constr:    0.0000
     atom:    3    charge:   12.5511    magn:    4.2589    constr:    0.0000
     atom:    4    charge:    5.9269    magn:    0.1805    constr:    0.0000
     atom:    5    charge:   12.5507    magn:    4.2592    constr:    0.0000
     atom:    6    charge:    5.9195    magn:    0.1780    constr:    0.0000
     atom:    7    charge:   12.5496    magn:    4.2596    constr:    0.0000
     atom:    8    charge:    5.9203    magn:    0.1777    constr:    0.0000

     total cpu time spent up to now is     2734.2 secs

     End of self-consistent calculation
 --- enter write_ns ---
 LDA+U parameters:
U( 1)     =  3.00000000
alpha( 1) =  0.00000000
atom    1   Tr[ns(na)] (up, down, total) =   4.99135  0.46157  5.45291
   spin  1
    eigenvalues: 
  0.997  0.997  0.999  0.999  0.999
    eigenvectors:
  0.023  0.977  0.000  0.000  0.000
  0.000  0.000  0.680  0.280  0.040
  0.000  0.000  0.269  0.719  0.012
  0.977  0.023  0.000  0.000  0.000
  0.000  0.000  0.052  0.000  0.948
    occupations:
  0.997  0.000 -0.000  0.000  0.000
  0.000  0.999  0.000 -0.000  0.000
 -0.000  0.000  0.999  0.000 -0.000
  0.000 -0.000  0.000  0.997  0.000
  0.000  0.000 -0.000  0.000  0.999
   spin  2
    eigenvalues: 
  0.052  0.052  0.053  0.150  0.155
    eigenvectors:
  0.000  0.000  0.000  0.986  0.014
  0.092  0.908  0.001  0.000  0.000
  0.908  0.092  0.000  0.000  0.000
  0.000  0.000  0.000  0.014  0.986
  0.000  0.000  0.999  0.000  0.000
    occupations:
  0.150 -0.001  0.001 -0.001 -0.000
 -0.001  0.052  0.000  0.001 -0.000
  0.001  0.000  0.052  0.000  0.000
 -0.001  0.001  0.000  0.155 -0.000
 -0.000 -0.000  0.000 -0.000  0.053
atomic mag. moment =     4.529783
atom    3   Tr[ns(na)] (up, down, total) =   4.99180  0.46039  5.45220
   spin  1
    eigenvalues: 
  0.997  0.997  0.999  0.999  0.999
    eigenvectors:
  0.832  0.168  0.000  0.000  0.000
  0.000  0.000  0.988  0.004  0.009
  0.000  0.000  0.009  0.002  0.989
  0.168  0.832  0.000  0.000  0.000
  0.000  0.000  0.003  0.995  0.002
    occupations:
  0.997 -0.000  0.000 -0.000 -0.000
 -0.000  0.999  0.000 -0.000  0.000
  0.000  0.000  0.999  0.000 -0.000
 -0.000 -0.000  0.000  0.997 -0.000
 -0.000  0.000 -0.000 -0.000  0.999
   spin  2
    eigenvalues: 
  0.052  0.052  0.052  0.151  0.153
    eigenvectors:
  0.000  0.000  0.000  0.121  0.879
  0.073  0.917  0.009  0.000  0.000
  0.004  0.007  0.989  0.000  0.000
  0.000  0.000  0.000  0.879  0.121
  0.922  0.076  0.002  0.000  0.000
    occupations:
  0.153  0.000 -0.000  0.001  0.000
  0.000  0.052 -0.000 -0.000  0.000
 -0.000 -0.000  0.052 -0.000  0.000
  0.001 -0.000 -0.000  0.151  0.000
  0.000  0.000  0.000  0.000  0.052
atomic mag. moment =     4.531414
atom    5   Tr[ns(na)] (up, down, total) =   4.99198  0.45946  5.45143
   spin  1
    eigenvalues: 
  0.997  0.997  0.999  0.999  0.999
    eigenvectors:
  0.640  0.360  0.000  0.000  0.000
  0.000  0.000  0.033  0.026  0.941
  0.000  0.000  0.921  0.060  0.019
  0.360  0.640  0.000  0.000  0.000
  0.000  0.000  0.047  0.913  0.040
    occupations:
  0.997  0.000  0.000  0.000 -0.000
  0.000  0.999 -0.000  0.000 -0.000
  0.000 -0.000  0.999 -0.000 -0.000
  0.000  0.000 -0.000  0.997  0.000
 -0.000 -0.000 -0.000  0.000  0.999
   spin  2
    eigenvalues: 
  0.052  0.052  0.052  0.151  0.153
    eigenvectors:
  0.000  0.000  0.000  0.365  0.635
  0.006  0.015  0.979  0.000  0.000
  0.922  0.076  0.002  0.000  0.000
  0.000  0.000  0.000  0.635  0.365
  0.071  0.909  0.019  0.000  0.000
    occupations:
  0.152 -0.000 -0.000 -0.001  0.000
 -0.000  0.052 -0.000 -0.000 -0.000
 -0.000 -0.000  0.052  0.000 -0.000
 -0.001 -0.000  0.000  0.152 -0.000
  0.000 -0.000 -0.000 -0.000  0.052
atomic mag. moment =     4.532518
atom    7   Tr[ns(na)] (up, down, total) =   4.99189  0.45808  5.44997
   spin  1
    eigenvalues: 
  0.997  0.997  0.999  0.999  0.999
    eigenvectors:
  0.941  0.059  0.000  0.000  0.000
  0.000  0.000  0.079  0.002  0.919
  0.000  0.000  0.226  0.765  0.010
  0.059  0.941  0.000  0.000  0.000
  0.000  0.000  0.696  0.234  0.071
    occupations:
  0.997 -0.000 -0.000 -0.000  0.000
 -0.000  0.999 -0.000  0.000  0.000
 -0.000 -0.000  0.999  0.000  0.000
 -0.000  0.000  0.000  0.997 -0.000
  0.000  0.000  0.000 -0.000  0.999
   spin  2
    eigenvalues: 
  0.051  0.052  0.052  0.150  0.153
    eigenvectors:
  0.000  0.000  0.000  0.098  0.902
  0.008  0.983  0.010  0.000  0.000
  0.000  0.010  0.990  0.000  0.000
  0.000  0.000  0.000  0.902  0.098
  0.992  0.008  0.000  0.000  0.000
    occupations:
  0.153  0.001 -0.000  0.001  0.000
  0.001  0.052 -0.000 -0.000  0.000
 -0.000 -0.000  0.052 -0.000  0.000
  0.001 -0.000 -0.000  0.150  0.001
  0.000  0.000  0.000  0.001  0.051
atomic mag. moment =     4.533806
N of occupied +U levels =   21.806513
 --- exit write_ns ---

     Number of k-points >= 100: set verbosity='high' to print the bands.

     the Fermi energy is    12.4530 ev

!    total energy              =    -973.10657183 Ry
     Harris-Foulkes estimate   =    -973.10657182 Ry
     estimated scf accuracy    <          4.3E-09 Ry

     The total energy is the sum of the following terms:

     one-electron contribution =    -447.52685170 Ry
     hartree contribution      =     265.97473154 Ry
     xc contribution           =    -135.00703306 Ry
     ewald contribution        =    -656.72977922 Ry
     Hubbard energy            =       0.18247563 Ry
     smearing contrib. (-TS)   =      -0.00011501 Ry

     total magnetization       =    20.00 Bohr mag/cell
     absolute magnetization    =    20.00 Bohr mag/cell

     convergence has been achieved in  14 iterations

     Forces acting on atoms (Ry/au):


     negative rho (up, down):  0.000E+00 1.700E-03
     atom    1 type  1   force =   0.13872583E-02  0.10337357E-02  0.31923259E-02
     atom    2 type  2   force =  -0.38871601E-02  0.26444378E-02 -0.11469593E-02
     atom    3 type  1   force =   0.50284942E-02 -0.59423304E-02 -0.26256888E-02
     atom    4 type  2   force =   0.37394971E-03  0.32703173E-02 -0.88507055E-03
     atom    5 type  1   force =  -0.58944120E-02  0.29711019E-03  0.48259399E-02
     atom    6 type  2   force =   0.11126517E-02 -0.17212820E-02 -0.35558856E-02
     atom    7 type  1   force =   0.81925319E-04  0.36754984E-02  0.31832408E-02
     atom    8 type  2   force =   0.17972928E-02 -0.32574868E-02 -0.29879024E-02

     Total force =     0.015398     Total SCF correction =     0.000133


     entering subroutine stress ...


     negative rho (up, down):  0.000E+00 1.700E-03
          total   stress  (Ry/bohr**3)                   (kbar)     P=    0.80
   0.0000042773  -0.0000002036  -0.0000002641          0.63     -0.03     -0.04
  -0.0000002036   0.0000044808   0.0000001203         -0.03      0.66      0.02
  -0.0000002641   0.0000001203   0.0000076161         -0.04      0.02      1.12


     Writing output data file mno_fm.scf.in.k.2.022.save

     init_run     :     57.42s CPU     65.05s WALL (       1 calls)
     electrons    :   2236.94s CPU   2668.92s WALL (       1 calls)
     forces       :    147.67s CPU    172.43s WALL (       1 calls)
     stress       :    380.96s CPU    413.08s WALL (       1 calls)

     Called by init_run:
     wfcinit      :     56.88s CPU     64.48s WALL (       1 calls)
     potinit      :      0.13s CPU      0.14s WALL (       1 calls)

     Called by electrons:
     c_bands      :   2022.92s CPU   2434.16s WALL (      14 calls)
     sum_band     :    211.45s CPU    232.16s WALL (      14 calls)
     v_of_rho     :      0.73s CPU      0.74s WALL (      15 calls)
     newd         :      1.44s CPU      1.45s WALL (      15 calls)
     mix_rho      :      0.45s CPU      0.45s WALL (      14 calls)

     Called by c_bands:
     init_us_2    :     13.32s CPU     14.32s WALL (   12768 calls)
     cegterg      :   1958.88s CPU   2364.49s WALL (    4256 calls)

     Called by *egterg:
     h_psi        :    936.70s CPU   1068.63s WALL (   13504 calls)
     s_psi        :     94.99s CPU    105.02s WALL (   16848 calls)
     g_psi        :      1.65s CPU      1.64s WALL (    8944 calls)
     cdiaghg      :    381.93s CPU    530.52s WALL (   13200 calls)

     Called by h_psi:
     add_vuspsi   :     71.74s CPU     87.14s WALL (   13504 calls)
     vhpsi        :    140.94s CPU    208.75s WALL (   13504 calls)

     General routines
     calbec       :    831.62s CPU    959.47s WALL (  132800 calls)
     fft          :      0.60s CPU      0.61s WALL (     499 calls)
     ffts         :      0.22s CPU      0.23s WALL (     353 calls)
     fftw         :    592.42s CPU    609.72s WALL ( 1507872 calls)
     interpolate  :      0.09s CPU      0.10s WALL (      58 calls)
     davcio       :      0.01s CPU      0.03s WALL (     304 calls)

     Parallel routines
     fft_scatter  :    318.70s CPU    329.15s WALL ( 1508724 calls)
     Hubbard U routines
     new_ns       :     39.30s CPU     47.58s WALL (      14 calls)
     vhpsi        :    140.94s CPU    208.75s WALL (   13504 calls)
     force_hub    :    132.96s CPU    155.23s WALL (       1 calls)
     stres_hub    :    360.13s CPU    391.80s WALL (       1 calls)

     PWSCF        : 47m11.01s CPU    55m28.69s WALL


   This run was terminated on:   3: 1:38  24Aug2017            

=------------------------------------------------------------------------------=
   JOB DONE.
=------------------------------------------------------------------------------=
