
     Program PWSCF v.5.1 starts on 17Aug2017 at 11:18:37 

     This program is part of the open-source Quantum ESPRESSO suite
     for quantum simulation of materials; please cite
         "P. Giannozzi et al., J. Phys.:Condens. Matter 21 395502 (2009);
          URL http://www.quantum-espresso.org", 
     in publications or presentations arising from this work. More details at
     http://www.quantum-espresso.org/quote

     Parallel version (MPI), running on     8 processors
     R & G space division:  proc/nbgrp/npool/nimage =       8
     Reading input from /tmp/mno_afmG.scf.in.fmcell.6834/mno_afmG.scf.in.fmcell.t
Warning: card &IONS ignored
Warning: card   ION_DYNAMICS='BFGS', ignored
Warning: card / ignored
Warning: card &CELL ignored
Warning: card  CELL_DYNAMICS = 'BFGS' ignored
Warning: card / ignored

     Current dimensions of program PWSCF are:
     Max number of different atomic species (ntypx) = 10
     Max number of k-points (npk) =  40000
     Max angular momentum in pseudopotentials (lmaxx) =  3
 kfg - two_fermi_energies  F

     Subspace diagonalization in iterative solution of the eigenvalue problem:
     a serial algorithm will be used


     Parallelization info
     --------------------
     sticks:   dense  smooth     PW     G-vecs:    dense   smooth      PW
     Min         119      97     33                 1832     1344     265
     Max         121      98     34                 1833     1352     266
     Sum         961     781    265                14661    10773    2123

     Generating pointlists ...
     new r_m :   0.1684 (alat units)  1.7495 (a.u.) for type    1
     new r_m :   0.1684 (alat units)  1.7495 (a.u.) for type    2
     new r_m :   0.1684 (alat units)  1.7495 (a.u.) for type    3


     bravais-lattice index     =            0
     lattice parameter (alat)  =    10.388967996  a.u.
     unit-cell volume          =     305.1760 (a.u.)^3
     number of atoms/cell      =            4
     number of atomic types    =            3
     number of electrons       =        42.00
     number of Kohn-Sham states=           25
     kinetic-energy cutoff     =      41.0000  Ry
     charge density cutoff     =     200.0000  Ry
     convergence threshold     =      1.0E-08
     mixing beta               =       0.3000
     number of iterations used =            8  local-TF  mixing
     Exchange-correlation      = SLA  PW   PSX  PSC ( 1  4 10  8 0)
     A smooth kinetic-energy cutoff is imposed at      40.0000 Ry
     height of the smooth step-function =             800.0000 Ry
     width of the smooth step-function  =               1.0000 Ry


     celldm(1)=  10.388968  celldm(2)=   0.000000  celldm(3)=   0.000000
     celldm(4)=   0.000000  celldm(5)=   0.000000  celldm(6)=   0.000000

     crystal axes: (cart. coord. in units of alat)
               a(1) = (   0.816496580928   0.408248290464   0.408248290464 )  
               a(2) = (   0.408248290464   0.816496580928   0.408248290464 )  
               a(3) = (   0.408248290464   0.408248290464   0.816496580928 )  

     reciprocal axes: (cart. coord. in units 2 pi/alat)
               b(1) = (  1.837117 -0.612372 -0.612372 )  
               b(2) = ( -0.612372  1.837117 -0.612372 )  
               b(3) = ( -0.612372 -0.612372  1.837117 )  


     PseudoPot. # 1 for Mn read from file:
     /users/kfg/psuedo/gbrv_1.5/mn.pbesol.UPF
     MD5 check sum: 0716d5f563e6e95a34f9080f4c78c109
     Pseudo is Ultrasoft + core correction, Zval = 15.0
     Generated by new atomic code, or converted to UPF format
     Using radial grid of  859 points,  6 beta functions with: 
                l(1) =   0
                l(2) =   0
                l(3) =   1
                l(4) =   1
                l(5) =   2
                l(6) =   2
     Q(r) pseudized with  8 coefficients,  rinner =    0.950   0.950   0.950
                                                       0.950   0.950

     PseudoPot. # 2 for Mn read from file:
     /users/kfg/psuedo/gbrv_1.5/mn.pbesol.UPF
     MD5 check sum: 0716d5f563e6e95a34f9080f4c78c109
     Pseudo is Ultrasoft + core correction, Zval = 15.0
     Generated by new atomic code, or converted to UPF format
     Using radial grid of  859 points,  6 beta functions with: 
                l(1) =   0
                l(2) =   0
                l(3) =   1
                l(4) =   1
                l(5) =   2
                l(6) =   2
     Q(r) pseudized with  8 coefficients,  rinner =    0.950   0.950   0.950
                                                       0.950   0.950

     PseudoPot. # 3 for O  read from file:
     /users/kfg/psuedo/gbrv_1.5/o.pbesol.UPF
     MD5 check sum: 501638753501ef6325af9037351f7734
     Pseudo is Ultrasoft + core correction, Zval =  6.0
     Generated by new atomic code, or converted to UPF format
     Using radial grid of  737 points,  5 beta functions with: 
                l(1) =   0
                l(2) =   0
                l(3) =   1
                l(4) =   1
                l(5) =   2
     Q(r) pseudized with  8 coefficients,  rinner =    0.900   0.900   0.900
                                                       0.900   0.900

     atomic species   valence    mass     pseudopotential
        Mn            15.00    54.90000     Mn( 1.00)
        Fe            15.00    54.90000     Mn( 1.00)
        O              6.00    15.99900     O ( 1.00)

     Starting magnetic structure 
     atomic species   magnetization
        Mn           1.000
        Fe          -1.000
        O            0.000


     Simplified LDA+U calculation (l_max = 2) with parameters (eV):
     atomic species    L          U    alpha       J0     beta
        Mn             2     3.0000   0.0000   0.0000   0.0000
        Fe             2     3.0000   0.0000   0.0000   0.0000



     12 Sym. Ops., with inversion, found



   Cartesian axes

     site n.     atom                  positions (alat units)
         1           Mn  tau(   1) = (    0.00000000000    0.00000000000    0.00000000000  )
         2           O   tau(   2) = (    0.40824829210    0.40824829210    0.40824829210  )
         3           Fe  tau(   3) = (    0.81649658093    0.81649658093    0.81649658093  )
         4           O   tau(   4) = (    1.22474486976    1.22474486976    1.22474486976  )

     number of k points=    64  gaussian smearing, width (Ry)=  0.0100
                       cart. coord. in units 2pi/alat
        k(    1) = (   0.0000000   0.0000000   0.0000000), wk =   0.0046296
        k(    2) = (  -0.1020621  -0.1020621   0.3061862), wk =   0.0277778
        k(    3) = (  -0.2041241  -0.2041241   0.6123724), wk =   0.0277778
        k(    4) = (   0.3061862   0.3061862  -0.9185587), wk =   0.0138889
        k(    5) = (  -0.2041241   0.2041241   0.2041241), wk =   0.0277778
        k(    6) = (  -0.3061862   0.1020621   0.5103104), wk =   0.0555556
        k(    7) = (   0.2041241   0.6123724  -1.0206207), wk =   0.0555556
        k(    8) = (   0.1020621   0.5103104  -0.7144345), wk =   0.0555556
        k(    9) = (  -0.0000000   0.4082483  -0.4082483), wk =   0.0277778
        k(   10) = (  -0.4082483   0.4082483   0.4082483), wk =   0.0277778
        k(   11) = (   0.1020621   0.9185587  -1.1226828), wk =   0.0555556
        k(   12) = (   0.0000000   0.8164966  -0.8164966), wk =   0.0277778
        k(   13) = (   0.6123724  -0.6123724  -0.6123724), wk =   0.0138889
        k(   14) = (   0.1020621   0.1020621   0.1020621), wk =   0.0092593
        k(   15) = (  -0.0000000  -0.0000000   0.4082483), wk =   0.0277778
        k(   16) = (   0.5103104   0.5103104  -1.1226828), wk =   0.0277778
        k(   17) = (   0.4082483   0.4082483  -0.8164966), wk =   0.0277778
        k(   18) = (   0.3061862   0.3061862  -0.5103104), wk =   0.0277778
        k(   19) = (  -0.1020621   0.3061862   0.3061862), wk =   0.0277778
        k(   20) = (   0.4082483   0.8164966  -1.2247449), wk =   0.0555556
        k(   21) = (   0.3061862   0.7144345  -0.9185587), wk =   0.0555556
        k(   22) = (   0.2041241   0.6123724  -0.6123724), wk =   0.0555556
        k(   23) = (   0.9185587  -0.7144345  -0.7144345), wk =   0.0277778
        k(   24) = (   0.8164966  -0.8164966  -0.4082483), wk =   0.0555556
        k(   25) = (   0.7144345  -0.9185587  -0.1020621), wk =   0.0277778
        k(   26) = (   0.7144345  -0.5103104  -0.5103104), wk =   0.0277778
        k(   27) = (   0.2041241   0.2041241   0.2041241), wk =   0.0092593
        k(   28) = (   0.7144345   0.7144345  -1.3268069), wk =   0.0277778
        k(   29) = (   0.6123724   0.6123724  -1.0206207), wk =   0.0277778
        k(   30) = (   1.2247449  -0.8164966  -0.8164966), wk =   0.0277778
        k(   31) = (   1.1226828  -0.9185587  -0.5103104), wk =   0.0277778
        k(   32) = (  -0.3061862  -0.3061862  -0.3061862), wk =   0.0046296
        k(   33) = (   0.0000000   0.0000000   0.0000000), wk =   0.0046296
        k(   34) = (  -0.1020621  -0.1020621   0.3061862), wk =   0.0277778
        k(   35) = (  -0.2041241  -0.2041241   0.6123724), wk =   0.0277778
        k(   36) = (   0.3061862   0.3061862  -0.9185587), wk =   0.0138889
        k(   37) = (  -0.2041241   0.2041241   0.2041241), wk =   0.0277778
        k(   38) = (  -0.3061862   0.1020621   0.5103104), wk =   0.0555556
        k(   39) = (   0.2041241   0.6123724  -1.0206207), wk =   0.0555556
        k(   40) = (   0.1020621   0.5103104  -0.7144345), wk =   0.0555556
        k(   41) = (  -0.0000000   0.4082483  -0.4082483), wk =   0.0277778
        k(   42) = (  -0.4082483   0.4082483   0.4082483), wk =   0.0277778
        k(   43) = (   0.1020621   0.9185587  -1.1226828), wk =   0.0555556
        k(   44) = (   0.0000000   0.8164966  -0.8164966), wk =   0.0277778
        k(   45) = (   0.6123724  -0.6123724  -0.6123724), wk =   0.0138889
        k(   46) = (   0.1020621   0.1020621   0.1020621), wk =   0.0092593
        k(   47) = (  -0.0000000  -0.0000000   0.4082483), wk =   0.0277778
        k(   48) = (   0.5103104   0.5103104  -1.1226828), wk =   0.0277778
        k(   49) = (   0.4082483   0.4082483  -0.8164966), wk =   0.0277778
        k(   50) = (   0.3061862   0.3061862  -0.5103104), wk =   0.0277778
        k(   51) = (  -0.1020621   0.3061862   0.3061862), wk =   0.0277778
        k(   52) = (   0.4082483   0.8164966  -1.2247449), wk =   0.0555556
        k(   53) = (   0.3061862   0.7144345  -0.9185587), wk =   0.0555556
        k(   54) = (   0.2041241   0.6123724  -0.6123724), wk =   0.0555556
        k(   55) = (   0.9185587  -0.7144345  -0.7144345), wk =   0.0277778
        k(   56) = (   0.8164966  -0.8164966  -0.4082483), wk =   0.0555556
        k(   57) = (   0.7144345  -0.9185587  -0.1020621), wk =   0.0277778
        k(   58) = (   0.7144345  -0.5103104  -0.5103104), wk =   0.0277778
        k(   59) = (   0.2041241   0.2041241   0.2041241), wk =   0.0092593
        k(   60) = (   0.7144345   0.7144345  -1.3268069), wk =   0.0277778
        k(   61) = (   0.6123724   0.6123724  -1.0206207), wk =   0.0277778
        k(   62) = (   1.2247449  -0.8164966  -0.8164966), wk =   0.0277778
        k(   63) = (   1.1226828  -0.9185587  -0.5103104), wk =   0.0277778
        k(   64) = (  -0.3061862  -0.3061862  -0.3061862), wk =   0.0046296

     Dense  grid:    14661 G-vectors     FFT dimensions: (  48,  48,  48)

     Smooth grid:    10773 G-vectors     FFT dimensions: (  45,  45,  45)

     Largest allocated arrays     est. size (Mb)     dimensions
        Kohn-Sham Wavefunctions         0.07 Mb     (     173,   25)
        Atomic Hubbard wavefuncts       0.03 Mb     (     173,   10)
        NL pseudopotentials             0.16 Mb     (     173,   62)
        Each V/rho on FFT grid          0.42 Mb     (   13824,   2)
        Each G-vector array             0.01 Mb     (    1833)
        G-vector shells                 0.00 Mb     (     296)
     Largest temporary arrays     est. size (Mb)     dimensions
        Auxiliary wavefunctions         0.26 Mb     (     173,  100)
        Each subspace H/S matrix        0.15 Mb     (     100,  100)
        Each <psi_i|beta_j> matrix      0.02 Mb     (      62,   25)
        Arrays for rho mixing           1.69 Mb     (   13824,    8)

     Check: negative/imaginary core charge=   -0.000056    0.000000

     Initial potential from superposition of free atoms

     starting charge   40.99984, renormalised to   42.00000
     Number of +U iterations with fixed ns =  0
     Starting occupations:
 --- enter write_ns ---
 LDA+U parameters:
U( 1)     =  3.00000000
alpha( 1) =  0.00000000
U( 2)     =  3.00000000
alpha( 2) =  0.00000000
atom    1   Tr[ns(na)] (up, down, total) =   5.00000  0.00000  5.00000
   spin  1
    eigenvalues: 
  1.000  1.000  1.000  1.000  1.000
    eigenvectors:
  1.000  0.000  0.000  0.000  0.000
  0.000  1.000  0.000  0.000  0.000
  0.000  0.000  1.000  0.000  0.000
  0.000  0.000  0.000  1.000  0.000
  0.000  0.000  0.000  0.000  1.000
    occupations:
  1.000  0.000  0.000  0.000  0.000
  0.000  1.000  0.000  0.000  0.000
  0.000  0.000  1.000  0.000  0.000
  0.000  0.000  0.000  1.000  0.000
  0.000  0.000  0.000  0.000  1.000
   spin  2
    eigenvalues: 
  0.000  0.000  0.000  0.000  0.000
    eigenvectors:
  1.000  0.000  0.000  0.000  0.000
  0.000  1.000  0.000  0.000  0.000
  0.000  0.000  1.000  0.000  0.000
  0.000  0.000  0.000  1.000  0.000
  0.000  0.000  0.000  0.000  1.000
    occupations:
  0.000  0.000  0.000  0.000  0.000
  0.000  0.000  0.000  0.000  0.000
  0.000  0.000  0.000  0.000  0.000
  0.000  0.000  0.000  0.000  0.000
  0.000  0.000  0.000  0.000  0.000
atomic mag. moment =     5.000000
atom    3   Tr[ns(na)] (up, down, total) =   0.00000  5.00000  5.00000
   spin  1
    eigenvalues: 
  0.000  0.000  0.000  0.000  0.000
    eigenvectors:
  1.000  0.000  0.000  0.000  0.000
  0.000  1.000  0.000  0.000  0.000
  0.000  0.000  1.000  0.000  0.000
  0.000  0.000  0.000  1.000  0.000
  0.000  0.000  0.000  0.000  1.000
    occupations:
  0.000  0.000  0.000  0.000  0.000
  0.000  0.000  0.000  0.000  0.000
  0.000  0.000  0.000  0.000  0.000
  0.000  0.000  0.000  0.000  0.000
  0.000  0.000  0.000  0.000  0.000
   spin  2
    eigenvalues: 
  1.000  1.000  1.000  1.000  1.000
    eigenvectors:
  1.000  0.000  0.000  0.000  0.000
  0.000  1.000  0.000  0.000  0.000
  0.000  0.000  1.000  0.000  0.000
  0.000  0.000  0.000  1.000  0.000
  0.000  0.000  0.000  0.000  1.000
    occupations:
  1.000  0.000  0.000  0.000  0.000
  0.000  1.000  0.000  0.000  0.000
  0.000  0.000  1.000  0.000  0.000
  0.000  0.000  0.000  1.000  0.000
  0.000  0.000  0.000  0.000  1.000
atomic mag. moment =    -5.000000
N of occupied +U levels =   10.000000
 --- exit write_ns ---
 Atomic wfc used for LDA+U Projector are NOT orthogonalized
     Starting wfc are   34 randomized atomic wfcs

     total cpu time spent up to now is        4.4 secs

     per-process dynamical memory:    18.6 Mb

     Self-consistent Calculation

     iteration #  1     ecut=    41.00 Ry     beta=0.30
     Davidson diagonalization with overlap
     ethr =  1.00E-02,  avg # of iterations =  3.8
 --- enter write_ns ---
 LDA+U parameters:
U( 1)     =  3.00000000
alpha( 1) =  0.00000000
U( 2)     =  3.00000000
alpha( 2) =  0.00000000
atom    1   Tr[ns(na)] (up, down, total) =   4.99504  0.19729  5.19233
   spin  1
    eigenvalues: 
  0.998  0.998  0.999  1.000  1.000
    eigenvectors:
  0.002  0.000  0.000  0.114  0.884
  0.302  0.364  0.333  0.001  0.000
  0.061  0.604  0.333  0.001  0.001
  0.000  0.002  0.000  0.884  0.114
  0.635  0.030  0.333  0.000  0.001
    occupations:
  1.000 -0.000 -0.000 -0.000 -0.000
 -0.000  0.999  0.000 -0.000 -0.000
 -0.000  0.000  0.999  0.000 -0.000
 -0.000 -0.000  0.000  1.000 -0.000
 -0.000 -0.000 -0.000 -0.000  0.999
   spin  2
    eigenvalues: 
  0.023  0.023  0.024  0.063  0.063
    eigenvectors:
  0.001  0.000  0.000  0.036  0.964
  0.337  0.330  0.333  0.000  0.000
  0.043  0.623  0.333  0.000  0.000
  0.000  0.001  0.000  0.964  0.036
  0.620  0.046  0.333  0.000  0.000
    occupations:
  0.063 -0.000 -0.000 -0.000 -0.001
 -0.000  0.024  0.000 -0.001 -0.000
 -0.000  0.000  0.024  0.001 -0.000
 -0.000 -0.001  0.001  0.063 -0.000
 -0.001 -0.000 -0.000 -0.000  0.024
atomic mag. moment =     4.797745
atom    3   Tr[ns(na)] (up, down, total) =   0.19688  4.99504  5.19192
   spin  1
    eigenvalues: 
  0.023  0.023  0.024  0.063  0.063
    eigenvectors:
  0.000  0.000  0.000  0.086  0.913
  0.391  0.275  0.333  0.000  0.000
  0.020  0.646  0.333  0.000  0.000
  0.000  0.000  0.000  0.913  0.086
  0.588  0.078  0.333  0.000  0.000
    occupations:
  0.063 -0.000 -0.000 -0.000 -0.001
 -0.000  0.024  0.000 -0.001 -0.000
 -0.000  0.000  0.024  0.001 -0.000
 -0.000 -0.001  0.001  0.063 -0.000
 -0.001 -0.000 -0.000 -0.000  0.024
   spin  2
    eigenvalues: 
  0.998  0.998  0.999  1.000  1.000
    eigenvectors:
  0.002  0.000  0.000  0.140  0.858
  0.332  0.333  0.333  0.001  0.000
  0.045  0.621  0.333  0.000  0.001
  0.000  0.002  0.000  0.858  0.140
  0.621  0.044  0.333  0.000  0.001
    occupations:
  1.000 -0.000 -0.000 -0.000 -0.000
 -0.000  0.999  0.000 -0.000 -0.000
 -0.000  0.000  0.999  0.000 -0.000
 -0.000 -0.000  0.000  1.000 -0.000
 -0.000 -0.000 -0.000 -0.000  0.999
atomic mag. moment =    -4.798164
N of occupied +U levels =   10.384245
 --- exit write_ns ---

     negative rho (up, down):  8.210E-05 8.220E-05

     Magnetic moment per site:
     atom:    1    charge:   12.8399    magn:   10.2599    constr:    0.0000
     atom:    2    charge:    5.7471    magn:    0.0000    constr:    0.0000
     atom:    3    charge:   12.8399    magn:  -10.2599    constr:    0.0000
     atom:    4    charge:    5.7471    magn:    0.0000    constr:    0.0000

     total cpu time spent up to now is       12.8 secs

     total energy              =    -484.47900295 Ry
     Harris-Foulkes estimate   =    -480.43414136 Ry
     estimated scf accuracy    <       6.34709844 Ry

     total magnetization       =    -0.00 Bohr mag/cell
     absolute magnetization    =    10.19 Bohr mag/cell

     iteration #  2     ecut=    41.00 Ry     beta=0.30
     Davidson diagonalization with overlap
     ethr =  1.00E-02,  avg # of iterations =  1.1

     negative rho (up, down):  2.975E-04 2.975E-04

     Magnetic moment per site:
     atom:    1    charge:   12.7203    magn:    4.5197    constr:    0.0000
     atom:    2    charge:    5.9794    magn:    0.0000    constr:    0.0000
     atom:    3    charge:   12.7203    magn:   -4.5198    constr:    0.0000
     atom:    4    charge:    5.9794    magn:    0.0000    constr:    0.0000

     total cpu time spent up to now is       18.4 secs

     total energy              =    -486.39937489 Ry
     Harris-Foulkes estimate   =    -484.54546693 Ry
     estimated scf accuracy    <       3.15541095 Ry

     total magnetization       =    -0.00 Bohr mag/cell
     absolute magnetization    =    10.08 Bohr mag/cell

     iteration #  3     ecut=    41.00 Ry     beta=0.30
     Davidson diagonalization with overlap
     ethr =  7.51E-03,  avg # of iterations =  3.3

     negative rho (up, down):  3.152E-04 3.154E-04

     Magnetic moment per site:
     atom:    1    charge:   12.6425    magn:    4.3094    constr:    0.0000
     atom:    2    charge:    5.9538    magn:   -0.0000    constr:    0.0000
     atom:    3    charge:   12.6425    magn:   -4.3094    constr:    0.0000
     atom:    4    charge:    5.9538    magn:   -0.0000    constr:    0.0000

     total cpu time spent up to now is       26.7 secs

     total energy              =    -486.53670240 Ry
     Harris-Foulkes estimate   =    -486.57381492 Ry
     estimated scf accuracy    <       0.10458349 Ry

     total magnetization       =     0.00 Bohr mag/cell
     absolute magnetization    =     9.52 Bohr mag/cell

     iteration #  4     ecut=    41.00 Ry     beta=0.30
     Davidson diagonalization with overlap
     ethr =  2.49E-04,  avg # of iterations =  4.3

     negative rho (up, down):  3.212E-04 3.213E-04

     Magnetic moment per site:
     atom:    1    charge:   12.6362    magn:    4.1928    constr:    0.0000
     atom:    2    charge:    5.9659    magn:    0.0000    constr:    0.0000
     atom:    3    charge:   12.6362    magn:   -4.1929    constr:    0.0000
     atom:    4    charge:    5.9659    magn:    0.0000    constr:    0.0000

     total cpu time spent up to now is       38.1 secs

     total energy              =    -486.56370803 Ry
     Harris-Foulkes estimate   =    -486.56589979 Ry
     estimated scf accuracy    <       0.00912802 Ry

     total magnetization       =    -0.00 Bohr mag/cell
     absolute magnetization    =     9.48 Bohr mag/cell

     iteration #  5     ecut=    41.00 Ry     beta=0.30
     Davidson diagonalization with overlap
     ethr =  2.17E-05,  avg # of iterations =  4.9

     negative rho (up, down):  3.236E-04 3.236E-04

     Magnetic moment per site:
     atom:    1    charge:   12.6097    magn:    4.2322    constr:    0.0000
     atom:    2    charge:    5.9718    magn:   -0.0000    constr:    0.0000
     atom:    3    charge:   12.6097    magn:   -4.2321    constr:    0.0000
     atom:    4    charge:    5.9718    magn:   -0.0000    constr:    0.0000

     total cpu time spent up to now is       48.0 secs

     total energy              =    -486.56465835 Ry
     Harris-Foulkes estimate   =    -486.56470837 Ry
     estimated scf accuracy    <       0.00222673 Ry

     total magnetization       =     0.00 Bohr mag/cell
     absolute magnetization    =     9.44 Bohr mag/cell

     iteration #  6     ecut=    41.00 Ry     beta=0.30
     Davidson diagonalization with overlap
     ethr =  5.30E-06,  avg # of iterations =  3.8

     negative rho (up, down):  3.228E-04 3.228E-04

     Magnetic moment per site:
     atom:    1    charge:   12.6025    magn:    4.2428    constr:    0.0000
     atom:    2    charge:    5.9728    magn:   -0.0000    constr:    0.0000
     atom:    3    charge:   12.6025    magn:   -4.2428    constr:    0.0000
     atom:    4    charge:    5.9728    magn:   -0.0000    constr:    0.0000

     total cpu time spent up to now is       57.8 secs

     total energy              =    -486.56500876 Ry
     Harris-Foulkes estimate   =    -486.56500646 Ry
     estimated scf accuracy    <       0.00012521 Ry

     total magnetization       =    -0.00 Bohr mag/cell
     absolute magnetization    =     9.42 Bohr mag/cell

     iteration #  7     ecut=    41.00 Ry     beta=0.30
     Davidson diagonalization with overlap
     ethr =  2.98E-07,  avg # of iterations =  3.1

     negative rho (up, down):  3.215E-04 3.214E-04

     Magnetic moment per site:
     atom:    1    charge:   12.6016    magn:    4.2306    constr:    0.0000
     atom:    2    charge:    5.9724    magn:    0.0000    constr:    0.0000
     atom:    3    charge:   12.6016    magn:   -4.2306    constr:    0.0000
     atom:    4    charge:    5.9724    magn:    0.0000    constr:    0.0000

     total cpu time spent up to now is       66.2 secs

     total energy              =    -486.56502449 Ry
     Harris-Foulkes estimate   =    -486.56502657 Ry
     estimated scf accuracy    <       0.00003283 Ry

     total magnetization       =     0.00 Bohr mag/cell
     absolute magnetization    =     9.42 Bohr mag/cell

     iteration #  8     ecut=    41.00 Ry     beta=0.30
     Davidson diagonalization with overlap
     ethr =  7.82E-08,  avg # of iterations =  2.0

     negative rho (up, down):  3.197E-04 3.197E-04

     Magnetic moment per site:
     atom:    1    charge:   12.6017    magn:    4.2303    constr:    0.0000
     atom:    2    charge:    5.9720    magn:    0.0000    constr:    0.0000
     atom:    3    charge:   12.6017    magn:   -4.2303    constr:    0.0000
     atom:    4    charge:    5.9720    magn:    0.0000    constr:    0.0000

     total cpu time spent up to now is       73.2 secs

     total energy              =    -486.56502947 Ry
     Harris-Foulkes estimate   =    -486.56502908 Ry
     estimated scf accuracy    <       0.00000068 Ry

     total magnetization       =    -0.00 Bohr mag/cell
     absolute magnetization    =     9.42 Bohr mag/cell

     iteration #  9     ecut=    41.00 Ry     beta=0.30
     Davidson diagonalization with overlap
     ethr =  1.61E-09,  avg # of iterations =  3.7

     negative rho (up, down):  3.193E-04 3.193E-04

     Magnetic moment per site:
     atom:    1    charge:   12.6015    magn:    4.2303    constr:    0.0000
     atom:    2    charge:    5.9720    magn:    0.0000    constr:    0.0000
     atom:    3    charge:   12.6015    magn:   -4.2303    constr:    0.0000
     atom:    4    charge:    5.9720    magn:    0.0000    constr:    0.0000

     total cpu time spent up to now is       84.1 secs

     total energy              =    -486.56502979 Ry
     Harris-Foulkes estimate   =    -486.56502986 Ry
     estimated scf accuracy    <       0.00000053 Ry

     total magnetization       =     0.00 Bohr mag/cell
     absolute magnetization    =     9.42 Bohr mag/cell

     iteration # 10     ecut=    41.00 Ry     beta=0.30
     Davidson diagonalization with overlap
     ethr =  1.26E-09,  avg # of iterations =  2.9

     negative rho (up, down):  3.193E-04 3.193E-04

     Magnetic moment per site:
     atom:    1    charge:   12.6014    magn:    4.2303    constr:    0.0000
     atom:    2    charge:    5.9719    magn:    0.0000    constr:    0.0000
     atom:    3    charge:   12.6014    magn:   -4.2303    constr:    0.0000
     atom:    4    charge:    5.9719    magn:    0.0000    constr:    0.0000

     total cpu time spent up to now is       93.2 secs

     End of self-consistent calculation
 --- enter write_ns ---
 LDA+U parameters:
U( 1)     =  3.00000000
alpha( 1) =  0.00000000
U( 2)     =  3.00000000
alpha( 2) =  0.00000000
atom    1   Tr[ns(na)] (up, down, total) =   4.98550  0.49921  5.48471
   spin  1
    eigenvalues: 
  0.996  0.996  0.997  0.998  0.998
    eigenvectors:
  0.200  0.626  0.000  0.145  0.029
  0.116  0.000  0.333  0.006  0.545
  0.030  0.086  0.333  0.362  0.189
  0.626  0.200  0.000  0.029  0.145
  0.028  0.088  0.333  0.459  0.092
    occupations:
  0.997 -0.000 -0.000 -0.000 -0.000
 -0.000  0.997 -0.000 -0.000  0.000
 -0.000 -0.000  0.997  0.000  0.000
 -0.000 -0.000  0.000  0.997 -0.000
 -0.000  0.000  0.000 -0.000  0.997
   spin  2
    eigenvalues: 
  0.056  0.057  0.057  0.165  0.165
    eigenvectors:
  0.000  0.001  0.000  0.079  0.920
  0.333  0.166  0.501  0.000  0.000
  0.333  0.167  0.499  0.000  0.000
  0.000  0.000  0.001  0.920  0.079
  0.333  0.666  0.000  0.000  0.000
    occupations:
  0.165  0.001  0.001 -0.000  0.002
  0.001  0.056 -0.000  0.002  0.000
  0.001 -0.000  0.056 -0.002  0.000
 -0.000  0.002 -0.002  0.165 -0.000
  0.002  0.000  0.000 -0.000  0.056
atomic mag. moment =     4.486291
atom    3   Tr[ns(na)] (up, down, total) =   0.49921  4.98550  5.48471
   spin  1
    eigenvalues: 
  0.056  0.057  0.057  0.165  0.165
    eigenvectors:
  0.000  0.001  0.000  0.133  0.867
  0.333  0.315  0.351  0.000  0.000
  0.333  0.054  0.612  0.000  0.000
  0.000  0.000  0.001  0.867  0.133
  0.333  0.630  0.036  0.000  0.000
    occupations:
  0.165  0.001  0.001 -0.000  0.002
  0.001  0.056 -0.000  0.002  0.000
  0.001 -0.000  0.056 -0.002  0.000
 -0.000  0.002 -0.002  0.165 -0.000
  0.002  0.000  0.000 -0.000  0.056
   spin  2
    eigenvalues: 
  0.996  0.996  0.997  0.998  0.998
    eigenvectors:
  0.228  0.598  0.000  0.144  0.030
  0.116  0.000  0.333  0.005  0.546
  0.026  0.090  0.333  0.365  0.186
  0.598  0.228  0.000  0.030  0.144
  0.032  0.084  0.333  0.456  0.095
    occupations:
  0.997 -0.000 -0.000 -0.000 -0.000
 -0.000  0.997 -0.000 -0.000  0.000
 -0.000 -0.000  0.997  0.000  0.000
 -0.000 -0.000  0.000  0.997 -0.000
 -0.000  0.000  0.000 -0.000  0.997
atomic mag. moment =    -4.486291
N of occupied +U levels =   10.969427
 --- exit write_ns ---

 ------ SPIN UP ------------


          k = 0.0000 0.0000 0.0000 (  1297 PWs)   bands (ev):

   -68.9467 -63.8128 -37.8236 -37.7934 -37.7934 -32.7998 -32.7730 -32.7730
    -6.8281  -5.8595   4.7509   6.5439   6.5439   8.3081   8.3081   8.8949
     9.4709   9.4709   9.4727  10.7350  10.7350  12.6439  15.3571  15.4028
    15.4028

          k =-0.1021-0.1021 0.3062 (  1351 PWs)   bands (ev):

   -68.9454 -63.8119 -37.8217 -37.8042 -37.7961 -32.7979 -32.7868 -32.7764
    -6.6285  -5.8651   5.1659   6.4294   6.6763   7.4413   8.0217   8.5770
     8.8329   9.3694   9.5493  10.8071  10.8484  14.0305  15.1237  15.4793
    15.5701

          k =-0.2041-0.2041 0.6124 (  1355 PWs)   bands (ev):

   -68.9444 -63.8087 -37.8250 -37.8180 -37.8012 -32.8152 -32.7942 -32.7832
    -6.2281  -5.8426   5.7405   5.9101   6.5995   6.7378   7.7809   8.0042
     8.4269   9.2886   9.5787  10.7201  11.0269  14.6630  15.4529  15.8447
    15.9348

          k = 0.3062 0.3062-0.9186 (  1368 PWs)   bands (ev):

   -68.9446 -63.8065 -37.8349 -37.8160 -37.8037 -32.8297 -32.7923 -32.7867
    -6.0573  -5.7831   5.2863   6.1635   6.3295   6.6519   7.7003   8.2616
     8.3591   8.9143   9.5191  10.8426  11.1445  14.4801  15.9303  16.1194
    16.1909

          k =-0.2041 0.2041 0.2041 (  1339 PWs)   bands (ev):

   -68.9454 -63.8119 -37.8218 -37.8043 -37.7961 -32.7979 -32.7868 -32.7763
    -6.6072  -5.8908   5.2379   6.4024   6.7197   7.4253   7.9959   8.6362
     8.6748   9.3196   9.3533  10.9864  11.0449  14.1059  15.0449  15.5119
    15.5832

          k =-0.3062 0.1021 0.5103 (  1346 PWs)   bands (ev):

   -68.9440 -63.8102 -37.8192 -37.8179 -37.8024 -32.8052 -32.7949 -32.7836
    -6.2918  -5.8925   5.7408   6.2441   6.4556   7.0118   7.2440   8.2041
     8.6822   9.3358   9.6176  10.6100  11.0251  15.1138  15.2685  15.3378
    15.9798

          k = 0.2041 0.6124-1.0206 (  1352 PWs)   bands (ev):

   -68.9433 -63.8077 -37.8302 -37.8163 -37.8099 -32.8218 -32.7932 -32.7918
    -6.0258  -5.8165   5.6509   5.8198   6.4192   7.0582   7.2308   7.5544
     8.8833   9.1426   9.5967  10.6726  10.9244  14.9583  15.6737  15.9386
    16.1546

          k = 0.1021 0.5103-0.7144 (  1360 PWs)   bands (ev):

   -68.9434 -63.8077 -37.8302 -37.8163 -37.8099 -32.8219 -32.7934 -32.7917
    -6.0072  -5.8368   5.5439   6.0956   6.4210   6.9561   7.2271   7.4350
     8.8888   9.1562   9.5995  10.6192  11.0095  14.9441  15.7170  15.8567
    16.1414

          k =-0.0000 0.4082-0.4082 (  1344 PWs)   bands (ev):

   -68.9441 -63.8100 -37.8190 -37.8179 -37.8024 -32.8053 -32.7950 -32.7836
    -6.3196  -5.8627   5.8193   6.3031   6.3082   7.0394   7.2462   8.0970
     8.6918   9.3246   9.7087  10.5382  11.1132  15.1321  15.2853  15.3497
    15.9866

          k =-0.4082 0.4082 0.4082 (  1338 PWs)   bands (ev):

   -68.9436 -63.8097 -37.8253 -37.8186 -37.8014 -32.8146 -32.7932 -32.7830
    -6.1260  -5.9490   5.4983   6.1096   6.5685   6.7916   7.8442   7.9483
     8.5382   9.2190   9.3234  11.1101  11.1347  14.6990  15.6272  15.9397
    16.1937

          k = 0.1021 0.9186-1.1227 (  1356 PWs)   bands (ev):

   -68.9426 -63.8086 -37.8306 -37.8169 -37.8099 -32.8212 -32.7931 -32.7910
    -5.9345  -5.9072   5.2238   6.1811   6.6219   6.8182   7.0510   7.9906
     8.9015   9.1461   9.3107  10.8864  11.0407  14.9919  15.6121  16.0102
    16.1855

          k = 0.0000 0.8165-0.8165 (  1362 PWs)   bands (ev):

   -68.9420 -63.8080 -37.8242 -37.8239 -37.8158 -32.8112 -32.8109 -32.7904
    -5.8628  -5.8628   5.7203   6.1219   6.1278   6.7647   6.9858   7.5165
     8.9063   9.3009   9.4263  10.7393  10.9556  15.5613  15.5787  15.6770
    16.2008

          k = 0.6124-0.6124-0.6124 (  1344 PWs)   bands (ev):

   -68.9431 -63.8084 -37.8356 -37.8172 -37.8039 -32.8286 -32.7906 -32.7864
    -5.9766  -5.8595   4.7647   6.2593   6.6414   6.6428   7.9299   8.4413
     8.4420   8.9132   9.3513  10.9866  11.0944  14.7052  16.0920  16.1393
    16.4687

          k = 0.1021 0.1021 0.1021 (  1346 PWs)   bands (ev):

   -68.9470 -63.8125 -37.8235 -37.7934 -37.7934 -32.7999 -32.7731 -32.7731
    -6.7703  -5.9326   4.9378   6.5777   6.5777   8.3129   8.3129   8.6035
     9.2721   9.2798   9.2798  10.9224  10.9224  13.1414  15.2141  15.3882
    15.3882

          k =-0.0000-0.0000 0.4082 (  1350 PWs)   bands (ev):

   -68.9457 -63.8116 -37.8217 -37.8043 -37.7961 -32.7980 -32.7867 -32.7764
    -6.5556  -5.9509   5.3334   6.4479   6.6940   7.3247   8.0099   8.4775
     8.6550   9.5621   9.7244  10.4839  10.7593  14.3293  15.1809  15.4025
    15.5538

          k = 0.5103 0.5103-1.1227 (  1360 PWs)   bands (ev):

   -68.9443 -63.8089 -37.8251 -37.8181 -37.8012 -32.8150 -32.7939 -32.7832
    -6.2109  -5.8589   5.4634   5.9395   6.7202   6.7993   8.0405   8.0502
     8.3449   9.3330   9.7848  10.3367  10.8949  14.7662  15.3136  15.8193
    15.9377

          k = 0.4082 0.4082-0.8165 (  1352 PWs)   bands (ev):

   -68.9442 -63.8070 -37.8351 -37.8163 -37.8037 -32.8294 -32.7919 -32.7866
    -6.0418  -5.7975   5.1227   6.1006   6.5671   6.6492   7.7193   8.2906
     8.3790   8.9141   9.4949  10.8957  11.1051  14.5275  15.9590  16.1260
    16.1945

          k = 0.3062 0.3062-0.5103 (  1353 PWs)   bands (ev):

   -68.9441 -63.8091 -37.8251 -37.8182 -37.8013 -32.8150 -32.7938 -32.7831
    -6.1964  -5.8769   5.7338   6.0836   6.4121   6.7739   7.7216   7.9528
     8.4928   9.2356   9.4054  11.0601  11.1318  14.6217  15.6373  15.9339
    15.9442

          k =-0.1021 0.3062 0.3062 (  1347 PWs)   bands (ev):

   -68.9456 -63.8117 -37.8218 -37.8043 -37.7961 -32.7979 -32.7867 -32.7763
    -6.4961  -6.0191   5.5237   6.3419   6.7881   7.3360   7.9482   8.2764
     8.6257   9.2054   9.5910  10.7663  11.2025  14.6221  15.0013  15.4743
    15.5800

          k = 0.4082 0.8165-1.2247 (  1345 PWs)   bands (ev):

   -68.9439 -63.8104 -37.8194 -37.8181 -37.8024 -32.8049 -32.7945 -32.7837
    -6.2175  -5.9707   5.6460   6.1302   6.6771   7.0311   7.2131   8.3971
     8.6447   9.2641   9.6227  10.5141  10.9914  15.1052  15.2630  15.3562
    15.9672

          k = 0.3062 0.7144-0.9186 (  1352 PWs)   bands (ev):

   -68.9429 -63.8083 -37.8304 -37.8167 -37.8099 -32.8214 -32.7931 -32.7914
    -6.0163  -5.8241   5.4205   5.8650   6.4751   7.0308   7.2058   7.8757
     8.8621   9.1344   9.4659  10.8011  10.9218  14.9884  15.6269  16.0358
    16.1203

          k = 0.2041 0.6124-0.6124 (  1359 PWs)   bands (ev):

   -68.9430 -63.8081 -37.8304 -37.8166 -37.8099 -32.8215 -32.7933 -32.7913
    -5.9650  -5.8787   5.3546   6.2570   6.5268   6.8183   7.0950   7.6914
     8.9054   9.1593   9.4487  10.7555  11.0458  14.9547  15.6788  15.9106
    16.1523

          k = 0.9186-0.7144-0.7144 (  1352 PWs)   bands (ev):

   -68.9435 -63.8099 -37.8255 -37.8188 -37.8013 -32.8144 -32.7930 -32.7830
    -6.0781  -5.9960   5.3303   5.9967   6.7713   6.8276   7.9981   8.0170
     8.5354   9.2544   9.3659  10.8864  10.9854  14.8174  15.5006  15.9228
    15.9444

          k = 0.8165-0.8165-0.4082 (  1352 PWs)   bands (ev):

   -68.9426 -63.8087 -37.8307 -37.8170 -37.8099 -32.8211 -32.7931 -32.7910
    -5.9821  -5.8579   5.2390   6.0137   6.5563   6.9399   7.1310   8.0910
     8.8481   9.1341   9.3350  10.8501  11.0334  15.0116  15.5940  16.0645
    16.1475

          k = 0.7144-0.9186-0.1021 (  1358 PWs)   bands (ev):

   -68.9420 -63.8080 -37.8242 -37.8239 -37.8158 -32.8113 -32.8109 -32.7904
    -5.8630  -5.8626   5.7217   6.0840   6.1674   6.7566   6.9919   7.5154
     8.9063   9.3073   9.4192  10.7422  10.9536  15.5474  15.5937  15.6776
    16.1932

          k = 0.7144-0.5103-0.5103 (  1352 PWs)   bands (ev):

   -68.9435 -63.8079 -37.8354 -37.8169 -37.8038 -32.8289 -32.7911 -32.7865
    -6.0036  -5.8336   4.8690   6.1790   6.6440   6.6805   7.8479   8.3677
     8.4201   8.9136   9.4155  11.0216  11.0262  14.6375  16.0394  16.1354
    16.2294

          k = 0.2041 0.2041 0.2041 (  1325 PWs)   bands (ev):

   -68.9476 -63.8118 -37.8233 -37.7934 -37.7934 -32.8003 -32.7731 -32.7731
    -6.6083  -6.1247   5.4298   6.6514   6.6514   7.7837   8.3243   8.3243
     8.9737   8.9737   9.1501  11.2153  11.2153  14.1184  15.0062  15.3583
    15.3583

          k = 0.7144 0.7144-1.3268 (  1346 PWs)   bands (ev):

   -68.9459 -63.8114 -37.8217 -37.8043 -37.7960 -32.7980 -32.7867 -32.7764
    -6.4043  -6.1194   5.6796   6.2904   6.7586   7.3068   7.9669   8.2640
     8.5063   9.3695   9.8365  10.3990  10.9580  14.6868  15.1457  15.3803
    15.5505

          k = 0.6124 0.6124-1.0206 (  1357 PWs)   bands (ev):

   -68.9438 -63.8095 -37.8254 -37.8185 -37.8013 -32.8146 -32.7934 -32.7831
    -6.1507  -5.9208   5.3141   5.9429   6.7361   6.9036   8.0484   8.1583
     8.4008   9.3153   9.6072  10.4782  10.8750  14.8403  15.3474  15.8299
    15.9420

          k = 1.2247-0.8165-0.8165 (  1337 PWs)   bands (ev):

   -68.9458 -63.8115 -37.8218 -37.8044 -37.7961 -32.7979 -32.7866 -32.7764
    -6.3203  -6.2077   5.9106   6.0939   6.8100   7.3601   7.9302   8.0593
     8.5520   9.2119   9.7786  10.5274  11.1603  14.9160  15.0622  15.4131
    15.5635

          k = 1.1227-0.9186-0.5103 (  1350 PWs)   bands (ev):

   -68.9438 -63.8105 -37.8195 -37.8182 -37.8024 -32.8048 -32.7944 -32.7837
    -6.1490  -6.0411   5.6134   6.0722   6.7654   7.0819   7.1845   8.4922
     8.6072   9.1970   9.7208  10.3431  11.0327  15.1315  15.2630  15.3795
    15.9610

          k =-0.3062-0.3062-0.3062 (  1340 PWs)   bands (ev):

   -68.9478 -63.8115 -37.8232 -37.7934 -37.7934 -32.8004 -32.7732 -32.7732
    -6.4003  -6.3477   5.8317   6.6920   6.6920   7.2314   8.3320   8.3320
     8.8374   8.8374   9.1199  11.3408  11.3408  14.7087  15.0323  15.3428
    15.3428

 ------ SPIN DOWN ----------


          k = 0.0000 0.0000 0.0000 (  1297 PWs)   bands (ev):

   -68.9467 -63.8128 -37.8236 -37.7934 -37.7934 -32.7998 -32.7730 -32.7730
    -6.8281  -5.8595   4.7509   6.5439   6.5439   8.3080   8.3080   8.8948
     9.4709   9.4709   9.4727  10.7350  10.7350  12.6439  15.3571  15.4028
    15.4028

          k =-0.1021-0.1021 0.3062 (  1351 PWs)   bands (ev):

   -68.9454 -63.8119 -37.8218 -37.8043 -37.7961 -32.7979 -32.7868 -32.7764
    -6.6285  -5.8651   5.1659   6.4294   6.6763   7.4413   8.0217   8.5770
     8.8329   9.3694   9.5493  10.8071  10.8484  14.0305  15.1237  15.4793
    15.5701

          k =-0.2041-0.2041 0.6124 (  1355 PWs)   bands (ev):

   -68.9444 -63.8087 -37.8250 -37.8180 -37.8012 -32.8152 -32.7942 -32.7832
    -6.2281  -5.8426   5.7405   5.9101   6.5995   6.7378   7.7809   8.0042
     8.4268   9.2886   9.5787  10.7201  11.0269  14.6630  15.4529  15.8447
    15.9348

          k = 0.3062 0.3062-0.9186 (  1368 PWs)   bands (ev):

   -68.9446 -63.8065 -37.8349 -37.8160 -37.8037 -32.8297 -32.7923 -32.7867
    -6.0573  -5.7831   5.2863   6.1635   6.3295   6.6518   7.7003   8.2616
     8.3591   8.9143   9.5191  10.8426  11.1445  14.4801  15.9303  16.1194
    16.1909

          k =-0.2041 0.2041 0.2041 (  1339 PWs)   bands (ev):

   -68.9454 -63.8119 -37.8218 -37.8043 -37.7961 -32.7979 -32.7868 -32.7763
    -6.6072  -5.8908   5.2379   6.4024   6.7197   7.4253   7.9959   8.6362
     8.6748   9.3196   9.3533  10.9864  11.0449  14.1059  15.0450  15.5119
    15.5832

          k =-0.3062 0.1021 0.5103 (  1346 PWs)   bands (ev):

   -68.9440 -63.8102 -37.8192 -37.8179 -37.8024 -32.8052 -32.7949 -32.7836
    -6.2918  -5.8925   5.7408   6.2441   6.4556   7.0118   7.2440   8.2041
     8.6822   9.3358   9.6176  10.6100  11.0251  15.1139  15.2685  15.3378
    15.9798

          k = 0.2041 0.6124-1.0206 (  1352 PWs)   bands (ev):

   -68.9433 -63.8077 -37.8302 -37.8163 -37.8099 -32.8218 -32.7932 -32.7918
    -6.0258  -5.8165   5.6509   5.8198   6.4192   7.0582   7.2308   7.5544
     8.8833   9.1425   9.5967  10.6726  10.9244  14.9583  15.6737  15.9386
    16.1546

          k = 0.1021 0.5103-0.7144 (  1360 PWs)   bands (ev):

   -68.9434 -63.8077 -37.8302 -37.8163 -37.8099 -32.8219 -32.7934 -32.7917
    -6.0072  -5.8368   5.5439   6.0956   6.4210   6.9561   7.2271   7.4350
     8.8888   9.1562   9.5995  10.6192  11.0095  14.9441  15.7170  15.8567
    16.1414

          k =-0.0000 0.4082-0.4082 (  1344 PWs)   bands (ev):

   -68.9441 -63.8100 -37.8191 -37.8179 -37.8024 -32.8053 -32.7950 -32.7836
    -6.3196  -5.8627   5.8193   6.3031   6.3082   7.0394   7.2462   8.0970
     8.6918   9.3246   9.7087  10.5382  11.1132  15.1321  15.2853  15.3497
    15.9866

          k =-0.4082 0.4082 0.4082 (  1338 PWs)   bands (ev):

   -68.9436 -63.8097 -37.8253 -37.8186 -37.8014 -32.8146 -32.7932 -32.7830
    -6.1260  -5.9490   5.4983   6.1096   6.5684   6.7916   7.8442   7.9483
     8.5382   9.2190   9.3234  11.1101  11.1347  14.6990  15.6272  15.9397
    16.1937

          k = 0.1021 0.9186-1.1227 (  1356 PWs)   bands (ev):

   -68.9426 -63.8086 -37.8306 -37.8169 -37.8099 -32.8212 -32.7931 -32.7910
    -5.9345  -5.9072   5.2238   6.1811   6.6219   6.8182   7.0510   7.9906
     8.9015   9.1461   9.3107  10.8864  11.0407  14.9919  15.6121  16.0102
    16.1855

          k = 0.0000 0.8165-0.8165 (  1362 PWs)   bands (ev):

   -68.9420 -63.8080 -37.8242 -37.8239 -37.8158 -32.8112 -32.8109 -32.7904
    -5.8628  -5.8627   5.7203   6.1219   6.1278   6.7647   6.9858   7.5165
     8.9063   9.3009   9.4263  10.7393  10.9556  15.5614  15.5787  15.6770
    16.2008

          k = 0.6124-0.6124-0.6124 (  1344 PWs)   bands (ev):

   -68.9431 -63.8084 -37.8356 -37.8172 -37.8039 -32.8286 -32.7906 -32.7864
    -5.9766  -5.8595   4.7647   6.2593   6.6414   6.6428   7.9299   8.4413
     8.4420   8.9132   9.3513  10.9866  11.0944  14.7052  16.0920  16.1393
    16.4776

          k = 0.1021 0.1021 0.1021 (  1346 PWs)   bands (ev):

   -68.9470 -63.8125 -37.8235 -37.7934 -37.7934 -32.7999 -32.7731 -32.7731
    -6.7702  -5.9326   4.9378   6.5777   6.5777   8.3129   8.3129   8.6035
     9.2721   9.2798   9.2798  10.9224  10.9224  13.1414  15.2141  15.3882
    15.3882

          k =-0.0000-0.0000 0.4082 (  1350 PWs)   bands (ev):

   -68.9457 -63.8116 -37.8217 -37.8043 -37.7961 -32.7980 -32.7867 -32.7764
    -6.5556  -5.9509   5.3334   6.4479   6.6940   7.3247   8.0099   8.4775
     8.6551   9.5621   9.7244  10.4839  10.7593  14.3293  15.1809  15.4025
    15.5538

          k = 0.5103 0.5103-1.1227 (  1360 PWs)   bands (ev):

   -68.9443 -63.8089 -37.8251 -37.8181 -37.8012 -32.8150 -32.7939 -32.7832
    -6.2109  -5.8589   5.4634   5.9395   6.7202   6.7993   8.0405   8.0502
     8.3448   9.3330   9.7848  10.3366  10.8949  14.7662  15.3136  15.8193
    15.9377

          k = 0.4082 0.4082-0.8165 (  1352 PWs)   bands (ev):

   -68.9442 -63.8070 -37.8351 -37.8163 -37.8037 -32.8294 -32.7919 -32.7866
    -6.0418  -5.7975   5.1227   6.1006   6.5671   6.6492   7.7193   8.2906
     8.3790   8.9140   9.4949  10.8956  11.1051  14.5275  15.9590  16.1260
    16.1945

          k = 0.3062 0.3062-0.5103 (  1353 PWs)   bands (ev):

   -68.9441 -63.8091 -37.8251 -37.8182 -37.8013 -32.8150 -32.7938 -32.7831
    -6.1964  -5.8769   5.7338   6.0836   6.4121   6.7739   7.7216   7.9528
     8.4928   9.2356   9.4054  11.0601  11.1318  14.6218  15.6373  15.9339
    15.9442

          k =-0.1021 0.3062 0.3062 (  1347 PWs)   bands (ev):

   -68.9456 -63.8117 -37.8218 -37.8043 -37.7961 -32.7979 -32.7867 -32.7763
    -6.4961  -6.0191   5.5237   6.3419   6.7881   7.3360   7.9482   8.2764
     8.6257   9.2054   9.5910  10.7663  11.2025  14.6221  15.0013  15.4743
    15.5800

          k = 0.4082 0.8165-1.2247 (  1345 PWs)   bands (ev):

   -68.9439 -63.8104 -37.8194 -37.8181 -37.8024 -32.8049 -32.7945 -32.7837
    -6.2175  -5.9707   5.6460   6.1302   6.6771   7.0311   7.2131   8.3971
     8.6447   9.2641   9.6227  10.5141  10.9914  15.1052  15.2630  15.3563
    15.9672

          k = 0.3062 0.7144-0.9186 (  1352 PWs)   bands (ev):

   -68.9429 -63.8083 -37.8305 -37.8167 -37.8099 -32.8214 -32.7931 -32.7914
    -6.0163  -5.8241   5.4205   5.8650   6.4751   7.0308   7.2058   7.8757
     8.8621   9.1344   9.4659  10.8011  10.9218  14.9884  15.6269  16.0358
    16.1204

          k = 0.2041 0.6124-0.6124 (  1359 PWs)   bands (ev):

   -68.9430 -63.8081 -37.8304 -37.8166 -37.8099 -32.8215 -32.7933 -32.7913
    -5.9649  -5.8787   5.3546   6.2570   6.5268   6.8183   7.0950   7.6914
     8.9054   9.1593   9.4487  10.7554  11.0458  14.9547  15.6788  15.9106
    16.1523

          k = 0.9186-0.7144-0.7144 (  1352 PWs)   bands (ev):

   -68.9435 -63.8099 -37.8255 -37.8188 -37.8014 -32.8144 -32.7930 -32.7830
    -6.0781  -5.9960   5.3303   5.9967   6.7713   6.8276   7.9981   8.0170
     8.5354   9.2544   9.3659  10.8864  10.9854  14.8174  15.5006  15.9228
    15.9444

          k = 0.8165-0.8165-0.4082 (  1352 PWs)   bands (ev):

   -68.9426 -63.8087 -37.8307 -37.8170 -37.8099 -32.8211 -32.7931 -32.7910
    -5.9821  -5.8579   5.2390   6.0137   6.5563   6.9399   7.1310   8.0910
     8.8480   9.1341   9.3350  10.8501  11.0334  15.0116  15.5940  16.0645
    16.1474

          k = 0.7144-0.9186-0.1021 (  1358 PWs)   bands (ev):

   -68.9420 -63.8080 -37.8242 -37.8239 -37.8158 -32.8113 -32.8109 -32.7904
    -5.8629  -5.8626   5.7217   6.0840   6.1674   6.7566   6.9919   7.5154
     8.9063   9.3073   9.4192  10.7422  10.9536  15.5474  15.5937  15.6776
    16.1932

          k = 0.7144-0.5103-0.5103 (  1352 PWs)   bands (ev):

   -68.9435 -63.8079 -37.8354 -37.8169 -37.8038 -32.8289 -32.7911 -32.7865
    -6.0036  -5.8336   4.8690   6.1790   6.6440   6.6805   7.8479   8.3677
     8.4201   8.9136   9.4155  11.0216  11.0262  14.6375  16.0394  16.1354
    16.2294

          k = 0.2041 0.2041 0.2041 (  1325 PWs)   bands (ev):

   -68.9476 -63.8118 -37.8233 -37.7934 -37.7934 -32.8003 -32.7731 -32.7731
    -6.6083  -6.1247   5.4298   6.6514   6.6514   7.7837   8.3243   8.3243
     8.9737   8.9737   9.1501  11.2153  11.2153  14.1184  15.0062  15.3583
    15.3583

          k = 0.7144 0.7144-1.3268 (  1346 PWs)   bands (ev):

   -68.9459 -63.8114 -37.8217 -37.8044 -37.7961 -32.7980 -32.7867 -32.7764
    -6.4043  -6.1194   5.6796   6.2904   6.7586   7.3068   7.9669   8.2640
     8.5063   9.3695   9.8365  10.3990  10.9580  14.6868  15.1457  15.3803
    15.5505

          k = 0.6124 0.6124-1.0206 (  1357 PWs)   bands (ev):

   -68.9438 -63.8095 -37.8254 -37.8185 -37.8013 -32.8146 -32.7934 -32.7831
    -6.1507  -5.9208   5.3141   5.9429   6.7361   6.9036   8.0484   8.1583
     8.4008   9.3153   9.6072  10.4782  10.8750  14.8403  15.3474  15.8299
    15.9420

          k = 1.2247-0.8165-0.8165 (  1337 PWs)   bands (ev):

   -68.9458 -63.8115 -37.8218 -37.8044 -37.7961 -32.7979 -32.7866 -32.7764
    -6.3203  -6.2077   5.9106   6.0939   6.8099   7.3601   7.9302   8.0593
     8.5520   9.2119   9.7786  10.5274  11.1603  14.9160  15.0622  15.4131
    15.5635

          k = 1.1227-0.9186-0.5103 (  1350 PWs)   bands (ev):

   -68.9438 -63.8105 -37.8195 -37.8182 -37.8024 -32.8048 -32.7944 -32.7837
    -6.1490  -6.0411   5.6134   6.0722   6.7654   7.0819   7.1845   8.4922
     8.6072   9.1970   9.7208  10.3431  11.0327  15.1315  15.2630  15.3795
    15.9610

          k =-0.3062-0.3062-0.3062 (  1340 PWs)   bands (ev):

   -68.9478 -63.8115 -37.8232 -37.7934 -37.7934 -32.8004 -32.7732 -32.7732
    -6.4003  -6.3477   5.8316   6.6920   6.6920   7.2314   8.3319   8.3319
     8.8374   8.8374   9.1199  11.3408  11.3408  14.7087  15.0323  15.3428
    15.3428

     the Fermi energy is    12.0482 ev

!    total energy              =    -486.56503000 Ry
     Harris-Foulkes estimate   =    -486.56502988 Ry
     estimated scf accuracy    <          7.8E-09 Ry

     The total energy is the sum of the following terms:

     one-electron contribution =    -223.73223251 Ry
     hartree contribution      =     132.92794067 Ry
     xc contribution           =     -67.46808934 Ry
     ewald contribution        =    -328.39176810 Ry
     Hubbard energy            =       0.09911928 Ry
     smearing contrib. (-TS)   =      -0.00000000 Ry

     total magnetization       =    -0.00 Bohr mag/cell
     absolute magnetization    =     9.42 Bohr mag/cell

     convergence has been achieved in  10 iterations

     Forces acting on atoms (Ry/au):


     negative rho (up, down):  3.193E-04 3.193E-04
     atom    1 type  1   force =  -0.51528179E-29 -0.51528179E-29  0.51528179E-29
     atom    2 type  3   force =   0.18387548E-06  0.18387548E-06  0.18387548E-06
     atom    3 type  2   force =   0.00000000E+00  0.00000000E+00  0.00000000E+00
     atom    4 type  3   force =  -0.18387548E-06 -0.18387548E-06 -0.18387548E-06

     Total force =     0.000000     Total SCF correction =     0.000006
     SCF correction compared to forces is large: reduce conv_thr to get better values


     entering subroutine stress ...


     negative rho (up, down):  3.193E-04 3.193E-04
          total   stress  (Ry/bohr**3)                   (kbar)     P=  -29.91
  -0.0002032998  -0.0000710611  -0.0000710611        -29.91    -10.45    -10.45
  -0.0000710611  -0.0002032998  -0.0000710611        -10.45    -29.91    -10.45
  -0.0000710611  -0.0000710611  -0.0002032998        -10.45    -10.45    -29.91


     Writing output data file mno_afmG.scf.in.fmcell.save

     init_run     :      4.20s CPU      4.14s WALL (       1 calls)
     electrons    :     89.98s CPU     88.85s WALL (       1 calls)
     forces       :      1.74s CPU      1.64s WALL (       1 calls)
     stress       :      8.42s CPU      8.09s WALL (       1 calls)

     Called by init_run:
     wfcinit      :      3.61s CPU      3.53s WALL (       1 calls)
     potinit      :      0.11s CPU      0.12s WALL (       1 calls)

     Called by electrons:
     c_bands      :     77.43s CPU     76.36s WALL (      10 calls)
     sum_band     :     11.30s CPU     11.22s WALL (      10 calls)
     v_of_rho     :      0.69s CPU      0.70s WALL (      11 calls)
     newd         :      0.37s CPU      0.37s WALL (      11 calls)
     mix_rho      :      0.23s CPU      0.23s WALL (      10 calls)

     Called by c_bands:
     init_us_2    :      1.00s CPU      0.97s WALL (    2176 calls)
     cegterg      :     75.87s CPU     74.71s WALL (     640 calls)

     Called by *egterg:
     h_psi        :     57.13s CPU     56.22s WALL (    2809 calls)
     s_psi        :      3.74s CPU      2.71s WALL (    3513 calls)
     g_psi        :      0.10s CPU      0.09s WALL (    2105 calls)
     cdiaghg      :     11.00s CPU     11.64s WALL (    2745 calls)

     Called by h_psi:
     add_vuspsi   :      2.92s CPU      1.96s WALL (    2809 calls)
     vhpsi        :      1.60s CPU      1.65s WALL (    2809 calls)

     General routines
     calbec       :     10.91s CPU     10.21s WALL (   18162 calls)
     fft          :      0.28s CPU      0.28s WALL (     375 calls)
     ffts         :      0.16s CPU      0.17s WALL (     249 calls)
     fftw         :     54.57s CPU     55.13s WALL (   99964 calls)
     interpolate  :      0.07s CPU      0.07s WALL (      42 calls)
     davcio       :      0.00s CPU      0.00s WALL (      64 calls)

     Parallel routines
     fft_scatter  :     18.76s CPU     19.28s WALL (  100588 calls)
     Hubbard U routines
     new_ns       :      0.20s CPU      0.20s WALL (      10 calls)
     vhpsi        :      1.60s CPU      1.65s WALL (    2809 calls)
     force_hub    :      0.85s CPU      0.82s WALL (       1 calls)
     stres_hub    :      7.16s CPU      6.86s WALL (       1 calls)

     PWSCF        :  1m45.32s CPU     1m43.85s WALL


   This run was terminated on:  11:20:21  17Aug2017            

=------------------------------------------------------------------------------=
   JOB DONE.
=------------------------------------------------------------------------------=
