
     Program PWSCF v.5.1 starts on 16Aug2017 at 22:31:21 

     This program is part of the open-source Quantum ESPRESSO suite
     for quantum simulation of materials; please cite
         "P. Giannozzi et al., J. Phys.:Condens. Matter 21 395502 (2009);
          URL http://www.quantum-espresso.org", 
     in publications or presentations arising from this work. More details at
     http://www.quantum-espresso.org/quote

     Parallel version (MPI), running on     8 processors
     R & G space division:  proc/nbgrp/npool/nimage =       8
     Reading input from /tmp/mno_fm.scf.in.super.222.02.12259/mno_fm.scf.in.super.222.02.t
Warning: card &IONS ignored
Warning: card   ION_DYNAMICS='BFGS', ignored
Warning: card / ignored
Warning: card &CELL ignored
Warning: card  CELL_DYNAMICS = 'BFGS' ignored
Warning: card / ignored

     Current dimensions of program PWSCF are:
     Max number of different atomic species (ntypx) = 10
     Max number of k-points (npk) =  40000
     Max angular momentum in pseudopotentials (lmaxx) =  3
 kfg - two_fermi_energies  T

     Subspace diagonalization in iterative solution of the eigenvalue problem:
     a serial algorithm will be used


     Parallelization info
     --------------------
     sticks:   dense  smooth     PW     G-vecs:    dense   smooth      PW
     Min         246     204     56                 7264     5421     802
     Max         247     205     57                 7267     5438     805
     Sum        1969    1639    451                58119    43407    6423

     Generating pointlists ...
     new r_m :   0.1396 (alat units)  1.6751 (a.u.) for type    1
     new r_m :   0.1396 (alat units)  1.6751 (a.u.) for type    2


     bravais-lattice index     =            0
     lattice parameter (alat)  =    11.996146938  a.u.
     unit-cell volume          =    1220.7039 (a.u.)^3
     number of atoms/cell      =           16
     number of atomic types    =            2
     number of electrons       =       168.00 (up: 104.00, down:  64.00)
     number of Kohn-Sham states=          125
     kinetic-energy cutoff     =      41.0000  Ry
     charge density cutoff     =     200.0000  Ry
     convergence threshold     =      1.0E-08
     mixing beta               =       0.3000
     number of iterations used =            8  local-TF  mixing
     Exchange-correlation      = SLA  PW   PSX  PSC ( 1  4 10  8 0)
     A smooth kinetic-energy cutoff is imposed at      40.0000 Ry
     height of the smooth step-function =             800.0000 Ry
     width of the smooth step-function  =               1.0000 Ry


     celldm(1)=  11.996147  celldm(2)=   0.000000  celldm(3)=   0.000000
     celldm(4)=   0.000000  celldm(5)=   0.000000  celldm(6)=   0.000000

     crystal axes: (cart. coord. in units of alat)
               a(1) = (   0.707106781187   0.707106781187   0.000000000000 )  
               a(2) = (   0.707106781187   0.000000000000   0.707106781187 )  
               a(3) = (   0.000000000000   0.707106781187   0.707106781187 )  

     reciprocal axes: (cart. coord. in units 2 pi/alat)
               b(1) = (  0.707107  0.707107 -0.707107 )  
               b(2) = (  0.707107 -0.707107  0.707107 )  
               b(3) = ( -0.707107  0.707107  0.707107 )  


     PseudoPot. # 1 for Mn read from file:
     /users/kfg/psuedo/gbrv_1.5/mn.pbesol.UPF
     MD5 check sum: 0716d5f563e6e95a34f9080f4c78c109
     Pseudo is Ultrasoft + core correction, Zval = 15.0
     Generated by new atomic code, or converted to UPF format
     Using radial grid of  859 points,  6 beta functions with: 
                l(1) =   0
                l(2) =   0
                l(3) =   1
                l(4) =   1
                l(5) =   2
                l(6) =   2
     Q(r) pseudized with  8 coefficients,  rinner =    0.950   0.950   0.950
                                                       0.950   0.950

     PseudoPot. # 2 for O  read from file:
     /users/kfg/psuedo/gbrv_1.5/o.pbesol.UPF
     MD5 check sum: 501638753501ef6325af9037351f7734
     Pseudo is Ultrasoft + core correction, Zval =  6.0
     Generated by new atomic code, or converted to UPF format
     Using radial grid of  737 points,  5 beta functions with: 
                l(1) =   0
                l(2) =   0
                l(3) =   1
                l(4) =   1
                l(5) =   2
     Q(r) pseudized with  8 coefficients,  rinner =    0.900   0.900   0.900
                                                       0.900   0.900

     atomic species   valence    mass     pseudopotential
        Mn            15.00    54.90000     Mn( 1.00)
        O              6.00    15.99900     O ( 1.00)

     Starting magnetic structure 
     atomic species   magnetization
        Mn           1.000
        O            0.000


     Simplified LDA+U calculation (l_max = 2) with parameters (eV):
     atomic species    L          U    alpha       J0     beta
        Mn             2     3.0000   0.0000   0.0000   0.0000



     No symmetry found



   Cartesian axes

     site n.     atom                  positions (alat units)
         1           Mn  tau(   1) = (   -0.00085282728   -0.00655109835   -0.00150734727  )
         2           O   tau(   2) = (    0.35926363947    0.35243517489    0.34599000892  )
         3           Mn  tau(   3) = (   -0.00374145308    0.36065332439    0.35279827158  )
         4           O   tau(   4) = (    0.36051751730    0.70540444092    0.70290501650  )
         5           Mn  tau(   5) = (    0.35779167021    0.00828818300    0.35268521903  )
         6           O   tau(   6) = (    0.70628620419    0.34540348185    0.71156984877  )
         7           Mn  tau(   7) = (    0.36065206217    0.34877087230    0.71377887617  )
         8           O   tau(   8) = (    0.70505560245    0.71436052383    1.05539565263  )
         9           Mn  tau(   9) = (    0.35397871018    0.35985995064   -0.00653431451  )
        10           O   tau(  10) = (    0.71427937447    0.70955523249    0.35584665008  )
        11           Mn  tau(  11) = (    0.35371396631    0.71356837419    0.35327155296  )
        12           O   tau(  12) = (    0.70398649259    1.06726028344    0.71309273479  )
        13           Mn  tau(  13) = (    0.71166342036    0.34559097271    0.35689137246  )
        14           O   tau(  14) = (    1.06154453335    0.70351950858    0.71159227776  )
        15           Mn  tau(  15) = (    0.70875865003    0.70751515332    0.71488684453  )
        16           O   tau(  16) = (    1.05633725038    1.05895499931    1.05292379461  )

     number of k points=    72  gaussian smearing, width (Ry)=  0.0100
                       cart. coord. in units 2pi/alat
        k(    1) = (   0.0000000   0.0000000   0.0000000), wk =   0.0156250
        k(    2) = (  -0.1767767   0.1767767   0.1767767), wk =   0.0312500
        k(    3) = (   0.3535534  -0.3535534  -0.3535534), wk =   0.0156250
        k(    4) = (   0.0000000   0.0000000   0.3535534), wk =   0.0312500
        k(    5) = (   0.5303301  -0.5303301  -0.1767767), wk =   0.0312500
        k(    6) = (   0.3535534  -0.3535534   0.0000000), wk =   0.0312500
        k(    7) = (   0.0000000   0.0000000  -0.7071068), wk =   0.0156250
        k(    8) = (   0.0000000   0.3535534  -0.7071068), wk =   0.0312500
        k(    9) = (   0.1767767  -0.1767767   0.1767767), wk =   0.0312500
        k(   10) = (   0.1767767   0.1767767  -0.1767767), wk =   0.0312500
        k(   11) = (  -0.1767767  -0.1767767  -0.1767767), wk =   0.0312500
        k(   12) = (  -0.3535534   0.3535534  -0.3535534), wk =   0.0156250
        k(   13) = (  -0.3535534  -0.3535534   0.3535534), wk =   0.0156250
        k(   14) = (   0.3535534   0.3535534   0.3535534), wk =   0.0156250
        k(   15) = (   0.3535534   0.0000000   0.0000000), wk =   0.0312500
        k(   16) = (   0.0000000   0.3535534   0.0000000), wk =   0.0312500
        k(   17) = (  -0.5303301   0.5303301  -0.1767767), wk =   0.0312500
        k(   18) = (  -0.5303301  -0.5303301   0.1767767), wk =   0.0312500
        k(   19) = (   0.5303301   0.5303301   0.1767767), wk =   0.0312500
        k(   20) = (  -0.1767767   0.5303301   0.5303301), wk =   0.0312500
        k(   21) = (   0.1767767   0.5303301  -0.5303301), wk =   0.0312500
        k(   22) = (  -0.1767767  -0.5303301  -0.5303301), wk =   0.0312500
        k(   23) = (   0.1767767  -0.5303301   0.5303301), wk =   0.0312500
        k(   24) = (  -0.5303301  -0.1767767  -0.5303301), wk =   0.0312500
        k(   25) = (  -0.5303301   0.1767767   0.5303301), wk =   0.0312500
        k(   26) = (   0.5303301  -0.1767767   0.5303301), wk =   0.0312500
        k(   27) = (   0.5303301   0.1767767  -0.5303301), wk =   0.0312500
        k(   28) = (  -0.3535534  -0.3535534   0.0000000), wk =   0.0312500
        k(   29) = (   0.0000000   0.3535534   0.3535534), wk =   0.0312500
        k(   30) = (   0.0000000   0.3535534  -0.3535534), wk =   0.0312500
        k(   31) = (  -0.3535534   0.0000000  -0.3535534), wk =   0.0312500
        k(   32) = (  -0.3535534   0.0000000   0.3535534), wk =   0.0312500
        k(   33) = (  -0.7071068   0.0000000   0.0000000), wk =   0.0156250
        k(   34) = (   0.0000000  -0.7071068   0.0000000), wk =   0.0156250
        k(   35) = (   0.3535534  -0.0000000   0.7071068), wk =   0.0312500
        k(   36) = (   0.0000000  -0.7071068   0.3535534), wk =   0.0312500
        k(   37) = (   0.0000000   0.0000000   0.0000000), wk =   0.0156250
        k(   38) = (  -0.1767767   0.1767767   0.1767767), wk =   0.0312500
        k(   39) = (   0.3535534  -0.3535534  -0.3535534), wk =   0.0156250
        k(   40) = (   0.0000000   0.0000000   0.3535534), wk =   0.0312500
        k(   41) = (   0.5303301  -0.5303301  -0.1767767), wk =   0.0312500
        k(   42) = (   0.3535534  -0.3535534   0.0000000), wk =   0.0312500
        k(   43) = (   0.0000000   0.0000000  -0.7071068), wk =   0.0156250
        k(   44) = (   0.0000000   0.3535534  -0.7071068), wk =   0.0312500
        k(   45) = (   0.1767767  -0.1767767   0.1767767), wk =   0.0312500
        k(   46) = (   0.1767767   0.1767767  -0.1767767), wk =   0.0312500
        k(   47) = (  -0.1767767  -0.1767767  -0.1767767), wk =   0.0312500
        k(   48) = (  -0.3535534   0.3535534  -0.3535534), wk =   0.0156250
        k(   49) = (  -0.3535534  -0.3535534   0.3535534), wk =   0.0156250
        k(   50) = (   0.3535534   0.3535534   0.3535534), wk =   0.0156250
        k(   51) = (   0.3535534   0.0000000   0.0000000), wk =   0.0312500
        k(   52) = (   0.0000000   0.3535534   0.0000000), wk =   0.0312500
        k(   53) = (  -0.5303301   0.5303301  -0.1767767), wk =   0.0312500
        k(   54) = (  -0.5303301  -0.5303301   0.1767767), wk =   0.0312500
        k(   55) = (   0.5303301   0.5303301   0.1767767), wk =   0.0312500
        k(   56) = (  -0.1767767   0.5303301   0.5303301), wk =   0.0312500
        k(   57) = (   0.1767767   0.5303301  -0.5303301), wk =   0.0312500
        k(   58) = (  -0.1767767  -0.5303301  -0.5303301), wk =   0.0312500
        k(   59) = (   0.1767767  -0.5303301   0.5303301), wk =   0.0312500
        k(   60) = (  -0.5303301  -0.1767767  -0.5303301), wk =   0.0312500
        k(   61) = (  -0.5303301   0.1767767   0.5303301), wk =   0.0312500
        k(   62) = (   0.5303301  -0.1767767   0.5303301), wk =   0.0312500
        k(   63) = (   0.5303301   0.1767767  -0.5303301), wk =   0.0312500
        k(   64) = (  -0.3535534  -0.3535534   0.0000000), wk =   0.0312500
        k(   65) = (   0.0000000   0.3535534   0.3535534), wk =   0.0312500
        k(   66) = (   0.0000000   0.3535534  -0.3535534), wk =   0.0312500
        k(   67) = (  -0.3535534   0.0000000  -0.3535534), wk =   0.0312500
        k(   68) = (  -0.3535534   0.0000000   0.3535534), wk =   0.0312500
        k(   69) = (  -0.7071068   0.0000000   0.0000000), wk =   0.0156250
        k(   70) = (   0.0000000  -0.7071068   0.0000000), wk =   0.0156250
        k(   71) = (   0.3535534  -0.0000000   0.7071068), wk =   0.0312500
        k(   72) = (   0.0000000  -0.7071068   0.3535534), wk =   0.0312500

     Dense  grid:    58119 G-vectors     FFT dimensions: (  54,  54,  54)

     Smooth grid:    43407 G-vectors     FFT dimensions: (  50,  50,  50)

     Largest allocated arrays     est. size (Mb)     dimensions
        Kohn-Sham Wavefunctions         1.31 Mb     (     688,  125)
        Atomic Hubbard wavefuncts       0.42 Mb     (     688,   40)
        NL pseudopotentials             2.60 Mb     (     688,  248)
        Each V/rho on FFT grid          0.62 Mb     (   20412,   2)
        Each G-vector array             0.06 Mb     (    7265)
        G-vector shells                 0.00 Mb     (     487)
     Largest temporary arrays     est. size (Mb)     dimensions
        Auxiliary wavefunctions         5.25 Mb     (     688,  500)
        Each subspace H/S matrix        3.81 Mb     (     500,  500)
        Each <psi_i|beta_j> matrix      0.47 Mb     (     248,  125)
        Arrays for rho mixing           2.49 Mb     (   20412,    8)

     Check: negative/imaginary core charge=   -0.000059    0.000000

     Initial potential from superposition of free atoms

     starting charge  163.99935, renormalised to  168.00000
     Number of +U iterations with fixed ns =  0
     Starting occupations:
 --- enter write_ns ---
 LDA+U parameters:
U( 1)     =  3.00000000
alpha( 1) =  0.00000000
atom    1   Tr[ns(na)] (up, down, total) =   5.00000  0.00000  5.00000
   spin  1
    eigenvalues: 
  1.000  1.000  1.000  1.000  1.000
    eigenvectors:
  1.000  0.000  0.000  0.000  0.000
  0.000  1.000  0.000  0.000  0.000
  0.000  0.000  1.000  0.000  0.000
  0.000  0.000  0.000  1.000  0.000
  0.000  0.000  0.000  0.000  1.000
    occupations:
  1.000  0.000  0.000  0.000  0.000
  0.000  1.000  0.000  0.000  0.000
  0.000  0.000  1.000  0.000  0.000
  0.000  0.000  0.000  1.000  0.000
  0.000  0.000  0.000  0.000  1.000
   spin  2
    eigenvalues: 
  0.000  0.000  0.000  0.000  0.000
    eigenvectors:
  1.000  0.000  0.000  0.000  0.000
  0.000  1.000  0.000  0.000  0.000
  0.000  0.000  1.000  0.000  0.000
  0.000  0.000  0.000  1.000  0.000
  0.000  0.000  0.000  0.000  1.000
    occupations:
  0.000  0.000  0.000  0.000  0.000
  0.000  0.000  0.000  0.000  0.000
  0.000  0.000  0.000  0.000  0.000
  0.000  0.000  0.000  0.000  0.000
  0.000  0.000  0.000  0.000  0.000
atomic mag. moment =     5.000000
atom    3   Tr[ns(na)] (up, down, total) =   5.00000  0.00000  5.00000
   spin  1
    eigenvalues: 
  1.000  1.000  1.000  1.000  1.000
    eigenvectors:
  1.000  0.000  0.000  0.000  0.000
  0.000  1.000  0.000  0.000  0.000
  0.000  0.000  1.000  0.000  0.000
  0.000  0.000  0.000  1.000  0.000
  0.000  0.000  0.000  0.000  1.000
    occupations:
  1.000  0.000  0.000  0.000  0.000
  0.000  1.000  0.000  0.000  0.000
  0.000  0.000  1.000  0.000  0.000
  0.000  0.000  0.000  1.000  0.000
  0.000  0.000  0.000  0.000  1.000
   spin  2
    eigenvalues: 
  0.000  0.000  0.000  0.000  0.000
    eigenvectors:
  1.000  0.000  0.000  0.000  0.000
  0.000  1.000  0.000  0.000  0.000
  0.000  0.000  1.000  0.000  0.000
  0.000  0.000  0.000  1.000  0.000
  0.000  0.000  0.000  0.000  1.000
    occupations:
  0.000  0.000  0.000  0.000  0.000
  0.000  0.000  0.000  0.000  0.000
  0.000  0.000  0.000  0.000  0.000
  0.000  0.000  0.000  0.000  0.000
  0.000  0.000  0.000  0.000  0.000
atomic mag. moment =     5.000000
atom    5   Tr[ns(na)] (up, down, total) =   5.00000  0.00000  5.00000
   spin  1
    eigenvalues: 
  1.000  1.000  1.000  1.000  1.000
    eigenvectors:
  1.000  0.000  0.000  0.000  0.000
  0.000  1.000  0.000  0.000  0.000
  0.000  0.000  1.000  0.000  0.000
  0.000  0.000  0.000  1.000  0.000
  0.000  0.000  0.000  0.000  1.000
    occupations:
  1.000  0.000  0.000  0.000  0.000
  0.000  1.000  0.000  0.000  0.000
  0.000  0.000  1.000  0.000  0.000
  0.000  0.000  0.000  1.000  0.000
  0.000  0.000  0.000  0.000  1.000
   spin  2
    eigenvalues: 
  0.000  0.000  0.000  0.000  0.000
    eigenvectors:
  1.000  0.000  0.000  0.000  0.000
  0.000  1.000  0.000  0.000  0.000
  0.000  0.000  1.000  0.000  0.000
  0.000  0.000  0.000  1.000  0.000
  0.000  0.000  0.000  0.000  1.000
    occupations:
  0.000  0.000  0.000  0.000  0.000
  0.000  0.000  0.000  0.000  0.000
  0.000  0.000  0.000  0.000  0.000
  0.000  0.000  0.000  0.000  0.000
  0.000  0.000  0.000  0.000  0.000
atomic mag. moment =     5.000000
atom    7   Tr[ns(na)] (up, down, total) =   5.00000  0.00000  5.00000
   spin  1
    eigenvalues: 
  1.000  1.000  1.000  1.000  1.000
    eigenvectors:
  1.000  0.000  0.000  0.000  0.000
  0.000  1.000  0.000  0.000  0.000
  0.000  0.000  1.000  0.000  0.000
  0.000  0.000  0.000  1.000  0.000
  0.000  0.000  0.000  0.000  1.000
    occupations:
  1.000  0.000  0.000  0.000  0.000
  0.000  1.000  0.000  0.000  0.000
  0.000  0.000  1.000  0.000  0.000
  0.000  0.000  0.000  1.000  0.000
  0.000  0.000  0.000  0.000  1.000
   spin  2
    eigenvalues: 
  0.000  0.000  0.000  0.000  0.000
    eigenvectors:
  1.000  0.000  0.000  0.000  0.000
  0.000  1.000  0.000  0.000  0.000
  0.000  0.000  1.000  0.000  0.000
  0.000  0.000  0.000  1.000  0.000
  0.000  0.000  0.000  0.000  1.000
    occupations:
  0.000  0.000  0.000  0.000  0.000
  0.000  0.000  0.000  0.000  0.000
  0.000  0.000  0.000  0.000  0.000
  0.000  0.000  0.000  0.000  0.000
  0.000  0.000  0.000  0.000  0.000
atomic mag. moment =     5.000000
atom    9   Tr[ns(na)] (up, down, total) =   5.00000  0.00000  5.00000
   spin  1
    eigenvalues: 
  1.000  1.000  1.000  1.000  1.000
    eigenvectors:
  1.000  0.000  0.000  0.000  0.000
  0.000  1.000  0.000  0.000  0.000
  0.000  0.000  1.000  0.000  0.000
  0.000  0.000  0.000  1.000  0.000
  0.000  0.000  0.000  0.000  1.000
    occupations:
  1.000  0.000  0.000  0.000  0.000
  0.000  1.000  0.000  0.000  0.000
  0.000  0.000  1.000  0.000  0.000
  0.000  0.000  0.000  1.000  0.000
  0.000  0.000  0.000  0.000  1.000
   spin  2
    eigenvalues: 
  0.000  0.000  0.000  0.000  0.000
    eigenvectors:
  1.000  0.000  0.000  0.000  0.000
  0.000  1.000  0.000  0.000  0.000
  0.000  0.000  1.000  0.000  0.000
  0.000  0.000  0.000  1.000  0.000
  0.000  0.000  0.000  0.000  1.000
    occupations:
  0.000  0.000  0.000  0.000  0.000
  0.000  0.000  0.000  0.000  0.000
  0.000  0.000  0.000  0.000  0.000
  0.000  0.000  0.000  0.000  0.000
  0.000  0.000  0.000  0.000  0.000
atomic mag. moment =     5.000000
atom   11   Tr[ns(na)] (up, down, total) =   5.00000  0.00000  5.00000
   spin  1
    eigenvalues: 
  1.000  1.000  1.000  1.000  1.000
    eigenvectors:
  1.000  0.000  0.000  0.000  0.000
  0.000  1.000  0.000  0.000  0.000
  0.000  0.000  1.000  0.000  0.000
  0.000  0.000  0.000  1.000  0.000
  0.000  0.000  0.000  0.000  1.000
    occupations:
  1.000  0.000  0.000  0.000  0.000
  0.000  1.000  0.000  0.000  0.000
  0.000  0.000  1.000  0.000  0.000
  0.000  0.000  0.000  1.000  0.000
  0.000  0.000  0.000  0.000  1.000
   spin  2
    eigenvalues: 
  0.000  0.000  0.000  0.000  0.000
    eigenvectors:
  1.000  0.000  0.000  0.000  0.000
  0.000  1.000  0.000  0.000  0.000
  0.000  0.000  1.000  0.000  0.000
  0.000  0.000  0.000  1.000  0.000
  0.000  0.000  0.000  0.000  1.000
    occupations:
  0.000  0.000  0.000  0.000  0.000
  0.000  0.000  0.000  0.000  0.000
  0.000  0.000  0.000  0.000  0.000
  0.000  0.000  0.000  0.000  0.000
  0.000  0.000  0.000  0.000  0.000
atomic mag. moment =     5.000000
atom   13   Tr[ns(na)] (up, down, total) =   5.00000  0.00000  5.00000
   spin  1
    eigenvalues: 
  1.000  1.000  1.000  1.000  1.000
    eigenvectors:
  1.000  0.000  0.000  0.000  0.000
  0.000  1.000  0.000  0.000  0.000
  0.000  0.000  1.000  0.000  0.000
  0.000  0.000  0.000  1.000  0.000
  0.000  0.000  0.000  0.000  1.000
    occupations:
  1.000  0.000  0.000  0.000  0.000
  0.000  1.000  0.000  0.000  0.000
  0.000  0.000  1.000  0.000  0.000
  0.000  0.000  0.000  1.000  0.000
  0.000  0.000  0.000  0.000  1.000
   spin  2
    eigenvalues: 
  0.000  0.000  0.000  0.000  0.000
    eigenvectors:
  1.000  0.000  0.000  0.000  0.000
  0.000  1.000  0.000  0.000  0.000
  0.000  0.000  1.000  0.000  0.000
  0.000  0.000  0.000  1.000  0.000
  0.000  0.000  0.000  0.000  1.000
    occupations:
  0.000  0.000  0.000  0.000  0.000
  0.000  0.000  0.000  0.000  0.000
  0.000  0.000  0.000  0.000  0.000
  0.000  0.000  0.000  0.000  0.000
  0.000  0.000  0.000  0.000  0.000
atomic mag. moment =     5.000000
atom   15   Tr[ns(na)] (up, down, total) =   5.00000  0.00000  5.00000
   spin  1
    eigenvalues: 
  1.000  1.000  1.000  1.000  1.000
    eigenvectors:
  1.000  0.000  0.000  0.000  0.000
  0.000  1.000  0.000  0.000  0.000
  0.000  0.000  1.000  0.000  0.000
  0.000  0.000  0.000  1.000  0.000
  0.000  0.000  0.000  0.000  1.000
    occupations:
  1.000  0.000  0.000  0.000  0.000
  0.000  1.000  0.000  0.000  0.000
  0.000  0.000  1.000  0.000  0.000
  0.000  0.000  0.000  1.000  0.000
  0.000  0.000  0.000  0.000  1.000
   spin  2
    eigenvalues: 
  0.000  0.000  0.000  0.000  0.000
    eigenvectors:
  1.000  0.000  0.000  0.000  0.000
  0.000  1.000  0.000  0.000  0.000
  0.000  0.000  1.000  0.000  0.000
  0.000  0.000  0.000  1.000  0.000
  0.000  0.000  0.000  0.000  1.000
    occupations:
  0.000  0.000  0.000  0.000  0.000
  0.000  0.000  0.000  0.000  0.000
  0.000  0.000  0.000  0.000  0.000
  0.000  0.000  0.000  0.000  0.000
  0.000  0.000  0.000  0.000  0.000
atomic mag. moment =     5.000000
N of occupied +U levels =   40.000000
 --- exit write_ns ---
 Atomic wfc used for LDA+U Projector are NOT orthogonalized
     Starting wfc are  136 randomized atomic wfcs

     total cpu time spent up to now is       60.3 secs

     Self-consistent Calculation

     iteration #  1     ecut=    41.00 Ry     beta=0.30
     Davidson diagonalization with overlap
     ethr =  1.00E-02,  avg # of iterations =  3.4
 --- enter write_ns ---
 LDA+U parameters:
U( 1)     =  3.00000000
alpha( 1) =  0.00000000
atom    1   Tr[ns(na)] (up, down, total) =   4.98678  0.19475  5.18153
   spin  1
    eigenvalues: 
  0.995  0.997  0.998  0.998  0.998
    eigenvectors:
  0.263  0.732  0.003  0.002  0.000
  0.000  0.004  0.988  0.005  0.003
  0.003  0.000  0.004  0.985  0.007
  0.734  0.263  0.001  0.002  0.000
  0.000  0.000  0.004  0.007  0.989
    occupations:
  0.997  0.000  0.000 -0.001  0.000
  0.000  0.998 -0.000 -0.000  0.000
  0.000 -0.000  0.998  0.000  0.000
 -0.001 -0.000  0.000  0.996  0.000
  0.000  0.000  0.000  0.000  0.998
   spin  2
    eigenvalues: 
  0.019  0.022  0.022  0.062  0.070
    eigenvectors:
  0.000  0.000  0.000  0.790  0.209
  0.997  0.001  0.001  0.001  0.000
  0.001  0.995  0.004  0.000  0.000
  0.000  0.000  0.000  0.209  0.791
  0.001  0.004  0.995  0.000  0.000
    occupations:
  0.064 -0.001  0.000  0.003 -0.000
 -0.001  0.019  0.000  0.001  0.000
  0.000  0.000  0.022 -0.000  0.000
  0.003  0.001 -0.000  0.068 -0.000
 -0.000  0.000  0.000 -0.000  0.022
atomic mag. moment =     4.792023
atom    3   Tr[ns(na)] (up, down, total) =   4.98863  0.18480  5.17344
   spin  1
    eigenvalues: 
  0.997  0.997  0.998  0.998  0.998
    eigenvectors:
  0.917  0.061  0.009  0.005  0.007
  0.002  0.001  0.129  0.597  0.271
  0.017  0.001  0.067  0.196  0.719
  0.064  0.928  0.007  0.001  0.000
  0.001  0.009  0.787  0.200  0.002
    occupations:
  0.997 -0.000  0.000 -0.000  0.000
 -0.000  0.998  0.000  0.000  0.000
  0.000  0.000  0.998  0.000 -0.000
 -0.000  0.000  0.000  0.997 -0.000
  0.000  0.000 -0.000 -0.000  0.998
   spin  2
    eigenvalues: 
  0.019  0.020  0.020  0.062  0.064
    eigenvectors:
  0.000  0.000  0.001  0.091  0.908
  0.144  0.834  0.023  0.000  0.000
  0.001  0.024  0.975  0.000  0.001
  0.000  0.000  0.000  0.909  0.091
  0.856  0.143  0.001  0.000  0.000
    occupations:
  0.064  0.000 -0.001  0.001  0.000
  0.000  0.020 -0.000 -0.000 -0.000
 -0.001 -0.000  0.020 -0.000 -0.000
  0.001 -0.000 -0.000  0.062  0.001
  0.000 -0.000 -0.000  0.001  0.019
atomic mag. moment =     4.803826
atom    5   Tr[ns(na)] (up, down, total) =   4.98725  0.19415  5.18140
   spin  1
    eigenvalues: 
  0.996  0.997  0.998  0.998  0.998
    eigenvectors:
  0.121  0.869  0.002  0.007  0.000
  0.003  0.003  0.042  0.880  0.072
  0.001  0.007  0.900  0.064  0.028
  0.871  0.122  0.005  0.001  0.001
  0.004  0.000  0.050  0.047  0.898
    occupations:
  0.997  0.000  0.000  0.000  0.000
  0.000  0.998  0.000 -0.000 -0.000
  0.000  0.000  0.998  0.000  0.000
  0.000 -0.000  0.000  0.996 -0.000
  0.000 -0.000  0.000 -0.000  0.998
   spin  2
    eigenvalues: 
  0.020  0.021  0.022  0.063  0.069
    eigenvectors:
  0.000  0.000  0.000  0.935  0.065
  0.043  0.951  0.005  0.000  0.000
  0.950  0.040  0.009  0.000  0.000
  0.000  0.000  0.000  0.064  0.935
  0.006  0.008  0.985  0.000  0.000
    occupations:
  0.063  0.000  0.000 -0.001 -0.001
  0.000  0.021  0.000  0.001  0.000
  0.000  0.000  0.020 -0.000  0.000
 -0.001  0.001 -0.000  0.068 -0.000
 -0.001  0.000  0.000 -0.000  0.022
atomic mag. moment =     4.793097
atom    7   Tr[ns(na)] (up, down, total) =   4.98754  0.19339  5.18094
   spin  1
    eigenvalues: 
  0.996  0.997  0.998  0.998  0.998
    eigenvectors:
  0.981  0.009  0.000  0.006  0.004
  0.006  0.000  0.159  0.835  0.000
  0.003  0.000  0.284  0.050  0.663
  0.009  0.991  0.000  0.000  0.000
  0.001  0.000  0.557  0.109  0.333
    occupations:
  0.996 -0.000  0.000  0.000  0.000
 -0.000  0.998 -0.000 -0.000  0.000
  0.000 -0.000  0.998  0.000  0.000
  0.000 -0.000  0.000  0.997  0.000
  0.000  0.000  0.000  0.000  0.998
   spin  2
    eigenvalues: 
  0.020  0.021  0.021  0.065  0.066
    eigenvectors:
  0.000  0.000  0.001  0.005  0.994
  0.022  0.196  0.782  0.000  0.000
  0.099  0.683  0.217  0.000  0.000
  0.001  0.000  0.000  0.994  0.005
  0.878  0.121  0.000  0.001  0.000
    occupations:
  0.066  0.001 -0.000 -0.000  0.000
  0.001  0.021 -0.000  0.000  0.000
 -0.000 -0.000  0.021 -0.001  0.000
 -0.000  0.000 -0.001  0.065 -0.001
  0.000  0.000  0.000 -0.001  0.020
atomic mag. moment =     4.794146
atom    9   Tr[ns(na)] (up, down, total) =   4.98736  0.19553  5.18289
   spin  1
    eigenvalues: 
  0.996  0.997  0.998  0.998  0.998
    eigenvectors:
  0.169  0.827  0.001  0.004  0.000
  0.000  0.001  0.927  0.055  0.018
  0.007  0.001  0.067  0.875  0.050
  0.824  0.171  0.000  0.004  0.001
  0.000  0.000  0.005  0.062  0.932
    occupations:
  0.997 -0.000 -0.000 -0.000  0.000
 -0.000  0.998 -0.000  0.000 -0.000
 -0.000 -0.000  0.998 -0.000  0.000
 -0.000  0.000 -0.000  0.997 -0.000
  0.000 -0.000  0.000 -0.000  0.998
   spin  2
    eigenvalues: 
  0.021  0.021  0.021  0.066  0.067
    eigenvectors:
  0.000  0.000  0.000  0.962  0.038
  0.819  0.103  0.078  0.000  0.000
  0.179  0.549  0.271  0.000  0.000
  0.000  0.001  0.000  0.038  0.961
  0.002  0.347  0.651  0.000  0.001
    occupations:
  0.066 -0.001  0.000  0.000 -0.000
 -0.001  0.021  0.000 -0.000 -0.000
  0.000  0.000  0.021  0.001 -0.000
  0.000 -0.000  0.001  0.067  0.001
 -0.000 -0.000 -0.000  0.001  0.021
atomic mag. moment =     4.791833
atom   11   Tr[ns(na)] (up, down, total) =   4.98745  0.19388  5.18133
   spin  1
    eigenvalues: 
  0.996  0.997  0.998  0.998  0.998
    eigenvectors:
  0.996  0.000  0.002  0.002  0.000
  0.003  0.002  0.053  0.942  0.001
  0.000  0.000  0.006  0.002  0.992
  0.000  0.996  0.003  0.001  0.000
  0.001  0.002  0.936  0.053  0.007
    occupations:
  0.996  0.000  0.000  0.000  0.000
  0.000  0.998  0.000 -0.000 -0.000
  0.000  0.000  0.998  0.000 -0.000
  0.000 -0.000  0.000  0.997 -0.000
  0.000 -0.000 -0.000 -0.000  0.998
   spin  2
    eigenvalues: 
  0.020  0.021  0.022  0.063  0.069
    eigenvectors:
  0.000  0.000  0.000  0.090  0.910
  0.000  0.973  0.026  0.000  0.000
  0.007  0.026  0.966  0.000  0.000
  0.000  0.000  0.000  0.910  0.089
  0.992  0.000  0.008  0.000  0.000
    occupations:
  0.068 -0.000 -0.000  0.001  0.001
 -0.000  0.021 -0.000 -0.001  0.000
 -0.000 -0.000  0.022 -0.000 -0.000
  0.001 -0.001 -0.000  0.064  0.000
  0.001  0.000 -0.000  0.000  0.020
atomic mag. moment =     4.793566
atom   13   Tr[ns(na)] (up, down, total) =   4.98630  0.20324  5.18954
   spin  1
    eigenvalues: 
  0.996  0.996  0.998  0.998  0.998
    eigenvectors:
  0.014  0.982  0.002  0.001  0.001
  0.000  0.001  0.806  0.131  0.062
  0.003  0.001  0.155  0.831  0.010
  0.983  0.014  0.000  0.002  0.000
  0.000  0.001  0.036  0.035  0.927
    occupations:
  0.996  0.000 -0.000 -0.000  0.000
  0.000  0.998  0.000 -0.000 -0.000
 -0.000  0.000  0.998 -0.000  0.000
 -0.000 -0.000 -0.000  0.996  0.000
  0.000 -0.000  0.000  0.000  0.998
   spin  2
    eigenvalues: 
  0.021  0.022  0.022  0.067  0.070
    eigenvectors:
  0.001  0.000  0.000  0.972  0.027
  0.142  0.840  0.018  0.000  0.000
  0.855  0.144  0.000  0.001  0.000
  0.000  0.000  0.000  0.026  0.973
  0.002  0.016  0.981  0.000  0.000
    occupations:
  0.067 -0.000  0.001 -0.000 -0.001
 -0.000  0.022  0.000  0.000  0.000
  0.001  0.000  0.022  0.001 -0.000
 -0.000  0.000  0.001  0.070 -0.001
 -0.001  0.000 -0.000 -0.001  0.022
atomic mag. moment =     4.783054
atom   15   Tr[ns(na)] (up, down, total) =   4.98700  0.19396  5.18096
   spin  1
    eigenvalues: 
  0.996  0.997  0.998  0.998  0.998
    eigenvectors:
  0.993  0.003  0.000  0.002  0.001
  0.001  0.001  0.000  0.000  0.998
  0.002  0.000  0.025  0.972  0.000
  0.003  0.995  0.000  0.000  0.001
  0.000  0.000  0.974  0.025  0.000
    occupations:
  0.996 -0.000  0.000 -0.000  0.000
 -0.000  0.998 -0.000  0.000 -0.000
  0.000 -0.000  0.998  0.000 -0.000
 -0.000  0.000  0.000  0.997  0.000
  0.000 -0.000 -0.000  0.000  0.998
   spin  2
    eigenvalues: 
  0.020  0.020  0.022  0.062  0.070
    eigenvectors:
  0.000  0.000  0.000  0.206  0.794
  0.003  0.000  0.996  0.000  0.001
  0.002  0.998  0.000  0.000  0.000
  0.000  0.000  0.000  0.794  0.205
  0.995  0.002  0.003  0.000  0.000
    occupations:
  0.068  0.001 -0.000 -0.003  0.000
  0.001  0.022 -0.000 -0.001 -0.000
 -0.000 -0.000  0.020  0.000 -0.000
 -0.003 -0.001  0.000  0.064  0.000
  0.000 -0.000 -0.000  0.000  0.020
atomic mag. moment =     4.793034
N of occupied +U levels =   41.452028
 --- exit write_ns ---

     negative rho (up, down):  0.000E+00 1.934E-04

     Magnetic moment per site:
     atom:    1    charge:   12.6469    magn:   10.1365    constr:    0.0000
     atom:    2    charge:    5.5616    magn:    0.1502    constr:    0.0000
     atom:    3    charge:   12.6427    magn:   10.1364    constr:    0.0000
     atom:    4    charge:    5.5649    magn:    0.1528    constr:    0.0000
     atom:    5    charge:   12.6463    magn:   10.1364    constr:    0.0000
     atom:    6    charge:    5.5783    magn:    0.1626    constr:    0.0000
     atom:    7    charge:   12.6471    magn:   10.1369    constr:    0.0000
     atom:    8    charge:    5.6004    magn:    0.1793    constr:    0.0000
     atom:    9    charge:   12.6473    magn:   10.1370    constr:    0.0000
     atom:   10    charge:    5.5533    magn:    0.1440    constr:    0.0000
     atom:   11    charge:   12.6466    magn:   10.1368    constr:    0.0000
     atom:   12    charge:    5.5737    magn:    0.1592    constr:    0.0000
     atom:   13    charge:   12.6509    magn:   10.1371    constr:    0.0000
     atom:   14    charge:    5.5852    magn:    0.1682    constr:    0.0000
     atom:   15    charge:   12.6466    magn:   10.1364    constr:    0.0000
     atom:   16    charge:    5.5931    magn:    0.1737    constr:    0.0000

     total cpu time spent up to now is      286.7 secs

     total energy              =   -1937.81488708 Ry
     Harris-Foulkes estimate   =   -1921.00333545 Ry
     estimated scf accuracy    <      25.67246774 Ry

     total magnetization       =    40.00 Bohr mag/cell
     absolute magnetization    =    41.80 Bohr mag/cell

     iteration #  2     ecut=    41.00 Ry     beta=0.30
     Davidson diagonalization with overlap
     ethr =  1.00E-02,  avg # of iterations =  1.1

     negative rho (up, down):  0.000E+00 9.573E-04

     Magnetic moment per site:
     atom:    1    charge:   12.5383    magn:    4.4796    constr:    0.0000
     atom:    2    charge:    5.7756    magn:   -0.0600    constr:    0.0000
     atom:    3    charge:   12.5359    magn:    4.4801    constr:    0.0000
     atom:    4    charge:    5.7790    magn:   -0.0590    constr:    0.0000
     atom:    5    charge:   12.5379    magn:    4.4797    constr:    0.0000
     atom:    6    charge:    5.7935    magn:   -0.0550    constr:    0.0000
     atom:    7    charge:   12.5391    magn:    4.4799    constr:    0.0000
     atom:    8    charge:    5.8180    magn:   -0.0475    constr:    0.0000
     atom:    9    charge:   12.5387    magn:    4.4804    constr:    0.0000
     atom:   10    charge:    5.7662    magn:   -0.0631    constr:    0.0000
     atom:   11    charge:   12.5383    magn:    4.4802    constr:    0.0000
     atom:   12    charge:    5.7887    magn:   -0.0565    constr:    0.0000
     atom:   13    charge:   12.5411    magn:    4.4801    constr:    0.0000
     atom:   14    charge:    5.8012    magn:   -0.0521    constr:    0.0000
     atom:   15    charge:   12.5383    magn:    4.4796    constr:    0.0000
     atom:   16    charge:    5.8100    magn:   -0.0498    constr:    0.0000

     total cpu time spent up to now is      423.8 secs

     total energy              =   -1945.62613001 Ry
     Harris-Foulkes estimate   =   -1938.07939580 Ry
     estimated scf accuracy    <      12.66538749 Ry

     total magnetization       =    40.00 Bohr mag/cell
     absolute magnetization    =    41.21 Bohr mag/cell

     iteration #  3     ecut=    41.00 Ry     beta=0.30
     Davidson diagonalization with overlap
     ethr =  7.54E-03,  avg # of iterations =  2.0

     negative rho (up, down):  0.000E+00 1.120E-03

     Magnetic moment per site:
     atom:    1    charge:   12.4722    magn:    4.2209    constr:    0.0000
     atom:    2    charge:    5.7484    magn:    0.0523    constr:    0.0000
     atom:    3    charge:   12.4680    magn:    4.2248    constr:    0.0000
     atom:    4    charge:    5.7522    magn:    0.0537    constr:    0.0000
     atom:    5    charge:   12.4717    magn:    4.2209    constr:    0.0000
     atom:    6    charge:    5.7677    magn:    0.0586    constr:    0.0000
     atom:    7    charge:   12.4728    magn:    4.2214    constr:    0.0000
     atom:    8    charge:    5.7935    magn:    0.0669    constr:    0.0000
     atom:    9    charge:   12.4727    magn:    4.2215    constr:    0.0000
     atom:   10    charge:    5.7386    magn:    0.0487    constr:    0.0000
     atom:   11    charge:   12.4721    magn:    4.2219    constr:    0.0000
     atom:   12    charge:    5.7624    magn:    0.0565    constr:    0.0000
     atom:   13    charge:   12.4764    magn:    4.2184    constr:    0.0000
     atom:   14    charge:    5.7758    magn:    0.0619    constr:    0.0000
     atom:   15    charge:   12.4720    magn:    4.2213    constr:    0.0000
     atom:   16    charge:    5.7850    magn:    0.0645    constr:    0.0000

     total cpu time spent up to now is      595.5 secs

     total energy              =   -1946.14212658 Ry
     Harris-Foulkes estimate   =   -1946.24356630 Ry
     estimated scf accuracy    <       0.36817496 Ry

     total magnetization       =    40.00 Bohr mag/cell
     absolute magnetization    =    40.00 Bohr mag/cell

     iteration #  4     ecut=    41.00 Ry     beta=0.30
     Davidson diagonalization with overlap
     ethr =  2.19E-04,  avg # of iterations =  2.7

     negative rho (up, down):  0.000E+00 1.163E-03

     Magnetic moment per site:
     atom:    1    charge:   12.4597    magn:    4.1356    constr:    0.0000
     atom:    2    charge:    5.7562    magn:    0.0706    constr:    0.0000
     atom:    3    charge:   12.4551    magn:    4.1400    constr:    0.0000
     atom:    4    charge:    5.7600    magn:    0.0719    constr:    0.0000
     atom:    5    charge:   12.4592    magn:    4.1356    constr:    0.0000
     atom:    6    charge:    5.7754    magn:    0.0769    constr:    0.0000
     atom:    7    charge:   12.4602    magn:    4.1362    constr:    0.0000
     atom:    8    charge:    5.8011    magn:    0.0852    constr:    0.0000
     atom:    9    charge:   12.4601    magn:    4.1361    constr:    0.0000
     atom:   10    charge:    5.7464    magn:    0.0670    constr:    0.0000
     atom:   11    charge:   12.4595    magn:    4.1367    constr:    0.0000
     atom:   12    charge:    5.7701    magn:    0.0748    constr:    0.0000
     atom:   13    charge:   12.4641    magn:    4.1327    constr:    0.0000
     atom:   14    charge:    5.7834    magn:    0.0802    constr:    0.0000
     atom:   15    charge:   12.4594    magn:    4.1360    constr:    0.0000
     atom:   16    charge:    5.7926    magn:    0.0828    constr:    0.0000

     total cpu time spent up to now is      789.4 secs

     total energy              =   -1946.19618455 Ry
     Harris-Foulkes estimate   =   -1946.20006980 Ry
     estimated scf accuracy    <       0.02828092 Ry

     total magnetization       =    40.00 Bohr mag/cell
     absolute magnetization    =    40.00 Bohr mag/cell

     iteration #  5     ecut=    41.00 Ry     beta=0.30
     Davidson diagonalization with overlap
     ethr =  1.68E-05,  avg # of iterations =  2.4

     negative rho (up, down):  0.000E+00 1.236E-03

     Magnetic moment per site:
     atom:    1    charge:   12.4262    magn:    4.2040    constr:    0.0000
     atom:    2    charge:    5.7620    magn:    0.1472    constr:    0.0000
     atom:    3    charge:   12.4202    magn:    4.2101    constr:    0.0000
     atom:    4    charge:    5.7657    magn:    0.1486    constr:    0.0000
     atom:    5    charge:   12.4257    magn:    4.2038    constr:    0.0000
     atom:    6    charge:    5.7811    magn:    0.1538    constr:    0.0000
     atom:    7    charge:   12.4265    magn:    4.2047    constr:    0.0000
     atom:    8    charge:    5.8067    magn:    0.1621    constr:    0.0000
     atom:    9    charge:   12.4267    magn:    4.2044    constr:    0.0000
     atom:   10    charge:    5.7522    magn:    0.1434    constr:    0.0000
     atom:   11    charge:   12.4258    magn:    4.2053    constr:    0.0000
     atom:   12    charge:    5.7758    magn:    0.1515    constr:    0.0000
     atom:   13    charge:   12.4317    magn:    4.1999    constr:    0.0000
     atom:   14    charge:    5.7891    magn:    0.1571    constr:    0.0000
     atom:   15    charge:   12.4258    magn:    4.2047    constr:    0.0000
     atom:   16    charge:    5.7983    magn:    0.1598    constr:    0.0000

     total cpu time spent up to now is      955.8 secs

     total energy              =   -1946.19696662 Ry
     Harris-Foulkes estimate   =   -1946.19760268 Ry
     estimated scf accuracy    <       0.01265249 Ry

     total magnetization       =    40.00 Bohr mag/cell
     absolute magnetization    =    40.00 Bohr mag/cell
 kfg - setting two_fermi_energies to FALSE

     iteration #  6     ecut=    41.00 Ry     beta=0.30
     Davidson diagonalization with overlap
     ethr =  7.53E-06,  avg # of iterations =  2.3

     negative rho (up, down):  0.000E+00 1.234E-03

     Magnetic moment per site:
     atom:    1    charge:   12.4205    magn:    4.2045    constr:    0.0000
     atom:    2    charge:    5.7624    magn:    0.1630    constr:    0.0000
     atom:    3    charge:   12.4140    magn:    4.2107    constr:    0.0000
     atom:    4    charge:    5.7663    magn:    0.1643    constr:    0.0000
     atom:    5    charge:   12.4200    magn:    4.2042    constr:    0.0000
     atom:    6    charge:    5.7818    magn:    0.1692    constr:    0.0000
     atom:    7    charge:   12.4207    magn:    4.2053    constr:    0.0000
     atom:    8    charge:    5.8076    magn:    0.1769    constr:    0.0000
     atom:    9    charge:   12.4210    magn:    4.2050    constr:    0.0000
     atom:   10    charge:    5.7525    magn:    0.1594    constr:    0.0000
     atom:   11    charge:   12.4200    magn:    4.2058    constr:    0.0000
     atom:   12    charge:    5.7764    magn:    0.1670    constr:    0.0000
     atom:   13    charge:   12.4263    magn:    4.2004    constr:    0.0000
     atom:   14    charge:    5.7899    magn:    0.1723    constr:    0.0000
     atom:   15    charge:   12.4200    magn:    4.2052    constr:    0.0000
     atom:   16    charge:    5.7991    magn:    0.1748    constr:    0.0000

     total cpu time spent up to now is     1135.1 secs

     total energy              =   -1946.19972757 Ry
     Harris-Foulkes estimate   =   -1946.19961349 Ry
     estimated scf accuracy    <       0.00052561 Ry

     total magnetization       =    40.00 Bohr mag/cell
     absolute magnetization    =    40.00 Bohr mag/cell

     iteration #  7     ecut=    41.00 Ry     beta=0.30
     Davidson diagonalization with overlap
     ethr =  3.13E-07,  avg # of iterations =  2.3

     negative rho (up, down):  0.000E+00 1.218E-03

     Magnetic moment per site:
     atom:    1    charge:   12.4203    magn:    4.1952    constr:    0.0000
     atom:    2    charge:    5.7619    magn:    0.1659    constr:    0.0000
     atom:    3    charge:   12.4136    magn:    4.2014    constr:    0.0000
     atom:    4    charge:    5.7657    magn:    0.1671    constr:    0.0000
     atom:    5    charge:   12.4198    magn:    4.1949    constr:    0.0000
     atom:    6    charge:    5.7813    magn:    0.1718    constr:    0.0000
     atom:    7    charge:   12.4205    magn:    4.1960    constr:    0.0000
     atom:    8    charge:    5.8072    magn:    0.1791    constr:    0.0000
     atom:    9    charge:   12.4209    magn:    4.1957    constr:    0.0000
     atom:   10    charge:    5.7519    magn:    0.1626    constr:    0.0000
     atom:   11    charge:   12.4199    magn:    4.1965    constr:    0.0000
     atom:   12    charge:    5.7759    magn:    0.1698    constr:    0.0000
     atom:   13    charge:   12.4263    magn:    4.1912    constr:    0.0000
     atom:   14    charge:    5.7894    magn:    0.1748    constr:    0.0000
     atom:   15    charge:   12.4199    magn:    4.1959    constr:    0.0000
     atom:   16    charge:    5.7987    magn:    0.1771    constr:    0.0000

     total cpu time spent up to now is     1322.3 secs

     total energy              =   -1946.19986019 Ry
     Harris-Foulkes estimate   =   -1946.19984311 Ry
     estimated scf accuracy    <       0.00012535 Ry

     total magnetization       =    40.00 Bohr mag/cell
     absolute magnetization    =    40.00 Bohr mag/cell

     iteration #  8     ecut=    41.00 Ry     beta=0.30
     Davidson diagonalization with overlap
     ethr =  7.46E-08,  avg # of iterations =  1.5

     negative rho (up, down):  0.000E+00 1.192E-03

     Magnetic moment per site:
     atom:    1    charge:   12.4214    magn:    4.1938    constr:    0.0000
     atom:    2    charge:    5.7614    magn:    0.1689    constr:    0.0000
     atom:    3    charge:   12.4145    magn:    4.1998    constr:    0.0000
     atom:    4    charge:    5.7652    magn:    0.1700    constr:    0.0000
     atom:    5    charge:   12.4209    magn:    4.1934    constr:    0.0000
     atom:    6    charge:    5.7807    magn:    0.1744    constr:    0.0000
     atom:    7    charge:   12.4215    magn:    4.1946    constr:    0.0000
     atom:    8    charge:    5.8065    magn:    0.1813    constr:    0.0000
     atom:    9    charge:   12.4220    magn:    4.1943    constr:    0.0000
     atom:   10    charge:    5.7515    magn:    0.1657    constr:    0.0000
     atom:   11    charge:   12.4209    magn:    4.1951    constr:    0.0000
     atom:   12    charge:    5.7754    magn:    0.1725    constr:    0.0000
     atom:   13    charge:   12.4275    magn:    4.1899    constr:    0.0000
     atom:   14    charge:    5.7888    magn:    0.1772    constr:    0.0000
     atom:   15    charge:   12.4209    magn:    4.1945    constr:    0.0000
     atom:   16    charge:    5.7980    magn:    0.1795    constr:    0.0000

     total cpu time spent up to now is     1478.2 secs

     total energy              =   -1946.19987987 Ry
     Harris-Foulkes estimate   =   -1946.19987934 Ry
     estimated scf accuracy    <       0.00001873 Ry

     total magnetization       =    40.00 Bohr mag/cell
     absolute magnetization    =    40.00 Bohr mag/cell

     iteration #  9     ecut=    41.00 Ry     beta=0.30
     Davidson diagonalization with overlap
     ethr =  1.11E-08,  avg # of iterations =  2.0

     negative rho (up, down):  0.000E+00 1.191E-03

     Magnetic moment per site:
     atom:    1    charge:   12.4213    magn:    4.1938    constr:    0.0000
     atom:    2    charge:    5.7613    magn:    0.1701    constr:    0.0000
     atom:    3    charge:   12.4143    magn:    4.1998    constr:    0.0000
     atom:    4    charge:    5.7651    magn:    0.1711    constr:    0.0000
     atom:    5    charge:   12.4208    magn:    4.1935    constr:    0.0000
     atom:    6    charge:    5.7806    magn:    0.1755    constr:    0.0000
     atom:    7    charge:   12.4214    magn:    4.1946    constr:    0.0000
     atom:    8    charge:    5.8065    magn:    0.1823    constr:    0.0000
     atom:    9    charge:   12.4219    magn:    4.1943    constr:    0.0000
     atom:   10    charge:    5.7514    magn:    0.1669    constr:    0.0000
     atom:   11    charge:   12.4208    magn:    4.1951    constr:    0.0000
     atom:   12    charge:    5.7753    magn:    0.1736    constr:    0.0000
     atom:   13    charge:   12.4274    magn:    4.1899    constr:    0.0000
     atom:   14    charge:    5.7887    magn:    0.1783    constr:    0.0000
     atom:   15    charge:   12.4208    magn:    4.1945    constr:    0.0000
     atom:   16    charge:    5.7979    magn:    0.1806    constr:    0.0000

     total cpu time spent up to now is     1651.5 secs

     total energy              =   -1946.19988384 Ry
     Harris-Foulkes estimate   =   -1946.19988474 Ry
     estimated scf accuracy    <       0.00000396 Ry

     total magnetization       =    40.00 Bohr mag/cell
     absolute magnetization    =    40.00 Bohr mag/cell

     iteration # 10     ecut=    41.00 Ry     beta=0.30
     Davidson diagonalization with overlap
     ethr =  2.35E-09,  avg # of iterations =  2.0

     negative rho (up, down):  0.000E+00 1.191E-03

     Magnetic moment per site:
     atom:    1    charge:   12.4214    magn:    4.1937    constr:    0.0000
     atom:    2    charge:    5.7612    magn:    0.1705    constr:    0.0000
     atom:    3    charge:   12.4145    magn:    4.1997    constr:    0.0000
     atom:    4    charge:    5.7651    magn:    0.1714    constr:    0.0000
     atom:    5    charge:   12.4210    magn:    4.1933    constr:    0.0000
     atom:    6    charge:    5.7806    magn:    0.1758    constr:    0.0000
     atom:    7    charge:   12.4216    magn:    4.1945    constr:    0.0000
     atom:    8    charge:    5.8064    magn:    0.1825    constr:    0.0000
     atom:    9    charge:   12.4220    magn:    4.1942    constr:    0.0000
     atom:   10    charge:    5.7513    magn:    0.1673    constr:    0.0000
     atom:   11    charge:   12.4210    magn:    4.1950    constr:    0.0000
     atom:   12    charge:    5.7752    magn:    0.1739    constr:    0.0000
     atom:   13    charge:   12.4276    magn:    4.1899    constr:    0.0000
     atom:   14    charge:    5.7887    magn:    0.1785    constr:    0.0000
     atom:   15    charge:   12.4210    magn:    4.1944    constr:    0.0000
     atom:   16    charge:    5.7979    magn:    0.1808    constr:    0.0000

     total cpu time spent up to now is     1827.3 secs

     total energy              =   -1946.19988467 Ry
     Harris-Foulkes estimate   =   -1946.19988471 Ry
     estimated scf accuracy    <       0.00000051 Ry

     total magnetization       =    40.00 Bohr mag/cell
     absolute magnetization    =    40.00 Bohr mag/cell

     iteration # 11     ecut=    41.00 Ry     beta=0.30
     Davidson diagonalization with overlap
     ethr =  3.02E-10,  avg # of iterations =  2.0

     negative rho (up, down):  0.000E+00 1.196E-03

     Magnetic moment per site:
     atom:    1    charge:   12.4214    magn:    4.1938    constr:    0.0000
     atom:    2    charge:    5.7613    magn:    0.1701    constr:    0.0000
     atom:    3    charge:   12.4145    magn:    4.1998    constr:    0.0000
     atom:    4    charge:    5.7651    magn:    0.1711    constr:    0.0000
     atom:    5    charge:   12.4209    magn:    4.1935    constr:    0.0000
     atom:    6    charge:    5.7806    magn:    0.1754    constr:    0.0000
     atom:    7    charge:   12.4216    magn:    4.1946    constr:    0.0000
     atom:    8    charge:    5.8065    magn:    0.1821    constr:    0.0000
     atom:    9    charge:   12.4220    magn:    4.1943    constr:    0.0000
     atom:   10    charge:    5.7513    magn:    0.1669    constr:    0.0000
     atom:   11    charge:   12.4209    magn:    4.1951    constr:    0.0000
     atom:   12    charge:    5.7753    magn:    0.1735    constr:    0.0000
     atom:   13    charge:   12.4275    magn:    4.1900    constr:    0.0000
     atom:   14    charge:    5.7887    magn:    0.1781    constr:    0.0000
     atom:   15    charge:   12.4209    magn:    4.1945    constr:    0.0000
     atom:   16    charge:    5.7979    magn:    0.1804    constr:    0.0000

     total cpu time spent up to now is     2000.7 secs

     total energy              =   -1946.19988487 Ry
     Harris-Foulkes estimate   =   -1946.19988475 Ry
     estimated scf accuracy    <       0.00000014 Ry

     total magnetization       =    40.00 Bohr mag/cell
     absolute magnetization    =    40.00 Bohr mag/cell

     iteration # 12     ecut=    41.00 Ry     beta=0.30
     Davidson diagonalization with overlap
     ethr =  8.24E-11,  avg # of iterations =  2.0

     negative rho (up, down):  0.000E+00 1.196E-03

     Magnetic moment per site:
     atom:    1    charge:   12.4214    magn:    4.1938    constr:    0.0000
     atom:    2    charge:    5.7613    magn:    0.1702    constr:    0.0000
     atom:    3    charge:   12.4144    magn:    4.1998    constr:    0.0000
     atom:    4    charge:    5.7651    magn:    0.1711    constr:    0.0000
     atom:    5    charge:   12.4209    magn:    4.1934    constr:    0.0000
     atom:    6    charge:    5.7806    magn:    0.1754    constr:    0.0000
     atom:    7    charge:   12.4216    magn:    4.1946    constr:    0.0000
     atom:    8    charge:    5.8065    magn:    0.1821    constr:    0.0000
     atom:    9    charge:   12.4220    magn:    4.1943    constr:    0.0000
     atom:   10    charge:    5.7513    magn:    0.1670    constr:    0.0000
     atom:   11    charge:   12.4209    magn:    4.1951    constr:    0.0000
     atom:   12    charge:    5.7753    magn:    0.1736    constr:    0.0000
     atom:   13    charge:   12.4275    magn:    4.1900    constr:    0.0000
     atom:   14    charge:    5.7887    magn:    0.1782    constr:    0.0000
     atom:   15    charge:   12.4209    magn:    4.1945    constr:    0.0000
     atom:   16    charge:    5.7979    magn:    0.1804    constr:    0.0000

     total cpu time spent up to now is     2181.6 secs

     total energy              =   -1946.19988496 Ry
     Harris-Foulkes estimate   =   -1946.19988492 Ry
     estimated scf accuracy    <       0.00000001 Ry

     total magnetization       =    40.00 Bohr mag/cell
     absolute magnetization    =    40.00 Bohr mag/cell

     iteration # 13     ecut=    41.00 Ry     beta=0.30
     Davidson diagonalization with overlap
     ethr =  8.55E-12,  avg # of iterations =  1.6

     negative rho (up, down):  0.000E+00 1.194E-03

     Magnetic moment per site:
     atom:    1    charge:   12.4214    magn:    4.1938    constr:    0.0000
     atom:    2    charge:    5.7613    magn:    0.1701    constr:    0.0000
     atom:    3    charge:   12.4144    magn:    4.1998    constr:    0.0000
     atom:    4    charge:    5.7651    magn:    0.1711    constr:    0.0000
     atom:    5    charge:   12.4209    magn:    4.1934    constr:    0.0000
     atom:    6    charge:    5.7806    magn:    0.1754    constr:    0.0000
     atom:    7    charge:   12.4216    magn:    4.1946    constr:    0.0000
     atom:    8    charge:    5.8065    magn:    0.1821    constr:    0.0000
     atom:    9    charge:   12.4220    magn:    4.1943    constr:    0.0000
     atom:   10    charge:    5.7513    magn:    0.1670    constr:    0.0000
     atom:   11    charge:   12.4209    magn:    4.1951    constr:    0.0000
     atom:   12    charge:    5.7753    magn:    0.1736    constr:    0.0000
     atom:   13    charge:   12.4275    magn:    4.1900    constr:    0.0000
     atom:   14    charge:    5.7887    magn:    0.1781    constr:    0.0000
     atom:   15    charge:   12.4209    magn:    4.1945    constr:    0.0000
     atom:   16    charge:    5.7979    magn:    0.1804    constr:    0.0000

     total cpu time spent up to now is     2345.9 secs

     End of self-consistent calculation
 --- enter write_ns ---
 LDA+U parameters:
U( 1)     =  3.00000000
alpha( 1) =  0.00000000
atom    1   Tr[ns(na)] (up, down, total) =   4.99077  0.46283  5.45360
   spin  1
    eigenvalues: 
  0.996  0.998  0.999  0.999  0.999
    eigenvectors:
  0.259  0.737  0.004  0.000  0.000
  0.000  0.003  0.684  0.285  0.028
  0.003  0.000  0.277  0.712  0.007
  0.738  0.260  0.000  0.002  0.000
  0.000  0.000  0.035  0.000  0.965
    occupations:
  0.997  0.000  0.000 -0.001  0.000
  0.000  0.999 -0.000 -0.000  0.000
  0.000 -0.000  0.999  0.000  0.000
 -0.001 -0.000  0.000  0.997  0.000
  0.000  0.000  0.000  0.000  0.999
   spin  2
    eigenvalues: 
  0.049  0.054  0.054  0.144  0.161
    eigenvectors:
  0.000  0.000  0.000  0.785  0.214
  0.998  0.001  0.000  0.001  0.000
  0.001  0.973  0.026  0.000  0.000
  0.000  0.000  0.000  0.214  0.786
  0.000  0.026  0.974  0.000  0.000
    occupations:
  0.148 -0.002  0.000  0.007 -0.000
 -0.002  0.049  0.000  0.001  0.000
  0.000  0.000  0.054 -0.000  0.000
  0.007  0.001 -0.000  0.158 -0.000
 -0.000  0.000  0.000 -0.000  0.054
atomic mag. moment =     4.527942
atom    3   Tr[ns(na)] (up, down, total) =   4.99298  0.44832  5.44129
   spin  1
    eigenvalues: 
  0.998  0.998  0.999  0.999  0.999
    eigenvectors:
  0.919  0.070  0.008  0.003  0.000
  0.001  0.000  0.274  0.002  0.723
  0.009  0.000  0.408  0.451  0.131
  0.070  0.927  0.001  0.002  0.000
  0.000  0.003  0.309  0.542  0.146
    occupations:
  0.998 -0.000  0.000 -0.000  0.000
 -0.000  0.999  0.000  0.000  0.000
  0.000  0.000  0.999  0.000 -0.000
 -0.000  0.000  0.000  0.998 -0.000
  0.000  0.000 -0.000 -0.000  0.999
   spin  2
    eigenvalues: 
  0.050  0.050  0.051  0.145  0.151
    eigenvectors:
  0.000  0.000  0.001  0.096  0.903
  0.138  0.837  0.025  0.000  0.000
  0.003  0.022  0.974  0.000  0.001
  0.000  0.000  0.000  0.904  0.096
  0.859  0.141  0.000  0.000  0.000
    occupations:
  0.151  0.000 -0.003  0.002  0.001
  0.000  0.050 -0.000 -0.000 -0.000
 -0.003 -0.000  0.052 -0.001 -0.000
  0.002 -0.000 -0.001  0.146  0.001
  0.001 -0.000 -0.000  0.001  0.050
atomic mag. moment =     4.544659
atom    5   Tr[ns(na)] (up, down, total) =   4.99102  0.46266  5.45368
   spin  1
    eigenvalues: 
  0.997  0.997  0.999  0.999  0.999
    eigenvectors:
  0.068  0.928  0.000  0.003  0.001
  0.002  0.001  0.183  0.093  0.721
  0.001  0.003  0.463  0.526  0.007
  0.926  0.068  0.005  0.000  0.000
  0.003  0.000  0.348  0.377  0.272
    occupations:
  0.997  0.000  0.000  0.000  0.000
  0.000  0.999  0.000 -0.000 -0.000
  0.000  0.000  0.999  0.000  0.000
  0.000 -0.000  0.000  0.997 -0.000
  0.000 -0.000  0.000 -0.000  0.999
   spin  2
    eigenvalues: 
  0.051  0.052  0.055  0.146  0.159
    eigenvectors:
  0.000  0.000  0.000  0.944  0.056
  0.036  0.962  0.001  0.000  0.000
  0.953  0.034  0.012  0.000  0.000
  0.000  0.000  0.000  0.056  0.944
  0.010  0.003  0.986  0.000  0.000
    occupations:
  0.147  0.000 -0.000 -0.003 -0.001
  0.000  0.052  0.000  0.001  0.000
 -0.000  0.000  0.051 -0.000  0.000
 -0.003  0.001 -0.000  0.158 -0.000
 -0.001  0.000  0.000 -0.000  0.055
atomic mag. moment =     4.528363
atom    7   Tr[ns(na)] (up, down, total) =   4.99147  0.46129  5.45276
   spin  1
    eigenvalues: 
  0.997  0.997  0.999  0.999  0.999
    eigenvectors:
  0.982  0.011  0.000  0.006  0.001
  0.004  0.001  0.206  0.754  0.035
  0.002  0.000  0.463  0.224  0.311
  0.012  0.988  0.000  0.000  0.000
  0.000  0.000  0.330  0.016  0.653
    occupations:
  0.997 -0.000  0.000  0.000  0.000
 -0.000  0.999 -0.000 -0.000  0.000
  0.000 -0.000  0.999  0.000  0.000
  0.000 -0.000  0.000  0.997  0.000
  0.000  0.000  0.000  0.000  0.999
   spin  2
    eigenvalues: 
  0.052  0.053  0.053  0.151  0.154
    eigenvectors:
  0.000  0.000  0.000  0.008  0.992
  0.043  0.137  0.819  0.000  0.000
  0.050  0.779  0.170  0.000  0.000
  0.001  0.000  0.000  0.991  0.008
  0.906  0.083  0.010  0.001  0.000
    occupations:
  0.154  0.002 -0.001 -0.000  0.000
  0.002  0.053 -0.000  0.000  0.000
 -0.001 -0.000  0.053 -0.001  0.000
 -0.000  0.000 -0.001  0.150 -0.003
  0.000  0.000  0.000 -0.003  0.052
atomic mag. moment =     4.530182
atom    9   Tr[ns(na)] (up, down, total) =   4.99107  0.46340  5.45447
   spin  1
    eigenvalues: 
  0.997  0.997  0.999  0.999  0.999
    eigenvectors:
  0.156  0.841  0.000  0.002  0.000
  0.001  0.000  0.879  0.094  0.026
  0.006  0.000  0.111  0.850  0.033
  0.838  0.158  0.000  0.004  0.001
  0.000  0.000  0.009  0.051  0.940
    occupations:
  0.997  0.000 -0.000 -0.000  0.000
  0.000  0.999 -0.000  0.000 -0.000
 -0.000 -0.000  0.999 -0.000  0.000
 -0.000  0.000 -0.000  0.997 -0.000
  0.000 -0.000  0.000 -0.000  0.999
   spin  2
    eigenvalues: 
  0.052  0.052  0.053  0.152  0.154
    eigenvectors:
  0.000  0.000  0.000  0.979  0.021
  0.866  0.052  0.082  0.000  0.000
  0.115  0.691  0.194  0.000  0.000
  0.000  0.001  0.000  0.021  0.978
  0.019  0.256  0.724  0.000  0.001
    occupations:
  0.152 -0.001  0.001  0.000 -0.001
 -0.001  0.052  0.000 -0.000 -0.000
  0.001  0.000  0.053  0.002 -0.000
  0.000 -0.000  0.002  0.154  0.003
 -0.001 -0.000 -0.000  0.003  0.053
atomic mag. moment =     4.527666
atom   11   Tr[ns(na)] (up, down, total) =   4.99129  0.46118  5.45247
   spin  1
    eigenvalues: 
  0.997  0.997  0.999  0.999  0.999
    eigenvectors:
  0.988  0.011  0.001  0.001  0.000
  0.002  0.000  0.254  0.630  0.115
  0.000  0.000  0.000  0.159  0.841
  0.011  0.988  0.001  0.000  0.000
  0.000  0.001  0.744  0.211  0.044
    occupations:
  0.997  0.000  0.000 -0.000  0.000
  0.000  0.999  0.000 -0.000 -0.000
  0.000  0.000  0.999  0.000 -0.000
 -0.000 -0.000  0.000  0.997 -0.000
  0.000 -0.000 -0.000 -0.000  0.999
   spin  2
    eigenvalues: 
  0.050  0.052  0.054  0.146  0.158
    eigenvectors:
  0.000  0.000  0.000  0.089  0.911
  0.001  0.984  0.015  0.000  0.000
  0.008  0.016  0.976  0.000  0.000
  0.000  0.000  0.000  0.911  0.088
  0.991  0.000  0.009  0.000  0.000
    occupations:
  0.157 -0.000 -0.000  0.003  0.001
 -0.000  0.052 -0.000 -0.001  0.000
 -0.000 -0.000  0.054 -0.000 -0.000
  0.003 -0.001 -0.000  0.147  0.001
  0.001  0.000 -0.000  0.001  0.050
atomic mag. moment =     4.530116
atom   13   Tr[ns(na)] (up, down, total) =   4.98951  0.47440  5.46391
   spin  1
    eigenvalues: 
  0.996  0.997  0.999  0.999  0.999
    eigenvectors:
  0.003  0.993  0.002  0.001  0.001
  0.000  0.001  0.828  0.003  0.169
  0.002  0.002  0.026  0.910  0.060
  0.995  0.003  0.000  0.001  0.001
  0.000  0.001  0.144  0.085  0.769
    occupations:
  0.997  0.000 -0.000 -0.000  0.000
  0.000  0.999  0.000 -0.000 -0.000
 -0.000  0.000  0.999 -0.000  0.000
 -0.000 -0.000 -0.000  0.996  0.000
  0.000 -0.000  0.000  0.000  0.999
   spin  2
    eigenvalues: 
  0.053  0.054  0.055  0.153  0.159
    eigenvectors:
  0.001  0.000  0.000  0.959  0.040
  0.148  0.835  0.016  0.000  0.000
  0.848  0.151  0.000  0.001  0.000
  0.000  0.000  0.000  0.039  0.960
  0.003  0.013  0.984  0.000  0.000
    occupations:
  0.153 -0.001  0.003 -0.001 -0.001
 -0.001  0.054  0.000  0.000  0.000
  0.003  0.000  0.053  0.001 -0.000
 -0.001  0.000  0.001  0.159 -0.001
 -0.001  0.000 -0.000 -0.001  0.055
atomic mag. moment =     4.515110
atom   15   Tr[ns(na)] (up, down, total) =   4.99105  0.46143  5.45248
   spin  1
    eigenvalues: 
  0.997  0.997  0.999  0.999  0.999
    eigenvectors:
  0.944  0.053  0.001  0.000  0.002
  0.002  0.000  0.000  0.029  0.969
  0.001  0.001  0.625  0.361  0.012
  0.053  0.946  0.000  0.000  0.001
  0.000  0.000  0.374  0.610  0.016
    occupations:
  0.997 -0.000  0.000  0.000  0.000
 -0.000  0.999 -0.000  0.000 -0.000
  0.000 -0.000  0.999  0.000  0.000
  0.000  0.000  0.000  0.997  0.000
  0.000 -0.000  0.000  0.000  0.999
   spin  2
    eigenvalues: 
  0.051  0.051  0.055  0.144  0.161
    eigenvectors:
  0.000  0.000  0.000  0.212  0.787
  0.001  0.000  0.998  0.000  0.001
  0.001  0.999  0.000  0.000  0.000
  0.000  0.000  0.000  0.788  0.212
  0.999  0.001  0.001  0.000  0.000
    occupations:
  0.157  0.002 -0.001 -0.007  0.000
  0.002  0.055 -0.000 -0.001 -0.000
 -0.001 -0.000  0.051  0.000 -0.000
 -0.007 -0.001  0.000  0.147  0.000
  0.000 -0.000 -0.000  0.000  0.051
atomic mag. moment =     4.529615
N of occupied +U levels =   43.624670
 --- exit write_ns ---

 ------ SPIN UP ------------


          k = 0.0000 0.0000 0.0000 (  5329 PWs)   bands (ev):

   -69.1137 -68.9959 -68.9848 -68.9811 -68.9689 -68.9671 -68.9558 -68.8639
   -37.9918 -37.9827 -37.9763 -37.8876 -37.8808 -37.8751 -37.8709 -37.8665
   -37.8593 -37.8575 -37.8508 -37.8435 -37.8389 -37.8365 -37.8334 -37.8257
   -37.8239 -37.8179 -37.8153 -37.8134 -37.8033 -37.7389 -37.7319 -37.7239
    -7.0665  -6.5817  -6.4840  -6.4139  -6.0029  -5.9554  -5.9032  -5.8068
     3.9330   3.9473   3.9542   3.9613   5.7038   5.7313   5.7529   5.7635
     5.7780   5.7878   5.7959   5.7969   6.0094   6.0268   6.0344   6.6893
     6.6976   6.7071   7.7137   7.7468   7.7689   8.1309   8.1828   8.2106
     8.2406   8.2561   8.2684   8.4114   8.4607   8.7217   8.7305   8.7466
     8.7517   8.7571   8.7709   8.7763   8.7901   8.7988   8.8169   8.8475
     8.9982   9.0164   9.0220   9.0275   9.0299   9.0473   9.1928   9.2081
     9.2231   9.3994   9.4174   9.4430   9.6954   9.7036   9.7076   9.7261
    11.9361  12.3023  12.3102  12.3133  12.3184  12.3211  12.3227  12.3275
    12.3444  15.9022  15.9129  15.9143  15.9290  17.2802  17.2917  17.3088
    20.0780  20.1296  20.1652  20.2103  20.3613  20.4372  20.4641  22.6298
    22.6383  22.6560  24.0936  24.1040  24.1114

          k =-0.1768 0.1768 0.1768 (  5402 PWs)   bands (ev):

   -69.1129 -68.9951 -68.9839 -68.9801 -68.9683 -68.9664 -68.9550 -68.8631
   -37.9915 -37.9824 -37.9754 -37.8865 -37.8767 -37.8730 -37.8698 -37.8651
   -37.8605 -37.8554 -37.8492 -37.8450 -37.8398 -37.8392 -37.8351 -37.8280
   -37.8244 -37.8205 -37.8193 -37.8150 -37.8042 -37.7406 -37.7326 -37.7246
    -6.9508  -6.5606  -6.4702  -6.3688  -6.0974  -6.0066  -5.9692  -5.8423
     4.2425   4.2637   4.2887   4.4415   5.6804   5.7127   5.7591   5.8004
     5.8142   5.8314   5.9422   5.9915   6.0008   6.0129   6.0543   6.4299
     6.4527   6.4882   7.1858   7.3587   7.3951   7.4143   7.4814   7.5279
     7.9705   8.0124   8.0273   8.0605   8.0818   8.5755   8.5811   8.5963
     8.6273   8.6384   8.7517   8.7741   8.7895   8.8930   8.9643   8.9723
     9.0427   9.1949   9.2194   9.2363   9.4770   9.5970   9.6146   9.6242
     9.6864   9.7037   9.7313   9.8269   9.8464   9.8637  10.1814  10.1926
    11.7116  11.7243  11.7494  11.9415  11.9542  11.9640  12.0256  12.0384
    13.0480  15.7003  16.7501  16.7628  16.7927  17.6557  17.6807  17.7112
    19.9995  20.0590  20.1084  20.4072  20.4418  20.5011  20.6893  21.9554
    22.0387  22.0968  23.0623  23.1110  23.1467

          k = 0.3536-0.3536-0.3536 (  5444 PWs)   bands (ev):

   -69.1121 -68.9943 -68.9830 -68.9791 -68.9676 -68.9657 -68.9542 -68.8623
   -37.9912 -37.9821 -37.9746 -37.8854 -37.8710 -37.8698 -37.8682 -37.8662
   -37.8610 -37.8529 -37.8469 -37.8451 -37.8441 -37.8405 -37.8380 -37.8307
   -37.8260 -37.8236 -37.8227 -37.8162 -37.8050 -37.7424 -37.7334 -37.7252
    -6.7579  -6.5511  -6.5098  -6.2963  -6.2282  -6.0699  -6.0286  -5.8744
     4.8514   4.9722   5.0543   5.0990   5.1789   5.2912   5.5541   5.6971
     5.7881   5.8852   6.0148   6.0838   6.1198   6.1791   6.3035   6.3972
     6.4664   6.4866   6.5490   6.6005   6.6496   6.6966   6.7655   6.8361
     8.0786   8.0969   8.1618   8.2009   8.2445   8.2657   8.3135   8.3323
     8.3435   8.4011   8.8147   8.8213   8.8332   8.8680   8.9052   8.9226
     9.0602   9.1318   9.3901   9.4222   9.4337   9.4913   9.4970   9.5212
    10.5606  10.5817  10.6576  10.6853  10.7367  10.7530  10.9105  10.9633
    10.9850  11.0262  11.0389  11.1119  11.1970  11.2718  11.2854  11.3608
    14.6192  14.7225  17.7396  17.8334  17.8621  18.0275  18.0715  18.0915
    19.8826  20.0199  20.1493  20.2963  20.3250  20.4135  21.5746  21.6344
    21.7385  21.7685  21.8969  21.9781  22.2180

          k = 0.0000 0.0000 0.3536 (  5425 PWs)   bands (ev):

   -69.1127 -68.9948 -68.9836 -68.9799 -68.9677 -68.9664 -68.9547 -68.8629
   -37.9913 -37.9819 -37.9753 -37.8871 -37.8772 -37.8726 -37.8687 -37.8653
   -37.8575 -37.8545 -37.8491 -37.8453 -37.8410 -37.8389 -37.8372 -37.8283
   -37.8268 -37.8209 -37.8181 -37.8167 -37.8036 -37.7412 -37.7332 -37.7250
    -6.9248  -6.5587  -6.4891  -6.3448  -6.0986  -6.0297  -5.9743  -5.8533
     4.3493   4.3637   4.3918   4.4011   5.5381   5.7558   5.8457   5.8634
     5.8892   5.9084   5.9296   5.9542   5.9960   6.0239   6.0288   6.3500
     6.3706   6.8117   6.8439   6.8518   6.9057   7.5905   7.6178   7.6248
     7.8709   7.8897   8.3833   8.5330   8.5536   8.5870   8.6190   8.6277
     8.6982   8.7068   8.7167   8.7395   8.8060   8.8252   9.0127   9.0202
     9.0801   9.1065   9.1325   9.1448   9.4237   9.4559   9.5216   9.5722
     9.5826   9.6034   9.6340   9.6736   9.6947   9.8692  10.2622  10.2849
    11.3019  11.3142  11.3443  11.3500  12.2641  12.2729  12.2773  12.2855
    13.5290  16.5780  16.6148  16.6487  16.7043  17.2847  18.0924  18.1022
    20.1349  20.1751  20.2690  20.3372  20.4359  20.4980  20.9200  21.6858
    21.7080  22.8448  23.0512  23.0974  23.1239

          k = 0.5303-0.5303-0.1768 (  5413 PWs)   bands (ev):

   -69.1119 -68.9940 -68.9827 -68.9790 -68.9671 -68.9657 -68.9540 -68.8621
   -37.9910 -37.9816 -37.9744 -37.8862 -37.8712 -37.8697 -37.8669 -37.8642
   -37.8610 -37.8517 -37.8471 -37.8451 -37.8428 -37.8416 -37.8399 -37.8305
   -37.8278 -37.8243 -37.8229 -37.8178 -37.8044 -37.7428 -37.7341 -37.7256
    -6.7606  -6.5531  -6.5006  -6.2994  -6.2320  -6.0772  -6.0170  -5.8737
     4.8160   4.8389   4.9142   5.1536   5.3379   5.4708   5.5596   5.7052
     5.8019   5.8981   6.0550   6.0792   6.1244   6.1605   6.1841   6.2648
     6.2837   6.4373   6.4770   6.5562   6.6169   6.8746   7.1531   7.2282
     7.8135   7.8735   8.2505   8.3315   8.3730   8.4666   8.5312   8.5529
     8.6202   8.6432   8.7034   8.7821   8.7903   8.8188   8.8738   8.8975
     9.2414   9.3462   9.3564   9.4041   9.4260   9.5471   9.5633   9.5841
     9.8509   9.8634  10.1583  10.2716  10.3610  10.3984  10.4332  10.5090
    10.5664  10.8354  10.9833  10.9874  11.7676  11.7767  11.8513  12.0082
    14.9387  15.7335  16.9402  17.4295  17.4399  18.4543  18.8183  18.9059
    19.7807  20.0327  20.1478  20.6093  20.6576  21.0388  21.0790  21.2243
    21.5538  21.7051  22.0306  22.1096  22.6189

          k = 0.3536-0.3536 0.0000 (  5416 PWs)   bands (ev):

   -69.1121 -68.9943 -68.9830 -68.9793 -68.9674 -68.9658 -68.9542 -68.8623
   -37.9911 -37.9813 -37.9751 -37.8868 -37.8723 -37.8713 -37.8680 -37.8630
   -37.8604 -37.8546 -37.8490 -37.8457 -37.8407 -37.8393 -37.8373 -37.8311
   -37.8277 -37.8242 -37.8203 -37.8168 -37.8044 -37.7414 -37.7348 -37.7253
    -6.8161  -6.5389  -6.4505  -6.3400  -6.2338  -6.0590  -6.0069  -5.8616
     4.6322   4.6918   4.8503   4.9227   5.4205   5.4750   5.6400   5.8556
     5.8894   5.9092   6.0074   6.0413   6.0813   6.1215   6.2707   6.3880
     6.4121   6.4407   6.4963   6.7205   6.7563   6.7867   6.9205   7.0724
     7.9655   8.1468   8.2161   8.2654   8.3073   8.3679   8.4394   8.5929
     8.6040   8.7005   8.7124   8.7265   8.7401   8.8732   8.8938   8.8999
     9.2995   9.3490   9.4403   9.4476   9.4802   9.5190   9.5430   9.5793
     9.6123   9.6524   9.7328   9.8582  10.6540  10.7095  10.8231  10.8572
    10.9346  11.1032  11.2262  11.3255  11.5659  11.6165  11.7188  11.7395
    14.2528  16.0671  16.3421  17.7172  17.7718  18.0548  18.0840  18.6794
    19.8102  19.8348  20.3786  20.4495  20.7219  20.8214  20.9433  21.2267
    21.7285  21.8480  21.9257  21.9348  23.4602

          k = 0.0000 0.0000-0.7071 (  5434 PWs)   bands (ev):

   -69.1116 -68.9938 -68.9824 -68.9788 -68.9664 -68.9658 -68.9537 -68.8618
   -37.9908 -37.9811 -37.9741 -37.8874 -37.8716 -37.8696 -37.8670 -37.8621
   -37.8542 -37.8515 -37.8488 -37.8480 -37.8431 -37.8411 -37.8383 -37.8354
   -37.8302 -37.8233 -37.8229 -37.8184 -37.8038 -37.7436 -37.7346 -37.7260
    -6.7472  -6.5813  -6.5053  -6.3030  -6.1875  -6.0702  -6.0418  -5.8749
     4.8288   4.8740   4.8874   4.9082   5.4593   5.5757   5.7691   5.8499
     5.8802   5.9548   5.9814   5.9951   6.0341   6.0604   6.1014   6.1716
     6.1863   6.2117   6.2841   6.3822   7.2042   7.2354   7.5199   7.5250
     7.6089   7.6258   8.4007   8.4124   8.4448   8.4713   8.5633   8.5889
     8.7758   8.7838   8.7992   8.8062   9.0177   9.0273   9.1091   9.1140
     9.1210   9.1504   9.1687   9.1829   9.6633   9.7067   9.7355   9.7744
     9.7955   9.8124   9.8543   9.8768   9.9126   9.9419   9.9584   9.9918
    10.0278  10.0515  10.8364  10.8454  12.2178  12.2294  12.2387  12.2469
    15.8472  16.0280  17.1798  17.2613  17.2877  17.3718  19.3250  19.3410
    20.4749  20.4994  20.7476  20.7790  21.0374  21.1043  21.1612  21.2328
    21.3986  21.4820  21.5426  21.6396  23.1661

          k = 0.0000 0.3536-0.7071 (  5400 PWs)   bands (ev):

   -69.1116 -68.9938 -68.9824 -68.9788 -68.9665 -68.9657 -68.9537 -68.8618
   -37.9902 -37.9813 -37.9746 -37.8843 -37.8722 -37.8720 -37.8668 -37.8642
   -37.8555 -37.8515 -37.8498 -37.8464 -37.8438 -37.8418 -37.8392 -37.8334
   -37.8270 -37.8240 -37.8203 -37.8177 -37.8072 -37.7424 -37.7344 -37.7272
    -6.7095  -6.5730  -6.4742  -6.3120  -6.2666  -6.1020  -6.0092  -5.8741
     5.0254   5.1121   5.1752   5.2588   5.2815   5.3229   5.3758   5.4324
     5.8990   5.9550   6.0116   6.0560   6.0879   6.1421   6.2060   6.2525
     6.4119   6.4946   6.6059   6.6369   6.6771   6.6880   6.7458   6.7979
     8.0405   8.0682   8.0953   8.1174   8.6172   8.6406   8.6539   8.6668
     8.6855   8.7084   8.7149   8.7244   8.7551   8.7724   8.7806   8.8006
     9.4866   9.5297   9.5612   9.5804   9.6221   9.6403   9.6613   9.6901
     9.7503   9.7772   9.7911   9.8246   9.8824   9.8984   9.9355   9.9527
    11.2794  11.3798  11.4226  11.4359  11.4783  11.5095  11.5333  11.6409
    16.0478  16.1744  16.2233  16.4073  18.8185  18.9400  19.0353  19.2135
    19.9088  20.0481  20.1504  20.1883  20.5479  20.7610  20.8112  20.9829
    22.1905  22.2674  22.2992  22.3832  22.7183

          k = 0.1768-0.1768 0.1768 (  5402 PWs)   bands (ev):

   -69.1129 -68.9951 -68.9839 -68.9803 -68.9680 -68.9666 -68.9550 -68.8631
   -37.9914 -37.9816 -37.9759 -37.8878 -37.8779 -37.8740 -37.8688 -37.8648
   -37.8572 -37.8569 -37.8509 -37.8444 -37.8393 -37.8377 -37.8356 -37.8284
   -37.8263 -37.8214 -37.8165 -37.8149 -37.8036 -37.7398 -37.7339 -37.7247
    -6.9549  -6.5575  -6.4540  -6.3719  -6.1234  -6.0212  -5.9435  -5.8395
     4.2325   4.2627   4.2870   4.4432   5.6751   5.7180   5.7511   5.8602
     5.8644   5.8774   5.9290   5.9599   5.9761   6.0011   6.0119   6.3993
     6.4441   6.4918   7.1792   7.3825   7.4217   7.4256   7.5092   7.5161
     7.9466   7.9937   8.0182   8.0583   8.1033   8.5619   8.5903   8.6023
     8.6171   8.6231   8.7701   8.7801   8.7924   8.9098   8.9625   8.9668
     9.0013   9.1954   9.2108   9.2280   9.4736   9.6052   9.6149   9.6253
     9.6899   9.7184   9.7285   9.8320   9.8452   9.8558  10.1800  10.1962
    11.7003  11.7302  11.7647  11.9476  11.9537  11.9650  12.0251  12.0318
    13.0469  15.7061  16.7524  16.7636  16.7805  17.6294  17.6900  17.7285
    19.9951  20.0701  20.1233  20.3367  20.4548  20.5622  20.6742  21.9544
    22.0215  22.1154  23.0614  23.1010  23.1791

          k = 0.1768 0.1768-0.1768 (  5402 PWs)   bands (ev):

   -69.1129 -68.9951 -68.9840 -68.9801 -68.9682 -68.9664 -68.9550 -68.8631
   -37.9911 -37.9820 -37.9759 -37.8848 -37.8795 -37.8739 -37.8694 -37.8663
   -37.8584 -37.8568 -37.8493 -37.8455 -37.8426 -37.8358 -37.8351 -37.8265
   -37.8255 -37.8195 -37.8163 -37.8150 -37.8062 -37.7398 -37.7331 -37.7253
    -6.9488  -6.5757  -6.4511  -6.3745  -6.0975  -6.0242  -5.9418  -5.8523
     4.2465   4.2725   4.2872   4.4318   5.6781   5.7186   5.7496   5.7853
     5.8030   5.8198   5.9684   5.9878   6.0022   6.0255   6.0597   6.4175
     6.4472   6.5098   7.1790   7.3656   7.4010   7.4133   7.4999   7.5233
     7.9416   8.0004   8.0191   8.0686   8.1064   8.5721   8.5753   8.6051
     8.6171   8.6350   8.7434   8.7810   8.7887   8.9181   8.9632   8.9670
     9.0125   9.2006   9.2186   9.2424   9.4739   9.6106   9.6165   9.6231
     9.6832   9.7120   9.7253   9.8305   9.8375   9.8659  10.1880  10.1925
    11.7005  11.7267  11.7646  11.9458  11.9517  11.9649  12.0231  12.0279
    13.0466  15.6996  16.7467  16.7703  16.7883  17.6422  17.6771  17.7338
    20.0158  20.0747  20.1317  20.3055  20.4021  20.5803  20.7035  21.9451
    22.0232  22.1171  23.0489  23.1036  23.1658

          k =-0.1768-0.1768-0.1768 (  5402 PWs)   bands (ev):

   -69.1129 -68.9951 -68.9839 -68.9802 -68.9680 -68.9666 -68.9550 -68.8631
   -37.9910 -37.9824 -37.9756 -37.8839 -37.8795 -37.8751 -37.8701 -37.8668
   -37.8594 -37.8554 -37.8503 -37.8433 -37.8402 -37.8385 -37.8361 -37.8260
   -37.8250 -37.8195 -37.8164 -37.8142 -37.8070 -37.7404 -37.7325 -37.7254
    -6.9495  -6.5711  -6.4570  -6.3723  -6.0989  -6.0177  -5.9516  -5.8478
     4.2493   4.2652   4.2813   4.4419   5.6741   5.7164   5.7521   5.7878
     5.8117   5.8324   5.9626   5.9701   5.9995   6.0369   6.0537   6.4325
     6.4583   6.4808   7.1908   7.3463   7.3997   7.4165   7.4799   7.5278
     7.9767   7.9914   8.0192   8.0635   8.0975   8.5697   8.5798   8.6111
     8.6254   8.6381   8.7735   8.7807   8.7923   8.8832   8.9628   8.9670
     9.0282   9.1940   9.2150   9.2458   9.4765   9.5975   9.6127   9.6245
     9.6903   9.7139   9.7303   9.8216   9.8363   9.8645  10.1843  10.1955
    11.7115  11.7314  11.7430  11.9374  11.9520  11.9660  12.0290  12.0334
    13.0466  15.6940  16.7524  16.7679  16.7911  17.6647  17.6798  17.7086
    20.0244  20.0553  20.1037  20.3536  20.4343  20.5107  20.7173  21.9691
    22.0329  22.0897  23.0655  23.1202  23.1427

          k =-0.3536 0.3536-0.3536 (  5444 PWs)   bands (ev):

   -69.1121 -68.9943 -68.9829 -68.9794 -68.9669 -68.9662 -68.9543 -68.8623
   -37.9910 -37.9806 -37.9755 -37.8885 -37.8748 -37.8726 -37.8662 -37.8623
   -37.8564 -37.8532 -37.8506 -37.8463 -37.8438 -37.8386 -37.8345 -37.8340
   -37.8277 -37.8261 -37.8170 -37.8164 -37.8038 -37.7409 -37.7358 -37.7254
    -6.7878  -6.5186  -6.4239  -6.3594  -6.2781  -6.0922  -5.9857  -5.8705
     4.8109   4.8831   4.9515   5.2178   5.2949   5.3618   5.5136   5.8181
     5.8228   5.9220   5.9792   6.0276   6.0683   6.1661   6.2551   6.3216
     6.3849   6.4362   6.4826   6.6636   6.7318   6.7815   6.8111   6.8472
     8.0723   8.1147   8.1416   8.2139   8.2346   8.2834   8.2956   8.3190
     8.3655   8.3715   8.8135   8.8310   8.8533   8.8947   8.9080   8.9204
     8.9936   9.1228   9.3562   9.4129   9.4346   9.4803   9.5190   9.5462
    10.5514  10.5734  10.5906  10.7211  10.7558  10.7869  10.9012  10.9412
    10.9831  11.0274  11.0684  11.1232  11.2183  11.2616  11.2925  11.3498
    14.5775  14.7662  17.7039  17.8393  17.8876  17.9949  18.0436  18.1569
    19.8697  20.0096  20.0863  20.2878  20.3559  20.4973  21.5135  21.6671
    21.7354  21.8171  21.8909  22.0022  22.1775

          k =-0.3536-0.3536 0.3536 (  5444 PWs)   bands (ev):

   -69.1121 -68.9942 -68.9832 -68.9792 -68.9674 -68.9657 -68.9543 -68.8623
   -37.9906 -37.9812 -37.9755 -37.8814 -37.8788 -37.8722 -37.8700 -37.8631
   -37.8566 -37.8558 -37.8507 -37.8465 -37.8447 -37.8394 -37.8337 -37.8298
   -37.8270 -37.8205 -37.8186 -37.8140 -37.8100 -37.7408 -37.7345 -37.7265
    -6.7216  -6.6520  -6.4060  -6.3491  -6.2091  -6.1037  -5.9837  -5.8909
     4.9206   4.9585   5.0393   5.0969   5.1755   5.2479   5.5641   5.6089
     5.8358   5.8939   5.9786   6.0583   6.1508   6.2164   6.3705   6.3926
     6.4649   6.4901   6.5376   6.5693   6.6741   6.7112   6.7874   6.7912
     8.1060   8.1240   8.1278   8.1584   8.2288   8.2947   8.3204   8.3245
     8.3416   8.3869   8.8072   8.8341   8.8485   8.8833   8.9063   8.9114
     9.0243   9.1181   9.4025   9.4262   9.4441   9.4866   9.5027   9.5188
    10.5870  10.6161  10.6429  10.6711  10.7084  10.7625  10.8908  10.9578
    10.9774  11.0649  11.0756  11.1309  11.1747  11.2563  11.2879  11.3296
    14.6377  14.6956  17.6747  17.8552  17.9284  18.0245  18.0738  18.0917
    19.9763  20.0117  20.1273  20.2171  20.2523  20.5262  21.4427  21.6492
    21.7625  21.8151  21.8674  21.9530  22.2466

          k = 0.3536 0.3536 0.3536 (  5444 PWs)   bands (ev):

   -69.1121 -68.9943 -68.9830 -68.9793 -68.9670 -68.9662 -68.9543 -68.8623
   -37.9903 -37.9820 -37.9748 -37.8798 -37.8790 -37.8725 -37.8692 -37.8668
   -37.8634 -37.8515 -37.8471 -37.8441 -37.8431 -37.8405 -37.8391 -37.8281
   -37.8249 -37.8207 -37.8167 -37.8148 -37.8118 -37.7420 -37.7331 -37.7268
    -6.7383  -6.6221  -6.4372  -6.3272  -6.2162  -6.0931  -5.9986  -5.8835
     4.8906   4.9885   5.0160   5.1185   5.1436   5.2712   5.5560   5.6550
     5.8298   5.8997   6.0100   6.0488   6.1491   6.1958   6.3348   6.3983
     6.4151   6.4726   6.5733   6.6022   6.6306   6.7290   6.7723   6.8183
     8.0620   8.1267   8.1361   8.2019   8.2339   8.2571   8.3252   8.3441
     8.3634   8.3872   8.8284   8.8303   8.8572   8.8660   8.9036   8.9107
     9.0378   9.1138   9.3915   9.4278   9.4431   9.4863   9.4976   9.5256
    10.5875  10.6007  10.6334  10.7090  10.7152  10.7478  10.8736  10.9675
    10.9944  11.0330  11.0420  11.1408  11.1940  11.2660  11.2869  11.3283
    14.6334  14.7017  17.7435  17.8157  17.8553  18.0492  18.0724  18.0980
    19.9868  20.0520  20.0885  20.2400  20.3120  20.3920  21.5101  21.6805
    21.7426  21.8244  21.8475  21.9499  22.3087

          k = 0.3536 0.0000 0.0000 (  5425 PWs)   bands (ev):

   -69.1127 -68.9948 -68.9836 -68.9799 -68.9677 -68.9664 -68.9547 -68.8629
   -37.9907 -37.9821 -37.9757 -37.8843 -37.8775 -37.8745 -37.8693 -37.8656
   -37.8583 -37.8568 -37.8493 -37.8454 -37.8404 -37.8382 -37.8362 -37.8277
   -37.8265 -37.8202 -37.8164 -37.8154 -37.8069 -37.7401 -37.7331 -37.7261
    -6.9231  -6.5833  -6.4341  -6.3796  -6.1000  -6.0375  -5.9572  -5.8584
     4.3332   4.3713   4.3852   4.4184   5.5340   5.7949   5.8153   5.8548
     5.8825   5.9184   5.9367   5.9611   6.0025   6.0206   6.0387   6.3508
     6.3577   6.8236   6.8412   6.8507   6.8745   7.5489   7.6162   7.6337
     7.8443   7.9155   8.4313   8.5249   8.5531   8.5906   8.6184   8.6301
     8.6583   8.7095   8.7184   8.7392   8.7932   8.8475   9.0158   9.0208
[...]
   -32.9139 -32.9032 -32.8948 -32.8142 -32.8047 -32.8019 -32.7978 -32.7962
   -32.7890 -32.7833 -32.7788 -32.7745 -32.7699 -32.7666 -32.7620 -32.7580
   -32.7531 -32.7512 -32.7456 -32.7401 -32.7330 -32.6757 -32.6671 -32.6574
    -6.2784  -5.9901  -5.9448  -5.6637  -5.6445  -5.5328  -5.3931  -5.2675
     6.4930   6.5605   6.6056   6.8222   6.8582   6.9939   7.0212   7.5279
     7.5449   7.7255   7.8717   8.1378   8.1947   8.2755   8.3085   8.4677
     8.4981   8.5216   8.7650   8.8014   8.8310   8.9049   9.1742   9.2200
    14.0643  14.5255  14.6800  14.6918  14.9134  14.9487  15.0789  15.1506
    15.2870  15.4072  15.4915  15.5640  15.6361  15.6619  15.6951  15.7163
    15.7486  15.7709  15.7954  15.8212  15.8617  15.8763  15.9375  15.9995
    16.0140  16.0367  16.0531  16.0919  16.1064  16.1395  16.1843  16.1940
    16.3225  16.3254  16.5010  16.5194  16.7845  16.7977  16.8254  16.9474
    17.0123  17.2358  18.6872  18.9781  19.0275  20.0694  20.6140  20.7086
    21.5661  21.6970  21.8416  22.3734  22.4543  22.7216  22.7345  22.9077
    23.3987  23.4659  23.8055  23.8678  24.5715

          k = 0.5303-0.1768 0.5303 (  5413 PWs)   bands (ev):

   -63.9158 -63.8047 -63.7933 -63.7888 -63.7787 -63.7771 -63.7648 -63.6780
   -32.9137 -32.9009 -32.8966 -32.8174 -32.8067 -32.8046 -32.7942 -32.7919
   -32.7888 -32.7850 -32.7810 -32.7747 -32.7672 -32.7651 -32.7633 -32.7576
   -32.7553 -32.7519 -32.7434 -32.7392 -32.7325 -32.6745 -32.6689 -32.6576
    -6.3040  -5.9419  -5.8693  -5.7735  -5.6922  -5.4916  -5.3673  -5.2753
     6.4698   6.5203   6.5672   6.8509   6.9188   7.0260   7.0716   7.5141
     7.6433   7.6782   7.7946   8.0575   8.1617   8.2698   8.3715   8.4194
     8.5902   8.6296   8.6823   8.7177   8.7552   8.9720   9.1532   9.2900
    14.0568  14.5372  14.6548  14.6775  14.9540  14.9881  15.0380  15.1510
    15.2971  15.3901  15.5016  15.5470  15.6282  15.6588  15.6946  15.7303
    15.7449  15.7595  15.8084  15.8432  15.8638  15.8845  15.9583  15.9823
    16.0149  16.0328  16.0533  16.0687  16.1090  16.1306  16.1760  16.2012
    16.3243  16.3319  16.5040  16.5163  16.7884  16.7977  16.8188  16.9483
    17.0084  17.2391  18.7005  18.9860  19.0105  20.0631  20.6179  20.7010
    21.5730  21.7138  21.8227  22.3713  22.4549  22.7052  22.7396  22.9127
    23.4119  23.4754  23.8063  23.8666  24.5754

          k = 0.5303 0.1768-0.5303 (  5413 PWs)   bands (ev):

   -63.9158 -63.8046 -63.7936 -63.7886 -63.7791 -63.7767 -63.7649 -63.6780
   -32.9132 -32.9017 -32.8965 -32.8117 -32.8084 -32.8059 -32.7981 -32.7919
   -32.7879 -32.7867 -32.7792 -32.7770 -32.7699 -32.7640 -32.7622 -32.7571
   -32.7528 -32.7479 -32.7424 -32.7396 -32.7369 -32.6745 -32.6682 -32.6582
    -6.2600  -6.0717  -5.8633  -5.6992  -5.6272  -5.5354  -5.3846  -5.2736
     6.5289   6.5688   6.5908   6.8004   6.8514   6.9904   7.0175   7.4501
     7.6210   7.7159   7.8619   8.1550   8.2216   8.2609   8.3613   8.4284
     8.4836   8.5250   8.7203   8.8026   8.8473   8.9577   9.1539   9.2121
    14.0614  14.5304  14.6871  14.7136  14.8920  14.9300  15.0798  15.1391
    15.2785  15.4311  15.4891  15.5476  15.6168  15.6344  15.7155  15.7284
    15.7514  15.7864  15.7998  15.8371  15.8629  15.8827  15.9406  16.0001
    16.0250  16.0365  16.0637  16.0708  16.1014  16.1559  16.1613  16.1895
    16.3227  16.3253  16.5039  16.5199  16.7821  16.7954  16.8271  16.9460
    17.0096  17.2335  18.6914  18.9840  19.0264  20.0704  20.6069  20.7112
    21.5740  21.7118  21.8441  22.3520  22.4480  22.6876  22.7383  22.9355
    23.3726  23.5015  23.8069  23.8829  24.5628

          k =-0.3536-0.3536 0.0000 (  5416 PWs)   bands (ev):

   -63.9156 -63.8045 -63.7933 -63.7885 -63.7786 -63.7768 -63.7646 -63.6778
   -32.9128 -32.9038 -32.8966 -32.8124 -32.8110 -32.8062 -32.7998 -32.7966
   -32.7890 -32.7863 -32.7781 -32.7723 -32.7707 -32.7661 -32.7640 -32.7528
   -32.7516 -32.7450 -32.7426 -32.7402 -32.7364 -32.6747 -32.6664 -32.6587
    -6.3426  -6.0274  -5.8721  -5.6894  -5.5912  -5.4896  -5.4221  -5.2694
     6.4147   6.4401   6.5393   6.6160   6.7377   6.8371   7.0649   7.3764
     7.7544   7.9806   8.1952   8.2446   8.2880   8.3608   8.3824   8.4270
     8.4976   8.5647   8.7132   8.7504   8.8233   8.8784   9.2088   9.2894
    14.1566  14.1758  14.4503  14.8135  14.8416  14.8716  14.9131  15.0904
    15.3876  15.3916  15.4348  15.5653  15.5768  15.6935  15.7315  15.8587
    15.8763  15.8919  15.9093  15.9863  16.0211  16.0395  16.0882  16.1144
    16.1343  16.1508  16.1774  16.1889  16.2099  16.2281  16.2448  16.2752
    16.2880  16.3210  16.3382  16.3481  16.3587  16.4217  16.4959  16.8542
    16.8668  17.7629  18.0198  19.4198  19.4697  19.6597  19.7145  20.6792
    21.5478  21.5761  21.6956  22.2345  22.3965  22.5195  22.7267  22.9839
    23.5778  23.6328  23.7087  23.8127  25.1855

          k = 0.0000 0.3536 0.3536 (  5416 PWs)   bands (ev):

   -63.9156 -63.8046 -63.7931 -63.7884 -63.7788 -63.7768 -63.7645 -63.6778
   -32.9136 -32.9050 -32.8951 -32.8147 -32.8085 -32.8035 -32.7989 -32.7961
   -32.7919 -32.7828 -32.7781 -32.7750 -32.7687 -32.7658 -32.7634 -32.7554
   -32.7518 -32.7488 -32.7449 -32.7403 -32.7327 -32.6757 -32.6656 -32.6578
    -6.3511  -5.9684  -5.9291  -5.6761  -5.5999  -5.4971  -5.4145  -5.2676
     6.3802   6.4377   6.5765   6.6088   6.7726   6.8074   7.0700   7.3972
     7.7289   8.0062   8.1547   8.2446   8.2756   8.3460   8.4212   8.4591
     8.4962   8.5651   8.7030   8.7234   8.8183   8.8690   9.2304   9.2924
    14.1557  14.1765  14.4347  14.8072  14.8511  14.8817  14.9148  15.0952
    15.3891  15.3951  15.4436  15.5485  15.5769  15.6993  15.7356  15.8480
    15.8822  15.8912  15.9095  15.9654  16.0322  16.0453  16.0763  16.1115
    16.1275  16.1602  16.1731  16.1967  16.2256  16.2391  16.2625  16.2724
    16.2895  16.3104  16.3342  16.3404  16.3697  16.4018  16.4928  16.8554
    16.8652  17.8489  17.9248  19.3913  19.4943  19.6595  19.7443  20.6815
    21.5190  21.5419  21.6913  22.3229  22.3715  22.4525  22.8227  22.9292
    23.5853  23.6438  23.7174  23.8006  25.1741

          k = 0.0000 0.3536-0.3536 (  5416 PWs)   bands (ev):

   -63.9156 -63.8045 -63.7932 -63.7885 -63.7786 -63.7768 -63.7646 -63.6778
   -32.9136 -32.9021 -32.8975 -32.8191 -32.8103 -32.8032 -32.7973 -32.7935
   -32.7871 -32.7843 -32.7784 -32.7760 -32.7701 -32.7675 -32.7618 -32.7562
   -32.7529 -32.7497 -32.7424 -32.7404 -32.7308 -32.6742 -32.6679 -32.6579
    -6.3641  -5.9732  -5.8174  -5.7381  -5.6899  -5.4688  -5.3738  -5.2787
     6.3753   6.3860   6.5871   6.6294   6.7624   6.8394   7.0892   7.4514
     7.8016   7.9132   8.0514   8.2236   8.2574   8.3707   8.4166   8.4990
     8.5571   8.6082   8.6565   8.6833   8.7311   8.9408   9.2765   9.2776
    14.1140  14.2163  14.4213  14.7974  14.8723  14.8775  14.9274  15.0956
    15.3898  15.3991  15.4361  15.5419  15.5642  15.7144  15.7451  15.8486
    15.8722  15.8884  15.9056  15.9736  16.0116  16.0255  16.0773  16.1079
    16.1332  16.1663  16.1915  16.2009  16.2136  16.2422  16.2649  16.2724
    16.2893  16.3081  16.3368  16.3626  16.3770  16.4031  16.4758  16.8548
    16.8692  17.8477  17.9318  19.3723  19.5273  19.6675  19.7030  20.6732
    21.5342  21.5788  21.6965  22.2439  22.3446  22.5514  22.8058  22.9219
    23.5886  23.6241  23.6896  23.8470  25.1728

          k =-0.3536 0.0000-0.3536 (  5416 PWs)   bands (ev):

   -63.9156 -63.8046 -63.7930 -63.7887 -63.7782 -63.7771 -63.7645 -63.6778
   -32.9135 -32.9030 -32.8966 -32.8173 -32.8103 -32.8060 -32.7981 -32.7948
   -32.7875 -32.7829 -32.7785 -32.7733 -32.7701 -32.7660 -32.7647 -32.7570
   -32.7521 -32.7477 -32.7432 -32.7394 -32.7322 -32.6749 -32.6672 -32.6579
    -6.3663  -5.9575  -5.8340  -5.7481  -5.6755  -5.4700  -5.3755  -5.2768
     6.3556   6.3986   6.5790   6.6367   6.7729   6.8283   7.0961   7.4654
     7.8094   7.9286   8.0229   8.1747   8.3081   8.3579   8.4379   8.4899
     8.5454   8.6327   8.6544   8.6846   8.6966   8.9399   9.2764   9.2926
    14.1427  14.1828  14.4240  14.7967  14.8676  14.8900  14.9335  15.0947
    15.3965  15.4029  15.4335  15.5406  15.5588  15.7160  15.7492  15.8526
    15.8775  15.8899  15.9023  15.9575  16.0224  16.0327  16.0775  16.1079
    16.1215  16.1659  16.1874  16.1991  16.2105  16.2477  16.2620  16.2747
    16.2931  16.3133  16.3256  16.3456  16.3786  16.3847  16.4833  16.8639
    16.8672  17.8542  17.9379  19.4143  19.4695  19.6718  19.7159  20.6740
    21.5413  21.5585  21.6884  22.2727  22.3796  22.4809  22.8243  22.9368
    23.5846  23.6223  23.7288  23.7835  25.1692

          k =-0.3536 0.0000 0.3536 (  5416 PWs)   bands (ev):

   -63.9156 -63.8045 -63.7932 -63.7883 -63.7791 -63.7765 -63.7646 -63.6778
   -32.9140 -32.9039 -32.8960 -32.8159 -32.8087 -32.8024 -32.7985 -32.7955
   -32.7897 -32.7823 -32.7797 -32.7733 -32.7701 -32.7673 -32.7646 -32.7565
   -32.7510 -32.7481 -32.7443 -32.7418 -32.7316 -32.6750 -32.6664 -32.6576
    -6.3483  -5.9954  -5.9034  -5.6767  -5.6022  -5.4931  -5.4160  -5.2686
     6.4005   6.4282   6.5751   6.6010   6.7596   6.8153   7.0736   7.3951
     7.7292   8.0025   8.1593   8.2203   8.2979   8.3392   8.4170   8.4466
     8.5177   8.5635   8.7135   8.7391   8.8085   8.8753   9.2154   9.2912
    14.1428  14.1825  14.4436  14.8129  14.8434  14.8857  14.9169  15.0890
    15.3883  15.3947  15.4498  15.5530  15.5727  15.7001  15.7192  15.8673
    15.8763  15.8922  15.9059  15.9747  16.0077  16.0322  16.0933  16.1120
    16.1274  16.1676  16.1743  16.1885  16.2154  16.2234  16.2491  16.2800
    16.3060  16.3167  16.3302  16.3563  16.3655  16.4100  16.4795  16.8609
    16.8676  17.8517  17.9390  19.4085  19.4916  19.6567  19.7132  20.6799
    21.5282  21.5587  21.6919  22.2986  22.3791  22.4839  22.8315  22.9078
    23.5859  23.6009  23.7155  23.8134  25.1789

          k =-0.7071 0.0000 0.0000 (  5434 PWs)   bands (ev):

   -63.9160 -63.8049 -63.7934 -63.7891 -63.7788 -63.7777 -63.7650 -63.6783
   -32.9106 -32.9030 -32.8960 -32.8096 -32.8086 -32.8051 -32.7947 -32.7926
   -32.7873 -32.7814 -32.7813 -32.7761 -32.7694 -32.7676 -32.7639 -32.7564
   -32.7535 -32.7510 -32.7422 -32.7415 -32.7363 -32.6747 -32.6668 -32.6603
    -6.1692  -6.1131  -5.7950  -5.7434  -5.6691  -5.6095  -5.3421  -5.2843
     6.5827   6.6297   6.6714   6.6769   7.1661   7.2050   7.4136   7.4411
     7.4788   7.5071   7.8176   7.8392   8.0983   8.1618   8.2479   8.3269
     8.4695   8.4963   8.5274   8.6080   9.1016   9.1588   9.1800   9.1981
    14.0301  14.0815  15.0464  15.1175  15.1578  15.1959  15.2300  15.2445
    15.3518  15.3855  15.4247  15.4642  15.4725  15.5135  15.5739  15.6077
    15.6212  15.6285  15.6443  15.6844  15.7212  15.7259  15.8492  15.8680
    15.8941  15.9115  15.9358  15.9455  15.9874  15.9884  15.9991  16.0121
    16.3941  16.3989  16.4733  16.4822  17.1100  17.1328  17.1407  17.1433
    17.9011  17.9663  18.5449  18.6290  18.8783  18.9903  21.2693  21.3151
    22.2273  22.2469  22.2849  22.3103  22.6603  22.8516  22.8587  22.9964
    23.0878  23.2078  23.3720  23.5008  24.8916

          k = 0.0000-0.7071 0.0000 (  5434 PWs)   bands (ev):

   -63.9160 -63.8048 -63.7938 -63.7889 -63.7792 -63.7770 -63.7652 -63.6783
   -32.9131 -32.9011 -32.8951 -32.8095 -32.8082 -32.8007 -32.7979 -32.7919
   -32.7904 -32.7861 -32.7824 -32.7741 -32.7675 -32.7643 -32.7602 -32.7583
   -32.7559 -32.7498 -32.7451 -32.7388 -32.7375 -32.6753 -32.6688 -32.6580
    -6.1815  -6.0934  -5.8206  -5.7322  -5.6705  -5.5947  -5.3584  -5.2744
     6.6034   6.6309   6.6554   6.6789   7.1480   7.2062   7.4218   7.4270
     7.4687   7.5204   7.7583   7.8941   8.0949   8.1582   8.2259   8.3506
     8.4697   8.5072   8.5716   8.5945   9.1125   9.1361   9.1711   9.2036
    14.0371  14.0670  15.0432  15.0999  15.1600  15.1874  15.2159  15.2360
    15.3898  15.3941  15.4138  15.4388  15.4670  15.4990  15.5966  15.6094
    15.6235  15.6574  15.6662  15.6910  15.7088  15.7146  15.8508  15.8694
    15.8907  15.9046  15.9371  15.9481  15.9824  15.9923  15.9997  16.0135
    16.3949  16.3969  16.4746  16.4891  17.1247  17.1332  17.1348  17.1434
    17.9027  17.9768  18.5256  18.6252  18.8798  18.9692  21.3098  21.3218
    22.2022  22.2038  22.2817  22.2959  22.7212  22.7648  22.9163  23.0042
    23.0921  23.1826  23.3892  23.4976  24.8843

          k = 0.3536-0.0000 0.7071 (  5400 PWs)   bands (ev):

   -63.9160 -63.8049 -63.7935 -63.7890 -63.7791 -63.7773 -63.7651 -63.6783
   -32.9132 -32.9015 -32.8946 -32.8159 -32.8046 -32.7992 -32.7971 -32.7925
   -32.7892 -32.7816 -32.7782 -32.7744 -32.7686 -32.7676 -32.7658 -32.7582
   -32.7550 -32.7501 -32.7472 -32.7413 -32.7320 -32.6761 -32.6682 -32.6578
    -6.1770  -6.0104  -5.9590  -5.7522  -5.6732  -5.4714  -5.4190  -5.2640
     6.7138   6.8107   6.8521   6.9348   6.9550   6.9953   7.0584   7.0980
     7.5812   7.6120   7.6797   7.7114   8.2472   8.2620   8.3635   8.3810
     8.5873   8.6886   8.7563   8.8202   8.8516   8.8888   8.9355   9.0595
    14.5053  14.5362  14.5610  14.6121  15.1478  15.2242  15.2472  15.3255
    15.3565  15.3836  15.4058  15.4227  15.4371  15.4718  15.4852  15.5425
    15.7480  15.7792  15.8081  15.8741  15.9088  15.9321  15.9338  15.9513
    15.9680  15.9842  15.9914  16.0042  16.0955  16.1407  16.2038  16.2269
    16.2318  16.2654  16.2956  16.3541  16.7412  16.7723  16.7993  16.8316
    17.8265  17.9387  18.0122  18.1231  20.4379  20.5775  20.6627  20.7988
    21.8547  21.9225  21.9823  22.0577  22.2129  22.3336  22.4006  22.5374
    24.0539  24.1020  24.1589  24.1938  24.5894

          k = 0.0000-0.7071 0.3536 (  5400 PWs)   bands (ev):

   -63.9160 -63.8049 -63.7936 -63.7890 -63.7791 -63.7773 -63.7651 -63.6783
   -32.9118 -32.9020 -32.8956 -32.8092 -32.8055 -32.8050 -32.7962 -32.7946
   -32.7896 -32.7841 -32.7781 -32.7735 -32.7724 -32.7675 -32.7624 -32.7558
   -32.7520 -32.7509 -32.7426 -32.7405 -32.7384 -32.6749 -32.6677 -32.6592
    -6.1605  -6.0668  -5.9060  -5.7635  -5.6637  -5.5216  -5.3664  -5.2776
     6.7334   6.7813   6.8540   6.9114   6.9820   7.0254   7.0411   7.1041
     7.5884   7.6224   7.6495   7.7064   8.2598   8.2843   8.3385   8.3651
     8.5667   8.6906   8.7495   8.8223   8.8367   8.9026   8.9794   9.0483
    14.5015  14.5355  14.5743  14.5997  15.1829  15.2326  15.2992  15.3324
    15.3469  15.3706  15.3882  15.4135  15.4525  15.4640  15.4726  15.4940
    15.7475  15.7691  15.8343  15.8877  15.9054  15.9157  15.9326  15.9476
    15.9560  15.9706  15.9835  16.0205  16.1017  16.1614  16.2045  16.2289
    16.2387  16.2631  16.2827  16.3492  16.7471  16.7786  16.7868  16.8199
    17.8915  17.9366  18.0215  18.0446  20.5517  20.5979  20.6752  20.7005
    21.8247  21.9037  21.9554  22.0551  22.2583  22.3515  22.4276  22.4976
    24.0685  24.0870  24.1566  24.1901  24.6209

     the Fermi energy is    12.4721 ev

!    total energy              =   -1946.19988502 Ry
     Harris-Foulkes estimate   =   -1946.19988497 Ry
     estimated scf accuracy    <          2.6E-09 Ry

     The total energy is the sum of the following terms:

     one-electron contribution =    -897.22271289 Ry
     hartree contribution      =     532.99959550 Ry
     xc contribution           =    -270.02470011 Ry
     ewald contribution        =   -1312.31872280 Ry
     Hubbard energy            =       0.36690340 Ry
     smearing contrib. (-TS)   =      -0.00024812 Ry

     total magnetization       =    40.00 Bohr mag/cell
     absolute magnetization    =    40.00 Bohr mag/cell

     convergence has been achieved in  13 iterations

     Forces acting on atoms (Ry/au):


     negative rho (up, down):  0.000E+00 1.194E-03
     atom    1 type  1   force =   0.13287525E-01  0.68630958E-02  0.18516247E-01
     atom    2 type  2   force =  -0.89993186E-02  0.63630586E-02  0.11813605E-01
     atom    3 type  1   force =   0.18608353E-01 -0.20783176E-01  0.52479903E-02
     atom    4 type  2   force =  -0.57984280E-02  0.81038777E-03 -0.34862855E-03
     atom    5 type  1   force =  -0.22725121E-01  0.50480347E-03 -0.67452612E-02
     atom    6 type  2   force =   0.41856283E-02  0.54475957E-02 -0.30456348E-02
     atom    7 type  1   force =  -0.11419168E-01  0.13115680E-01 -0.23088620E-01
     atom    8 type  2   force =   0.32917746E-02 -0.17910797E-01  0.10188730E-01
     atom    9 type  1   force =  -0.51036143E-03 -0.14666021E-01  0.16126770E-01
     atom   10 type  2   force =  -0.37015913E-02  0.18525362E-02  0.34639116E-02
     atom   11 type  1   force =   0.18403512E-01 -0.23554019E-01  0.96394061E-02
     atom   12 type  2   force =   0.73065400E-02 -0.71662917E-02 -0.15876063E-01
     atom   13 type  1   force =  -0.14986373E-01  0.32740371E-01 -0.30577345E-02
     atom   14 type  2   force =  -0.25259191E-02  0.67062477E-02 -0.67555753E-02
     atom   15 type  1   force =  -0.49614683E-02  0.34169334E-02 -0.29404816E-01
     atom   16 type  2   force =   0.10544416E-01  0.62595952E-02  0.13325673E-01

     Total force =     0.089648     Total SCF correction =     0.000221


     entering subroutine stress ...


     negative rho (up, down):  0.000E+00 1.194E-03
          total   stress  (Ry/bohr**3)                   (kbar)     P=    4.63
   0.0000239073   0.0000061755  -0.0000038035          3.52      0.91     -0.56
   0.0000061755   0.0000404277   0.0000027970          0.91      5.95      0.41
  -0.0000038035   0.0000027970   0.0000301185         -0.56      0.41      4.43


     Writing output data file mno_fm.scf.in.super.222.022.save

     init_run     :     58.36s CPU     60.07s WALL (       1 calls)
     electrons    :   2119.75s CPU   2285.72s WALL (       1 calls)
     forces       :    151.87s CPU    175.41s WALL (       1 calls)
     stress       :    464.18s CPU    530.10s WALL (       1 calls)

     Called by init_run:
     wfcinit      :     57.50s CPU     59.17s WALL (       1 calls)
     potinit      :      0.16s CPU      0.19s WALL (       1 calls)

     Called by electrons:
     c_bands      :   1896.38s CPU   2047.12s WALL (      13 calls)
     sum_band     :    217.59s CPU    232.48s WALL (      13 calls)
     v_of_rho     :      1.54s CPU      1.65s WALL (      14 calls)
     newd         :      3.63s CPU      3.68s WALL (      14 calls)
     mix_rho      :      0.80s CPU      0.90s WALL (      13 calls)

     Called by c_bands:
     init_us_2    :      7.44s CPU      7.97s WALL (    2880 calls)
     cegterg      :   1863.67s CPU   2012.83s WALL (     936 calls)

     Called by *egterg:
     h_psi        :    966.41s CPU   1045.23s WALL (    2971 calls)
     s_psi        :    129.38s CPU    102.93s WALL (    3763 calls)
     g_psi        :      1.34s CPU      1.29s WALL (    1963 calls)
     cdiaghg      :    428.78s CPU    528.33s WALL (    2899 calls)

     Called by h_psi:
     add_vuspsi   :     96.19s CPU     80.04s WALL (    2971 calls)
     vhpsi        :     83.20s CPU    102.47s WALL (    2971 calls)

     General routines
     calbec       :    752.59s CPU    837.14s WALL (   51590 calls)
     fft          :      1.32s CPU      1.40s WALL (     468 calls)
     ffts         :      0.47s CPU      0.57s WALL (     326 calls)
     fftw         :    749.85s CPU    845.10s WALL (  667158 calls)
     interpolate  :      0.22s CPU      0.27s WALL (      54 calls)
     davcio       :      0.01s CPU      0.03s WALL (      72 calls)

     Parallel routines
     fft_scatter  :    296.51s CPU    334.92s WALL (  667952 calls)
     Hubbard U routines
     new_ns       :     17.50s CPU     19.55s WALL (      13 calls)
     vhpsi        :     83.20s CPU    102.47s WALL (    2971 calls)
     force_hub    :    135.42s CPU    160.80s WALL (       1 calls)
     stres_hub    :    429.39s CPU    495.31s WALL (       1 calls)

     PWSCF        : 46m39.97s CPU    50m58.19s WALL


   This run was terminated on:  23:22:19  16Aug2017            

=------------------------------------------------------------------------------=
   JOB DONE.
=------------------------------------------------------------------------------=
