
     Program PWSCF v.5.1 starts on 16Aug2017 at 19:14:37 

     This program is part of the open-source Quantum ESPRESSO suite
     for quantum simulation of materials; please cite
         "P. Giannozzi et al., J. Phys.:Condens. Matter 21 395502 (2009);
          URL http://www.quantum-espresso.org", 
     in publications or presentations arising from this work. More details at
     http://www.quantum-espresso.org/quote

     Parallel version (MPI), running on     8 processors
     R & G space division:  proc/nbgrp/npool/nimage =       8
     Reading input from /tmp/mno_afm.in.222.05.16600/mno_afm.in.222.05.t
Warning: card &IONS ignored
Warning: card   ION_DYNAMICS='BFGS', ignored
Warning: card / ignored
Warning: card &CELL ignored
Warning: card  CELL_DYNAMICS = 'BFGS' ignored
Warning: card / ignored

     Current dimensions of program PWSCF are:
     Max number of different atomic species (ntypx) = 10
     Max number of k-points (npk) =  40000
     Max angular momentum in pseudopotentials (lmaxx) =  3
 kfg - two_fermi_energies  F

     Subspace diagonalization in iterative solution of the eigenvalue problem:
     a serial algorithm will be used


     Parallelization info
     --------------------
     sticks:   dense  smooth     PW     G-vecs:    dense   smooth      PW
     Min         242     200     57                 7129     5289     816
     Max         243     201     58                 7131     5300     818
     Sum        1943    1605    459                57043    42351    6537

     Generating pointlists ...
     new r_m :   0.1427 (alat units)  1.6850 (a.u.) for type    1
     new r_m :   0.1427 (alat units)  1.6856 (a.u.) for type    2
     new r_m :   0.1427 (alat units)  1.6850 (a.u.) for type    3


     bravais-lattice index     =            0
     lattice parameter (alat)  =    11.809860670  a.u.
     unit-cell volume          =    1194.2399 (a.u.)^3
     number of atoms/cell      =           16
     number of atomic types    =            3
     number of electrons       =       168.00
     number of Kohn-Sham states=          101
     kinetic-energy cutoff     =      41.0000  Ry
     charge density cutoff     =     200.0000  Ry
     convergence threshold     =      1.0E-08
     mixing beta               =       0.3000
     number of iterations used =            8  local-TF  mixing
     Exchange-correlation      = SLA  PW   PSX  PSC ( 1  4 10  8 0)
     A smooth kinetic-energy cutoff is imposed at      40.0000 Ry
     height of the smooth step-function =             800.0000 Ry
     width of the smooth step-function  =               1.0000 Ry


     celldm(1)=  11.809861  celldm(2)=   0.000000  celldm(3)=   0.000000
     celldm(4)=   0.000000  celldm(5)=   0.000000  celldm(6)=   0.000000

     crystal axes: (cart. coord. in units of alat)
               a(1) = (  -0.012055939014   0.707055391866   0.707055391866 )  
               a(2) = (   0.707055391866  -0.012055939014   0.707055391866 )  
               a(3) = (   0.707055391866   0.707055391866  -0.012055939014 )  

     reciprocal axes: (cart. coord. in units 2 pi/alat)
               b(1) = ( -0.689324  0.701281  0.701281 )  
               b(2) = (  0.701281 -0.689324  0.701281 )  
               b(3) = (  0.701281  0.701281 -0.689324 )  


     PseudoPot. # 1 for Mn read from file:
     /users/kfg/psuedo/gbrv_1.5/mn.pbesol.UPF
     MD5 check sum: 0716d5f563e6e95a34f9080f4c78c109
     Pseudo is Ultrasoft + core correction, Zval = 15.0
     Generated by new atomic code, or converted to UPF format
     Using radial grid of  859 points,  6 beta functions with: 
                l(1) =   0
                l(2) =   0
                l(3) =   1
                l(4) =   1
                l(5) =   2
                l(6) =   2
     Q(r) pseudized with  8 coefficients,  rinner =    0.950   0.950   0.950
                                                       0.950   0.950

     PseudoPot. # 2 for Mn read from file:
     /users/kfg/psuedo/gbrv_1.5/mn.pbesol.UPF
     MD5 check sum: 0716d5f563e6e95a34f9080f4c78c109
     Pseudo is Ultrasoft + core correction, Zval = 15.0
     Generated by new atomic code, or converted to UPF format
     Using radial grid of  859 points,  6 beta functions with: 
                l(1) =   0
                l(2) =   0
                l(3) =   1
                l(4) =   1
                l(5) =   2
                l(6) =   2
     Q(r) pseudized with  8 coefficients,  rinner =    0.950   0.950   0.950
                                                       0.950   0.950

     PseudoPot. # 3 for O  read from file:
     /users/kfg/psuedo/gbrv_1.5/o.pbesol.UPF
     MD5 check sum: 501638753501ef6325af9037351f7734
     Pseudo is Ultrasoft + core correction, Zval =  6.0
     Generated by new atomic code, or converted to UPF format
     Using radial grid of  737 points,  5 beta functions with: 
                l(1) =   0
                l(2) =   0
                l(3) =   1
                l(4) =   1
                l(5) =   2
     Q(r) pseudized with  8 coefficients,  rinner =    0.900   0.900   0.900
                                                       0.900   0.900

     atomic species   valence    mass     pseudopotential
        Mn            15.00    54.90000     Mn( 1.00)
        Fe            15.00    54.90000     Mn( 1.00)
        O              6.00    15.99900     O ( 1.00)

     Starting magnetic structure 
     atomic species   magnetization
        Mn           1.000
        Fe          -1.000
        O            0.000


     Simplified LDA+U calculation (l_max = 2) with parameters (eV):
     atomic species    L          U    alpha       J0     beta
        Mn             2     3.0000   0.0000   0.0000   0.0000
        Fe             2     3.0000   0.0000   0.0000   0.0000



     No symmetry found



   Cartesian axes

     site n.     atom                  positions (alat units)
         1           Mn  tau(   1) = (    0.00264213318   -0.00123403943   -0.00337780919  )
         2           O   tau(   2) = (    0.35361753156    0.34566612425    0.35649313517  )
         3           Fe  tau(   3) = (    0.70569043091    0.70686585577    0.70332767287  )
         4           O   tau(   4) = (    1.04656068624    1.05460981054    1.05076804064  )
         5           Mn  tau(   5) = (    1.05161857922    1.04821365506    0.69318568794  )
         6           O   tau(   6) = (    0.70028049862    0.70440414415    1.06503001633  )
         7           Fe  tau(   7) = (    0.35080571027    0.34977406411    0.00172997871  )
         8           O   tau(   8) = (    0.70807823473    0.70095707834    0.33894315182  )
         9           Mn  tau(   9) = (    0.35328655841    0.71502371291    0.35125175204  )
        10           O   tau(  10) = (    0.69913414467    1.05814646339    0.69692329258  )
        11           Fe  tau(  11) = (    0.34849816295   -0.00093583619    0.35980337333  )
        12           O   tau(  12) = (    0.71191495737    0.33726696181    0.70187011723  )
        13           Mn  tau(  13) = (    0.69565643048    1.05196265409    1.05898873284  )
        14           O   tau(  14) = (    1.06031866863    0.69678695499    0.69759769207  )
        15           Fe  tau(  15) = (    0.70110008535    1.06767962683    0.34680623400  )
        16           O   tau(  16) = (    0.34255949509    0.70535253330    0.70365218060  )

     number of k points=    72  gaussian smearing, width (Ry)=  0.0100
                       cart. coord. in units 2pi/alat
        k(    1) = (   0.0000000   0.0000000   0.0000000), wk =   0.0156250
        k(    2) = (   0.1753203   0.1753203  -0.1723310), wk =   0.0312500
        k(    3) = (  -0.3506407  -0.3506407   0.3446619), wk =   0.0156250
        k(    4) = (   0.3506407   0.0029894   0.0029894), wk =   0.0312500
        k(    5) = (  -0.1753203  -0.5229717   0.5199823), wk =   0.0312500
        k(    6) = (   0.0000000  -0.3476513   0.3476513), wk =   0.0312500
        k(    7) = (  -0.7012814  -0.0059787  -0.0059787), wk =   0.0156250
        k(    8) = (   0.1783097   0.1783097   0.1783097), wk =   0.0312500
        k(    9) = (  -0.3476513  -0.3476513   0.6953026), wk =   0.0312500
        k(   10) = (  -0.1723310  -0.1723310   0.5229717), wk =   0.0312500
        k(   11) = (  -0.8736123   0.1693416   0.1693416), wk =   0.0312500
        k(   12) = (  -0.6982920   0.3446619  -0.0029894), wk =   0.0312500
        k(   13) = (  -0.3566194  -0.3566194  -0.3566194), wk =   0.0156250
        k(   14) = (   0.1723310  -0.1753203  -0.1753203), wk =   0.0312500
        k(   15) = (  -0.1753203   0.1723310  -0.1753203), wk =   0.0312500
        k(   16) = (  -0.3446619   0.3506407   0.3506407), wk =   0.0156250
        k(   17) = (   0.3506407  -0.3446619   0.3506407), wk =   0.0156250
        k(   18) = (  -0.0029894  -0.3506407  -0.0029894), wk =   0.0312500
        k(   19) = (  -0.0029894  -0.0029894  -0.3506407), wk =   0.0312500
        k(   20) = (   0.5229717   0.1753203  -0.5199823), wk =   0.0312500
        k(   21) = (  -0.5199823   0.5229717   0.1753203), wk =   0.0312500
        k(   22) = (   0.1753203  -0.5199823   0.5229717), wk =   0.0312500
        k(   23) = (  -0.5229717   0.5199823  -0.1753203), wk =   0.0312500
        k(   24) = (   0.5199823  -0.1753203  -0.5229717), wk =   0.0312500
        k(   25) = (   0.3476513   0.0000000  -0.3476513), wk =   0.0312500
        k(   26) = (  -0.3476513   0.3476513   0.0000000), wk =   0.0312500
        k(   27) = (   0.0059787   0.7012814   0.0059787), wk =   0.0156250
        k(   28) = (   0.0059787   0.0059787   0.7012814), wk =   0.0156250
        k(   29) = (  -0.6953026   0.3476513   0.3476513), wk =   0.0312500
        k(   30) = (   0.3476513  -0.6953026   0.3476513), wk =   0.0312500
        k(   31) = (  -0.5229717   0.1723310   0.1723310), wk =   0.0312500
        k(   32) = (   0.1723310  -0.5229717   0.1723310), wk =   0.0312500
        k(   33) = (  -0.1693416   0.8736123  -0.1693416), wk =   0.0312500
        k(   34) = (  -0.1693416  -0.1693416   0.8736123), wk =   0.0312500
        k(   35) = (  -0.3446619   0.6982920   0.0029894), wk =   0.0312500
        k(   36) = (   0.6982920   0.0029894  -0.3446619), wk =   0.0312500
        k(   37) = (   0.0000000   0.0000000   0.0000000), wk =   0.0156250
        k(   38) = (   0.1753203   0.1753203  -0.1723310), wk =   0.0312500
        k(   39) = (  -0.3506407  -0.3506407   0.3446619), wk =   0.0156250
        k(   40) = (   0.3506407   0.0029894   0.0029894), wk =   0.0312500
        k(   41) = (  -0.1753203  -0.5229717   0.5199823), wk =   0.0312500
        k(   42) = (   0.0000000  -0.3476513   0.3476513), wk =   0.0312500
        k(   43) = (  -0.7012814  -0.0059787  -0.0059787), wk =   0.0156250
        k(   44) = (   0.1783097   0.1783097   0.1783097), wk =   0.0312500
        k(   45) = (  -0.3476513  -0.3476513   0.6953026), wk =   0.0312500
        k(   46) = (  -0.1723310  -0.1723310   0.5229717), wk =   0.0312500
        k(   47) = (  -0.8736123   0.1693416   0.1693416), wk =   0.0312500
        k(   48) = (  -0.6982920   0.3446619  -0.0029894), wk =   0.0312500
        k(   49) = (  -0.3566194  -0.3566194  -0.3566194), wk =   0.0156250
        k(   50) = (   0.1723310  -0.1753203  -0.1753203), wk =   0.0312500
        k(   51) = (  -0.1753203   0.1723310  -0.1753203), wk =   0.0312500
        k(   52) = (  -0.3446619   0.3506407   0.3506407), wk =   0.0156250
        k(   53) = (   0.3506407  -0.3446619   0.3506407), wk =   0.0156250
        k(   54) = (  -0.0029894  -0.3506407  -0.0029894), wk =   0.0312500
        k(   55) = (  -0.0029894  -0.0029894  -0.3506407), wk =   0.0312500
        k(   56) = (   0.5229717   0.1753203  -0.5199823), wk =   0.0312500
        k(   57) = (  -0.5199823   0.5229717   0.1753203), wk =   0.0312500
        k(   58) = (   0.1753203  -0.5199823   0.5229717), wk =   0.0312500
        k(   59) = (  -0.5229717   0.5199823  -0.1753203), wk =   0.0312500
        k(   60) = (   0.5199823  -0.1753203  -0.5229717), wk =   0.0312500
        k(   61) = (   0.3476513   0.0000000  -0.3476513), wk =   0.0312500
        k(   62) = (  -0.3476513   0.3476513   0.0000000), wk =   0.0312500
        k(   63) = (   0.0059787   0.7012814   0.0059787), wk =   0.0156250
        k(   64) = (   0.0059787   0.0059787   0.7012814), wk =   0.0156250
        k(   65) = (  -0.6953026   0.3476513   0.3476513), wk =   0.0312500
        k(   66) = (   0.3476513  -0.6953026   0.3476513), wk =   0.0312500
        k(   67) = (  -0.5229717   0.1723310   0.1723310), wk =   0.0312500
        k(   68) = (   0.1723310  -0.5229717   0.1723310), wk =   0.0312500
        k(   69) = (  -0.1693416   0.8736123  -0.1693416), wk =   0.0312500
        k(   70) = (  -0.1693416  -0.1693416   0.8736123), wk =   0.0312500
        k(   71) = (  -0.3446619   0.6982920   0.0029894), wk =   0.0312500
        k(   72) = (   0.6982920   0.0029894  -0.3446619), wk =   0.0312500

     Dense  grid:    57043 G-vectors     FFT dimensions: (  54,  54,  54)

     Smooth grid:    42351 G-vectors     FFT dimensions: (  50,  50,  50)

     Largest allocated arrays     est. size (Mb)     dimensions
        Kohn-Sham Wavefunctions         1.04 Mb     (     675,  101)
        Atomic Hubbard wavefuncts       0.41 Mb     (     675,   40)
        NL pseudopotentials             2.55 Mb     (     675,  248)
        Each V/rho on FFT grid          0.62 Mb     (   20412,   2)
        Each G-vector array             0.05 Mb     (    7131)
        G-vector shells                 0.02 Mb     (    3247)
     Largest temporary arrays     est. size (Mb)     dimensions
        Auxiliary wavefunctions         4.16 Mb     (     675,  404)
        Each subspace H/S matrix        2.49 Mb     (     404,  404)
        Each <psi_i|beta_j> matrix      0.38 Mb     (     248,  101)
        Arrays for rho mixing           2.49 Mb     (   20412,    8)

     Check: negative/imaginary core charge=   -0.000061    0.000000

     Initial potential from superposition of free atoms

     starting charge  163.99935, renormalised to  168.00000
     Number of +U iterations with fixed ns =  0
     Starting occupations:
 --- enter write_ns ---
 LDA+U parameters:
U( 1)     =  3.00000000
alpha( 1) =  0.00000000
U( 2)     =  3.00000000
alpha( 2) =  0.00000000
atom    1   Tr[ns(na)] (up, down, total) =   5.00000  0.00000  5.00000
   spin  1
    eigenvalues: 
  1.000  1.000  1.000  1.000  1.000
    eigenvectors:
  1.000  0.000  0.000  0.000  0.000
  0.000  1.000  0.000  0.000  0.000
  0.000  0.000  1.000  0.000  0.000
  0.000  0.000  0.000  1.000  0.000
  0.000  0.000  0.000  0.000  1.000
    occupations:
  1.000  0.000  0.000  0.000  0.000
  0.000  1.000  0.000  0.000  0.000
  0.000  0.000  1.000  0.000  0.000
  0.000  0.000  0.000  1.000  0.000
  0.000  0.000  0.000  0.000  1.000
   spin  2
    eigenvalues: 
  0.000  0.000  0.000  0.000  0.000
    eigenvectors:
  1.000  0.000  0.000  0.000  0.000
  0.000  1.000  0.000  0.000  0.000
  0.000  0.000  1.000  0.000  0.000
  0.000  0.000  0.000  1.000  0.000
  0.000  0.000  0.000  0.000  1.000
    occupations:
  0.000  0.000  0.000  0.000  0.000
  0.000  0.000  0.000  0.000  0.000
  0.000  0.000  0.000  0.000  0.000
  0.000  0.000  0.000  0.000  0.000
  0.000  0.000  0.000  0.000  0.000
atomic mag. moment =     5.000000
atom    3   Tr[ns(na)] (up, down, total) =   0.00000  5.00000  5.00000
   spin  1
    eigenvalues: 
  0.000  0.000  0.000  0.000  0.000
    eigenvectors:
  1.000  0.000  0.000  0.000  0.000
  0.000  1.000  0.000  0.000  0.000
  0.000  0.000  1.000  0.000  0.000
  0.000  0.000  0.000  1.000  0.000
  0.000  0.000  0.000  0.000  1.000
    occupations:
  0.000  0.000  0.000  0.000  0.000
  0.000  0.000  0.000  0.000  0.000
  0.000  0.000  0.000  0.000  0.000
  0.000  0.000  0.000  0.000  0.000
  0.000  0.000  0.000  0.000  0.000
   spin  2
    eigenvalues: 
  1.000  1.000  1.000  1.000  1.000
    eigenvectors:
  1.000  0.000  0.000  0.000  0.000
  0.000  1.000  0.000  0.000  0.000
  0.000  0.000  1.000  0.000  0.000
  0.000  0.000  0.000  1.000  0.000
  0.000  0.000  0.000  0.000  1.000
    occupations:
  1.000  0.000  0.000  0.000  0.000
  0.000  1.000  0.000  0.000  0.000
  0.000  0.000  1.000  0.000  0.000
  0.000  0.000  0.000  1.000  0.000
  0.000  0.000  0.000  0.000  1.000
atomic mag. moment =    -5.000000
atom    5   Tr[ns(na)] (up, down, total) =   5.00000  0.00000  5.00000
   spin  1
    eigenvalues: 
  1.000  1.000  1.000  1.000  1.000
    eigenvectors:
  1.000  0.000  0.000  0.000  0.000
  0.000  1.000  0.000  0.000  0.000
  0.000  0.000  1.000  0.000  0.000
  0.000  0.000  0.000  1.000  0.000
  0.000  0.000  0.000  0.000  1.000
    occupations:
  1.000  0.000  0.000  0.000  0.000
  0.000  1.000  0.000  0.000  0.000
  0.000  0.000  1.000  0.000  0.000
  0.000  0.000  0.000  1.000  0.000
  0.000  0.000  0.000  0.000  1.000
   spin  2
    eigenvalues: 
  0.000  0.000  0.000  0.000  0.000
    eigenvectors:
  1.000  0.000  0.000  0.000  0.000
  0.000  1.000  0.000  0.000  0.000
  0.000  0.000  1.000  0.000  0.000
  0.000  0.000  0.000  1.000  0.000
  0.000  0.000  0.000  0.000  1.000
    occupations:
  0.000  0.000  0.000  0.000  0.000
  0.000  0.000  0.000  0.000  0.000
  0.000  0.000  0.000  0.000  0.000
  0.000  0.000  0.000  0.000  0.000
  0.000  0.000  0.000  0.000  0.000
atomic mag. moment =     5.000000
atom    7   Tr[ns(na)] (up, down, total) =   0.00000  5.00000  5.00000
   spin  1
    eigenvalues: 
  0.000  0.000  0.000  0.000  0.000
    eigenvectors:
  1.000  0.000  0.000  0.000  0.000
  0.000  1.000  0.000  0.000  0.000
  0.000  0.000  1.000  0.000  0.000
  0.000  0.000  0.000  1.000  0.000
  0.000  0.000  0.000  0.000  1.000
    occupations:
  0.000  0.000  0.000  0.000  0.000
  0.000  0.000  0.000  0.000  0.000
  0.000  0.000  0.000  0.000  0.000
  0.000  0.000  0.000  0.000  0.000
  0.000  0.000  0.000  0.000  0.000
   spin  2
    eigenvalues: 
  1.000  1.000  1.000  1.000  1.000
    eigenvectors:
  1.000  0.000  0.000  0.000  0.000
  0.000  1.000  0.000  0.000  0.000
  0.000  0.000  1.000  0.000  0.000
  0.000  0.000  0.000  1.000  0.000
  0.000  0.000  0.000  0.000  1.000
    occupations:
  1.000  0.000  0.000  0.000  0.000
  0.000  1.000  0.000  0.000  0.000
  0.000  0.000  1.000  0.000  0.000
  0.000  0.000  0.000  1.000  0.000
  0.000  0.000  0.000  0.000  1.000
atomic mag. moment =    -5.000000
atom    9   Tr[ns(na)] (up, down, total) =   5.00000  0.00000  5.00000
   spin  1
    eigenvalues: 
  1.000  1.000  1.000  1.000  1.000
    eigenvectors:
  1.000  0.000  0.000  0.000  0.000
  0.000  1.000  0.000  0.000  0.000
  0.000  0.000  1.000  0.000  0.000
  0.000  0.000  0.000  1.000  0.000
  0.000  0.000  0.000  0.000  1.000
    occupations:
  1.000  0.000  0.000  0.000  0.000
  0.000  1.000  0.000  0.000  0.000
  0.000  0.000  1.000  0.000  0.000
  0.000  0.000  0.000  1.000  0.000
  0.000  0.000  0.000  0.000  1.000
   spin  2
    eigenvalues: 
  0.000  0.000  0.000  0.000  0.000
    eigenvectors:
  1.000  0.000  0.000  0.000  0.000
  0.000  1.000  0.000  0.000  0.000
  0.000  0.000  1.000  0.000  0.000
  0.000  0.000  0.000  1.000  0.000
  0.000  0.000  0.000  0.000  1.000
    occupations:
  0.000  0.000  0.000  0.000  0.000
  0.000  0.000  0.000  0.000  0.000
  0.000  0.000  0.000  0.000  0.000
  0.000  0.000  0.000  0.000  0.000
  0.000  0.000  0.000  0.000  0.000
atomic mag. moment =     5.000000
atom   11   Tr[ns(na)] (up, down, total) =   0.00000  5.00000  5.00000
   spin  1
    eigenvalues: 
  0.000  0.000  0.000  0.000  0.000
    eigenvectors:
  1.000  0.000  0.000  0.000  0.000
  0.000  1.000  0.000  0.000  0.000
  0.000  0.000  1.000  0.000  0.000
  0.000  0.000  0.000  1.000  0.000
  0.000  0.000  0.000  0.000  1.000
    occupations:
  0.000  0.000  0.000  0.000  0.000
  0.000  0.000  0.000  0.000  0.000
  0.000  0.000  0.000  0.000  0.000
  0.000  0.000  0.000  0.000  0.000
  0.000  0.000  0.000  0.000  0.000
   spin  2
    eigenvalues: 
  1.000  1.000  1.000  1.000  1.000
    eigenvectors:
  1.000  0.000  0.000  0.000  0.000
  0.000  1.000  0.000  0.000  0.000
  0.000  0.000  1.000  0.000  0.000
  0.000  0.000  0.000  1.000  0.000
  0.000  0.000  0.000  0.000  1.000
    occupations:
  1.000  0.000  0.000  0.000  0.000
  0.000  1.000  0.000  0.000  0.000
  0.000  0.000  1.000  0.000  0.000
  0.000  0.000  0.000  1.000  0.000
  0.000  0.000  0.000  0.000  1.000
atomic mag. moment =    -5.000000
atom   13   Tr[ns(na)] (up, down, total) =   5.00000  0.00000  5.00000
   spin  1
    eigenvalues: 
  1.000  1.000  1.000  1.000  1.000
    eigenvectors:
  1.000  0.000  0.000  0.000  0.000
  0.000  1.000  0.000  0.000  0.000
  0.000  0.000  1.000  0.000  0.000
  0.000  0.000  0.000  1.000  0.000
  0.000  0.000  0.000  0.000  1.000
    occupations:
  1.000  0.000  0.000  0.000  0.000
  0.000  1.000  0.000  0.000  0.000
  0.000  0.000  1.000  0.000  0.000
  0.000  0.000  0.000  1.000  0.000
  0.000  0.000  0.000  0.000  1.000
   spin  2
    eigenvalues: 
  0.000  0.000  0.000  0.000  0.000
    eigenvectors:
  1.000  0.000  0.000  0.000  0.000
  0.000  1.000  0.000  0.000  0.000
  0.000  0.000  1.000  0.000  0.000
  0.000  0.000  0.000  1.000  0.000
  0.000  0.000  0.000  0.000  1.000
    occupations:
  0.000  0.000  0.000  0.000  0.000
  0.000  0.000  0.000  0.000  0.000
  0.000  0.000  0.000  0.000  0.000
  0.000  0.000  0.000  0.000  0.000
  0.000  0.000  0.000  0.000  0.000
atomic mag. moment =     5.000000
atom   15   Tr[ns(na)] (up, down, total) =   0.00000  5.00000  5.00000
   spin  1
    eigenvalues: 
  0.000  0.000  0.000  0.000  0.000
    eigenvectors:
  1.000  0.000  0.000  0.000  0.000
  0.000  1.000  0.000  0.000  0.000
  0.000  0.000  1.000  0.000  0.000
  0.000  0.000  0.000  1.000  0.000
  0.000  0.000  0.000  0.000  1.000
    occupations:
  0.000  0.000  0.000  0.000  0.000
  0.000  0.000  0.000  0.000  0.000
  0.000  0.000  0.000  0.000  0.000
  0.000  0.000  0.000  0.000  0.000
  0.000  0.000  0.000  0.000  0.000
   spin  2
    eigenvalues: 
  1.000  1.000  1.000  1.000  1.000
    eigenvectors:
  1.000  0.000  0.000  0.000  0.000
  0.000  1.000  0.000  0.000  0.000
  0.000  0.000  1.000  0.000  0.000
  0.000  0.000  0.000  1.000  0.000
  0.000  0.000  0.000  0.000  1.000
    occupations:
  1.000  0.000  0.000  0.000  0.000
  0.000  1.000  0.000  0.000  0.000
  0.000  0.000  1.000  0.000  0.000
  0.000  0.000  0.000  1.000  0.000
  0.000  0.000  0.000  0.000  1.000
atomic mag. moment =    -5.000000
N of occupied +U levels =   40.000000
 --- exit write_ns ---
 Atomic wfc used for LDA+U Projector are NOT orthogonalized
     Starting wfc are  136 randomized atomic wfcs

     total cpu time spent up to now is       60.6 secs

     Self-consistent Calculation

     iteration #  1     ecut=    41.00 Ry     beta=0.30
     Davidson diagonalization with overlap
     ethr =  1.00E-02,  avg # of iterations =  4.5
 --- enter write_ns ---
 LDA+U parameters:
U( 1)     =  3.00000000
alpha( 1) =  0.00000000
U( 2)     =  3.00000000
alpha( 2) =  0.00000000
atom    1   Tr[ns(na)] (up, down, total) =   4.99380  0.22092  5.21471
   spin  1
    eigenvalues: 
  0.998  0.998  0.998  0.999  0.999
    eigenvectors:
  0.001  0.000  0.002  0.995  0.003
  0.017  0.611  0.371  0.001  0.001
  0.432  0.279  0.287  0.002  0.000
  0.000  0.000  0.000  0.003  0.997
  0.550  0.110  0.339  0.000  0.000
    occupations:
  0.999 -0.000 -0.000 -0.000  0.000
 -0.000  0.998  0.000  0.000 -0.000
 -0.000  0.000  0.998  0.000 -0.000
 -0.000  0.000  0.000  0.999 -0.000
  0.000 -0.000 -0.000 -0.000  0.998
   spin  2
    eigenvalues: 
  0.026  0.027  0.027  0.069  0.072
    eigenvectors:
  0.000  0.000  0.000  0.033  0.967
  0.001  0.809  0.190  0.000  0.000
  0.014  0.185  0.801  0.000  0.000
  0.000  0.000  0.000  0.967  0.033
  0.986  0.005  0.009  0.000  0.000
    occupations:
  0.072 -0.000  0.001  0.000 -0.001
 -0.000  0.027  0.000 -0.000 -0.000
  0.001  0.000  0.027  0.000 -0.000
  0.000 -0.000  0.000  0.069 -0.000
 -0.001 -0.000 -0.000 -0.000  0.026
atomic mag. moment =     4.772878
atom    3   Tr[ns(na)] (up, down, total) =   0.19606  4.99447  5.19053
   spin  1
    eigenvalues: 
  0.023  0.024  0.024  0.061  0.063
    eigenvectors:
  0.001  0.000  0.000  0.983  0.017
  0.015  0.911  0.074  0.000  0.000
  0.948  0.028  0.023  0.000  0.000
  0.000  0.000  0.000  0.017  0.983
  0.036  0.060  0.903  0.000  0.000
    occupations:
  0.061 -0.000 -0.001 -0.000 -0.000
 -0.000  0.024  0.000 -0.000 -0.000
 -0.001  0.000  0.024  0.000 -0.000
 -0.000 -0.000  0.000  0.063  0.000
 -0.000 -0.000 -0.000  0.000  0.024
   spin  2
    eigenvalues: 
  0.998  0.998  0.998  1.000  1.000
    eigenvectors:
  0.001  0.000  0.000  0.015  0.984
  0.083  0.574  0.343  0.000  0.000
  0.750  0.003  0.246  0.000  0.000
  0.000  0.000  0.000  0.985  0.015
  0.166  0.423  0.410  0.000  0.001
    occupations:
  1.000  0.000 -0.000 -0.000 -0.000
  0.000  0.998  0.000 -0.000 -0.000
 -0.000  0.000  0.998  0.000 -0.000
 -0.000 -0.000  0.000  1.000  0.000
 -0.000 -0.000 -0.000  0.000  0.998
atomic mag. moment =    -4.798414
atom    5   Tr[ns(na)] (up, down, total) =   4.99406  0.20762  5.20168
   spin  1
    eigenvalues: 
  0.998  0.998  0.998  0.999  1.000
    eigenvectors:
  0.001  0.000  0.005  0.989  0.005
  0.028  0.557  0.413  0.001  0.000
  0.094  0.436  0.468  0.002  0.000
  0.000  0.000  0.000  0.005  0.995
  0.877  0.007  0.114  0.002  0.000
    occupations:
  0.999 -0.000 -0.000  0.000  0.000
 -0.000  0.998  0.000 -0.000 -0.000
 -0.000  0.000  0.998  0.000 -0.000
  0.000 -0.000  0.000  1.000 -0.000
  0.000 -0.000 -0.000 -0.000  0.998
   spin  2
    eigenvalues: 
  0.025  0.025  0.026  0.064  0.068
    eigenvectors:
  0.000  0.000  0.000  0.021  0.979
  0.087  0.861  0.051  0.000  0.000
  0.002  0.063  0.934  0.000  0.000
  0.000  0.000  0.000  0.979  0.021
  0.910  0.076  0.014  0.000  0.000
    occupations:
  0.068  0.000 -0.001  0.001  0.000
  0.000  0.025  0.000 -0.000 -0.000
 -0.001  0.000  0.026  0.000 -0.000
  0.001 -0.000  0.000  0.064 -0.000
  0.000 -0.000 -0.000 -0.000  0.025
atomic mag. moment =     4.786447
atom    7   Tr[ns(na)] (up, down, total) =   0.20920  4.99401  5.20321
   spin  1
    eigenvalues: 
  0.025  0.025  0.026  0.064  0.069
    eigenvectors:
  0.000  0.000  0.000  0.965  0.034
  0.179  0.795  0.025  0.000  0.000
  0.804  0.150  0.045  0.000  0.000
  0.000  0.000  0.000  0.034  0.966
  0.017  0.054  0.929  0.000  0.000
    occupations:
  0.065 -0.001  0.000 -0.001 -0.001
 -0.001  0.025  0.000 -0.001 -0.000
  0.000  0.000  0.025  0.000 -0.000
 -0.001 -0.001  0.000  0.069  0.000
 -0.001 -0.000 -0.000  0.000  0.026
   spin  2
    eigenvalues: 
  0.998  0.998  0.999  0.999  1.000
    eigenvectors:
  0.006  0.000  0.000  0.286  0.708
  0.343  0.391  0.262  0.004  0.000
  0.623  0.103  0.270  0.003  0.002
  0.002  0.001  0.000  0.707  0.290
  0.027  0.505  0.468  0.000  0.000
    occupations:
  0.999 -0.000  0.000  0.000 -0.000
 -0.000  0.998  0.000  0.000 -0.000
  0.000  0.000  0.998 -0.000 -0.000
  0.000  0.000 -0.000  0.999  0.000
 -0.000 -0.000 -0.000  0.000  0.998
atomic mag. moment =    -4.784804
atom    9   Tr[ns(na)] (up, down, total) =   4.99426  0.20331  5.19756
   spin  1
    eigenvalues: 
  0.998  0.998  0.998  1.000  1.000
    eigenvectors:
  0.000  0.001  0.003  0.602  0.393
  0.036  0.204  0.758  0.001  0.000
  0.118  0.641  0.238  0.003  0.000
  0.000  0.001  0.000  0.393  0.606
  0.846  0.153  0.000  0.001  0.000
    occupations:
  1.000 -0.000 -0.000 -0.000  0.000
 -0.000  0.998  0.000 -0.000  0.000
 -0.000  0.000  0.998 -0.000 -0.000
 -0.000 -0.000 -0.000  1.000  0.000
  0.000  0.000 -0.000  0.000  0.998
   spin  2
    eigenvalues: 
  0.024  0.025  0.025  0.063  0.066
    eigenvectors:
  0.000  0.000  0.000  0.122  0.877
  0.112  0.004  0.884  0.000  0.000
  0.048  0.952  0.000  0.000  0.000
  0.000  0.000  0.000  0.877  0.122
  0.840  0.044  0.116  0.000  0.000
    occupations:
  0.065 -0.000 -0.000 -0.001  0.000
 -0.000  0.025 -0.000  0.001 -0.000
 -0.000 -0.000  0.025 -0.000 -0.000
 -0.001  0.001 -0.000  0.064 -0.000
  0.000 -0.000 -0.000 -0.000  0.025
atomic mag. moment =     4.790949
atom   11   Tr[ns(na)] (up, down, total) =   0.21334  4.99378  5.20712
   spin  1
    eigenvalues: 
  0.025  0.026  0.026  0.067  0.069
    eigenvectors:
  0.000  0.000  0.000  0.861  0.138
  0.881  0.041  0.077  0.000  0.001
  0.117  0.369  0.513  0.000  0.000
  0.001  0.000  0.000  0.138  0.861
  0.001  0.589  0.410  0.001  0.000
    occupations:
  0.067 -0.000  0.000  0.001 -0.001
 -0.000  0.025  0.000 -0.001 -0.000
  0.000  0.000  0.026  0.001 -0.000
  0.001 -0.001  0.001  0.069  0.000
 -0.001 -0.000 -0.000  0.000  0.026
   spin  2
    eigenvalues: 
  0.998  0.998  0.999  0.999  0.999
    eigenvectors:
  0.000  0.000  0.000  0.182  0.818
  0.432  0.342  0.226  0.000  0.000
  0.506  0.076  0.416  0.001  0.001
  0.001  0.000  0.000  0.817  0.181
  0.060  0.582  0.357  0.000  0.000
    occupations:
  0.999 -0.000 -0.000 -0.000  0.000
 -0.000  0.998  0.000 -0.000 -0.000
 -0.000  0.000  0.998  0.000 -0.000
 -0.000 -0.000  0.000  0.999  0.000
  0.000 -0.000 -0.000  0.000  0.998
atomic mag. moment =    -4.780434
atom   13   Tr[ns(na)] (up, down, total) =   4.99387  0.21723  5.21109
   spin  1
    eigenvalues: 
  0.998  0.998  0.998  0.999  0.999
    eigenvectors:
  0.002  0.000  0.001  0.358  0.638
  0.121  0.619  0.258  0.001  0.000
  0.806  0.016  0.174  0.001  0.003
  0.000  0.001  0.000  0.640  0.359
  0.070  0.364  0.566  0.000  0.000
    occupations:
  0.999  0.000  0.000 -0.000  0.000
  0.000  0.998  0.000  0.000 -0.000
  0.000  0.000  0.998 -0.000 -0.000
 -0.000  0.000 -0.000  0.999  0.000
  0.000 -0.000 -0.000  0.000  0.998
   spin  2
    eigenvalues: 
  0.026  0.026  0.027  0.068  0.071
    eigenvectors:
  0.000  0.000  0.000  0.994  0.005
  0.732  0.265  0.003  0.000  0.000
  0.233  0.572  0.195  0.000  0.000
  0.000  0.000  0.000  0.005  0.995
  0.035  0.163  0.802  0.000  0.000
    occupations:
  0.068 -0.001 -0.000  0.000 -0.001
 -0.001  0.026  0.000  0.000  0.000
 -0.000  0.000  0.026 -0.001 -0.000
  0.000  0.000 -0.001  0.071  0.000
 -0.001  0.000 -0.000  0.000  0.027
atomic mag. moment =     4.776638
atom   15   Tr[ns(na)] (up, down, total) =   0.19870  4.99438  5.19308
   spin  1
    eigenvalues: 
  0.024  0.024  0.025  0.062  0.064
    eigenvectors:
  0.000  0.000  0.000  0.002  0.998
  0.152  0.240  0.607  0.000  0.000
  0.007  0.741  0.251  0.001  0.000
  0.000  0.001  0.000  0.997  0.002
  0.841  0.017  0.142  0.000  0.000
    occupations:
  0.064  0.000 -0.000 -0.000 -0.000
  0.000  0.024  0.000 -0.001 -0.000
 -0.000  0.000  0.024  0.001 -0.000
 -0.000 -0.001  0.001  0.062 -0.000
 -0.000 -0.000 -0.000 -0.000  0.024
   spin  2
    eigenvalues: 
  0.998  0.998  0.998  1.000  1.000
    eigenvectors:
  0.000  0.001  0.000  0.968  0.031
  0.004  0.537  0.458  0.000  0.000
  0.562  0.169  0.268  0.000  0.001
  0.000  0.001  0.000  0.031  0.968
  0.433  0.292  0.274  0.001  0.000
    occupations:
  1.000  0.000 -0.000 -0.000  0.000
  0.000  0.998  0.000 -0.000 -0.000
 -0.000  0.000  0.998  0.000 -0.000
 -0.000 -0.000  0.000  1.000 -0.000
  0.000 -0.000 -0.000 -0.000  0.998
atomic mag. moment =    -4.795686
N of occupied +U levels =   41.618991
 --- exit write_ns ---

     negative rho (up, down):  3.298E-05 3.651E-04

     Magnetic moment per site:
     atom:    1    charge:   12.6880    magn:   10.1334    constr:    0.0000
     atom:    2    charge:    5.6184    magn:   -0.0057    constr:    0.0000
     atom:    3    charge:   12.6777    magn:  -10.1315    constr:    0.0000
     atom:    4    charge:    5.6065    magn:    0.0133    constr:    0.0000
     atom:    5    charge:   12.6813    magn:   10.1311    constr:    0.0000
     atom:    6    charge:    5.6167    magn:    0.0170    constr:    0.0000
     atom:    7    charge:   12.6837    magn:  -10.1331    constr:    0.0000
     atom:    8    charge:    5.6084    magn:    0.0059    constr:    0.0000
     atom:    9    charge:   12.6789    magn:   10.1311    constr:    0.0000
     atom:   10    charge:    5.6178    magn:   -0.0022    constr:    0.0000
     atom:   11    charge:   12.6868    magn:  -10.1340    constr:    0.0000
     atom:   12    charge:    5.6083    magn:    0.0078    constr:    0.0000
     atom:   13    charge:   12.6861    magn:   10.1330    constr:    0.0000
     atom:   14    charge:    5.6166    magn:   -0.0021    constr:    0.0000
     atom:   15    charge:   12.6786    magn:  -10.1316    constr:    0.0000
     atom:   16    charge:    5.6060    magn:    0.0054    constr:    0.0000

     total cpu time spent up to now is      237.4 secs

     total energy              =   -1937.89791450 Ry
     Harris-Foulkes estimate   =   -1921.77130673 Ry
     estimated scf accuracy    <      25.37787079 Ry

     total magnetization       =    -0.00 Bohr mag/cell
     absolute magnetization    =    40.63 Bohr mag/cell

     iteration #  2     ecut=    41.00 Ry     beta=0.30
     Davidson diagonalization with overlap
     ethr =  1.00E-02,  avg # of iterations =  1.0

     negative rho (up, down):  1.809E-04 1.421E-03

     Magnetic moment per site:
     atom:    1    charge:   12.5750    magn:    4.4414    constr:    0.0000
     atom:    2    charge:    5.8432    magn:   -0.0003    constr:    0.0000
     atom:    3    charge:   12.5680    magn:   -4.4341    constr:    0.0000
     atom:    4    charge:    5.8302    magn:   -0.0008    constr:    0.0000
     atom:    5    charge:   12.5701    magn:    4.4363    constr:    0.0000
     atom:    6    charge:    5.8412    magn:    0.0030    constr:    0.0000
     atom:    7    charge:   12.5721    magn:   -4.4384    constr:    0.0000
     atom:    8    charge:    5.8323    magn:   -0.0007    constr:    0.0000
     atom:    9    charge:   12.5682    magn:    4.4352    constr:    0.0000
     atom:   10    charge:    5.8421    magn:    0.0071    constr:    0.0000
     atom:   11    charge:   12.5746    magn:   -4.4398    constr:    0.0000
     atom:   12    charge:    5.8326    magn:    0.0068    constr:    0.0000
     atom:   13    charge:   12.5734    magn:    4.4402    constr:    0.0000
     atom:   14    charge:    5.8409    magn:    0.0020    constr:    0.0000
     atom:   15    charge:   12.5686    magn:   -4.4350    constr:    0.0000
     atom:   16    charge:    5.8297    magn:    0.0017    constr:    0.0000

     total cpu time spent up to now is      342.2 secs

     total energy              =   -1945.58150958 Ry
     Harris-Foulkes estimate   =   -1938.16716322 Ry
     estimated scf accuracy    <      12.61443243 Ry

     total magnetization       =    -0.00 Bohr mag/cell
     absolute magnetization    =    40.20 Bohr mag/cell

     iteration #  3     ecut=    41.00 Ry     beta=0.30
     Davidson diagonalization with overlap
     ethr =  7.51E-03,  avg # of iterations =  3.9

     negative rho (up, down):  1.994E-04 1.485E-03

     Magnetic moment per site:
     atom:    1    charge:   12.5007    magn:    4.2189    constr:    0.0000
     atom:    2    charge:    5.8084    magn:   -0.0029    constr:    0.0000
     atom:    3    charge:   12.4893    magn:   -4.2212    constr:    0.0000
     atom:    4    charge:    5.7947    magn:    0.0031    constr:    0.0000
     atom:    5    charge:   12.4935    magn:    4.2182    constr:    0.0000
     atom:    6    charge:    5.8062    magn:    0.0037    constr:    0.0000
     atom:    7    charge:   12.4959    magn:   -4.2205    constr:    0.0000
     atom:    8    charge:    5.7968    magn:   -0.0019    constr:    0.0000
     atom:    9    charge:   12.4908    magn:    4.2195    constr:    0.0000
     atom:   10    charge:    5.8076    magn:    0.0044    constr:    0.0000
     atom:   11    charge:   12.4996    magn:   -4.2189    constr:    0.0000
     atom:   12    charge:    5.7970    magn:    0.0075    constr:    0.0000
     atom:   13    charge:   12.4986    magn:    4.2189    constr:    0.0000
     atom:   14    charge:    5.8060    magn:    0.0015    constr:    0.0000
     atom:   15    charge:   12.4904    magn:   -4.2208    constr:    0.0000
     atom:   16    charge:    5.7942    magn:    0.0025    constr:    0.0000

     total cpu time spent up to now is      509.8 secs

     total energy              =   -1946.14567508 Ry
     Harris-Foulkes estimate   =   -1946.28973170 Ry
     estimated scf accuracy    <       0.41351483 Ry

     total magnetization       =    -0.00 Bohr mag/cell
     absolute magnetization    =    37.91 Bohr mag/cell

     iteration #  4     ecut=    41.00 Ry     beta=0.30
     Davidson diagonalization with overlap
     ethr =  2.46E-04,  avg # of iterations =  7.2

     negative rho (up, down):  2.110E-04 1.518E-03

     Magnetic moment per site:
     atom:    1    charge:   12.4947    magn:    4.1086    constr:    0.0000
     atom:    2    charge:    5.8197    magn:   -0.0033    constr:    0.0000
     atom:    3    charge:   12.4831    magn:   -4.1114    constr:    0.0000
     atom:    4    charge:    5.8062    magn:    0.0035    constr:    0.0000
     atom:    5    charge:   12.4874    magn:    4.1084    constr:    0.0000
     atom:    6    charge:    5.8176    magn:    0.0037    constr:    0.0000
     atom:    7    charge:   12.4899    magn:   -4.1104    constr:    0.0000
     atom:    8    charge:    5.8083    magn:   -0.0020    constr:    0.0000
     atom:    9    charge:   12.4847    magn:    4.1098    constr:    0.0000
     atom:   10    charge:    5.8189    magn:    0.0039    constr:    0.0000
     atom:   11    charge:   12.4935    magn:   -4.1090    constr:    0.0000
     atom:   12    charge:    5.8085    magn:    0.0072    constr:    0.0000
     atom:   13    charge:   12.4926    magn:    4.1088    constr:    0.0000
     atom:   14    charge:    5.8174    magn:    0.0012    constr:    0.0000
     atom:   15    charge:   12.4843    magn:   -4.1111    constr:    0.0000
     atom:   16    charge:    5.8057    magn:    0.0025    constr:    0.0000

     total cpu time spent up to now is      796.0 secs

     total energy              =   -1946.25181517 Ry
     Harris-Foulkes estimate   =   -1946.25942180 Ry
     estimated scf accuracy    <       0.03210853 Ry

     total magnetization       =    -0.00 Bohr mag/cell
     absolute magnetization    =    37.72 Bohr mag/cell

     iteration #  5     ecut=    41.00 Ry     beta=0.30
     Davidson diagonalization with overlap
     ethr =  1.91E-05,  avg # of iterations =  3.8

     negative rho (up, down):  2.204E-04 1.535E-03

     Magnetic moment per site:
     atom:    1    charge:   12.4692    magn:    4.1490    constr:    0.0000
     atom:    2    charge:    5.8238    magn:   -0.0056    constr:    0.0000
     atom:    3    charge:   12.4565    magn:   -4.1541    constr:    0.0000
     atom:    4    charge:    5.8103    magn:    0.0065    constr:    0.0000
     atom:    5    charge:   12.4612    magn:    4.1508    constr:    0.0000
     atom:    6    charge:    5.8217    magn:    0.0043    constr:    0.0000
     atom:    7    charge:   12.4639    magn:   -4.1521    constr:    0.0000
     atom:    8    charge:    5.8124    magn:   -0.0028    constr:    0.0000
     atom:    9    charge:   12.4583    magn:    4.1526    constr:    0.0000
     atom:   10    charge:    5.8229    magn:    0.0006    constr:    0.0000
     atom:   11    charge:   12.4678    magn:   -4.1505    constr:    0.0000
     atom:   12    charge:    5.8126    magn:    0.0062    constr:    0.0000
     atom:   13    charge:   12.4669    magn:    4.1502    constr:    0.0000
     atom:   14    charge:    5.8214    magn:   -0.0001    constr:    0.0000
     atom:   15    charge:   12.4578    magn:   -4.1540    constr:    0.0000
     atom:   16    charge:    5.8098    magn:    0.0025    constr:    0.0000

     total cpu time spent up to now is      961.8 secs

     total energy              =   -1946.25452083 Ry
     Harris-Foulkes estimate   =   -1946.25479205 Ry
     estimated scf accuracy    <       0.00838469 Ry

     total magnetization       =    -0.00 Bohr mag/cell
     absolute magnetization    =    37.61 Bohr mag/cell

     iteration #  6     ecut=    41.00 Ry     beta=0.30
     Davidson diagonalization with overlap
     ethr =  4.99E-06,  avg # of iterations =  4.8

     negative rho (up, down):  2.154E-04 1.528E-03

     Magnetic moment per site:
     atom:    1    charge:   12.4654    magn:    4.1559    constr:    0.0000
     atom:    2    charge:    5.8238    magn:   -0.0061    constr:    0.0000
     atom:    3    charge:   12.4522    magn:   -4.1616    constr:    0.0000
     atom:    4    charge:    5.8103    magn:    0.0072    constr:    0.0000
     atom:    5    charge:   12.4570    magn:    4.1581    constr:    0.0000
     atom:    6    charge:    5.8217    magn:    0.0045    constr:    0.0000
     atom:    7    charge:   12.4599    magn:   -4.1592    constr:    0.0000
     atom:    8    charge:    5.8124    magn:   -0.0030    constr:    0.0000
     atom:    9    charge:   12.4540    magn:    4.1600    constr:    0.0000
     atom:   10    charge:    5.8229    magn:   -0.0003    constr:    0.0000
     atom:   11    charge:   12.4638    magn:   -4.1577    constr:    0.0000
     atom:   12    charge:    5.8125    magn:    0.0059    constr:    0.0000
     atom:   13    charge:   12.4629    magn:    4.1573    constr:    0.0000
     atom:   14    charge:    5.8214    magn:   -0.0004    constr:    0.0000
     atom:   15    charge:   12.4535    magn:   -4.1614    constr:    0.0000
     atom:   16    charge:    5.8097    magn:    0.0025    constr:    0.0000

     total cpu time spent up to now is     1180.3 secs

     total energy              =   -1946.25605789 Ry
     Harris-Foulkes estimate   =   -1946.25605527 Ry
     estimated scf accuracy    <       0.00044077 Ry

     total magnetization       =    -0.00 Bohr mag/cell
     absolute magnetization    =    37.52 Bohr mag/cell

     iteration #  7     ecut=    41.00 Ry     beta=0.30
     Davidson diagonalization with overlap
     ethr =  2.62E-07,  avg # of iterations =  1.3

     negative rho (up, down):  2.075E-04 1.518E-03

     Magnetic moment per site:
     atom:    1    charge:   12.4637    magn:    4.1454    constr:    0.0000
     atom:    2    charge:    5.8236    magn:   -0.0063    constr:    0.0000
     atom:    3    charge:   12.4501    magn:   -4.1510    constr:    0.0000
     atom:    4    charge:    5.8100    magn:    0.0075    constr:    0.0000
     atom:    5    charge:   12.4551    magn:    4.1477    constr:    0.0000
     atom:    6    charge:    5.8215    magn:    0.0044    constr:    0.0000
     atom:    7    charge:   12.4581    magn:   -4.1486    constr:    0.0000
     atom:    8    charge:    5.8121    magn:   -0.0032    constr:    0.0000
     atom:    9    charge:   12.4521    magn:    4.1496    constr:    0.0000
     atom:   10    charge:    5.8227    magn:   -0.0008    constr:    0.0000
     atom:   11    charge:   12.4621    magn:   -4.1473    constr:    0.0000
     atom:   12    charge:    5.8123    magn:    0.0057    constr:    0.0000
     atom:   13    charge:   12.4612    magn:    4.1467    constr:    0.0000
     atom:   14    charge:    5.8212    magn:   -0.0005    constr:    0.0000
     atom:   15    charge:   12.4515    magn:   -4.1509    constr:    0.0000
     atom:   16    charge:    5.8095    magn:    0.0025    constr:    0.0000

     total cpu time spent up to now is     1301.8 secs

     total energy              =   -1946.25608659 Ry
     Harris-Foulkes estimate   =   -1946.25608270 Ry
     estimated scf accuracy    <       0.00010239 Ry

     total magnetization       =    -0.00 Bohr mag/cell
     absolute magnetization    =    37.51 Bohr mag/cell

     iteration #  8     ecut=    41.00 Ry     beta=0.30
     Davidson diagonalization with overlap
     ethr =  6.09E-08,  avg # of iterations =  3.2

     negative rho (up, down):  2.009E-04 1.508E-03

     Magnetic moment per site:
     atom:    1    charge:   12.4641    magn:    4.1444    constr:    0.0000
     atom:    2    charge:    5.8232    magn:   -0.0063    constr:    0.0000
     atom:    3    charge:   12.4502    magn:   -4.1501    constr:    0.0000
     atom:    4    charge:    5.8096    magn:    0.0077    constr:    0.0000
     atom:    5    charge:   12.4553    magn:    4.1467    constr:    0.0000
     atom:    6    charge:    5.8210    magn:    0.0043    constr:    0.0000
     atom:    7    charge:   12.4584    magn:   -4.1476    constr:    0.0000
     atom:    8    charge:    5.8117    magn:   -0.0033    constr:    0.0000
     atom:    9    charge:   12.4522    magn:    4.1487    constr:    0.0000
     atom:   10    charge:    5.8223    magn:   -0.0010    constr:    0.0000
     atom:   11    charge:   12.4624    magn:   -4.1463    constr:    0.0000
     atom:   12    charge:    5.8118    magn:    0.0055    constr:    0.0000
     atom:   13    charge:   12.4615    magn:    4.1458    constr:    0.0000
     atom:   14    charge:    5.8208    magn:   -0.0005    constr:    0.0000
     atom:   15    charge:   12.4517    magn:   -4.1499    constr:    0.0000
     atom:   16    charge:    5.8091    magn:    0.0025    constr:    0.0000

     total cpu time spent up to now is     1479.9 secs

     total energy              =   -1946.25610264 Ry
     Harris-Foulkes estimate   =   -1946.25610356 Ry
     estimated scf accuracy    <       0.00000796 Ry

     total magnetization       =    -0.00 Bohr mag/cell
     absolute magnetization    =    37.50 Bohr mag/cell

     iteration #  9     ecut=    41.00 Ry     beta=0.30
     Davidson diagonalization with overlap
     ethr =  4.74E-09,  avg # of iterations =  3.0

     negative rho (up, down):  1.952E-04 1.499E-03

     Magnetic moment per site:
     atom:    1    charge:   12.4640    magn:    4.1445    constr:    0.0000
     atom:    2    charge:    5.8230    magn:   -0.0064    constr:    0.0000
     atom:    3    charge:   12.4500    magn:   -4.1503    constr:    0.0000
     atom:    4    charge:    5.8095    magn:    0.0078    constr:    0.0000
     atom:    5    charge:   12.4552    magn:    4.1469    constr:    0.0000
     atom:    6    charge:    5.8209    magn:    0.0042    constr:    0.0000
     atom:    7    charge:   12.4584    magn:   -4.1477    constr:    0.0000
     atom:    8    charge:    5.8116    magn:   -0.0034    constr:    0.0000
     atom:    9    charge:   12.4520    magn:    4.1489    constr:    0.0000
     atom:   10    charge:    5.8221    magn:   -0.0013    constr:    0.0000
     atom:   11    charge:   12.4623    magn:   -4.1464    constr:    0.0000
     atom:   12    charge:    5.8117    magn:    0.0054    constr:    0.0000
     atom:   13    charge:   12.4614    magn:    4.1458    constr:    0.0000
     atom:   14    charge:    5.8206    magn:   -0.0006    constr:    0.0000
     atom:   15    charge:   12.4515    magn:   -4.1501    constr:    0.0000
     atom:   16    charge:    5.8089    magn:    0.0025    constr:    0.0000

     total cpu time spent up to now is     1654.3 secs

     total energy              =   -1946.25610480 Ry
     Harris-Foulkes estimate   =   -1946.25610493 Ry
     estimated scf accuracy    <       0.00000250 Ry

     total magnetization       =    -0.00 Bohr mag/cell
     absolute magnetization    =    37.50 Bohr mag/cell

     iteration # 10     ecut=    41.00 Ry     beta=0.30
     Davidson diagonalization with overlap
     ethr =  1.49E-09,  avg # of iterations =  2.3

     negative rho (up, down):  1.956E-04 1.500E-03

     Magnetic moment per site:
     atom:    1    charge:   12.4640    magn:    4.1447    constr:    0.0000
     atom:    2    charge:    5.8230    magn:   -0.0064    constr:    0.0000
     atom:    3    charge:   12.4500    magn:   -4.1504    constr:    0.0000
     atom:    4    charge:    5.8094    magn:    0.0079    constr:    0.0000
     atom:    5    charge:   12.4552    magn:    4.1470    constr:    0.0000
     atom:    6    charge:    5.8208    magn:    0.0042    constr:    0.0000
     atom:    7    charge:   12.4584    magn:   -4.1478    constr:    0.0000
     atom:    8    charge:    5.8115    magn:   -0.0034    constr:    0.0000
     atom:    9    charge:   12.4520    magn:    4.1490    constr:    0.0000
     atom:   10    charge:    5.8221    magn:   -0.0014    constr:    0.0000
     atom:   11    charge:   12.4623    magn:   -4.1466    constr:    0.0000
     atom:   12    charge:    5.8116    magn:    0.0053    constr:    0.0000
     atom:   13    charge:   12.4614    magn:    4.1460    constr:    0.0000
     atom:   14    charge:    5.8206    magn:   -0.0006    constr:    0.0000
     atom:   15    charge:   12.4515    magn:   -4.1502    constr:    0.0000
     atom:   16    charge:    5.8089    magn:    0.0025    constr:    0.0000

     total cpu time spent up to now is     1803.4 secs

     total energy              =   -1946.25610548 Ry
     Harris-Foulkes estimate   =   -1946.25610527 Ry
     estimated scf accuracy    <       0.00000008 Ry

     total magnetization       =    -0.00 Bohr mag/cell
     absolute magnetization    =    37.50 Bohr mag/cell

     iteration # 11     ecut=    41.00 Ry     beta=0.30
     Davidson diagonalization with overlap
     ethr =  4.77E-11,  avg # of iterations =  2.6

     negative rho (up, down):  1.964E-04 1.501E-03

     Magnetic moment per site:
     atom:    1    charge:   12.4640    magn:    4.1447    constr:    0.0000
     atom:    2    charge:    5.8230    magn:   -0.0065    constr:    0.0000
     atom:    3    charge:   12.4500    magn:   -4.1504    constr:    0.0000
     atom:    4    charge:    5.8095    magn:    0.0079    constr:    0.0000
     atom:    5    charge:   12.4552    magn:    4.1470    constr:    0.0000
     atom:    6    charge:    5.8209    magn:    0.0042    constr:    0.0000
     atom:    7    charge:   12.4584    magn:   -4.1478    constr:    0.0000
     atom:    8    charge:    5.8115    magn:   -0.0035    constr:    0.0000
     atom:    9    charge:   12.4520    magn:    4.1490    constr:    0.0000
     atom:   10    charge:    5.8221    magn:   -0.0014    constr:    0.0000
     atom:   11    charge:   12.4623    magn:   -4.1466    constr:    0.0000
     atom:   12    charge:    5.8116    magn:    0.0053    constr:    0.0000
     atom:   13    charge:   12.4614    magn:    4.1460    constr:    0.0000
     atom:   14    charge:    5.8206    magn:   -0.0006    constr:    0.0000
     atom:   15    charge:   12.4515    magn:   -4.1502    constr:    0.0000
     atom:   16    charge:    5.8089    magn:    0.0025    constr:    0.0000

     total cpu time spent up to now is     1954.6 secs

     total energy              =   -1946.25610559 Ry
     Harris-Foulkes estimate   =   -1946.25610550 Ry
     estimated scf accuracy    <       0.00000005 Ry

     total magnetization       =    -0.00 Bohr mag/cell
     absolute magnetization    =    37.50 Bohr mag/cell

     iteration # 12     ecut=    41.00 Ry     beta=0.30
     Davidson diagonalization with overlap
     ethr =  2.77E-11,  avg # of iterations =  3.0

     negative rho (up, down):  1.961E-04 1.500E-03

     Magnetic moment per site:
     atom:    1    charge:   12.4640    magn:    4.1447    constr:    0.0000
     atom:    2    charge:    5.8230    magn:   -0.0064    constr:    0.0000
     atom:    3    charge:   12.4500    magn:   -4.1504    constr:    0.0000
     atom:    4    charge:    5.8095    magn:    0.0079    constr:    0.0000
     atom:    5    charge:   12.4552    magn:    4.1470    constr:    0.0000
     atom:    6    charge:    5.8208    magn:    0.0042    constr:    0.0000
     atom:    7    charge:   12.4584    magn:   -4.1478    constr:    0.0000
     atom:    8    charge:    5.8116    magn:   -0.0035    constr:    0.0000
     atom:    9    charge:   12.4520    magn:    4.1490    constr:    0.0000
     atom:   10    charge:    5.8221    magn:   -0.0014    constr:    0.0000
     atom:   11    charge:   12.4623    magn:   -4.1466    constr:    0.0000
     atom:   12    charge:    5.8117    magn:    0.0053    constr:    0.0000
     atom:   13    charge:   12.4614    magn:    4.1460    constr:    0.0000
     atom:   14    charge:    5.8206    magn:   -0.0006    constr:    0.0000
     atom:   15    charge:   12.4515    magn:   -4.1502    constr:    0.0000
     atom:   16    charge:    5.8089    magn:    0.0025    constr:    0.0000

     total cpu time spent up to now is     2116.8 secs

     End of self-consistent calculation
 --- enter write_ns ---
 LDA+U parameters:
U( 1)     =  3.00000000
alpha( 1) =  0.00000000
U( 2)     =  3.00000000
alpha( 2) =  0.00000000
atom    1   Tr[ns(na)] (up, down, total) =   4.97937  0.53555  5.51492
   spin  1
    eigenvalues: 
  0.994  0.995  0.996  0.997  0.997
    eigenvectors:
  0.885  0.007  0.031  0.025  0.052
  0.029  0.031  0.187  0.286  0.466
  0.036  0.118  0.583  0.262  0.002
  0.016  0.844  0.033  0.080  0.027
  0.034  0.000  0.166  0.346  0.454
    occupations:
  0.995 -0.000 -0.000 -0.000 -0.000
 -0.000  0.997 -0.000 -0.000  0.000
 -0.000 -0.000  0.996  0.000  0.000
 -0.000 -0.000  0.000  0.995 -0.000
 -0.000  0.000  0.000 -0.000  0.997
   spin  2
    eigenvalues: 
  0.060  0.062  0.062  0.173  0.179
    eigenvectors:
  0.000  0.000  0.001  0.045  0.954
  0.139  0.849  0.011  0.001  0.000
  0.056  0.000  0.942  0.001  0.001
  0.000  0.000  0.001  0.954  0.045
  0.805  0.150  0.044  0.000  0.000
    occupations:
  0.178  0.002  0.003  0.001  0.003
  0.002  0.062 -0.000  0.003  0.001
  0.003 -0.000  0.062 -0.003  0.001
  0.001  0.003 -0.003  0.173 -0.001
  0.003  0.001  0.001 -0.001  0.060
atomic mag. moment =     4.443817
atom    3   Tr[ns(na)] (up, down, total) =   0.50794  4.98544  5.49337
   spin  1
    eigenvalues: 
  0.056  0.058  0.059  0.164  0.170
    eigenvectors:
  0.000  0.000  0.002  0.972  0.026
  0.506  0.474  0.019  0.000  0.001
  0.445  0.523  0.031  0.000  0.001
  0.000  0.001  0.000  0.026  0.972
  0.049  0.001  0.948  0.002  0.000
    occupations:
  0.164  0.002  0.000 -0.001  0.004
  0.002  0.057 -0.001  0.003  0.000
  0.000 -0.001  0.057 -0.003  0.000
 -0.001  0.003 -0.003  0.170  0.001
  0.004  0.000  0.000  0.001  0.059
   spin  2
    eigenvalues: 
  0.997  0.997  0.997  0.997  0.998
    eigenvectors:
  0.109  0.093  0.048  0.006  0.744
  0.164  0.141  0.422  0.264  0.009
  0.041  0.081  0.507  0.327  0.044
  0.291  0.286  0.021  0.402  0.000
  0.396  0.399  0.002  0.000  0.203
    occupations:
  0.997 -0.000 -0.000  0.000 -0.000
 -0.000  0.997 -0.000 -0.000  0.000
 -0.000 -0.000  0.997  0.000  0.000
  0.000 -0.000  0.000  0.997  0.000
 -0.000  0.000  0.000  0.000  0.997
atomic mag. moment =    -4.477498
atom    5   Tr[ns(na)] (up, down, total) =   4.98254  0.52078  5.50332
   spin  1
    eigenvalues: 
  0.996  0.996  0.996  0.997  0.997
    eigenvectors:
  0.774  0.018  0.001  0.206  0.000
  0.104  0.139  0.192  0.293  0.272
  0.033  0.218  0.105  0.281  0.363
  0.011  0.625  0.000  0.001  0.364
  0.078  0.000  0.702  0.219  0.002
    occupations:
  0.996 -0.000 -0.000 -0.000 -0.000
 -0.000  0.997 -0.000 -0.000  0.000
 -0.000 -0.000  0.997  0.000  0.000
 -0.000 -0.000  0.000  0.997 -0.000
 -0.000  0.000  0.000 -0.000  0.997
   spin  2
    eigenvalues: 
  0.058  0.060  0.061  0.166  0.176
    eigenvectors:
  0.001  0.002  0.000  0.022  0.976
  0.090  0.854  0.054  0.001  0.001
  0.041  0.032  0.927  0.001  0.000
  0.000  0.000  0.001  0.977  0.022
  0.869  0.112  0.018  0.000  0.001
    occupations:
  0.175  0.003  0.001  0.001  0.004
  0.003  0.060 -0.001  0.003  0.001
  0.001 -0.001  0.061 -0.003  0.001
  0.001  0.003 -0.003  0.166 -0.000
  0.004  0.001  0.001 -0.000  0.058
atomic mag. moment =     4.461764
atom    7   Tr[ns(na)] (up, down, total) =   0.52283  4.98248  5.50531
   spin  1
    eigenvalues: 
  0.058  0.060  0.062  0.166  0.176
    eigenvectors:
  0.000  0.000  0.001  0.970  0.028
  0.120  0.808  0.071  0.000  0.000
  0.843  0.146  0.010  0.000  0.001
  0.000  0.001  0.000  0.028  0.971
  0.036  0.045  0.918  0.001  0.000
    occupations:
  0.167  0.001  0.003 -0.002  0.003
  0.001  0.060 -0.001  0.002  0.001
  0.003 -0.001  0.059 -0.003  0.001
 -0.002  0.002 -0.003  0.176  0.001
  0.003  0.001  0.001  0.001  0.062
   spin  2
    eigenvalues: 
  0.995  0.996  0.997  0.997  0.997
    eigenvectors:
  0.058  0.763  0.003  0.001  0.175
  0.021  0.060  0.061  0.736  0.122
  0.065  0.003  0.893  0.033  0.006
  0.849  0.043  0.043  0.053  0.012
  0.007  0.131  0.000  0.177  0.685
    occupations:
  0.996 -0.000 -0.000  0.000 -0.000
 -0.000  0.997  0.000 -0.000 -0.000
 -0.000  0.000  0.997  0.000 -0.000
  0.000 -0.000  0.000  0.996  0.000
 -0.000 -0.000 -0.000  0.000  0.997
atomic mag. moment =    -4.459654
atom    9   Tr[ns(na)] (up, down, total) =   4.98359  0.51480  5.49839
   spin  1
    eigenvalues: 
  0.996  0.996  0.997  0.997  0.997
    eigenvectors:
  0.668  0.032  0.001  0.007  0.293
  0.178  0.368  0.001  0.197  0.255
  0.101  0.000  0.342  0.431  0.126
  0.001  0.287  0.322  0.353  0.037
  0.052  0.313  0.334  0.013  0.289
    occupations:
  0.997 -0.000 -0.000  0.000 -0.000
 -0.000  0.997 -0.000 -0.000  0.000
 -0.000 -0.000  0.997  0.000  0.000
  0.000 -0.000  0.000  0.997  0.000
 -0.000  0.000  0.000  0.000  0.997
   spin  2
    eigenvalues: 
  0.058  0.059  0.060  0.167  0.172
    eigenvectors:
  0.001  0.002  0.000  0.126  0.872
  0.175  0.324  0.499  0.002  0.000
  0.256  0.251  0.491  0.001  0.000
  0.000  0.000  0.003  0.871  0.126
  0.568  0.423  0.006  0.000  0.002
    occupations:
  0.171  0.001  0.001 -0.002  0.005
  0.001  0.059 -0.001  0.005  0.000
  0.001 -0.001  0.059 -0.004  0.001
 -0.002  0.005 -0.004  0.167 -0.000
  0.005  0.000  0.001 -0.000  0.058
atomic mag. moment =     4.468792
atom   11   Tr[ns(na)] (up, down, total) =   0.52825  4.98155  5.50981
   spin  1
    eigenvalues: 
  0.060  0.061  0.062  0.170  0.176
    eigenvectors:
  0.000  0.000  0.001  0.857  0.142
  0.746  0.197  0.056  0.000  0.000
  0.126  0.759  0.113  0.001  0.000
  0.000  0.000  0.000  0.142  0.858
  0.127  0.043  0.830  0.000  0.000
    occupations:
  0.171  0.002  0.003  0.002  0.002
  0.002  0.060 -0.000  0.001  0.001
  0.003 -0.000  0.061 -0.002  0.000
  0.002  0.001 -0.002  0.175  0.000
  0.002  0.001  0.000  0.000  0.061
   spin  2
    eigenvalues: 
  0.995  0.996  0.997  0.997  0.997
    eigenvectors:
  0.071  0.792  0.059  0.014  0.064
  0.033  0.008  0.000  0.956  0.003
  0.067  0.081  0.824  0.002  0.027
  0.823  0.050  0.103  0.019  0.005
  0.007  0.070  0.014  0.009  0.901
    occupations:
  0.996 -0.000 -0.000 -0.000 -0.000
 -0.000  0.997  0.000 -0.000 -0.000
 -0.000  0.000  0.997  0.000 -0.000
 -0.000 -0.000  0.000  0.995 -0.000
 -0.000 -0.000 -0.000 -0.000  0.997
atomic mag. moment =    -4.453296
atom   13   Tr[ns(na)] (up, down, total) =   4.98031  0.53094  5.51124
   spin  1
    eigenvalues: 
  0.995  0.995  0.996  0.997  0.997
    eigenvectors:
  0.019  0.890  0.001  0.001  0.090
  0.041  0.002  0.226  0.674  0.057
  0.100  0.019  0.663  0.196  0.021
  0.837  0.014  0.039  0.110  0.000
  0.003  0.076  0.070  0.019  0.832
    occupations:
  0.995 -0.000 -0.000 -0.000 -0.000
 -0.000  0.997 -0.000 -0.000  0.000
 -0.000 -0.000  0.996  0.001  0.000
 -0.000 -0.000  0.001  0.995 -0.000
 -0.000  0.000  0.000 -0.000  0.997
   spin  2
    eigenvalues: 
  0.060  0.061  0.062  0.171  0.177
    eigenvectors:
  0.000  0.000  0.001  0.991  0.009
  0.495  0.373  0.130  0.000  0.001
  0.369  0.609  0.020  0.000  0.002
  0.000  0.003  0.000  0.008  0.989
  0.136  0.015  0.849  0.001  0.000
    occupations:
  0.171 -0.000  0.002  0.001  0.003
 -0.000  0.061 -0.001  0.004  0.001
  0.002 -0.001  0.061 -0.005  0.000
  0.001  0.004 -0.005  0.177  0.001
  0.003  0.001  0.000  0.001  0.062
atomic mag. moment =     4.449367
atom   15   Tr[ns(na)] (up, down, total) =   0.51070  4.98491  5.49561
   spin  1
    eigenvalues: 
  0.057  0.058  0.060  0.165  0.171
    eigenvectors:
  0.000  0.002  0.000  0.004  0.994
  0.099  0.714  0.186  0.000  0.001
  0.096  0.114  0.789  0.000  0.000
  0.000  0.000  0.000  0.996  0.004
  0.804  0.170  0.024  0.000  0.001
    occupations:
  0.170  0.003  0.002 -0.000  0.004
  0.003  0.059 -0.001  0.002  0.000
  0.002 -0.001  0.059 -0.001  0.001
 -0.000  0.002 -0.001  0.165 -0.001
  0.004  0.000  0.001 -0.001  0.057
   spin  2
    eigenvalues: 
  0.997  0.997  0.997  0.997  0.997
    eigenvectors:
  0.648  0.001  0.032  0.318  0.000
  0.098  0.367  0.024  0.280  0.231
  0.074  0.146  0.278  0.290  0.212
  0.001  0.384  0.058  0.000  0.557
  0.179  0.102  0.607  0.111  0.000
    occupations:
  0.997 -0.000 -0.000 -0.000 -0.000
 -0.000  0.997 -0.000 -0.000  0.000
 -0.000 -0.000  0.997  0.000 -0.000
 -0.000 -0.000  0.000  0.997  0.000
 -0.000  0.000 -0.000  0.000  0.997
atomic mag. moment =    -4.474219
N of occupied +U levels =   44.031978
 --- exit write_ns ---

 ------ SPIN UP ------------


          k = 0.0000 0.0000 0.0000 (  5263 PWs)   bands (ev):

   -68.6140 -68.5674 -68.4322 -68.3870 -63.5839 -63.5450 -63.4035 -63.3546
   -37.5135 -37.4828 -37.4715 -37.4655 -37.4344 -37.4234 -37.3297 -37.2999
   -37.2986 -37.2808 -37.2620 -37.2449 -32.5854 -32.5796 -32.5600 -32.5465
   -32.5278 -32.5202 -32.4116 -32.3930 -32.3820 -32.3534 -32.3470 -32.3328
    -6.6301  -5.7844  -5.7749  -5.7688  -5.5934  -5.5893  -5.5773  -5.5556
     4.9516   4.9656   4.9712   5.0157   6.4820   6.4899   6.4911   6.7244
     6.7347   6.8410   6.8803   6.8829   7.0163   7.0458   7.0879   8.3121
     8.3386   8.3644   8.5865   8.5901   8.6288   8.6644   8.7386   8.7855
     8.8275   8.8610   9.2887   9.3484   9.3596   9.4047   9.6890   9.7259
     9.7361   9.7731   9.7836   9.9388  11.1309  11.1927  11.3386  11.4428
    11.5226  11.5677  11.6138  11.6326  13.1330  15.0427  15.0581  15.0873
    15.7002  15.7148  15.7300  16.3318  16.3965  16.4225  16.4323  16.4622
    16.5042  16.5488  16.5742  16.6388  16.6950

          k = 0.1753 0.1753-0.1723 (  5270 PWs)   bands (ev):

   -68.6137 -68.5672 -68.4319 -68.3867 -63.5840 -63.5451 -63.4036 -63.3548
   -37.5133 -37.4812 -37.4709 -37.4654 -37.4351 -37.4245 -37.3296 -37.3006
   -37.2970 -37.2807 -37.2626 -37.2473 -32.5850 -32.5762 -32.5590 -32.5472
   -32.5289 -32.5209 -32.4116 -32.3907 -32.3826 -32.3545 -32.3474 -32.3353
    -6.4988  -5.8324  -5.7819  -5.7714  -5.6743  -5.5977  -5.5825  -5.5754
     5.2316   5.2512   5.2967   5.4053   6.3403   6.3430   6.4013   6.6614
     6.8032   6.8356   6.8658   6.9776   7.0219   7.2310   7.2507   7.6166
     7.6448   8.1006   8.2012   8.3118   8.4391   8.5655   8.5886   8.8831
     9.0486   9.0850   9.1547   9.3007   9.4732   9.4993   9.5403   9.6828
     9.7372   9.7683   9.7868   9.8363  11.2421  11.2966  11.3390  11.4721
    11.5075  11.5569  11.5898  11.6729  14.0760  15.0258  15.2218  15.2322
    15.4389  15.7677  15.8179  16.0102  16.0863  16.1740  16.3133  16.3437
    16.3851  16.4149  16.4651  16.5175  16.5876

          k =-0.3506-0.3506 0.3447 (  5310 PWs)   bands (ev):

   -68.6135 -68.5669 -68.4316 -68.3864 -63.5841 -63.5452 -63.4037 -63.3549
   -37.5131 -37.4795 -37.4701 -37.4654 -37.4362 -37.4254 -37.3296 -37.3014
   -37.2953 -37.2806 -37.2631 -37.2499 -32.5849 -32.5717 -32.5579 -32.5483
   -32.5312 -32.5208 -32.4117 -32.3882 -32.3830 -32.3558 -32.3479 -32.3378
    -6.1785  -6.1534  -5.7855  -5.7699  -5.6535  -5.6379  -5.6002  -5.5752
     5.8012   5.8233   5.9340   5.9792   5.9949   6.0129   6.4256   6.4574
     6.8242   6.8331   6.9022   6.9124   6.9855   7.0174   7.0418   7.0628
     7.4985   7.5349   8.1008   8.1243   8.3097   8.3321   8.5608   8.6019
     8.9476   9.0416   9.2898   9.3700   9.5715   9.6018   9.6222   9.6403
     9.7514   9.7531   9.7896   9.8129  11.1770  11.2064  11.4142  11.5317
    11.5683  11.6215  11.6379  11.7128  15.0336  15.0592  15.5622  15.5766
    15.6231  15.6614  15.6797  15.7028  16.0162  16.0706  16.1398  16.1515
    16.3145  16.3584  16.3631  16.3868  16.4089

          k = 0.3506 0.0030 0.0030 (  5287 PWs)   bands (ev):

   -68.6140 -68.5674 -68.4322 -68.3870 -63.5837 -63.5447 -63.4033 -63.3544
   -37.5132 -37.4823 -37.4710 -37.4651 -37.4340 -37.4230 -37.3295 -37.3011
   -37.2991 -37.2805 -37.2632 -37.2451 -32.5857 -32.5793 -32.5583 -32.5470
   -32.5265 -32.5195 -32.4124 -32.3940 -32.3834 -32.3541 -32.3480 -32.3332
    -6.4613  -5.8736  -5.7722  -5.7612  -5.6353  -5.6201  -5.6087  -5.5937
     5.3232   5.3448   5.3535   5.4002   6.1955   6.4911   6.5286   6.7077
     6.8015   6.8314   6.8524   6.9179   7.0494   7.1509   7.2542   7.6164
     7.6234   8.0784   8.1678   8.2208   8.4047   8.4744   8.5051   8.7253
     8.9466   9.1101   9.2108   9.2466   9.4588   9.4986   9.5689   9.7738
     9.8158   9.8511   9.8981  10.0930  11.0655  11.1753  11.2606  11.2754
    11.4122  11.4827  11.5376  11.6126  14.3439  15.1172  15.1271  15.1773
    15.5734  15.6348  15.7829  15.9896  16.1024  16.1534  16.2768  16.2930
    16.3516  16.3873  16.4046  16.4423  16.5841

          k =-0.1753-0.5230 0.5200 (  5293 PWs)   bands (ev):

   -68.6137 -68.5672 -68.4319 -68.3867 -63.5838 -63.5449 -63.4034 -63.3545
   -37.5129 -37.4807 -37.4704 -37.4650 -37.4347 -37.4240 -37.3295 -37.3019
   -37.2975 -37.2804 -37.2637 -37.2475 -32.5854 -32.5757 -32.5572 -32.5476
   -32.5280 -32.5197 -32.4125 -32.3918 -32.3841 -32.3551 -32.3484 -32.3356
    -6.2156  -5.9865  -5.9236  -5.7198  -5.6901  -5.6625  -5.6096  -5.5551
     5.7086   5.7682   5.7981   6.0599   6.2033   6.2557   6.4232   6.5973
     6.6180   6.6812   6.8908   6.9637   7.0231   7.1389   7.2096   7.3833
     7.4403   7.6153   7.7001   7.8543   7.9069   8.2263   8.7091   8.8555
     9.0083   9.0394   9.1302   9.2929   9.6427   9.6768   9.7388   9.7667
     9.8256   9.9273   9.9797  10.0517  10.8617  11.0803  11.1349  11.3045
    11.3197  11.4495  11.5183  11.6483  15.2154  15.2329  15.3428  15.4653
    15.5578  15.6362  15.7296  15.8212  15.8956  16.0151  16.0935  16.1316
    16.1570  16.3531  16.3748  16.4301  16.5052

          k = 0.0000-0.3477 0.3477 (  5294 PWs)   bands (ev):

   -68.6135 -68.5669 -68.4316 -68.3864 -63.5841 -63.5452 -63.4037 -63.3549
   -37.5131 -37.4792 -37.4703 -37.4655 -37.4359 -37.4259 -37.3294 -37.3011
   -37.2955 -37.2806 -37.2635 -37.2496 -32.5850 -32.5720 -32.5573 -32.5482
   -32.5305 -32.5219 -32.4114 -32.3879 -32.3833 -32.3555 -32.3481 -32.3379
    -6.3088  -5.9058  -5.9000  -5.7160  -5.7036  -5.6781  -5.5774  -5.5615
     5.6198   5.6752   5.7473   5.7867   6.2178   6.2453   6.3915   6.5911
     6.7056   6.8585   6.9515   6.9717   7.0001   7.2183   7.2540   7.2853
     7.4723   7.5437   7.5600   7.9024   8.1596   8.5582   8.5993   8.8511
     9.0630   9.0800   9.1330   9.2600   9.6119   9.6813   9.6986   9.7133
     9.7891   9.7919   9.8672  10.0536  11.0471  11.0758  11.2903  11.3580
    11.3986  11.5236  11.5719  11.6841  15.1119  15.3045  15.3181  15.4157
    15.5636  15.6458  15.6602  15.8113  16.0252  16.0873  16.1030  16.1516
    16.1801  16.3431  16.3598  16.3759  16.4367

          k =-0.7013-0.0060-0.0060 (  5286 PWs)   bands (ev):

   -68.6140 -68.5674 -68.4321 -68.3869 -63.5835 -63.5445 -63.4031 -63.3542
   -37.5128 -37.4819 -37.4705 -37.4646 -37.4335 -37.4225 -37.3294 -37.3023
   -37.2996 -37.2801 -37.2643 -37.2453 -32.5860 -32.5790 -32.5565 -32.5474
   -32.5253 -32.5184 -32.4134 -32.3950 -32.3850 -32.3548 -32.3489 -32.3336
    -6.1248  -6.0983  -5.7921  -5.7792  -5.7114  -5.6874  -5.5970  -5.5811
     5.7207   5.7468   5.8220   5.8352   6.4372   6.4875   6.5683   6.5943
     6.8012   6.8098   6.9379   6.9651   7.0254   7.0673   7.1502   7.1657
     7.1978   7.2973   7.7062   7.7962   8.1936   8.2742   8.6383   8.8232
     8.9286   8.9871   9.2882   9.4364   9.5476   9.6419   9.7751   9.8962
     9.9970  10.1412  10.2609  10.3789  10.4169  10.6214  10.8058  11.0599
    11.1430  11.3955  11.4370  11.5915  15.2193  15.2281  15.3522  15.4704
    15.4825  15.6383  15.6948  15.8027  15.8222  15.9559  16.0275  16.1179
    16.1514  16.2116  16.3603  16.5382  16.5945

          k = 0.1783 0.1783 0.1783 (  5320 PWs)   bands (ev):

   -68.6148 -68.5683 -68.4330 -68.3878 -63.5829 -63.5440 -63.4024 -63.3536
   -37.5130 -37.4825 -37.4712 -37.4650 -37.4342 -37.4232 -37.3291 -37.2997
   -37.2984 -37.2802 -37.2619 -37.2448 -32.5862 -32.5802 -32.5604 -32.5474
   -32.5281 -32.5205 -32.4122 -32.3935 -32.3823 -32.3539 -32.3477 -32.3331
    -6.4942  -5.8172  -5.8159  -5.8105  -5.7252  -5.5624  -5.5504  -5.5422
     5.1874   5.2038   5.2155   5.4483   6.3913   6.3999   6.4225   6.7983
     6.8078   6.8448   6.8829   6.8909   6.9740   6.9939   7.0346   8.0824
     8.1147   8.1404   8.5381   8.5632   8.5828   8.6153   8.6895   8.7332
     8.7658   8.7864   8.8200   9.2270   9.2914   9.3522   9.4254   9.4385
     9.6295   9.8467   9.8735   9.8911  11.3250  11.3500  11.3877  11.4720
    11.5254  11.6011  11.6175  11.7082  14.1077  14.8897  14.9045  14.9382
    15.4138  15.6720  15.6867  16.2799  16.3154  16.3458  16.4129  16.4308
    16.4431  16.4759  16.4882  16.5180  16.5450

          k =-0.3477-0.3477 0.6953 (  5292 PWs)   bands (ev):

   -68.6146 -68.5680 -68.4327 -68.3875 -63.5830 -63.5441 -63.4026 -63.3537
   -37.5127 -37.4809 -37.4706 -37.4649 -37.4349 -37.4243 -37.3291 -37.3004
   -37.2968 -37.2801 -37.2624 -37.2472 -32.5858 -32.5767 -32.5594 -32.5480
   -32.5292 -32.5213 -32.4123 -32.3912 -32.3830 -32.3549 -32.3481 -32.3355
    -6.3015  -5.9142  -5.8363  -5.8254  -5.8028  -5.5933  -5.5471  -5.5344
     5.5513   5.5729   5.7521   5.8492   6.1504   6.1649   6.4339   6.6326
     6.6937   6.7166   6.7593   6.9513   6.9782   7.3127   7.3459   7.6736
     7.7036   7.8568   7.9663   8.1575   8.1828   8.3014   8.3810   8.5018
     8.8707   9.0100   9.1214   9.1876   9.3984   9.4804   9.5136   9.5712
     9.8760   9.9432   9.9644  10.1337  11.1396  11.2115  11.2508  11.3384
    11.4208  11.5226  11.6331  11.7388  14.8764  15.0459  15.1279  15.1441
    15.3115  15.6870  15.7911  16.0484  16.1157  16.2138  16.2897  16.3067
    16.3364  16.3531  16.3795  16.4116  16.4446

          k =-0.1723-0.1723 0.5230 (  5304 PWs)   bands (ev):

   -68.6137 -68.5672 -68.4319 -68.3867 -63.5838 -63.5449 -63.4033 -63.3546
   -37.5129 -37.4794 -37.4700 -37.4653 -37.4361 -37.4252 -37.3293 -37.3014
   -37.2953 -37.2804 -37.2630 -37.2499 -32.5853 -32.5716 -32.5581 -32.5482
   -32.5315 -32.5211 -32.4122 -32.3880 -32.3831 -32.3562 -32.3480 -32.3378
    -6.2194  -5.9988  -5.8296  -5.7862  -5.7704  -5.5982  -5.5844  -5.5759
     5.7753   5.7914   5.8085   5.9085   6.2366   6.2601   6.3323   6.6152
     6.8050   6.8289   6.8941   6.9637   7.0183   7.0521   7.0742   7.2092
     7.3451   7.3791   8.0603   8.0869   8.1242   8.2165   8.5539   8.6173
     8.9453   9.0233   9.3288   9.4046   9.5753   9.6104   9.6618   9.7938
     9.8746   9.9119   9.9344   9.9584  11.0525  11.1655  11.2164  11.2458
    11.3178  11.3925  11.4933  11.5705  15.0639  15.2599  15.4695  15.5430
    15.5874  15.6321  15.6487  15.6980  15.9505  16.0190  16.0730  16.1197
    16.2219  16.2785  16.4569  16.4948  16.5307

          k =-0.8736 0.1693 0.1693 (  5303 PWs)   bands (ev):

   -68.6148 -68.5682 -68.4330 -68.3878 -63.5827 -63.5437 -63.4022 -63.3534
   -37.5126 -37.4820 -37.4707 -37.4645 -37.4337 -37.4228 -37.3290 -37.3009
   -37.2989 -37.2799 -37.2630 -37.2450 -32.5865 -32.5799 -32.5587 -32.5478
   -32.5268 -32.5198 -32.4131 -32.3945 -32.3838 -32.3545 -32.3487 -32.3335
    -6.2116  -5.9550  -5.9063  -5.8184  -5.8098  -5.5677  -5.5555  -5.5422
     5.6767   5.6944   5.7062   6.0509   6.1140   6.3290   6.3611   6.5528
     6.6247   6.6652   6.8917   6.9415   7.0854   7.1720   7.2486   7.7119
     7.7440   7.8165   7.8547   7.9512   8.1646   8.3526   8.3723   8.4313
     8.7417   8.9443   9.1358   9.2521   9.4506   9.4656   9.5683   9.6028
     9.9231  10.0049  10.0581  10.1642  10.9669  11.1147  11.2268  11.2697
    11.3796  11.4831  11.5356  11.6789  14.9682  15.0496  15.1065  15.1519
    15.4287  15.6302  15.7615  15.9674  16.1467  16.1848  16.2429  16.2555
    16.3173  16.3439  16.3909  16.4715  16.5665

          k =-0.6983 0.3447-0.0030 (  5306 PWs)   bands (ev):

   -68.6140 -68.5674 -68.4321 -68.3870 -63.5835 -63.5445 -63.4030 -63.3542
   -37.5128 -37.4806 -37.4703 -37.4649 -37.4345 -37.4239 -37.3292 -37.3019
   -37.2975 -37.2802 -37.2636 -37.2475 -32.5858 -32.5756 -32.5574 -32.5477
   -32.5283 -32.5200 -32.4130 -32.3917 -32.3842 -32.3554 -32.3486 -32.3356
    -6.0359  -6.0104  -5.9902  -5.8763  -5.7259  -5.5976  -5.5904  -5.5477
     5.9641   5.9785   5.9948   6.0185   6.1154   6.2680   6.2735   6.4370
     6.5860   6.8150   6.8414   7.0031   7.0152   7.0618   7.2643   7.3989
     7.5354   7.6078   7.7011   7.7627   7.7857   8.2815   8.3119   8.7138
     8.9563   9.0876   9.1152   9.2903   9.6471   9.6785   9.7330   9.7613
     9.9522  10.0957  10.1547  10.2882  10.6675  10.8860  10.9636  11.2010
    11.2646  11.3926  11.5264  11.6328  15.2585  15.2828  15.4513  15.5219
    15.5578  15.5768  15.7908  15.8208  15.8530  15.9120  16.0329  16.1022
    16.1188  16.3414  16.3729  16.3788  16.4741

          k =-0.3566-0.3566-0.3566 (  5300 PWs)   bands (ev):

   -68.6157 -68.5691 -68.4338 -68.3886 -63.5819 -63.5429 -63.4014 -63.3526
   -37.5124 -37.4822 -37.4710 -37.4644 -37.4340 -37.4230 -37.3286 -37.2995
   -37.2981 -37.2796 -37.2617 -37.2446 -32.5869 -32.5808 -32.5609 -32.5482
   -32.5285 -32.5209 -32.4129 -32.3940 -32.3827 -32.3544 -32.3483 -32.3333
    -6.2164  -6.0443  -5.8468  -5.8446  -5.8356  -5.5393  -5.5204  -5.5141
     5.5089   5.5350   5.5518   6.1751   6.4534   6.4719   6.5142   6.5831
     6.5910   6.6339   6.8355   6.8816   6.8879   6.9036   6.9236   7.5647
     7.9512   8.0029   8.0271   8.4997   8.5372   8.5739   8.6928   8.7102
     8.7466   8.7568   8.7918   9.0271   9.0432   9.3408   9.3503   9.3835
     9.5686   9.8925   9.9231   9.9410  11.2572  11.2888  11.3355  11.5636
    11.6035  11.7011  11.8326  11.9044  14.7702  14.7857  14.8233  14.9862
    15.5772  15.6316  15.6461  16.1944  16.2329  16.2644  16.2713  16.3346
    16.3770  16.4076  16.4508  16.4735  16.4841

          k = 0.1723-0.1753-0.1753 (  5270 PWs)   bands (ev):

   -68.6138 -68.5672 -68.4319 -68.3867 -63.5840 -63.5451 -63.4036 -63.3548
   -37.5134 -37.4825 -37.4710 -37.4654 -37.4339 -37.4230 -37.3296 -37.3012
   -37.2993 -37.2807 -37.2631 -37.2452 -32.5855 -32.5790 -32.5582 -32.5465
   -32.5264 -32.5195 -32.4125 -32.3937 -32.3831 -32.3543 -32.3474 -32.3331
    -6.4995  -5.8342  -5.7837  -5.7698  -5.6683  -5.5933  -5.5868  -5.5789
     5.2356   5.2492   5.2989   5.4028   6.3384   6.3455   6.4006   6.6713
     6.8126   6.8358   6.8732   6.9550   7.0044   7.2330   7.2574   7.6202
     7.6529   8.1277   8.1923   8.3045   8.4267   8.5558   8.6065   8.8898
     9.0136   9.1145   9.1643   9.2969   9.4582   9.4728   9.5536   9.6643
     9.7027   9.7537   9.8169   9.8566  11.2674  11.2976  11.3533  11.3958
    11.4810  11.6008  11.6364  11.6699  14.0800  15.0114  15.2171  15.2517
    15.4580  15.7618  15.8146  16.0506  16.0849  16.1669  16.3094  16.3151
    16.3502  16.4250  16.4737  16.5150  16.5449

          k =-0.1753 0.1723-0.1753 (  5270 PWs)   bands (ev):

   -68.6137 -68.5672 -68.4319 -68.3867 -63.5840 -63.5451 -63.4036 -63.3548
   -37.5134 -37.4809 -37.4710 -37.4655 -37.4348 -37.4249 -37.3295 -37.3003
   -37.2973 -37.2807 -37.2629 -37.2471 -32.5852 -32.5763 -32.5586 -32.5472
   -32.5281 -32.5221 -32.4114 -32.3906 -32.3826 -32.3543 -32.3477 -32.3354
    -6.4990  -5.8348  -5.7794  -5.7753  -5.6708  -5.5901  -5.5861  -5.5790
     5.2378   5.2450   5.2990   5.4045   6.3372   6.3452   6.4036   6.6648
     6.8277   6.8375   6.8529   6.9584   7.0048   7.2291   7.2619   7.6331
     7.6378   8.1099   8.2062   8.3203   8.4289   8.5636   8.5873   8.9057
     9.0370   9.0701   9.1486   9.3123   9.4564   9.4859   9.5350   9.6806
     9.7376   9.7645   9.8025   9.8314  11.2693  11.2983  11.3208  11.4399
    11.5048  11.5716  11.6256  11.6674  14.0783  15.0160  15.2229  15.2440
    15.4333  15.7692  15.8259  16.0126  16.0876  16.1712  16.3140  16.3441
    16.3851  16.4153  16.4631  16.5199  16.5883

          k =-0.3447 0.3506 0.3506 (  5310 PWs)   bands (ev):

   -68.6135 -68.5669 -68.4316 -68.3864 -63.5841 -63.5452 -63.4037 -63.3549
   -37.5132 -37.4823 -37.4704 -37.4652 -37.4334 -37.4226 -37.3296 -37.3026
   -37.3000 -37.2806 -37.2642 -37.2455 -32.5856 -32.5783 -32.5564 -32.5465
   -32.5252 -32.5186 -32.4134 -32.3945 -32.3842 -32.3553 -32.3478 -32.3333
    -6.1997  -6.1328  -5.7867  -5.7708  -5.6472  -5.6385  -5.5948  -5.5840
     5.8031   5.8283   5.9501   5.9696   5.9945   6.0130   6.4150   6.4447
     6.8097   6.8577   6.9051   6.9361   6.9896   7.0106   7.0348   7.0616
     7.5175   7.5274   8.0997   8.1559   8.2804   8.3137   8.5411   8.6129
     8.9437   9.1032   9.2305   9.3981   9.5236   9.5839   9.6434   9.6467
     9.6729   9.7253   9.8120   9.8647  11.1511  11.3342  11.3680  11.4292
    11.5395  11.6326  11.6880  11.7755  14.9942  15.1107  15.5395  15.5867
    15.5954  15.7074  15.7246  15.7603  15.9585  15.9975  16.1715  16.2231
    16.2853  16.2937  16.3264  16.3786  16.4460

          k = 0.3506-0.3447 0.3506 (  5310 PWs)   bands (ev):

   -68.6135 -68.5669 -68.4316 -68.3864 -63.5841 -63.5452 -63.4037 -63.3549
   -37.5132 -37.4788 -37.4705 -37.4656 -37.4355 -37.4263 -37.3293 -37.3009
   -37.2956 -37.2806 -37.2640 -37.2493 -32.5852 -32.5722 -32.5567 -32.5482
   -32.5299 -32.5230 -32.4112 -32.3878 -32.3832 -32.3553 -32.3485 -32.3380
    -6.1704  -6.1636  -5.7830  -5.7756  -5.6468  -5.6407  -5.5888  -5.5854
     5.8130   5.8247   5.9462   5.9775   5.9905   6.0028   6.4181   6.4439
     6.8186   6.8491   6.8945   6.9284   6.9824   7.0143   7.0364   7.0724
     7.5124   7.5301   8.1230   8.1327   8.2940   8.2996   8.5679   8.6066
     8.9924   9.0294   9.2886   9.3211   9.5716   9.5837   9.5930   9.6670
     9.7262   9.7640   9.7929   9.8203  11.2132  11.2323  11.3643  11.4570
    11.6013  11.6532  11.6809  11.7093  15.0320  15.0618  15.5622  15.5790
    15.6386  15.6577  15.6738  15.7040  16.0428  16.0781  16.1159  16.1472
    16.3267  16.3341  16.3532  16.3816  16.4218

          k =-0.0030-0.3506-0.0030 (  5287 PWs)   bands (ev):

   -68.6140 -68.5674 -68.4321 -68.3870 -63.5837 -63.5448 -63.4032 -63.3544
   -37.5131 -37.4809 -37.4708 -37.4654 -37.4347 -37.4248 -37.3293 -37.3003
   -37.2972 -37.2805 -37.2629 -37.2470 -32.5853 -32.5765 -32.5587 -32.5475
   -32.5281 -32.5223 -32.4115 -32.3909 -32.3826 -32.3545 -32.3476 -32.3356
    -6.4611  -5.8727  -5.7698  -5.7649  -5.6343  -5.6285  -5.6018  -5.5930
     5.3206   5.3475   5.3552   5.3995   6.1941   6.5033   6.5092   6.7040
     6.8033   6.8266   6.8543   6.9319   7.0891   7.0981   7.2651   7.6127
     7.6222   8.0729   8.1755   8.2387   8.4031   8.4583   8.5154   8.7290
     8.9359   9.1026   9.2009   9.2432   9.4678   9.5034   9.5611   9.7777
     9.8026   9.8778   9.9224  10.0760  11.0926  11.1466  11.2100  11.3337
    11.4283  11.4661  11.5362  11.5957  14.3488  15.1174  15.1398  15.1660
    15.5532  15.6324  15.7981  15.9578  16.1167  16.1356  16.2819  16.2989
    16.3291  16.3790  16.4159  16.5266  16.5687

          k =-0.0030-0.0030-0.3506 (  5287 PWs)   bands (ev):

   -68.6140 -68.5674 -68.4321 -68.3870 -63.5837 -63.5448 -63.4032 -63.3544
   -37.5132 -37.4810 -37.4708 -37.4654 -37.4350 -37.4244 -37.3293 -37.3006
   -37.2970 -37.2805 -37.2624 -37.2473 -32.5854 -32.5761 -32.5592 -32.5472
   -32.5291 -32.5212 -32.4121 -32.3906 -32.3827 -32.3549 -32.3476 -32.3352
    -6.4601  -5.8724  -5.7721  -5.7657  -5.6339  -5.6297  -5.6023  -5.5898
     5.3250   5.3366   5.3651   5.4014   6.1851   6.4967   6.5067   6.6993
     6.8094   6.8324   6.8641   6.9386   7.0568   7.1009   7.2815   7.6085
     7.6290   8.0642   8.2045   8.2300   8.4046   8.4673   8.4825   8.7082
     8.9245   9.1235   9.2065   9.2498   9.4740   9.5111   9.5742   9.7688
     9.8065   9.8810   9.9321  10.0835  11.1159  11.1443  11.1999  11.2848
[...]
     5.7259   5.7674   5.8158   6.0637   6.1933   6.2737   6.4198   6.6100
     6.6307   6.6817   6.9108   6.9656   6.9906   7.1396   7.2097   7.3892
     7.3974   7.5982   7.6775   7.8206   7.8816   8.1689   8.6614   8.7873
     8.9150   8.9675   9.0441   9.2316   9.5525   9.5779   9.6666   9.7166
     9.7515   9.8831   9.8893   9.9839  10.7762  10.9827  11.0611  11.1818
    11.2047  11.3246  11.3716  11.5642  15.2107  15.2971  15.4450  15.5481
    15.6382  15.7334  15.7660  15.9059  15.9564  16.0981  16.1142  16.1894
    16.2189  16.4211  16.4547  16.5492  16.5796

          k =-0.5230 0.5200-0.1753 (  5293 PWs)   bands (ev):

   -68.7039 -68.6650 -68.5210 -68.4704 -63.4942 -63.4498 -63.3154 -63.2718
   -37.5930 -37.5749 -37.5605 -37.5548 -37.5332 -37.5261 -37.4144 -37.3899
   -37.3833 -37.3564 -37.3476 -37.3362 -32.5084 -32.4767 -32.4667 -32.4634
   -32.4362 -32.4250 -32.3286 -32.3022 -32.2957 -32.2788 -32.2679 -32.2532
    -6.2145  -5.9913  -5.9249  -5.7202  -5.6788  -5.6405  -5.5917  -5.5352
     5.7180   5.7702   5.8119   6.0617   6.2033   6.2697   6.4261   6.6099
     6.6302   6.6786   6.9136   6.9538   6.9858   7.1472   7.2210   7.3728
     7.4323   7.5842   7.6887   7.8188   7.8822   8.1610   8.6657   8.8016
     8.9226   8.9319   9.0577   9.2227   9.5354   9.5804   9.6766   9.7119
     9.7573   9.8388   9.9255   9.9738  10.7777  10.9806  11.0601  11.1457
    11.1944  11.2707  11.4709  11.5944  15.1824  15.2965  15.4457  15.5436
    15.6408  15.6985  15.7672  15.8774  16.0192  16.1194  16.1358  16.1972
    16.2140  16.4244  16.4505  16.5486  16.5796

          k = 0.5200-0.1753-0.5230 (  5293 PWs)   bands (ev):

   -68.7039 -68.6650 -68.5210 -68.4704 -63.4942 -63.4498 -63.3154 -63.2718
   -37.5931 -37.5767 -37.5605 -37.5543 -37.5313 -37.5252 -37.4146 -37.3914
   -37.3844 -37.3561 -37.3479 -37.3346 -32.5086 -32.4792 -32.4672 -32.4628
   -32.4331 -32.4233 -32.3288 -32.3031 -32.3000 -32.2788 -32.2685 -32.2495
    -6.2151  -5.9857  -5.9263  -5.7229  -5.6778  -5.6462  -5.5907  -5.5325
     5.7250   5.7691   5.8165   6.0623   6.1940   6.2719   6.4169   6.6175
     6.6302   6.6815   6.9190   6.9625   6.9986   7.1295   7.2167   7.3784
     7.4018   7.5996   7.6649   7.8175   7.8883   8.1606   8.6691   8.7994
     8.9035   8.9563   9.0704   9.2265   9.5352   9.6022   9.6379   9.7104
     9.7849   9.8438   9.9249   9.9744  10.7680  10.9376  11.0914  11.1840
    11.2197  11.2767  11.4483  11.5399  15.2123  15.2879  15.4601  15.5611
    15.6326  15.7065  15.7820  15.8875  15.9869  16.0647  16.1311  16.1696
    16.2263  16.4352  16.4580  16.5674  16.5735

          k = 0.3477 0.0000-0.3477 (  5294 PWs)   bands (ev):

   -68.7037 -68.6648 -68.5207 -68.4702 -63.4945 -63.4502 -63.3158 -63.2721
   -37.5933 -37.5767 -37.5608 -37.5544 -37.5316 -37.5249 -37.4151 -37.3917
   -37.3842 -37.3564 -37.3480 -37.3343 -32.5084 -32.4796 -32.4666 -32.4625
   -32.4339 -32.4218 -32.3287 -32.3028 -32.3003 -32.2785 -32.2680 -32.2497
    -6.3073  -5.9211  -5.8928  -5.7159  -5.6831  -5.6608  -5.5666  -5.5384
     5.6240   5.6819   5.7582   5.8029   6.2274   6.2456   6.4260   6.6151
     6.6893   6.8605   6.9275   6.9704   6.9879   7.2190   7.2392   7.2628
     7.4682   7.5333   7.5616   7.8772   8.1086   8.5102   8.5314   8.7692
     8.9833   9.0297   9.0418   9.2058   9.4990   9.5438   9.6224   9.6727
     9.6812   9.7450   9.7874   9.9953  10.8969  11.0535  11.1703  11.2416
    11.3282  11.3880  11.5168  11.5668  15.0517  15.3722  15.3835  15.5233
    15.6669  15.7462  15.8221  15.8470  16.0745  16.1075  16.1461  16.1988
    16.2556  16.4232  16.4374  16.4685  16.5344

          k =-0.3477 0.3477 0.0000 (  5294 PWs)   bands (ev):

   -68.7037 -68.6648 -68.5207 -68.4702 -63.4945 -63.4502 -63.3158 -63.2721
   -37.5933 -37.5769 -37.5606 -37.5545 -37.5312 -37.5254 -37.4148 -37.3916
   -37.3843 -37.3562 -37.3480 -37.3347 -32.5082 -32.4792 -32.4669 -32.4626
   -32.4330 -32.4231 -32.3286 -32.3031 -32.2997 -32.2785 -32.2683 -32.2495
    -6.3065  -5.9238  -5.8937  -5.7130  -5.6824  -5.6600  -5.5670  -5.5395
     5.6210   5.6847   5.7622   5.7984   6.2300   6.2395   6.4206   6.6204
     6.6859   6.8777   6.9101   6.9720   7.0016   7.2100   7.2256   7.2773
     7.4663   7.5212   7.5421   7.8779   8.1423   8.5137   8.5340   8.7648
     8.9892   9.0101   9.0553   9.2180   9.5062   9.5429   9.6115   9.6676
     9.6794   9.7541   9.8025  10.0101  10.8793  11.0448  11.1378  11.2287
    11.2884  11.3533  11.5486  11.6317  15.0702  15.3698  15.3966  15.5328
    15.6532  15.7471  15.8154  15.8399  16.0829  16.0952  16.1417  16.1988
    16.2618  16.3943  16.4340  16.4639  16.5235

          k = 0.0060 0.7013 0.0060 (  5286 PWs)   bands (ev):

   -68.7042 -68.6653 -68.5212 -68.4707 -63.4938 -63.4495 -63.3151 -63.2715
   -37.5929 -37.5747 -37.5603 -37.5544 -37.5332 -37.5263 -37.4142 -37.3893
   -37.3837 -37.3563 -37.3473 -37.3363 -32.5089 -32.4756 -32.4677 -32.4639
   -32.4351 -32.4265 -32.3285 -32.3021 -32.2959 -32.2793 -32.2685 -32.2529
    -6.1260  -6.0974  -5.7985  -5.7778  -5.6977  -5.6761  -5.5721  -5.5598
     5.7455   5.7559   5.8107   5.8365   6.4837   6.5006   6.5450   6.5935
     6.7642   6.7870   6.9817   7.0058   7.0392   7.0642   7.1275   7.1408
     7.2277   7.2419   7.7011   7.7138   8.1739   8.2141   8.5967   8.6332
     8.9104   8.9335   9.2775   9.2938   9.5166   9.5349   9.7900   9.8038
     9.9888  10.0310  10.2444  10.2825  10.3928  10.4126  10.8131  10.9008
    11.0371  11.1190  11.4178  11.4391  15.2003  15.2485  15.4676  15.5029
    15.6723  15.6796  15.7301  15.7939  16.0056  16.0467  16.1152  16.1679
    16.1815  16.2146  16.5341  16.5464  16.7617

          k = 0.0060 0.0060 0.7013 (  5286 PWs)   bands (ev):

   -68.7042 -68.6653 -68.5212 -68.4707 -63.4938 -63.4495 -63.3151 -63.2715
   -37.5928 -37.5747 -37.5606 -37.5546 -37.5334 -37.5255 -37.4144 -37.3902
   -37.3829 -37.3563 -37.3478 -37.3357 -32.5087 -32.4777 -32.4662 -32.4634
   -32.4374 -32.4238 -32.3292 -32.3023 -32.2959 -32.2791 -32.2677 -32.2535
    -6.1300  -6.0985  -5.7951  -5.7771  -5.6958  -5.6722  -5.5736  -5.5629
     5.7343   5.7539   5.8066   5.8398   6.4809   6.5137   6.5528   6.5885
     6.7745   6.8179   6.9656   6.9908   7.0415   7.0597   7.1060   7.1480
     7.2302   7.2569   7.6604   7.7314   8.1934   8.2276   8.6243   8.6428
     8.8932   8.9240   9.2374   9.3053   9.5262   9.5582   9.7507   9.7918
     9.9701  10.0416  10.2450  10.2884  10.3550  10.4437  10.7609  10.8805
    11.0645  11.1040  11.4626  11.4932  15.1792  15.2349  15.4568  15.4754
    15.6536  15.7151  15.7386  15.7963  16.0011  16.0570  16.1245  16.1813
    16.1886  16.2420  16.5246  16.5567  16.7291

          k =-0.6953 0.3477 0.3477 (  5292 PWs)   bands (ev):

   -68.7048 -68.6658 -68.5218 -68.4712 -63.4934 -63.4490 -63.3146 -63.2710
   -37.5930 -37.5784 -37.5609 -37.5539 -37.5301 -37.5241 -37.4145 -37.3925
   -37.3836 -37.3555 -37.3473 -37.3325 -32.5090 -32.4837 -32.4686 -32.4630
   -32.4333 -32.4211 -32.3294 -32.3041 -32.3018 -32.2790 -32.2677 -32.2465
    -6.2983  -5.9136  -5.8298  -5.8243  -5.8005  -5.5762  -5.5258  -5.5207
     5.5644   5.5825   5.7666   5.8597   6.1361   6.1592   6.4179   6.6496
     6.6943   6.7264   6.7702   6.9578   6.9899   7.3080   7.3478   7.6255
     7.6945   7.8081   7.9204   8.1185   8.1634   8.2862   8.3348   8.4588
     8.7630   8.9772   9.0240   9.1708   9.3245   9.3566   9.4651   9.5106
     9.7944   9.8388   9.9423  10.0804  11.0054  11.0781  11.0915  11.2695
    11.3686  11.4015  11.4190  11.6545  14.9485  15.0041  15.2102  15.2450
    15.3935  15.7645  15.8626  16.1574  16.1704  16.2763  16.3423  16.3917
    16.4038  16.4586  16.4778  16.5195  16.5562

          k = 0.3477-0.6953 0.3477 (  5292 PWs)   bands (ev):

   -68.7047 -68.6659 -68.5218 -68.4713 -63.4934 -63.4490 -63.3146 -63.2710
   -37.5929 -37.5767 -37.5609 -37.5541 -37.5313 -37.5257 -37.4142 -37.3907
   -37.3829 -37.3558 -37.3468 -37.3343 -32.5089 -32.4808 -32.4690 -32.4636
   -32.4345 -32.4243 -32.3288 -32.3021 -32.2991 -32.2791 -32.2674 -32.2495
    -6.2973  -5.9163  -5.8319  -5.8264  -5.7957  -5.5733  -5.5280  -5.5202
     5.5604   5.5820   5.7710   5.8545   6.1444   6.1547   6.4172   6.6568
     6.6827   6.7079   6.7706   6.9659   7.0018   7.3124   7.3429   7.6593
     7.6732   7.8390   7.9040   8.1105   8.1457   8.2927   8.3488   8.4579
     8.7856   8.9084   9.0813   9.0940   9.3272   9.3955   9.4618   9.5044
     9.8136   9.8771   9.9000  10.0791  10.9775  11.1079  11.1817  11.2125
    11.2771  11.4348  11.5064  11.5957  14.9506  15.0032  15.2196  15.2366
    15.3847  15.7707  15.8690  16.1410  16.1760  16.2893  16.3489  16.3986
    16.4091  16.4454  16.4776  16.4948  16.5638

          k =-0.5230 0.1723 0.1723 (  5304 PWs)   bands (ev):

   -68.7039 -68.6650 -68.5210 -68.4704 -63.4942 -63.4498 -63.3155 -63.2718
   -37.5932 -37.5784 -37.5606 -37.5540 -37.5299 -37.5239 -37.4151 -37.3931
   -37.3849 -37.3560 -37.3483 -37.3329 -32.5087 -32.4826 -32.4664 -32.4625
   -32.4314 -32.4200 -32.3293 -32.3048 -32.3031 -32.2787 -32.2686 -32.2466
    -6.2194  -6.0078  -5.8083  -5.7903  -5.7693  -5.5823  -5.5643  -5.5558
     5.7852   5.7884   5.8065   5.9362   6.2530   6.2886   6.3138   6.6395
     6.7823   6.8119   6.8895   6.9655   7.0186   7.0569   7.0813   7.2030
     7.3330   7.3756   8.0006   8.0556   8.0966   8.1951   8.4359   8.5721
     8.8809   8.9796   9.2229   9.3794   9.4410   9.5456   9.6188   9.7105
     9.7658   9.8144   9.8692   9.8900  10.9776  11.0023  11.1001  11.1677
    11.2322  11.3187  11.3655  11.4695  15.0701  15.3299  15.5669  15.5778
    15.6154  15.6864  15.8101  15.8388  15.9513  16.0662  16.1385  16.2209
    16.2827  16.3243  16.4774  16.6001  16.6352

          k = 0.1723-0.5230 0.1723 (  5304 PWs)   bands (ev):

   -68.7039 -68.6650 -68.5210 -68.4704 -63.4942 -63.4498 -63.3154 -63.2718
   -37.5931 -37.5749 -37.5603 -37.5547 -37.5331 -37.5265 -37.4143 -37.3895
   -37.3837 -37.3564 -37.3474 -37.3365 -32.5085 -32.4757 -32.4674 -32.4636
   -32.4350 -32.4263 -32.3283 -32.3022 -32.2957 -32.2789 -32.2684 -32.2529
    -6.2184  -6.0098  -5.8070  -5.7958  -5.7636  -5.5802  -5.5634  -5.5589
     5.7725   5.7916   5.8079   5.9353   6.2759   6.2790   6.3163   6.6331
     6.7635   6.7965   6.8832   6.9808   7.0146   7.0587   7.0952   7.2184
     7.3461   7.3738   8.0164   8.0395   8.0931   8.1912   8.4729   8.5545
     8.8853   8.9224   9.2825   9.2912   9.4986   9.5197   9.6096   9.7285
     9.7747   9.8339   9.8516   9.8861  10.9509  11.0365  11.1327  11.1487
    11.2365  11.3134  11.4023  11.4269  15.0672  15.3338  15.5374  15.5787
    15.6811  15.6909  15.7321  15.7810  16.0421  16.0990  16.1370  16.1808
    16.2879  16.3194  16.5461  16.5579  16.6419

          k =-0.1693 0.8736-0.1693 (  5303 PWs)   bands (ev):

   -68.7050 -68.6661 -68.5221 -68.4715 -63.4930 -63.4487 -63.3143 -63.2706
   -37.5928 -37.5766 -37.5608 -37.5539 -37.5314 -37.5255 -37.4140 -37.3905
   -37.3830 -37.3557 -37.3467 -37.3341 -32.5093 -32.4807 -32.4693 -32.4638
   -32.4347 -32.4244 -32.3290 -32.3021 -32.2994 -32.2794 -32.2675 -32.2495
    -6.2083  -5.9429  -5.9089  -5.8270  -5.8003  -5.5471  -5.5373  -5.5284
     5.6865   5.7000   5.7306   6.0680   6.0866   6.3358   6.3657   6.5670
     6.6010   6.6088   6.9253   6.9805   7.1037   7.1805   7.2287   7.6863
     7.7194   7.8037   7.8305   7.8959   8.1067   8.3253   8.3632   8.3895
     8.6670   8.7929   9.1204   9.1356   9.3937   9.4231   9.5091   9.5410
     9.8902   9.9248  10.0348  10.0621  10.8687  10.9890  11.1138  11.2120
    11.2330  11.3306  11.4402  11.4710  15.0586  15.1175  15.1556  15.1742
    15.4950  15.7085  15.8391  16.0073  16.2006  16.2455  16.2998  16.3296
    16.3578  16.4269  16.5614  16.5723  16.6240

          k =-0.1693-0.1693 0.8736 (  5303 PWs)   bands (ev):

   -68.7050 -68.6661 -68.5221 -68.4715 -63.4930 -63.4487 -63.3143 -63.2706
   -37.5927 -37.5766 -37.5610 -37.5539 -37.5315 -37.5251 -37.4141 -37.3909
   -37.3827 -37.3557 -37.3469 -37.3338 -32.5092 -32.4815 -32.4688 -32.4636
   -32.4356 -32.4233 -32.3293 -32.3019 -32.2997 -32.2794 -32.2672 -32.2497
    -6.2095  -5.9452  -5.9108  -5.8223  -5.7988  -5.5459  -5.5373  -5.5304
     5.6826   5.6921   5.7283   6.0652   6.0948   6.3432   6.3701   6.5713
     6.6131   6.6238   6.9047   6.9689   7.0891   7.1837   7.2410   7.6727
     7.7091   7.7857   7.8370   7.9036   8.1279   8.3282   8.3627   8.4072
     8.6741   8.8041   9.0891   9.1432   9.4078   9.4406   9.4839   9.5181
     9.8781   9.9318  10.0324  10.0693  10.8551  11.0074  11.0884  11.1649
    11.2229  11.3025  11.4799  11.5509  15.0463  15.0979  15.1645  15.1759
    15.5005  15.7004  15.8460  15.9959  16.2003  16.2474  16.3185  16.3431
    16.3693  16.4263  16.5564  16.5789  16.6068

          k =-0.3447 0.6983 0.0030 (  5306 PWs)   bands (ev):

   -68.7042 -68.6653 -68.5212 -68.4707 -63.4938 -63.4495 -63.3151 -63.2715
   -37.5929 -37.5747 -37.5605 -37.5545 -37.5333 -37.5259 -37.4143 -37.3897
   -37.3834 -37.3563 -37.3475 -37.3360 -32.5088 -32.4766 -32.4670 -32.4636
   -32.4363 -32.4252 -32.3288 -32.3022 -32.2960 -32.2792 -32.2680 -32.2532
    -6.0477  -6.0231  -5.9754  -5.8575  -5.7239  -5.5825  -5.5691  -5.5289
     5.9484   5.9764   6.0107   6.0279   6.1161   6.2694   6.3083   6.4172
     6.5858   6.8295   6.8760   7.0129   7.0316   7.0645   7.2435   7.3373
     7.5169   7.6096   7.7066   7.7492   7.7572   8.1948   8.2462   8.6902
     8.8525   8.9970   9.0432   9.2173   9.5286   9.6072   9.6709   9.7217
     9.8838  10.0316  10.0892  10.2275  10.5434  10.7062  10.8754  11.0779
    11.2105  11.2560  11.4770  11.4928  15.3489  15.3666  15.4270  15.5925
    15.6345  15.6648  15.8141  15.8617  15.9003  16.0054  16.1137  16.1703
    16.2197  16.4302  16.4395  16.4600  16.5734

          k = 0.6983 0.0030-0.3447 (  5306 PWs)   bands (ev):

   -68.7042 -68.6653 -68.5213 -68.4707 -63.4938 -63.4495 -63.3151 -63.2715
   -37.5930 -37.5765 -37.5605 -37.5540 -37.5312 -37.5253 -37.4146 -37.3912
   -37.3842 -37.3561 -37.3477 -37.3345 -32.5089 -32.4795 -32.4672 -32.4633
   -32.4330 -32.4232 -32.3289 -32.3032 -32.3004 -32.2791 -32.2684 -32.2496
    -6.0461  -6.0147  -5.9837  -5.8554  -5.7272  -5.5861  -5.5685  -5.5267
     5.9495   5.9798   6.0104   6.0253   6.1445   6.2777   6.2874   6.4267
     6.5718   6.8268   6.8570   7.0137   7.0345   7.0701   7.2373   7.3646
     7.5363   7.5598   7.7118   7.7333   7.7451   8.2072   8.2375   8.7041
     8.8602   9.0039   9.0318   9.2283   9.5466   9.5892   9.6824   9.6990
     9.8790  10.0454  10.0851  10.2306  10.5307  10.7685  10.8830  11.1234
    11.1802  11.2994  11.3703  11.4807  15.3435  15.3834  15.4135  15.6079
    15.6310  15.6627  15.8150  15.8760  15.9086  15.9717  16.0968  16.1689
    16.2035  16.4341  16.4484  16.5079  16.5604

     the Fermi energy is    12.5274 ev

!    total energy              =   -1946.25610570 Ry
     Harris-Foulkes estimate   =   -1946.25610560 Ry
     estimated scf accuracy    <          7.1E-09 Ry

     The total energy is the sum of the following terms:

     one-electron contribution =    -881.55910786 Ry
     hartree contribution      =     527.25430207 Ry
     xc contribution           =    -270.07216096 Ry
     ewald contribution        =   -1322.29326440 Ry
     Hubbard energy            =       0.41412543 Ry
     smearing contrib. (-TS)   =      -0.00000000 Ry

     total magnetization       =    -0.00 Bohr mag/cell
     absolute magnetization    =    37.50 Bohr mag/cell

     convergence has been achieved in  12 iterations

     Forces acting on atoms (Ry/au):


     negative rho (up, down):  1.961E-04 1.500E-03
     atom    1 type  1   force =  -0.14031882E-02 -0.46579004E-03  0.10984692E-01
     atom    2 type  3   force =  -0.55315472E-02  0.12138847E-01 -0.45958401E-02
     atom    3 type  2   force =  -0.97044161E-02 -0.12337158E-01  0.79465937E-03
     atom    4 type  3   force =   0.15445275E-01 -0.13512852E-02 -0.17803068E-02
     atom    5 type  1   force =   0.10015205E-01  0.14031058E-01  0.81336234E-02
     atom    6 type  3   force =   0.15200283E-02 -0.13801209E-01 -0.17788941E-01
     atom    7 type  2   force =   0.38325451E-02  0.52842404E-02 -0.62748745E-02
     atom    8 type  3   force =  -0.93287775E-02  0.81401223E-02  0.12621155E-01
     atom    9 type  1   force =   0.14802931E-02 -0.75519535E-02 -0.79135611E-03
     atom   10 type  3   force =  -0.37410768E-02 -0.63020087E-02 -0.90675357E-03
     atom   11 type  2   force =   0.59828275E-02 -0.14129214E-01 -0.10690472E-01
     atom   12 type  3   force =  -0.11477734E-01  0.17676453E-01  0.13742817E-01
     atom   13 type  1   force =  -0.20282827E-03  0.95953531E-02 -0.27406503E-02
     atom   14 type  3   force =  -0.73913304E-02 -0.21329865E-02  0.97631854E-02
     atom   15 type  2   force =  -0.55887089E-02 -0.33685872E-02 -0.10865050E-01
     atom   16 type  3   force =   0.16093433E-01 -0.54258813E-02  0.39411305E-03

     Total force =     0.062291     Total SCF correction =     0.000461


     entering subroutine stress ...


     negative rho (up, down):  1.961E-04 1.500E-03
          total   stress  (Ry/bohr**3)                   (kbar)     P=    3.62
   0.0000198299   0.0000008336   0.0000000396          2.92      0.12      0.01
   0.0000008336   0.0000298436  -0.0000033854          0.12      4.39     -0.50
   0.0000000396  -0.0000033854   0.0000241314          0.01     -0.50      3.55


     Writing output data file mno_afm.in.222.055.save

     init_run     :     58.46s CPU     60.20s WALL (       1 calls)
     electrons    :   1875.46s CPU   2056.36s WALL (       1 calls)
     forces       :    141.83s CPU    161.45s WALL (       1 calls)
     stress       :    429.28s CPU    482.79s WALL (       1 calls)

     Called by init_run:
     wfcinit      :     56.40s CPU     58.09s WALL (       1 calls)
     potinit      :      0.49s CPU      0.51s WALL (       1 calls)

     Called by electrons:
     c_bands      :   1697.59s CPU   1869.87s WALL (      12 calls)
     sum_band     :    171.23s CPU    179.52s WALL (      12 calls)
     v_of_rho     :      1.50s CPU      1.60s WALL (      13 calls)
     newd         :      4.66s CPU      4.74s WALL (      13 calls)
     mix_rho      :      0.74s CPU      0.85s WALL (      12 calls)

     Called by c_bands:
     init_us_2    :      7.98s CPU      8.54s WALL (    2736 calls)
     cegterg      :   1667.52s CPU   1837.97s WALL (     864 calls)

     Called by *egterg:
     h_psi        :    832.00s CPU    908.60s WALL (    3869 calls)
     s_psi        :    107.82s CPU     89.45s WALL (    4661 calls)
     g_psi        :      1.06s CPU      1.05s WALL (    2933 calls)
     cdiaghg      :    430.48s CPU    542.68s WALL (    3797 calls)

     Called by h_psi:
     add_vuspsi   :     81.15s CPU     70.98s WALL (    3869 calls)
     vhpsi        :     78.50s CPU    102.67s WALL (    3869 calls)

     General routines
     calbec       :    698.98s CPU    764.95s WALL (   53242 calls)
     fft          :      1.46s CPU      1.56s WALL (     437 calls)
     ffts         :      0.46s CPU      0.54s WALL (     303 calls)
     fftw         :    620.41s CPU    698.96s WALL (  530390 calls)
     interpolate  :      0.20s CPU      0.24s WALL (      50 calls)
     davcio       :      0.01s CPU      0.03s WALL (      72 calls)

     Parallel routines
     fft_scatter  :    264.26s CPU    297.18s WALL (  531130 calls)
     Hubbard U routines
     new_ns       :     15.41s CPU     16.47s WALL (      12 calls)
     vhpsi        :     78.50s CPU    102.67s WALL (    3869 calls)
     force_hub    :    126.79s CPU    148.70s WALL (       1 calls)
     stres_hub    :    398.24s CPU    451.97s WALL (       1 calls)

     PWSCF        : 41m49.88s CPU    46m 6.57s WALL


   This run was terminated on:  20: 0:43  16Aug2017            

=------------------------------------------------------------------------------=
   JOB DONE.
=------------------------------------------------------------------------------=
