
     Program PWSCF v.5.1 starts on 17Aug2017 at 10:49:37 

     This program is part of the open-source Quantum ESPRESSO suite
     for quantum simulation of materials; please cite
         "P. Giannozzi et al., J. Phys.:Condens. Matter 21 395502 (2009);
          URL http://www.quantum-espresso.org", 
     in publications or presentations arising from this work. More details at
     http://www.quantum-espresso.org/quote

     Parallel version (MPI), running on     8 processors
     R & G space division:  proc/nbgrp/npool/nimage =       8
     Reading input from /tmp/mno_fm.scf.in.super.222.sub_frozen.02.7312/mno_fm.scf.in.super.222.sub_frozen.02.t
Warning: card &IONS ignored
Warning: card   ION_DYNAMICS='BFGS', ignored
Warning: card / ignored
Warning: card &CELL ignored
Warning: card  CELL_DYNAMICS = 'BFGS' ignored
Warning: card / ignored

     Current dimensions of program PWSCF are:
     Max number of different atomic species (ntypx) = 10
     Max number of k-points (npk) =  40000
     Max angular momentum in pseudopotentials (lmaxx) =  3
 kfg - two_fermi_energies  T

     Subspace diagonalization in iterative solution of the eigenvalue problem:
     a serial algorithm will be used

     Found symmetry operation: I + (  0.0000  0.0000 -0.5000)
     This is a supercell, fractional translations are disabled

     Parallelization info
     --------------------
     sticks:   dense  smooth     PW     G-vecs:    dense   smooth      PW
     Min         246     204     56                 7264     5421     802
     Max         247     205     57                 7267     5438     805
     Sum        1969    1639    451                58119    43407    6423

     Generating pointlists ...
     new r_m :   0.1458 (alat units)  1.7495 (a.u.) for type    1
     new r_m :   0.1458 (alat units)  1.7495 (a.u.) for type    2
     new r_m :   0.1458 (alat units)  1.7495 (a.u.) for type    3


     bravais-lattice index     =            0
     lattice parameter (alat)  =    11.996146938  a.u.
     unit-cell volume          =    1220.7039 (a.u.)^3
     number of atoms/cell      =           16
     number of atomic types    =            3
     number of electrons       =       168.00 (up:  84.00, down:  84.00)
     number of Kohn-Sham states=          101
     kinetic-energy cutoff     =      41.0000  Ry
     charge density cutoff     =     200.0000  Ry
     convergence threshold     =      1.0E-08
     mixing beta               =       0.3000
     number of iterations used =            8  local-TF  mixing
     Exchange-correlation      = SLA  PW   PSX  PSC ( 1  4 10  8 0)
     A smooth kinetic-energy cutoff is imposed at      40.0000 Ry
     height of the smooth step-function =             800.0000 Ry
     width of the smooth step-function  =               1.0000 Ry


     celldm(1)=  11.996147  celldm(2)=   0.000000  celldm(3)=   0.000000
     celldm(4)=   0.000000  celldm(5)=   0.000000  celldm(6)=   0.000000

     crystal axes: (cart. coord. in units of alat)
               a(1) = (   0.707106781187   0.707106781187   0.000000000000 )  
               a(2) = (   0.707106781187   0.000000000000   0.707106781187 )  
               a(3) = (   0.000000000000   0.707106781187   0.707106781187 )  

     reciprocal axes: (cart. coord. in units 2 pi/alat)
               b(1) = (  0.707107  0.707107 -0.707107 )  
               b(2) = (  0.707107 -0.707107  0.707107 )  
               b(3) = ( -0.707107  0.707107  0.707107 )  


     PseudoPot. # 1 for Mn read from file:
     /users/kfg/psuedo/gbrv_1.5/mn.pbesol.UPF
     MD5 check sum: 0716d5f563e6e95a34f9080f4c78c109
     Pseudo is Ultrasoft + core correction, Zval = 15.0
     Generated by new atomic code, or converted to UPF format
     Using radial grid of  859 points,  6 beta functions with: 
                l(1) =   0
                l(2) =   0
                l(3) =   1
                l(4) =   1
                l(5) =   2
                l(6) =   2
     Q(r) pseudized with  8 coefficients,  rinner =    0.950   0.950   0.950
                                                       0.950   0.950

     PseudoPot. # 2 for Mn read from file:
     /users/kfg/psuedo/gbrv_1.5/mn.pbesol.UPF
     MD5 check sum: 0716d5f563e6e95a34f9080f4c78c109
     Pseudo is Ultrasoft + core correction, Zval = 15.0
     Generated by new atomic code, or converted to UPF format
     Using radial grid of  859 points,  6 beta functions with: 
                l(1) =   0
                l(2) =   0
                l(3) =   1
                l(4) =   1
                l(5) =   2
                l(6) =   2
     Q(r) pseudized with  8 coefficients,  rinner =    0.950   0.950   0.950
                                                       0.950   0.950

     PseudoPot. # 3 for O  read from file:
     /users/kfg/psuedo/gbrv_1.5/o.pbesol.UPF
     MD5 check sum: 501638753501ef6325af9037351f7734
     Pseudo is Ultrasoft + core correction, Zval =  6.0
     Generated by new atomic code, or converted to UPF format
     Using radial grid of  737 points,  5 beta functions with: 
                l(1) =   0
                l(2) =   0
                l(3) =   1
                l(4) =   1
                l(5) =   2
     Q(r) pseudized with  8 coefficients,  rinner =    0.900   0.900   0.900
                                                       0.900   0.900

     atomic species   valence    mass     pseudopotential
        Mn            15.00    54.90000     Mn( 1.00)
        Fe            15.00    54.90000     Mn( 1.00)
        O              6.00    15.99900     O ( 1.00)

     Starting magnetic structure 
     atomic species   magnetization
        Mn           1.000
        Fe          -1.000
        O            0.000


     Simplified LDA+U calculation (l_max = 2) with parameters (eV):
     atomic species    L          U    alpha       J0     beta
        Mn             2     3.0000   0.0000   0.0000   0.0000
        Fe             2     3.0000   0.0000   0.0000   0.0000



     12 Sym. Ops., with inversion, found



   Cartesian axes

     site n.     atom                  positions (alat units)
         1           Mn  tau(   1) = (    0.00000000000    0.00000000000    0.00000000000  )
         2           O   tau(   2) = (    0.35355339059    0.35355339059    0.35355339059  )
         3           Mn  tau(   3) = (    0.00000000000    0.35355339059    0.35355339059  )
         4           O   tau(   4) = (    0.35355339059    0.70710678119    0.70710678119  )
         5           Fe  tau(   5) = (    0.35355339059    0.00000000000    0.35355339059  )
         6           O   tau(   6) = (    0.70710678119    0.35355339059    0.70710678119  )
         7           Fe  tau(   7) = (    0.35355339059    0.35355339059    0.70710678119  )
         8           O   tau(   8) = (    0.70710678119    0.70710678119    1.06066017178  )
         9           Mn  tau(   9) = (    0.35355339059    0.35355339059    0.00000000000  )
        10           O   tau(  10) = (    0.70710678119    0.70710678119    0.35355339059  )
        11           Mn  tau(  11) = (    0.35355339059    0.70710678119    0.35355339059  )
        12           O   tau(  12) = (    0.70710678119    1.06066017178    0.70710678119  )
        13           Fe  tau(  13) = (    0.70710678119    0.35355339059    0.35355339059  )
        14           O   tau(  14) = (    1.06066017178    0.70710678119    0.70710678119  )
        15           Fe  tau(  15) = (    0.70710678119    0.70710678119    0.70710678119  )
        16           O   tau(  16) = (    1.06066017178    1.06066017178    1.06066017178  )

     number of k points=    26  gaussian smearing, width (Ry)=  0.0100
                       cart. coord. in units 2pi/alat
        k(    1) = (   0.0000000   0.0000000   0.0000000), wk =   0.0156250
        k(    2) = (  -0.1767767   0.1767767   0.1767767), wk =   0.0937500
        k(    3) = (   0.3535534  -0.3535534  -0.3535534), wk =   0.0468750
        k(    4) = (   0.0000000   0.0000000   0.3535534), wk =   0.0937500
        k(    5) = (   0.5303301  -0.5303301  -0.1767767), wk =   0.0937500
        k(    6) = (   0.3535534  -0.3535534   0.0000000), wk =   0.0937500
        k(    7) = (   0.0000000   0.0000000  -0.7071068), wk =   0.0468750
        k(    8) = (   0.0000000   0.3535534  -0.7071068), wk =   0.0937500
        k(    9) = (  -0.1767767   0.1767767  -0.1767767), wk =   0.0312500
        k(   10) = (   0.3535534  -0.3535534   0.3535534), wk =   0.0156250
        k(   11) = (   0.5303301   0.5303301   0.1767767), wk =   0.1875000
        k(   12) = (   0.5303301  -0.1767767   0.5303301), wk =   0.0937500
        k(   13) = (   0.3535534   0.3535534   0.0000000), wk =   0.0937500
        k(   14) = (   0.0000000   0.0000000   0.0000000), wk =   0.0156250
        k(   15) = (  -0.1767767   0.1767767   0.1767767), wk =   0.0937500
        k(   16) = (   0.3535534  -0.3535534  -0.3535534), wk =   0.0468750
        k(   17) = (   0.0000000   0.0000000   0.3535534), wk =   0.0937500
        k(   18) = (   0.5303301  -0.5303301  -0.1767767), wk =   0.0937500
        k(   19) = (   0.3535534  -0.3535534   0.0000000), wk =   0.0937500
        k(   20) = (   0.0000000   0.0000000  -0.7071068), wk =   0.0468750
        k(   21) = (   0.0000000   0.3535534  -0.7071068), wk =   0.0937500
        k(   22) = (  -0.1767767   0.1767767  -0.1767767), wk =   0.0312500
        k(   23) = (   0.3535534  -0.3535534   0.3535534), wk =   0.0156250
        k(   24) = (   0.5303301   0.5303301   0.1767767), wk =   0.1875000
        k(   25) = (   0.5303301  -0.1767767   0.5303301), wk =   0.0937500
        k(   26) = (   0.3535534   0.3535534   0.0000000), wk =   0.0937500

     Dense  grid:    58119 G-vectors     FFT dimensions: (  54,  54,  54)

     Smooth grid:    43407 G-vectors     FFT dimensions: (  50,  50,  50)

     Largest allocated arrays     est. size (Mb)     dimensions
        Kohn-Sham Wavefunctions         1.06 Mb     (     687,  101)
        Atomic Hubbard wavefuncts       0.42 Mb     (     687,   40)
        NL pseudopotentials             2.60 Mb     (     687,  248)
        Each V/rho on FFT grid          0.62 Mb     (   20412,   2)
        Each G-vector array             0.06 Mb     (    7265)
        G-vector shells                 0.00 Mb     (     487)
     Largest temporary arrays     est. size (Mb)     dimensions
        Auxiliary wavefunctions         4.24 Mb     (     687,  404)
        Each subspace H/S matrix        2.49 Mb     (     404,  404)
        Each <psi_i|beta_j> matrix      0.38 Mb     (     248,  101)
        Arrays for rho mixing           2.49 Mb     (   20412,    8)

     Check: negative/imaginary core charge=   -0.000056    0.000000

     Initial potential from superposition of free atoms

     starting charge  163.99935, renormalised to  168.00000
     Number of +U iterations with fixed ns =  0
     Starting occupations:
 --- enter write_ns ---
 LDA+U parameters:
U( 1)     =  3.00000000
alpha( 1) =  0.00000000
U( 2)     =  3.00000000
alpha( 2) =  0.00000000
atom    1   Tr[ns(na)] (up, down, total) =   5.00000  0.00000  5.00000
   spin  1
    eigenvalues: 
  1.000  1.000  1.000  1.000  1.000
    eigenvectors:
  1.000  0.000  0.000  0.000  0.000
  0.000  1.000  0.000  0.000  0.000
  0.000  0.000  1.000  0.000  0.000
  0.000  0.000  0.000  1.000  0.000
  0.000  0.000  0.000  0.000  1.000
    occupations:
  1.000  0.000  0.000  0.000  0.000
  0.000  1.000  0.000  0.000  0.000
  0.000  0.000  1.000  0.000  0.000
  0.000  0.000  0.000  1.000  0.000
  0.000  0.000  0.000  0.000  1.000
   spin  2
    eigenvalues: 
  0.000  0.000  0.000  0.000  0.000
    eigenvectors:
  1.000  0.000  0.000  0.000  0.000
  0.000  1.000  0.000  0.000  0.000
  0.000  0.000  1.000  0.000  0.000
  0.000  0.000  0.000  1.000  0.000
  0.000  0.000  0.000  0.000  1.000
    occupations:
  0.000  0.000  0.000  0.000  0.000
  0.000  0.000  0.000  0.000  0.000
  0.000  0.000  0.000  0.000  0.000
  0.000  0.000  0.000  0.000  0.000
  0.000  0.000  0.000  0.000  0.000
atomic mag. moment =     5.000000
atom    3   Tr[ns(na)] (up, down, total) =   5.00000  0.00000  5.00000
   spin  1
    eigenvalues: 
  1.000  1.000  1.000  1.000  1.000
    eigenvectors:
  1.000  0.000  0.000  0.000  0.000
  0.000  1.000  0.000  0.000  0.000
  0.000  0.000  1.000  0.000  0.000
  0.000  0.000  0.000  1.000  0.000
  0.000  0.000  0.000  0.000  1.000
    occupations:
  1.000  0.000  0.000  0.000  0.000
  0.000  1.000  0.000  0.000  0.000
  0.000  0.000  1.000  0.000  0.000
  0.000  0.000  0.000  1.000  0.000
  0.000  0.000  0.000  0.000  1.000
   spin  2
    eigenvalues: 
  0.000  0.000  0.000  0.000  0.000
    eigenvectors:
  1.000  0.000  0.000  0.000  0.000
  0.000  1.000  0.000  0.000  0.000
  0.000  0.000  1.000  0.000  0.000
  0.000  0.000  0.000  1.000  0.000
  0.000  0.000  0.000  0.000  1.000
    occupations:
  0.000  0.000  0.000  0.000  0.000
  0.000  0.000  0.000  0.000  0.000
  0.000  0.000  0.000  0.000  0.000
  0.000  0.000  0.000  0.000  0.000
  0.000  0.000  0.000  0.000  0.000
atomic mag. moment =     5.000000
atom    5   Tr[ns(na)] (up, down, total) =   0.00000  5.00000  5.00000
   spin  1
    eigenvalues: 
  0.000  0.000  0.000  0.000  0.000
    eigenvectors:
  1.000  0.000  0.000  0.000  0.000
  0.000  1.000  0.000  0.000  0.000
  0.000  0.000  1.000  0.000  0.000
  0.000  0.000  0.000  1.000  0.000
  0.000  0.000  0.000  0.000  1.000
    occupations:
  0.000  0.000  0.000  0.000  0.000
  0.000  0.000  0.000  0.000  0.000
  0.000  0.000  0.000  0.000  0.000
  0.000  0.000  0.000  0.000  0.000
  0.000  0.000  0.000  0.000  0.000
   spin  2
    eigenvalues: 
  1.000  1.000  1.000  1.000  1.000
    eigenvectors:
  1.000  0.000  0.000  0.000  0.000
  0.000  1.000  0.000  0.000  0.000
  0.000  0.000  1.000  0.000  0.000
  0.000  0.000  0.000  1.000  0.000
  0.000  0.000  0.000  0.000  1.000
    occupations:
  1.000  0.000  0.000  0.000  0.000
  0.000  1.000  0.000  0.000  0.000
  0.000  0.000  1.000  0.000  0.000
  0.000  0.000  0.000  1.000  0.000
  0.000  0.000  0.000  0.000  1.000
atomic mag. moment =    -5.000000
atom    7   Tr[ns(na)] (up, down, total) =   0.00000  5.00000  5.00000
   spin  1
    eigenvalues: 
  0.000  0.000  0.000  0.000  0.000
    eigenvectors:
  1.000  0.000  0.000  0.000  0.000
  0.000  1.000  0.000  0.000  0.000
  0.000  0.000  1.000  0.000  0.000
  0.000  0.000  0.000  1.000  0.000
  0.000  0.000  0.000  0.000  1.000
    occupations:
  0.000  0.000  0.000  0.000  0.000
  0.000  0.000  0.000  0.000  0.000
  0.000  0.000  0.000  0.000  0.000
  0.000  0.000  0.000  0.000  0.000
  0.000  0.000  0.000  0.000  0.000
   spin  2
    eigenvalues: 
  1.000  1.000  1.000  1.000  1.000
    eigenvectors:
  1.000  0.000  0.000  0.000  0.000
  0.000  1.000  0.000  0.000  0.000
  0.000  0.000  1.000  0.000  0.000
  0.000  0.000  0.000  1.000  0.000
  0.000  0.000  0.000  0.000  1.000
    occupations:
  1.000  0.000  0.000  0.000  0.000
  0.000  1.000  0.000  0.000  0.000
  0.000  0.000  1.000  0.000  0.000
  0.000  0.000  0.000  1.000  0.000
  0.000  0.000  0.000  0.000  1.000
atomic mag. moment =    -5.000000
atom    9   Tr[ns(na)] (up, down, total) =   5.00000  0.00000  5.00000
   spin  1
    eigenvalues: 
  1.000  1.000  1.000  1.000  1.000
    eigenvectors:
  1.000  0.000  0.000  0.000  0.000
  0.000  1.000  0.000  0.000  0.000
  0.000  0.000  1.000  0.000  0.000
  0.000  0.000  0.000  1.000  0.000
  0.000  0.000  0.000  0.000  1.000
    occupations:
  1.000  0.000  0.000  0.000  0.000
  0.000  1.000  0.000  0.000  0.000
  0.000  0.000  1.000  0.000  0.000
  0.000  0.000  0.000  1.000  0.000
  0.000  0.000  0.000  0.000  1.000
   spin  2
    eigenvalues: 
  0.000  0.000  0.000  0.000  0.000
    eigenvectors:
  1.000  0.000  0.000  0.000  0.000
  0.000  1.000  0.000  0.000  0.000
  0.000  0.000  1.000  0.000  0.000
  0.000  0.000  0.000  1.000  0.000
  0.000  0.000  0.000  0.000  1.000
    occupations:
  0.000  0.000  0.000  0.000  0.000
  0.000  0.000  0.000  0.000  0.000
  0.000  0.000  0.000  0.000  0.000
  0.000  0.000  0.000  0.000  0.000
  0.000  0.000  0.000  0.000  0.000
atomic mag. moment =     5.000000
atom   11   Tr[ns(na)] (up, down, total) =   5.00000  0.00000  5.00000
   spin  1
    eigenvalues: 
  1.000  1.000  1.000  1.000  1.000
    eigenvectors:
  1.000  0.000  0.000  0.000  0.000
  0.000  1.000  0.000  0.000  0.000
  0.000  0.000  1.000  0.000  0.000
  0.000  0.000  0.000  1.000  0.000
  0.000  0.000  0.000  0.000  1.000
    occupations:
  1.000  0.000  0.000  0.000  0.000
  0.000  1.000  0.000  0.000  0.000
  0.000  0.000  1.000  0.000  0.000
  0.000  0.000  0.000  1.000  0.000
  0.000  0.000  0.000  0.000  1.000
   spin  2
    eigenvalues: 
  0.000  0.000  0.000  0.000  0.000
    eigenvectors:
  1.000  0.000  0.000  0.000  0.000
  0.000  1.000  0.000  0.000  0.000
  0.000  0.000  1.000  0.000  0.000
  0.000  0.000  0.000  1.000  0.000
  0.000  0.000  0.000  0.000  1.000
    occupations:
  0.000  0.000  0.000  0.000  0.000
  0.000  0.000  0.000  0.000  0.000
  0.000  0.000  0.000  0.000  0.000
  0.000  0.000  0.000  0.000  0.000
  0.000  0.000  0.000  0.000  0.000
atomic mag. moment =     5.000000
atom   13   Tr[ns(na)] (up, down, total) =   0.00000  5.00000  5.00000
   spin  1
    eigenvalues: 
  0.000  0.000  0.000  0.000  0.000
    eigenvectors:
  1.000  0.000  0.000  0.000  0.000
  0.000  1.000  0.000  0.000  0.000
  0.000  0.000  1.000  0.000  0.000
  0.000  0.000  0.000  1.000  0.000
  0.000  0.000  0.000  0.000  1.000
    occupations:
  0.000  0.000  0.000  0.000  0.000
  0.000  0.000  0.000  0.000  0.000
  0.000  0.000  0.000  0.000  0.000
  0.000  0.000  0.000  0.000  0.000
  0.000  0.000  0.000  0.000  0.000
   spin  2
    eigenvalues: 
  1.000  1.000  1.000  1.000  1.000
    eigenvectors:
  1.000  0.000  0.000  0.000  0.000
  0.000  1.000  0.000  0.000  0.000
  0.000  0.000  1.000  0.000  0.000
  0.000  0.000  0.000  1.000  0.000
  0.000  0.000  0.000  0.000  1.000
    occupations:
  1.000  0.000  0.000  0.000  0.000
  0.000  1.000  0.000  0.000  0.000
  0.000  0.000  1.000  0.000  0.000
  0.000  0.000  0.000  1.000  0.000
  0.000  0.000  0.000  0.000  1.000
atomic mag. moment =    -5.000000
atom   15   Tr[ns(na)] (up, down, total) =   0.00000  5.00000  5.00000
   spin  1
    eigenvalues: 
  0.000  0.000  0.000  0.000  0.000
    eigenvectors:
  1.000  0.000  0.000  0.000  0.000
  0.000  1.000  0.000  0.000  0.000
  0.000  0.000  1.000  0.000  0.000
  0.000  0.000  0.000  1.000  0.000
  0.000  0.000  0.000  0.000  1.000
    occupations:
  0.000  0.000  0.000  0.000  0.000
  0.000  0.000  0.000  0.000  0.000
  0.000  0.000  0.000  0.000  0.000
  0.000  0.000  0.000  0.000  0.000
  0.000  0.000  0.000  0.000  0.000
   spin  2
    eigenvalues: 
  1.000  1.000  1.000  1.000  1.000
    eigenvectors:
  1.000  0.000  0.000  0.000  0.000
  0.000  1.000  0.000  0.000  0.000
  0.000  0.000  1.000  0.000  0.000
  0.000  0.000  0.000  1.000  0.000
  0.000  0.000  0.000  0.000  1.000
    occupations:
  1.000  0.000  0.000  0.000  0.000
  0.000  1.000  0.000  0.000  0.000
  0.000  0.000  1.000  0.000  0.000
  0.000  0.000  0.000  1.000  0.000
  0.000  0.000  0.000  0.000  1.000
atomic mag. moment =    -5.000000
N of occupied +U levels =   40.000000
 --- exit write_ns ---
 Atomic wfc used for LDA+U Projector are NOT orthogonalized
     Starting wfc are  136 randomized atomic wfcs

     total cpu time spent up to now is       25.5 secs

     per-process dynamical memory:    66.8 Mb

     Self-consistent Calculation

     iteration #  1     ecut=    41.00 Ry     beta=0.30
     Davidson diagonalization with overlap
     ethr =  1.00E-02,  avg # of iterations =  4.4
 --- enter write_ns ---
 LDA+U parameters:
U( 1)     =  3.00000000
alpha( 1) =  0.00000000
U( 2)     =  3.00000000
alpha( 2) =  0.00000000
atom    1   Tr[ns(na)] (up, down, total) =   4.99493  0.19717  5.19210
   spin  1
    eigenvalues: 
  0.998  0.998  0.999  1.000  1.000
    eigenvectors:
  0.001  0.001  0.000  0.263  0.735
  0.649  0.017  0.333  0.000  0.001
  0.085  0.581  0.333  0.001  0.000
  0.001  0.001  0.000  0.735  0.263
  0.264  0.401  0.333  0.000  0.001
    occupations:
  1.000 -0.000  0.000  0.000  0.000
 -0.000  0.998 -0.000 -0.000  0.000
  0.000 -0.000  0.998 -0.000 -0.000
  0.000 -0.000 -0.000  1.000 -0.000
  0.000  0.000 -0.000 -0.000  0.998
   spin  2
    eigenvalues: 
  0.023  0.023  0.024  0.063  0.063
    eigenvectors:
  0.000  0.000  0.000  0.260  0.739
  0.652  0.014  0.333  0.000  0.000
  0.090  0.576  0.333  0.000  0.000
  0.000  0.000  0.000  0.739  0.260
  0.257  0.409  0.333  0.000  0.000
    occupations:
  0.063 -0.000  0.000  0.000  0.001
 -0.000  0.024 -0.000 -0.001  0.000
  0.000 -0.000  0.024 -0.001 -0.000
  0.000 -0.001 -0.001  0.063 -0.000
  0.001  0.000 -0.000 -0.000  0.024
atomic mag. moment =     4.797758
atom    3   Tr[ns(na)] (up, down, total) =   4.99495  0.19715  5.19210
   spin  1
    eigenvalues: 
  0.998  0.998  0.999  1.000  1.000
    eigenvectors:
  0.001  0.000  0.000  0.250  0.749
  0.499  0.171  0.329  0.000  0.001
  0.000  0.657  0.342  0.001  0.000
  0.000  0.001  0.000  0.749  0.250
  0.499  0.171  0.329  0.000  0.001
    occupations:
  1.000 -0.000  0.000  0.000  0.000
 -0.000  0.999 -0.000 -0.000  0.000
  0.000 -0.000  0.999 -0.000 -0.000
  0.000 -0.000 -0.000  1.000 -0.000
  0.000  0.000 -0.000 -0.000  0.999
   spin  2
    eigenvalues: 
  0.023  0.023  0.024  0.063  0.063
    eigenvectors:
  0.000  0.000  0.000  0.750  0.250
  0.500  0.167  0.333  0.000  0.000
  0.000  0.665  0.334  0.000  0.000
  0.000  0.000  0.000  0.250  0.750
  0.500  0.167  0.333  0.000  0.000
    occupations:
  0.063 -0.000  0.000 -0.000  0.001
 -0.000  0.024 -0.000 -0.001  0.000
  0.000 -0.000  0.024 -0.001 -0.000
 -0.000 -0.001 -0.001  0.063 -0.000
  0.001  0.000 -0.000 -0.000  0.024
atomic mag. moment =     4.797796
atom    5   Tr[ns(na)] (up, down, total) =   0.19703  4.99493  5.19196
   spin  1
    eigenvalues: 
  0.023  0.023  0.024  0.063  0.063
    eigenvectors:
  0.000  0.000  0.000  0.250  0.750
  0.661  0.000  0.338  0.000  0.000
  0.169  0.500  0.331  0.000  0.000
  0.000  0.000  0.000  0.750  0.250
  0.169  0.500  0.331  0.000  0.000
    occupations:
  0.063 -0.000  0.000 -0.000  0.001
 -0.000  0.024 -0.000 -0.001  0.000
  0.000 -0.000  0.024 -0.001 -0.000
 -0.000 -0.001 -0.001  0.063 -0.000
  0.001  0.000 -0.000 -0.000  0.024
   spin  2
    eigenvalues: 
  0.998  0.998  0.999  1.000  1.000
    eigenvectors:
  0.000  0.001  0.000  0.250  0.749
  0.669  0.000  0.330  0.001  0.000
  0.165  0.499  0.335  0.000  0.001
  0.001  0.000  0.000  0.749  0.250
  0.165  0.499  0.335  0.000  0.001
    occupations:
  1.000 -0.000  0.000 -0.000  0.000
 -0.000  0.998 -0.000 -0.000  0.000
  0.000 -0.000  0.998 -0.000 -0.000
 -0.000 -0.000 -0.000  1.000  0.000
  0.000  0.000 -0.000  0.000  0.998
atomic mag. moment =    -4.797906
atom    7   Tr[ns(na)] (up, down, total) =   0.19703  4.99493  5.19196
   spin  1
    eigenvalues: 
  0.023  0.023  0.024  0.063  0.063
    eigenvectors:
  0.001  0.000  0.000  0.999  0.000
  0.169  0.500  0.331  0.000  0.000
  0.169  0.500  0.331  0.000  0.000
  0.000  0.001  0.000  0.000  0.999
  0.661  0.000  0.338  0.000  0.000
    occupations:
  0.063 -0.000  0.000  0.000  0.001
 -0.000  0.024 -0.000 -0.001  0.000
  0.000 -0.000  0.024 -0.001 -0.000
  0.000 -0.001 -0.001  0.063 -0.000
  0.001  0.000 -0.000 -0.000  0.024
   spin  2
    eigenvalues: 
  0.998  0.998  0.999  1.000  1.000
    eigenvectors:
  0.002  0.000  0.000  0.998  0.000
  0.165  0.499  0.335  0.000  0.001
  0.165  0.499  0.335  0.000  0.001
  0.000  0.002  0.000  0.000  0.998
  0.669  0.000  0.330  0.001  0.000
    occupations:
  1.000 -0.000  0.000  0.000  0.000
 -0.000  0.998 -0.000 -0.000  0.000
  0.000 -0.000  0.998 -0.000 -0.000
  0.000 -0.000 -0.000  1.000 -0.000
  0.000  0.000 -0.000 -0.000  0.998
atomic mag. moment =    -4.797906
atom    9   Tr[ns(na)] (up, down, total) =   4.99495  0.19715  5.19210
   spin  1
    eigenvalues: 
  0.998  0.998  0.999  1.000  1.000
    eigenvectors:
  0.000  0.002  0.000  0.998  0.000
  0.499  0.171  0.329  0.000  0.001
  0.499  0.171  0.329  0.000  0.001
  0.002  0.000  0.000  0.000  0.998
  0.000  0.657  0.342  0.001  0.000
    occupations:
  1.000 -0.000  0.000  0.000  0.000
 -0.000  0.999 -0.000 -0.000  0.000
  0.000 -0.000  0.999 -0.000 -0.000
  0.000 -0.000 -0.000  1.000 -0.000
  0.000  0.000 -0.000 -0.000  0.999
   spin  2
    eigenvalues: 
  0.023  0.023  0.024  0.063  0.063
    eigenvectors:
  0.000  0.001  0.000  0.000  0.999
  0.500  0.167  0.333  0.000  0.000
  0.500  0.167  0.333  0.000  0.000
  0.001  0.000  0.000  0.999  0.000
  0.000  0.665  0.334  0.000  0.000
    occupations:
  0.063 -0.000  0.000  0.000  0.001
 -0.000  0.024 -0.000 -0.001  0.000
  0.000 -0.000  0.024 -0.001 -0.000
  0.000 -0.001 -0.001  0.063 -0.000
  0.001  0.000 -0.000 -0.000  0.024
atomic mag. moment =     4.797796
atom   11   Tr[ns(na)] (up, down, total) =   4.99495  0.19715  5.19210
   spin  1
    eigenvalues: 
  0.998  0.998  0.999  1.000  1.000
    eigenvectors:
  0.001  0.000  0.000  0.250  0.749
  0.000  0.657  0.342  0.001  0.000
  0.499  0.171  0.329  0.000  0.001
  0.000  0.001  0.000  0.749  0.250
  0.499  0.171  0.329  0.000  0.001
    occupations:
  1.000 -0.000  0.000 -0.000  0.000
 -0.000  0.999 -0.000 -0.000  0.000
  0.000 -0.000  0.999 -0.000 -0.000
 -0.000 -0.000 -0.000  1.000  0.000
  0.000  0.000 -0.000  0.000  0.999
   spin  2
    eigenvalues: 
  0.023  0.023  0.024  0.063  0.063
    eigenvectors:
  0.000  0.000  0.000  0.750  0.250
  0.000  0.665  0.334  0.000  0.000
  0.500  0.167  0.333  0.000  0.000
  0.000  0.000  0.000  0.250  0.750
  0.500  0.167  0.333  0.000  0.000
    occupations:
  0.063 -0.000  0.000  0.000  0.001
 -0.000  0.024 -0.000 -0.001  0.000
  0.000 -0.000  0.024 -0.001 -0.000
  0.000 -0.001 -0.001  0.063  0.000
  0.001  0.000 -0.000  0.000  0.024
atomic mag. moment =     4.797796
atom   13   Tr[ns(na)] (up, down, total) =   0.19703  4.99493  5.19196
   spin  1
    eigenvalues: 
  0.023  0.023  0.024  0.063  0.063
    eigenvectors:
  0.000  0.000  0.000  0.250  0.750
  0.169  0.500  0.331  0.000  0.000
  0.661  0.000  0.338  0.000  0.000
  0.000  0.000  0.000  0.750  0.250
  0.169  0.500  0.331  0.000  0.000
    occupations:
  0.063 -0.000  0.000  0.000  0.001
 -0.000  0.024 -0.000 -0.001  0.000
  0.000 -0.000  0.024 -0.001 -0.000
  0.000 -0.001 -0.001  0.063  0.000
  0.001  0.000 -0.000  0.000  0.024
   spin  2
    eigenvalues: 
  0.998  0.998  0.999  1.000  1.000
    eigenvectors:
  0.000  0.001  0.000  0.250  0.749
  0.165  0.499  0.335  0.000  0.001
  0.669  0.000  0.330  0.001  0.000
  0.001  0.000  0.000  0.749  0.250
  0.165  0.499  0.335  0.000  0.001
    occupations:
  1.000 -0.000  0.000  0.000  0.000
 -0.000  0.998 -0.000 -0.000  0.000
  0.000 -0.000  0.998 -0.000 -0.000
  0.000 -0.000 -0.000  1.000 -0.000
  0.000  0.000 -0.000 -0.000  0.998
atomic mag. moment =    -4.797906
atom   15   Tr[ns(na)] (up, down, total) =   0.19703  4.99493  5.19196
   spin  1
    eigenvalues: 
  0.023  0.023  0.024  0.063  0.063
    eigenvectors:
  0.000  0.000  0.000  0.273  0.726
  0.650  0.016  0.333  0.000  0.000
  0.086  0.581  0.333  0.000  0.000
  0.000  0.000  0.000  0.726  0.273
  0.264  0.403  0.333  0.000  0.000
    occupations:
  0.063 -0.000  0.000  0.000  0.001
 -0.000  0.024 -0.000 -0.001  0.000
  0.000 -0.000  0.024 -0.001 -0.000
  0.000 -0.001 -0.001  0.063 -0.000
  0.001  0.000 -0.000 -0.000  0.024
   spin  2
    eigenvalues: 
  0.998  0.998  0.999  1.000  1.000
    eigenvectors:
  0.001  0.001  0.000  0.269  0.729
  0.649  0.017  0.333  0.000  0.001
  0.084  0.582  0.333  0.001  0.000
  0.001  0.001  0.000  0.729  0.269
  0.266  0.400  0.333  0.000  0.001
    occupations:
  1.000 -0.000  0.000  0.000  0.000
 -0.000  0.998 -0.000 -0.000  0.000
  0.000 -0.000  0.998 -0.000 -0.000
  0.000 -0.000 -0.000  1.000 -0.000
  0.000  0.000 -0.000 -0.000  0.998
atomic mag. moment =    -4.797894
N of occupied +U levels =   41.536244
 --- exit write_ns ---

     negative rho (up, down):  9.263E-04 9.261E-04

     Magnetic moment per site:
     atom:    1    charge:   12.8390    magn:   10.2592    constr:    0.0000
     atom:    2    charge:    5.7474    magn:    0.0000    constr:    0.0000
     atom:    3    charge:   12.8390    magn:   10.2592    constr:    0.0000
     atom:    4    charge:    5.7474    magn:    0.0000    constr:    0.0000
     atom:    5    charge:   12.8390    magn:  -10.2592    constr:    0.0000
     atom:    6    charge:    5.7474    magn:    0.0000    constr:    0.0000
     atom:    7    charge:   12.8390    magn:  -10.2592    constr:    0.0000
     atom:    8    charge:    5.7474    magn:    0.0000    constr:    0.0000
     atom:    9    charge:   12.8390    magn:   10.2592    constr:    0.0000
     atom:   10    charge:    5.7474    magn:    0.0000    constr:    0.0000
     atom:   11    charge:   12.8390    magn:   10.2592    constr:    0.0000
     atom:   12    charge:    5.7474    magn:    0.0000    constr:    0.0000
     atom:   13    charge:   12.8390    magn:  -10.2592    constr:    0.0000
     atom:   14    charge:    5.7474    magn:    0.0000    constr:    0.0000
     atom:   15    charge:   12.8390    magn:  -10.2592    constr:    0.0000
     atom:   16    charge:    5.7474    magn:    0.0000    constr:    0.0000

     total cpu time spent up to now is       97.1 secs

     total energy              =   -1937.91717427 Ry
     Harris-Foulkes estimate   =   -1921.68801299 Ry
     estimated scf accuracy    <      25.39836044 Ry

     total magnetization       =    -0.00 Bohr mag/cell
     absolute magnetization    =    40.76 Bohr mag/cell

     iteration #  2     ecut=    41.00 Ry     beta=0.30
     Davidson diagonalization with overlap
     ethr =  1.00E-02,  avg # of iterations =  1.1

     negative rho (up, down):  3.344E-03 3.344E-03

     Magnetic moment per site:
     atom:    1    charge:   12.7196    magn:    4.5268    constr:    0.0000
     atom:    2    charge:    5.9791    magn:    0.0001    constr:    0.0000
     atom:    3    charge:   12.7196    magn:    4.5269    constr:    0.0000
     atom:    4    charge:    5.9790    magn:    0.0001    constr:    0.0000
     atom:    5    charge:   12.7196    magn:   -4.5269    constr:    0.0000
     atom:    6    charge:    5.9790    magn:    0.0001    constr:    0.0000
     atom:    7    charge:   12.7196    magn:   -4.5269    constr:    0.0000
     atom:    8    charge:    5.9790    magn:    0.0001    constr:    0.0000
     atom:    9    charge:   12.7196    magn:    4.5269    constr:    0.0000
     atom:   10    charge:    5.9790    magn:    0.0001    constr:    0.0000
     atom:   11    charge:   12.7196    magn:    4.5269    constr:    0.0000
     atom:   12    charge:    5.9790    magn:    0.0001    constr:    0.0000
     atom:   13    charge:   12.7196    magn:   -4.5269    constr:    0.0000
     atom:   14    charge:    5.9790    magn:    0.0001    constr:    0.0000
     atom:   15    charge:   12.7196    magn:   -4.5269    constr:    0.0000
     atom:   16    charge:    5.9791    magn:    0.0001    constr:    0.0000

     total cpu time spent up to now is      139.4 secs

     total energy              =   -1945.60063421 Ry
     Harris-Foulkes estimate   =   -1938.18381947 Ry
     estimated scf accuracy    <      12.61620576 Ry

     total magnetization       =    -0.00 Bohr mag/cell
     absolute magnetization    =    40.33 Bohr mag/cell

     iteration #  3     ecut=    41.00 Ry     beta=0.30
     Davidson diagonalization with overlap
     ethr =  7.51E-03,  avg # of iterations =  4.0

     negative rho (up, down):  3.547E-03 3.550E-03

     Magnetic moment per site:
     atom:    1    charge:   12.6428    magn:    4.2939    constr:    0.0000
     atom:    2    charge:    5.9557    magn:    0.0001    constr:    0.0000
     atom:    3    charge:   12.6427    magn:    4.2946    constr:    0.0000
     atom:    4    charge:    5.9557    magn:   -0.0001    constr:    0.0000
     atom:    5    charge:   12.6427    magn:   -4.2944    constr:    0.0000
     atom:    6    charge:    5.9557    magn:   -0.0001    constr:    0.0000
     atom:    7    charge:   12.6427    magn:   -4.2944    constr:    0.0000
     atom:    8    charge:    5.9557    magn:   -0.0001    constr:    0.0000
     atom:    9    charge:   12.6427    magn:    4.2946    constr:    0.0000
     atom:   10    charge:    5.9557    magn:   -0.0001    constr:    0.0000
     atom:   11    charge:   12.6427    magn:    4.2946    constr:    0.0000
     atom:   12    charge:    5.9557    magn:   -0.0001    constr:    0.0000
     atom:   13    charge:   12.6427    magn:   -4.2944    constr:    0.0000
     atom:   14    charge:    5.9557    magn:   -0.0001    constr:    0.0000
     atom:   15    charge:   12.6428    magn:   -4.2939    constr:    0.0000
     atom:   16    charge:    5.9557    magn:    0.0001    constr:    0.0000

     total cpu time spent up to now is      208.8 secs

     total energy              =   -1946.15064420 Ry
     Harris-Foulkes estimate   =   -1946.29217707 Ry
     estimated scf accuracy    <       0.41321177 Ry

     total magnetization       =     0.00 Bohr mag/cell
     absolute magnetization    =    38.11 Bohr mag/cell

     iteration #  4     ecut=    41.00 Ry     beta=0.30
     Davidson diagonalization with overlap
     ethr =  2.46E-04,  avg # of iterations =  7.3

     negative rho (up, down):  3.609E-03 3.611E-03

     Magnetic moment per site:
     atom:    1    charge:   12.6353    magn:    4.1912    constr:    0.0000
     atom:    2    charge:    5.9663    magn:    0.0001    constr:    0.0000
     atom:    3    charge:   12.6352    magn:    4.1917    constr:    0.0000
     atom:    4    charge:    5.9663    magn:   -0.0001    constr:    0.0000
     atom:    5    charge:   12.6352    magn:   -4.1916    constr:    0.0000
     atom:    6    charge:    5.9663    magn:   -0.0001    constr:    0.0000
     atom:    7    charge:   12.6352    magn:   -4.1916    constr:    0.0000
     atom:    8    charge:    5.9663    magn:   -0.0001    constr:    0.0000
     atom:    9    charge:   12.6352    magn:    4.1917    constr:    0.0000
     atom:   10    charge:    5.9663    magn:   -0.0001    constr:    0.0000
     atom:   11    charge:   12.6352    magn:    4.1917    constr:    0.0000
     atom:   12    charge:    5.9663    magn:   -0.0001    constr:    0.0000
     atom:   13    charge:   12.6352    magn:   -4.1916    constr:    0.0000
     atom:   14    charge:    5.9663    magn:   -0.0001    constr:    0.0000
     atom:   15    charge:   12.6353    magn:   -4.1912    constr:    0.0000
     atom:   16    charge:    5.9663    magn:    0.0001    constr:    0.0000

     total cpu time spent up to now is      327.0 secs

     total energy              =   -1946.25646270 Ry
     Harris-Foulkes estimate   =   -1946.26291492 Ry
     estimated scf accuracy    <       0.02934819 Ry

     total magnetization       =     0.00 Bohr mag/cell
     absolute magnetization    =    37.89 Bohr mag/cell

     iteration #  5     ecut=    41.00 Ry     beta=0.30
     Davidson diagonalization with overlap
     ethr =  1.75E-05,  avg # of iterations =  6.0

     negative rho (up, down):  3.638E-03 3.639E-03

     Magnetic moment per site:
     atom:    1    charge:   12.6069    magn:    4.2345    constr:    0.0000
     atom:    2    charge:    5.9728    magn:   -0.0001    constr:    0.0000
     atom:    3    charge:   12.6068    magn:    4.2347    constr:    0.0000
     atom:    4    charge:    5.9727    magn:   -0.0001    constr:    0.0000
     atom:    5    charge:   12.6069    magn:   -4.2345    constr:    0.0000
     atom:    6    charge:    5.9727    magn:   -0.0001    constr:    0.0000
     atom:    7    charge:   12.6069    magn:   -4.2345    constr:    0.0000
     atom:    8    charge:    5.9727    magn:   -0.0001    constr:    0.0000
     atom:    9    charge:   12.6068    magn:    4.2347    constr:    0.0000
     atom:   10    charge:    5.9727    magn:   -0.0001    constr:    0.0000
     atom:   11    charge:   12.6068    magn:    4.2347    constr:    0.0000
     atom:   12    charge:    5.9727    magn:   -0.0001    constr:    0.0000
     atom:   13    charge:   12.6069    magn:   -4.2345    constr:    0.0000
     atom:   14    charge:    5.9727    magn:   -0.0001    constr:    0.0000
     atom:   15    charge:   12.6070    magn:   -4.2343    constr:    0.0000
     atom:   16    charge:    5.9728    magn:   -0.0001    constr:    0.0000

     total cpu time spent up to now is      412.2 secs

     total energy              =   -1946.25866463 Ry
     Harris-Foulkes estimate   =   -1946.25902763 Ry
     estimated scf accuracy    <       0.00886800 Ry

     total magnetization       =     0.00 Bohr mag/cell
     absolute magnetization    =    37.78 Bohr mag/cell
 kfg - setting two_fermi_energies to FALSE

     iteration #  6     ecut=    41.00 Ry     beta=0.30
     Davidson diagonalization with overlap
     ethr =  5.28E-06,  avg # of iterations =  4.7

     negative rho (up, down):  3.624E-03 3.625E-03

     Magnetic moment per site:
     atom:    1    charge:   12.6026    magn:    4.2426    constr:    0.0000
     atom:    2    charge:    5.9729    magn:   -0.0000    constr:    0.0000
     atom:    3    charge:   12.6025    magn:    4.2426    constr:    0.0000
     atom:    4    charge:    5.9729    magn:   -0.0001    constr:    0.0000
     atom:    5    charge:   12.6026    magn:   -4.2425    constr:    0.0000
     atom:    6    charge:    5.9729    magn:   -0.0001    constr:    0.0000
     atom:    7    charge:   12.6026    magn:   -4.2425    constr:    0.0000
     atom:    8    charge:    5.9729    magn:   -0.0001    constr:    0.0000
     atom:    9    charge:   12.6025    magn:    4.2426    constr:    0.0000
     atom:   10    charge:    5.9729    magn:   -0.0001    constr:    0.0000
     atom:   11    charge:   12.6025    magn:    4.2426    constr:    0.0000
     atom:   12    charge:    5.9729    magn:   -0.0001    constr:    0.0000
     atom:   13    charge:   12.6026    magn:   -4.2425    constr:    0.0000
     atom:   14    charge:    5.9729    magn:   -0.0001    constr:    0.0000
     atom:   15    charge:   12.6026    magn:   -4.2424    constr:    0.0000
     atom:   16    charge:    5.9729    magn:   -0.0000    constr:    0.0000

     total cpu time spent up to now is      497.4 secs

     total energy              =   -1946.26033358 Ry
     Harris-Foulkes estimate   =   -1946.26034896 Ry
     estimated scf accuracy    <       0.00044449 Ry

     total magnetization       =    -0.00 Bohr mag/cell
     absolute magnetization    =    37.69 Bohr mag/cell

     iteration #  7     ecut=    41.00 Ry     beta=0.30
     Davidson diagonalization with overlap
     ethr =  2.65E-07,  avg # of iterations =  1.9

     negative rho (up, down):  3.613E-03 3.613E-03

     Magnetic moment per site:
     atom:    1    charge:   12.6009    magn:    4.2305    constr:    0.0000
     atom:    2    charge:    5.9728    magn:   -0.0000    constr:    0.0000
     atom:    3    charge:   12.6008    magn:    4.2305    constr:    0.0000
     atom:    4    charge:    5.9728    magn:   -0.0000    constr:    0.0000
     atom:    5    charge:   12.6009    magn:   -4.2304    constr:    0.0000
     atom:    6    charge:    5.9728    magn:   -0.0000    constr:    0.0000
     atom:    7    charge:   12.6009    magn:   -4.2304    constr:    0.0000
     atom:    8    charge:    5.9728    magn:   -0.0000    constr:    0.0000
     atom:    9    charge:   12.6008    magn:    4.2305    constr:    0.0000
     atom:   10    charge:    5.9728    magn:   -0.0000    constr:    0.0000
     atom:   11    charge:   12.6008    magn:    4.2305    constr:    0.0000
     atom:   12    charge:    5.9728    magn:   -0.0000    constr:    0.0000
     atom:   13    charge:   12.6009    magn:   -4.2304    constr:    0.0000
     atom:   14    charge:    5.9728    magn:   -0.0000    constr:    0.0000
     atom:   15    charge:   12.6009    magn:   -4.2304    constr:    0.0000
     atom:   16    charge:    5.9728    magn:   -0.0000    constr:    0.0000

     total cpu time spent up to now is      546.0 secs

     total energy              =   -1946.26037333 Ry
     Harris-Foulkes estimate   =   -1946.26036156 Ry
     estimated scf accuracy    <       0.00009390 Ry

     total magnetization       =     0.00 Bohr mag/cell
     absolute magnetization    =    37.68 Bohr mag/cell

     iteration #  8     ecut=    41.00 Ry     beta=0.30
     Davidson diagonalization with overlap
     ethr =  5.59E-08,  avg # of iterations =  3.8

     negative rho (up, down):  3.597E-03 3.597E-03

     Magnetic moment per site:
     atom:    1    charge:   12.6009    magn:    4.2299    constr:    0.0000
     atom:    2    charge:    5.9724    magn:    0.0000    constr:    0.0000
     atom:    3    charge:   12.6009    magn:    4.2299    constr:    0.0000
     atom:    4    charge:    5.9724    magn:   -0.0000    constr:    0.0000
     atom:    5    charge:   12.6009    magn:   -4.2299    constr:    0.0000
     atom:    6    charge:    5.9724    magn:   -0.0000    constr:    0.0000
     atom:    7    charge:   12.6009    magn:   -4.2299    constr:    0.0000
     atom:    8    charge:    5.9724    magn:   -0.0000    constr:    0.0000
     atom:    9    charge:   12.6009    magn:    4.2299    constr:    0.0000
     atom:   10    charge:    5.9724    magn:   -0.0000    constr:    0.0000
     atom:   11    charge:   12.6009    magn:    4.2299    constr:    0.0000
     atom:   12    charge:    5.9724    magn:   -0.0000    constr:    0.0000
     atom:   13    charge:   12.6009    magn:   -4.2299    constr:    0.0000
     atom:   14    charge:    5.9724    magn:   -0.0000    constr:    0.0000
     atom:   15    charge:   12.6009    magn:   -4.2298    constr:    0.0000
     atom:   16    charge:    5.9724    magn:    0.0000    constr:    0.0000

     total cpu time spent up to now is      620.4 secs

     total energy              =   -1946.26038903 Ry
     Harris-Foulkes estimate   =   -1946.26038807 Ry
     estimated scf accuracy    <       0.00000445 Ry

     total magnetization       =    -0.00 Bohr mag/cell
     absolute magnetization    =    37.67 Bohr mag/cell

     iteration #  9     ecut=    41.00 Ry     beta=0.30
     Davidson diagonalization with overlap
     ethr =  2.65E-09,  avg # of iterations =  3.2

     negative rho (up, down):  3.587E-03 3.587E-03

     Magnetic moment per site:
     atom:    1    charge:   12.6008    magn:    4.2299    constr:    0.0000
     atom:    2    charge:    5.9722    magn:    0.0000    constr:    0.0000
     atom:    3    charge:   12.6008    magn:    4.2299    constr:    0.0000
     atom:    4    charge:    5.9722    magn:    0.0000    constr:    0.0000
     atom:    5    charge:   12.6008    magn:   -4.2299    constr:    0.0000
     atom:    6    charge:    5.9722    magn:    0.0000    constr:    0.0000
     atom:    7    charge:   12.6008    magn:   -4.2299    constr:    0.0000
     atom:    8    charge:    5.9722    magn:    0.0000    constr:    0.0000
     atom:    9    charge:   12.6008    magn:    4.2299    constr:    0.0000
     atom:   10    charge:    5.9722    magn:    0.0000    constr:    0.0000
     atom:   11    charge:   12.6008    magn:    4.2299    constr:    0.0000
     atom:   12    charge:    5.9722    magn:    0.0000    constr:    0.0000
     atom:   13    charge:   12.6008    magn:   -4.2299    constr:    0.0000
     atom:   14    charge:    5.9722    magn:    0.0000    constr:    0.0000
     atom:   15    charge:   12.6008    magn:   -4.2299    constr:    0.0000
     atom:   16    charge:    5.9722    magn:    0.0000    constr:    0.0000

     total cpu time spent up to now is      699.2 secs

     total energy              =   -1946.26039072 Ry
     Harris-Foulkes estimate   =   -1946.26039055 Ry
     estimated scf accuracy    <       0.00000168 Ry

     total magnetization       =     0.00 Bohr mag/cell
     absolute magnetization    =    37.67 Bohr mag/cell

     iteration # 10     ecut=    41.00 Ry     beta=0.30
     Davidson diagonalization with overlap
     ethr =  1.00E-09,  avg # of iterations =  2.5

     negative rho (up, down):  3.589E-03 3.589E-03

     Magnetic moment per site:
     atom:    1    charge:   12.6008    magn:    4.2299    constr:    0.0000
     atom:    2    charge:    5.9722    magn:    0.0000    constr:    0.0000
     atom:    3    charge:   12.6008    magn:    4.2299    constr:    0.0000
     atom:    4    charge:    5.9722    magn:    0.0000    constr:    0.0000
     atom:    5    charge:   12.6008    magn:   -4.2299    constr:    0.0000
     atom:    6    charge:    5.9722    magn:    0.0000    constr:    0.0000
     atom:    7    charge:   12.6008    magn:   -4.2299    constr:    0.0000
     atom:    8    charge:    5.9722    magn:    0.0000    constr:    0.0000
     atom:    9    charge:   12.6008    magn:    4.2299    constr:    0.0000
     atom:   10    charge:    5.9722    magn:    0.0000    constr:    0.0000
     atom:   11    charge:   12.6008    magn:    4.2299    constr:    0.0000
     atom:   12    charge:    5.9722    magn:    0.0000    constr:    0.0000
     atom:   13    charge:   12.6008    magn:   -4.2299    constr:    0.0000
     atom:   14    charge:    5.9722    magn:    0.0000    constr:    0.0000
     atom:   15    charge:   12.6008    magn:   -4.2299    constr:    0.0000
     atom:   16    charge:    5.9722    magn:    0.0000    constr:    0.0000

     total cpu time spent up to now is      766.5 secs

     total energy              =   -1946.26039125 Ry
     Harris-Foulkes estimate   =   -1946.26039101 Ry
     estimated scf accuracy    <       0.00000002 Ry

     total magnetization       =     0.00 Bohr mag/cell
     absolute magnetization    =    37.67 Bohr mag/cell

     iteration # 11     ecut=    41.00 Ry     beta=0.30
     Davidson diagonalization with overlap
     ethr =  1.11E-11,  avg # of iterations =  4.0

     negative rho (up, down):  3.588E-03 3.588E-03

     Magnetic moment per site:
     atom:    1    charge:   12.6008    magn:    4.2299    constr:    0.0000
     atom:    2    charge:    5.9722    magn:    0.0000    constr:    0.0000
     atom:    3    charge:   12.6008    magn:    4.2299    constr:    0.0000
     atom:    4    charge:    5.9722    magn:    0.0000    constr:    0.0000
     atom:    5    charge:   12.6008    magn:   -4.2299    constr:    0.0000
     atom:    6    charge:    5.9722    magn:    0.0000    constr:    0.0000
     atom:    7    charge:   12.6008    magn:   -4.2299    constr:    0.0000
     atom:    8    charge:    5.9722    magn:    0.0000    constr:    0.0000
     atom:    9    charge:   12.6008    magn:    4.2299    constr:    0.0000
     atom:   10    charge:    5.9722    magn:    0.0000    constr:    0.0000
     atom:   11    charge:   12.6008    magn:    4.2299    constr:    0.0000
     atom:   12    charge:    5.9722    magn:    0.0000    constr:    0.0000
     atom:   13    charge:   12.6008    magn:   -4.2299    constr:    0.0000
     atom:   14    charge:    5.9722    magn:    0.0000    constr:    0.0000
     atom:   15    charge:   12.6007    magn:   -4.2299    constr:    0.0000
     atom:   16    charge:    5.9722    magn:    0.0000    constr:    0.0000

     total cpu time spent up to now is      849.0 secs

     End of self-consistent calculation
 --- enter write_ns ---
 LDA+U parameters:
U( 1)     =  3.00000000
alpha( 1) =  0.00000000
U( 2)     =  3.00000000
alpha( 2) =  0.00000000
atom    1   Tr[ns(na)] (up, down, total) =   4.98545  0.49927  5.48471
   spin  1
    eigenvalues: 
  0.996  0.996  0.997  0.998  0.998
    eigenvectors:
  0.709  0.121  0.000  0.018  0.152
  0.002  0.111  0.333  0.533  0.021
  0.071  0.042  0.333  0.240  0.314
  0.121  0.709  0.000  0.152  0.018
  0.097  0.017  0.333  0.058  0.496
    occupations:
  0.997 -0.000  0.000  0.000  0.000
 -0.000  0.997  0.000 -0.000 -0.000
  0.000  0.000  0.997 -0.000  0.000
  0.000 -0.000 -0.000  0.997 -0.000
  0.000 -0.000  0.000 -0.000  0.997
   spin  2
    eigenvalues: 
  0.056  0.057  0.057  0.165  0.165
    eigenvectors:
  0.000  0.000  0.000  0.280  0.719
  0.333  0.664  0.003  0.000  0.000
  0.333  0.132  0.534  0.000  0.000
  0.000  0.000  0.000  0.719  0.280
  0.333  0.204  0.463  0.000  0.000
    occupations:
  0.165  0.001 -0.001  0.000 -0.002
  0.001  0.056  0.000  0.002 -0.000
 -0.001  0.000  0.056  0.002  0.000
  0.000  0.002  0.002  0.165 -0.000
 -0.002 -0.000  0.000 -0.000  0.056
atomic mag. moment =     4.486178
atom    3   Tr[ns(na)] (up, down, total) =   4.98545  0.49927  5.48472
   spin  1
    eigenvalues: 
  0.996  0.996  0.997  0.998  0.998
    eigenvectors:
  0.623  0.208  0.000  0.127  0.042
  0.085  0.028  0.333  0.415  0.138
  0.000  0.113  0.333  0.000  0.554
  0.208  0.623  0.000  0.042  0.127
  0.085  0.028  0.333  0.415  0.138
    occupations:
  0.997 -0.000  0.000 -0.000  0.000
 -0.000  0.997  0.000 -0.000 -0.000
  0.000  0.000  0.997 -0.000  0.000
 -0.000 -0.000 -0.000  0.997  0.000
  0.000 -0.000  0.000  0.000  0.997
   spin  2
    eigenvalues: 
  0.056  0.057  0.057  0.165  0.165
    eigenvectors:
  0.000  0.001  0.000  0.250  0.749
  0.333  0.500  0.166  0.000  0.000
  0.333  0.000  0.666  0.000  0.000
  0.000  0.000  0.001  0.749  0.250
  0.333  0.500  0.166  0.000  0.000
    occupations:
  0.165  0.001 -0.001  0.000 -0.002
  0.001  0.056  0.000  0.002 -0.000
 -0.001  0.000  0.056  0.002  0.000
  0.000  0.002  0.002  0.165 -0.000
 -0.002 -0.000  0.000 -0.000  0.056
atomic mag. moment =     4.486174
atom    5   Tr[ns(na)] (up, down, total) =   0.49927  4.98545  5.48471
   spin  1
    eigenvalues: 
  0.056  0.057  0.057  0.165  0.165
    eigenvectors:
  0.000  0.001  0.000  0.250  0.749
  0.333  0.000  0.666  0.000  0.000
  0.333  0.500  0.166  0.000  0.000
  0.000  0.000  0.001  0.749  0.250
  0.333  0.500  0.166  0.000  0.000
    occupations:
  0.165  0.001 -0.001 -0.000 -0.002
  0.001  0.056  0.000  0.002 -0.000
 -0.001  0.000  0.056  0.002  0.000
 -0.000  0.002  0.002  0.165  0.000
 -0.002 -0.000  0.000  0.000  0.056
   spin  2
    eigenvalues: 
  0.996  0.996  0.997  0.998  0.998
    eigenvectors:
  0.623  0.208  0.000  0.127  0.042
  0.000  0.113  0.333  0.000  0.554
  0.085  0.028  0.333  0.415  0.138
  0.208  0.623  0.000  0.042  0.127
  0.085  0.028  0.333  0.415  0.138
    occupations:
  0.997 -0.000  0.000  0.000  0.000
 -0.000  0.997  0.000 -0.000 -0.000
  0.000  0.000  0.997 -0.000  0.000
  0.000 -0.000 -0.000  0.997 -0.000
  0.000 -0.000  0.000 -0.000  0.997
atomic mag. moment =    -4.486179
atom    7   Tr[ns(na)] (up, down, total) =   0.49927  4.98545  5.48471
   spin  1
    eigenvalues: 
  0.056  0.057  0.057  0.165  0.165
    eigenvectors:
  0.000  0.000  0.001  0.999  0.000
  0.333  0.500  0.166  0.000  0.000
  0.333  0.500  0.166  0.000  0.000
  0.000  0.001  0.000  0.000  0.999
  0.333  0.000  0.666  0.000  0.000
    occupations:
  0.165  0.001 -0.001  0.000 -0.002
  0.001  0.056  0.000  0.002 -0.000
 -0.001  0.000  0.056  0.002  0.000
  0.000  0.002  0.002  0.165 -0.000
 -0.002 -0.000  0.000 -0.000  0.056
   spin  2
    eigenvalues: 
  0.996  0.996  0.997  0.998  0.998
    eigenvectors:
  0.000  0.830  0.000  0.000  0.170
  0.085  0.028  0.333  0.415  0.138
  0.085  0.028  0.333  0.415  0.138
  0.830  0.000  0.000  0.170  0.000
  0.000  0.113  0.333  0.000  0.554
    occupations:
  0.997 -0.000  0.000  0.000  0.000
 -0.000  0.997  0.000 -0.000 -0.000
  0.000  0.000  0.997 -0.000  0.000
  0.000 -0.000 -0.000  0.997 -0.000
  0.000 -0.000  0.000 -0.000  0.997
atomic mag. moment =    -4.486179
atom    9   Tr[ns(na)] (up, down, total) =   4.98545  0.49927  5.48472
   spin  1
    eigenvalues: 
  0.996  0.996  0.997  0.998  0.998
    eigenvectors:
  0.000  0.830  0.000  0.000  0.170
  0.085  0.028  0.333  0.415  0.138
  0.085  0.028  0.333  0.415  0.138
  0.830  0.000  0.000  0.170  0.000
  0.000  0.113  0.333  0.000  0.554
    occupations:
  0.997 -0.000  0.000  0.000  0.000
 -0.000  0.997  0.000 -0.000 -0.000
  0.000  0.000  0.997 -0.000  0.000
  0.000 -0.000 -0.000  0.997 -0.000
  0.000 -0.000  0.000 -0.000  0.997
   spin  2
    eigenvalues: 
  0.056  0.057  0.057  0.165  0.165
    eigenvectors:
  0.000  0.000  0.001  0.999  0.000
  0.333  0.500  0.166  0.000  0.000
  0.333  0.500  0.166  0.000  0.000
  0.000  0.001  0.000  0.000  0.999
  0.333  0.000  0.666  0.000  0.000
    occupations:
  0.165  0.001 -0.001  0.000 -0.002
  0.001  0.056  0.000  0.002 -0.000
 -0.001  0.000  0.056  0.002  0.000
  0.000  0.002  0.002  0.165 -0.000
 -0.002 -0.000  0.000 -0.000  0.056
atomic mag. moment =     4.486174
atom   11   Tr[ns(na)] (up, down, total) =   4.98545  0.49927  5.48472
   spin  1
    eigenvalues: 
  0.996  0.996  0.997  0.998  0.998
    eigenvectors:
  0.623  0.208  0.000  0.127  0.042
  0.000  0.113  0.333  0.000  0.554
  0.085  0.028  0.333  0.415  0.138
  0.208  0.623  0.000  0.042  0.127
  0.085  0.028  0.333  0.415  0.138
    occupations:
  0.997 -0.000  0.000  0.000  0.000
 -0.000  0.997  0.000 -0.000 -0.000
  0.000  0.000  0.997 -0.000  0.000
  0.000 -0.000 -0.000  0.997 -0.000
  0.000 -0.000  0.000 -0.000  0.997
   spin  2
    eigenvalues: 
  0.056  0.057  0.057  0.165  0.165
    eigenvectors:
  0.000  0.001  0.000  0.250  0.749
  0.333  0.000  0.666  0.000  0.000
  0.333  0.500  0.166  0.000  0.000
  0.000  0.000  0.001  0.749  0.250
  0.333  0.500  0.166  0.000  0.000
    occupations:
  0.165  0.001 -0.001 -0.000 -0.002
  0.001  0.056  0.000  0.002 -0.000
 -0.001  0.000  0.056  0.002  0.000
 -0.000  0.002  0.002  0.165  0.000
 -0.002 -0.000  0.000  0.000  0.056
atomic mag. moment =     4.486174
atom   13   Tr[ns(na)] (up, down, total) =   0.49927  4.98545  5.48471
   spin  1
    eigenvalues: 
  0.056  0.057  0.057  0.165  0.165
    eigenvectors:
  0.000  0.001  0.000  0.250  0.749
  0.333  0.500  0.166  0.000  0.000
  0.333  0.000  0.666  0.000  0.000
  0.000  0.000  0.001  0.749  0.250
  0.333  0.500  0.166  0.000  0.000
    occupations:
  0.165  0.001 -0.001  0.000 -0.002
  0.001  0.056  0.000  0.002 -0.000
 -0.001  0.000  0.056  0.002  0.000
  0.000  0.002  0.002  0.165 -0.000
 -0.002 -0.000  0.000 -0.000  0.056
   spin  2
    eigenvalues: 
  0.996  0.996  0.997  0.998  0.998
    eigenvectors:
  0.623  0.208  0.000  0.127  0.042
  0.085  0.028  0.333  0.415  0.138
  0.000  0.113  0.333  0.000  0.554
  0.208  0.623  0.000  0.042  0.127
  0.085  0.028  0.333  0.415  0.138
    occupations:
  0.997 -0.000  0.000 -0.000  0.000
 -0.000  0.997  0.000 -0.000 -0.000
  0.000  0.000  0.997 -0.000  0.000
 -0.000 -0.000 -0.000  0.997  0.000
  0.000 -0.000  0.000  0.000  0.997
atomic mag. moment =    -4.486179
atom   15   Tr[ns(na)] (up, down, total) =   0.49926  4.98545  5.48471
   spin  1
    eigenvalues: 
  0.056  0.057  0.057  0.165  0.165
    eigenvectors:
  0.000  0.000  0.000  0.249  0.750
  0.333  0.654  0.012  0.000  0.000
  0.333  0.095  0.572  0.000  0.000
  0.000  0.000  0.000  0.750  0.249
  0.333  0.251  0.415  0.000  0.000
    occupations:
  0.165  0.001 -0.001  0.000 -0.002
  0.001  0.056  0.000  0.002 -0.000
 -0.001  0.000  0.056  0.002  0.000
  0.000  0.002  0.002  0.165 -0.000
 -0.002 -0.000  0.000 -0.000  0.056
   spin  2
    eigenvalues: 
  0.996  0.996  0.997  0.998  0.998
    eigenvectors:
  0.705  0.125  0.000  0.017  0.153
  0.002  0.111  0.333  0.530  0.023
  0.072  0.041  0.333  0.246  0.308
  0.125  0.705  0.000  0.153  0.017
  0.096  0.017  0.333  0.054  0.500
    occupations:
  0.997 -0.000  0.000  0.000  0.000
 -0.000  0.997  0.000 -0.000 -0.000
  0.000  0.000  0.997 -0.000  0.000
  0.000 -0.000 -0.000  0.997 -0.000
  0.000 -0.000  0.000 -0.000  0.997
atomic mag. moment =    -4.486183
N of occupied +U levels =   43.877711
 --- exit write_ns ---

 ------ SPIN UP ------------


          k = 0.0000 0.0000 0.0000 (  5329 PWs)   bands (ev):

   -68.9471 -68.9435 -68.9435 -68.9435 -63.8133 -63.8089 -63.8089 -63.8088
   -37.8360 -37.8360 -37.8360 -37.8238 -37.8175 -37.8175 -37.8174 -37.8043
   -37.8043 -37.8043 -37.7938 -37.7938 -32.8291 -32.8290 -32.8290 -32.8001
   -32.7910 -32.7910 -32.7910 -32.7869 -32.7869 -32.7869 -32.7735 -32.7735
    -6.8291  -5.9777  -5.9776  -5.9776  -5.8606  -5.8605  -5.8605  -5.8605
     4.7505   4.7642   4.7642   4.7642   6.2586   6.2586   6.2586   6.5433
     6.5433   6.6409   6.6409   6.6409   6.6423   6.6423   6.6423   7.9296
     7.9296   7.9296   8.3078   8.3078   8.4403   8.4403   8.4403   8.4411
     8.4411   8.4411   8.8945   8.9129   8.9129   8.9129   9.3509   9.3509
     9.3509   9.4698   9.4698   9.4718  10.7344  10.7344  10.9859  10.9859
    10.9859  11.0938  11.0938  11.0938  12.6435  14.7048  14.7048  14.7048
    15.3567  15.4024  15.4024  16.0916  16.0916  16.0917  16.1388  16.1388
    16.1388  16.2585  16.2585  16.4681  16.4682

          k =-0.1768 0.1768 0.1768 (  5402 PWs)   bands (ev):

   -68.9463 -68.9438 -68.9432 -68.9431 -63.8128 -63.8096 -63.8091 -63.8090
   -37.8330 -37.8330 -37.8300 -37.8228 -37.8183 -37.8173 -37.8173 -37.8080
   -37.8080 -37.8028 -37.8002 -37.7954 -32.8244 -32.8244 -32.8208 -32.7990
   -32.7925 -32.7913 -32.7912 -32.7910 -32.7909 -32.7849 -32.7815 -32.7754
    -6.7010  -6.0195  -5.9814  -5.9814  -5.9612  -5.8791  -5.8594  -5.8594
     5.0337   5.0423   5.0423   5.1937   6.1026   6.1026   6.1741   6.4603
     6.5810   6.5810   6.6421   6.6504   6.7376   6.8708   6.8708   7.3486
     7.3487   7.7922   7.8283   8.0826   8.1109   8.2065   8.2065   8.5090
     8.7112   8.7398   8.7398   8.9040   9.0766   9.0766   9.1478   9.3349
     9.3449   9.3449   9.3507   9.3833  10.9053  10.9055  10.9055  10.9500
    11.0415  11.0415  11.0669  11.1268  13.6015  14.6887  14.8852  14.8852
    15.1399  15.4440  15.5082  15.7204  15.7204  15.7811  15.9837  16.0185
    16.0814  16.0815  16.1791  16.2082  16.2082

          k = 0.3536-0.3536-0.3536 (  5444 PWs)   bands (ev):

   -68.9448 -68.9448 -68.9428 -68.9427 -63.8114 -63.8113 -63.8093 -63.8093
   -37.8286 -37.8286 -37.8205 -37.8204 -37.8173 -37.8173 -37.8153 -37.8153
   -37.8131 -37.8131 -37.7992 -37.7992 -32.8181 -32.8181 -32.8012 -32.8012
   -32.7967 -32.7967 -32.7959 -32.7959 -32.7914 -32.7914 -32.7801 -32.7801
    -6.3749  -6.3749  -5.9849  -5.9848  -5.9217  -5.9217  -5.8585  -5.8585
     5.6208   5.6208   5.7185   5.7185   5.7663   5.7663   6.1785   6.1785
     6.5485   6.5485   6.6516   6.6516   6.7472   6.7472   6.8268   6.8269
     7.1666   7.1666   7.8421   7.8422   7.9529   7.9529   8.1784   8.1784
     8.5906   8.5906   8.9497   8.9497   9.2023   9.2024   9.3018   9.3018
     9.3020   9.3020   9.3036   9.3036  10.7908  10.7908  11.0275  11.0275
    11.1009  11.1009  11.1428  11.1428  14.7370  14.7370  15.1719  15.1719
    15.2749  15.2749  15.3481  15.3481  15.7601  15.7601  15.7624  15.7624
    16.0558  16.0561  16.0659  16.0660  16.0667

          k = 0.0000 0.0000 0.3536 (  5425 PWs)   bands (ev):

   -68.9465 -68.9439 -68.9435 -68.9434 -63.8126 -63.8095 -63.8087 -63.8086
   -37.8328 -37.8328 -37.8300 -37.8227 -37.8182 -37.8171 -37.8170 -37.8080
   -37.8080 -37.8028 -37.8002 -37.7954 -32.8247 -32.8247 -32.8209 -32.7991
   -32.7926 -32.7918 -32.7918 -32.7908 -32.7908 -32.7849 -32.7815 -32.7755
    -6.6655  -6.0883  -5.9581  -5.9581  -5.9221  -5.8886  -5.8856  -5.8855
     5.1255   5.1284   5.1379   5.1379   5.9350   6.2803   6.2803   6.4918
     6.5346   6.5346   6.6385   6.7017   6.7603   6.7603   6.9120   7.3251
     7.3251   7.7717   7.9018   7.9018   8.0734   8.1033   8.1596   8.3649
     8.5779   8.7058   8.8298   8.8298   9.0860   9.0861   9.1941   9.3766
     9.3766   9.4949   9.5464   9.6570  10.6967  10.7322  10.7500  10.9141
    10.9141  10.9172  11.0614  11.0614  13.8689  14.7819  14.8197  14.8197
    15.2566  15.3196  15.4827  15.5783  15.7898  15.7898  15.9807  15.9988
    16.0110  16.0110  16.0226  16.1898  16.1898

          k = 0.5303-0.5303-0.1768 (  5413 PWs)   bands (ev):

   -68.9450 -68.9448 -68.9431 -68.9430 -63.8114 -63.8110 -63.8089 -63.8089
   -37.8284 -37.8283 -37.8206 -37.8202 -37.8170 -37.8169 -37.8154 -37.8151
   -37.8132 -37.8132 -37.7992 -37.7991 -32.8184 -32.8184 -32.8014 -32.8009
   -32.7968 -32.7967 -32.7963 -32.7957 -32.7918 -32.7917 -32.7802 -32.7801
    -6.4274  -6.2057  -6.1002  -5.9838  -5.9838  -5.8629  -5.8615  -5.8614
     5.5317   5.5782   5.5782   5.6962   6.0117   6.0117   6.0698   6.3938
     6.5575   6.5575   6.6064   6.7501   6.7741   6.7741   6.8421   6.8782
     7.0208   7.0208   7.7409   7.7409   7.8507   7.9183   8.1515   8.2865
     8.5398   8.6122   8.9672   8.9672   9.1900   9.1900   9.3151   9.4466
     9.4466   9.4600   9.4720   9.4801  10.6456  10.7394  10.7394  10.7739
    10.9103  10.9498  10.9498  11.0402  14.7121  14.9415  15.0364  15.1516
    15.2615  15.2616  15.3821  15.3822  15.6356  15.6713  15.7485  15.7577
    15.9178  15.9178  16.1507  16.1507  16.2517

          k = 0.3536-0.3536 0.0000 (  5416 PWs)   bands (ev):

   -68.9468 -68.9446 -68.9439 -68.9438 -63.8122 -63.8086 -63.8082 -63.8081
   -37.8326 -37.8326 -37.8296 -37.8227 -37.8176 -37.8168 -37.8167 -37.8080
   -37.8079 -37.8027 -37.8002 -37.7954 -32.8250 -32.8250 -32.8215 -32.7992
   -32.7935 -32.7921 -32.7920 -32.7911 -32.7910 -32.7850 -32.7815 -32.7755
    -6.5140  -6.1258  -6.0974  -6.0369  -6.0369  -5.8550  -5.8050  -5.8050
     5.3387   5.3387   5.5241   5.5629   5.8980   5.8980   6.1130   6.3921
     6.4557   6.4557   6.5018   6.7284   6.7517   7.0257   7.0257   7.4092
     7.4092   7.5497   7.6772   7.8207   7.8207   8.0561   8.0677   8.0933
     8.4358   8.6216   8.7762   8.7762   9.0841   9.0841   9.1049   9.1514
     9.4716   9.5398   9.5398   9.7321  10.6965  10.7859  10.7859  10.9248
    10.9248  10.9645  11.1343  11.2471  14.5645  14.5830  14.8158  14.8158
    15.0197  15.3738  15.4919  15.7659  15.7660  15.8211  15.9171  15.9596
    16.0089  16.0439  16.0442  16.0722  16.1443

          k = 0.0000 0.0000-0.7071 (  5434 PWs)   bands (ev):

   -68.9451 -68.9451 -68.9434 -68.9433 -63.8110 -63.8110 -63.8085 -63.8085
   -37.8282 -37.8281 -37.8204 -37.8204 -37.8167 -37.8167 -37.8153 -37.8153
   -37.8132 -37.8132 -37.7991 -37.7991 -32.8187 -32.8187 -32.8011 -32.8011
   -32.7969 -32.7968 -32.7962 -32.7961 -32.7920 -32.7920 -32.7803 -32.7802
    -6.3257  -6.3257  -5.9824  -5.9824  -5.9739  -5.9739  -5.8648  -5.8647
     5.5025   5.5025   5.6051   5.6052   6.2054   6.2054   6.3235   6.3235
     6.5586   6.5586   6.7478   6.7478   6.7639   6.7639   6.8712   6.8713
     6.8744   6.8744   7.4701   7.4701   7.9282   7.9282   8.3120   8.3121
     8.5948   8.5948   8.9520   8.9521   9.1967   9.1967   9.4995   9.4995
     9.6498   9.6499   9.9066   9.9066  10.0372  10.0372  10.4655  10.4655
    10.7968  10.7968  11.0311  11.0311  14.8554  14.8554  15.0133  15.0133
    15.2757  15.2757  15.4086  15.4086  15.5954  15.5954  15.7449  15.7449
    15.7925  15.7925  16.1321  16.1322  16.3515

          k = 0.0000 0.3536-0.7071 (  5400 PWs)   bands (ev):

   -68.9453 -68.9443 -68.9443 -68.9428 -63.8116 -63.8096 -63.8096 -63.8081
   -37.8289 -37.8233 -37.8233 -37.8212 -37.8184 -37.8184 -37.8183 -37.8160
   -37.8103 -37.8042 -37.8042 -37.7989 -32.8189 -32.8125 -32.8125 -32.8032
   -32.7969 -32.7944 -32.7944 -32.7943 -32.7912 -32.7861 -32.7861 -32.7796
    -6.2293  -6.2116  -6.2116  -6.1705  -5.9222  -5.8623  -5.8623  -5.8262
     5.7403   5.7403   5.7737   5.8018   5.8385   6.0292   6.0292   6.1441
     6.3375   6.5710   6.5710   6.7697   6.7874   6.7874   6.9296   7.0524
     7.2731   7.3312   7.4518   7.4518   7.4540   7.9460   7.9461   8.3873
     8.5429   8.6766   8.6766   8.9119   9.2569   9.3064   9.3304   9.3305
     9.5303   9.7226   9.7226   9.8698  10.2245  10.4540  10.4540  10.6918
    10.8947  10.9913  10.9913  11.0626  14.9712  14.9712  15.0002  15.2197
    15.2452  15.2693  15.4394  15.4394  15.5099  15.5099  15.7501  15.7551
    15.7807  16.0347  16.0469  16.0469  16.1368

          k =-0.1768 0.1768-0.1768 (  5402 PWs)   bands (ev):

   -68.9477 -68.9443 -68.9443 -68.9442 -63.8126 -63.8079 -63.8079 -63.8079
   -37.8357 -37.8356 -37.8356 -37.8236 -37.8169 -37.8169 -37.8168 -37.8042
   -37.8042 -37.8042 -37.7938 -37.7938 -32.8296 -32.8296 -32.8296 -32.8005
   -32.7919 -32.7919 -32.7918 -32.7870 -32.7870 -32.7870 -32.7736 -32.7736
    -6.7016  -6.0253  -6.0253  -6.0253  -6.0184  -5.8150  -5.8150  -5.8150
     4.9860   4.9860   4.9861   5.1562   6.1258   6.1258   6.1258   6.6129
     6.6129   6.6460   6.6460   6.6460   6.6589   6.6589   6.6589   7.7711
     7.7711   7.7711   8.2198   8.3179   8.3179   8.3223   8.3223   8.3223
     8.3984   8.3984   8.3984   8.9135   8.9135   8.9135   9.1177   9.1177
     9.1924   9.4609   9.4609   9.4609  10.9548  10.9548  10.9548  11.0650
    11.0650  11.0650  11.0771  11.0771  13.6151  14.5789  14.5789  14.5789
    15.0984  15.3729  15.3729  15.9937  15.9937  15.9937  16.1307  16.1307
    16.1307  16.1530  16.1530  16.2027  16.2027

          k = 0.3536-0.3536 0.3536 (  5444 PWs)   bands (ev):

   -68.9482 -68.9450 -68.9450 -68.9449 -63.8119 -63.8070 -63.8070 -63.8070
   -37.8353 -37.8353 -37.8353 -37.8234 -37.8163 -37.8163 -37.8162 -37.8041
   -37.8041 -37.8041 -37.7938 -37.7938 -32.8302 -32.8302 -32.8302 -32.8008
   -32.7927 -32.7927 -32.7927 -32.7872 -32.7871 -32.7871 -32.7736 -32.7736
    -6.4012  -6.3486  -6.0583  -6.0583  -6.0583  -5.7841  -5.7841  -5.7841
     5.2857   5.2857   5.2858   5.8312   6.1631   6.1631   6.1631   6.3287
     6.3287   6.3288   6.6513   6.6513   6.6513   6.6915   6.6915   7.2307
     7.6997   7.6997   7.6997   8.2613   8.2613   8.2613   8.3317   8.3317
     8.3582   8.3582   8.3582   8.8364   8.8364   8.9139   8.9140   8.9140
     9.1195   9.5186   9.5186   9.5186  10.8420  10.8420  10.8420  11.1438
    11.1438  11.1438  11.3399  11.3399  14.4797  14.4797  14.4797  14.7084
    15.0318  15.3424  15.3424  15.7698  15.9298  15.9299  15.9299  16.0478
    16.0478  16.1190  16.1191  16.1191  16.1904

          k = 0.5303 0.5303 0.1768 (  5413 PWs)   bands (ev):

   -68.9453 -68.9441 -68.9439 -68.9426 -63.8117 -63.8102 -63.8098 -63.8084
   -37.8292 -37.8236 -37.8233 -37.8211 -37.8188 -37.8185 -37.8183 -37.8162
   -37.8102 -37.8043 -37.8042 -37.7989 -32.8186 -32.8125 -32.8121 -32.8033
   -32.7970 -32.7944 -32.7942 -32.7937 -32.7909 -32.7861 -32.7860 -32.7795
    -6.4250  -6.1955  -6.1402  -5.9632  -5.9351  -5.9082  -5.8802  -5.8392
     5.5001   5.5544   5.5564   5.8365   5.9634   6.0267   6.1545   6.3293
     6.3469   6.4339   6.6820   6.6981   6.7448   6.8808   6.8879   7.0635
     7.1601   7.3314   7.4052   7.5416   7.5690   7.9030   8.3480   8.5023
     8.5958   8.6110   8.7145   8.9142   9.2630   9.2742   9.3071   9.3617
     9.4176   9.5025   9.5808   9.6135  10.4606  10.6643  10.7362  10.7559
    10.9357  10.9450  10.9786  11.1117  14.7859  14.9156  15.0253  15.1692
    15.2610  15.2871  15.3488  15.4512  15.5735  15.7126  15.7198  15.7774
    15.8126  16.0361  16.0546  16.1310  16.1411

          k = 0.5303-0.1768 0.5303 (  5413 PWs)   bands (ev):

   -68.9470 -68.9447 -68.9442 -68.9441 -63.8120 -63.8085 -63.8078 -63.8077
   -37.8324 -37.8324 -37.8296 -37.8226 -37.8175 -37.8165 -37.8165 -37.8080
   -37.8079 -37.8027 -37.8003 -37.7953 -32.8253 -32.8253 -32.8215 -32.7993
   -32.7936 -32.7926 -32.7925 -32.7910 -32.7910 -32.7851 -32.7815 -32.7755
    -6.4241  -6.1946  -6.1543  -6.0277  -6.0276  -5.8226  -5.8172  -5.8171
     5.4538   5.4602   5.4602   5.7727   5.8164   6.0864   6.0864   6.3001
     6.3435   6.3435   6.6929   6.7374   6.8175   6.9362   6.9362   7.4331
     7.4331   7.5412   7.5412   7.6380   7.8178   8.0295   8.0496   8.1436
     8.3060   8.5167   8.8051   8.8051   9.0971   9.0971   9.1954   9.2192
     9.5625   9.5625   9.6926   9.7077  10.5369  10.7250  10.7480  10.7480
    10.9857  11.0017  11.0017  11.0937  14.6563  14.7083  14.7654  14.7654
    15.1150  15.3232  15.4668  15.5589  15.8593  15.8593  15.9215  15.9215
    15.9304  16.0161  16.1575  16.1575  16.1793

          k = 0.3536 0.3536 0.0000 (  5416 PWs)   bands (ev):

   -68.9452 -68.9438 -68.9437 -68.9423 -63.8117 -63.8104 -63.8104 -63.8087
   -37.8294 -37.8236 -37.8236 -37.8210 -37.8190 -37.8189 -37.8182 -37.8164
   -37.8101 -37.8043 -37.8043 -37.7989 -32.8183 -32.8120 -32.8120 -32.8034
   -32.7971 -32.7946 -32.7936 -32.7936 -32.7906 -32.7861 -32.7861 -32.7795
    -6.5138  -6.1089  -6.1089  -5.9682  -5.9682  -5.8838  -5.8627  -5.8627
     5.4171   5.4201   5.5578   5.5578   6.0039   6.0040   6.1620   6.3654
     6.4676   6.6530   6.6670   6.6967   6.6967   6.8971   6.9262   6.9262
     7.2163   7.2782   7.2782   7.5909   7.8037   8.2247   8.2247   8.5021
     8.6471   8.7018   8.7018   8.9084   9.2384   9.2384   9.2779   9.2865
     9.2921   9.4240   9.4240   9.6696  10.6487  10.7494  10.7494  10.9105
    10.9411  11.0688  11.0688  11.0884  14.6253  14.9789  14.9789  15.1398
    15.2639  15.3032  15.3737  15.3738  15.6805  15.7558  15.7558  15.8037
    15.8304  16.0346  16.0348  16.0445  16.1579

 ------ SPIN DOWN ----------


          k = 0.0000 0.0000 0.0000 (  5329 PWs)   bands (ev):

   -68.9470 -68.9435 -68.9435 -68.9435 -63.8133 -63.8089 -63.8089 -63.8088
   -37.8360 -37.8360 -37.8360 -37.8238 -37.8174 -37.8174 -37.8174 -37.8043
   -37.8042 -37.8042 -37.7938 -37.7938 -32.8291 -32.8291 -32.8291 -32.8002
   -32.7910 -32.7910 -32.7910 -32.7869 -32.7869 -32.7869 -32.7735 -32.7735
    -6.8290  -5.9776  -5.9776  -5.9776  -5.8605  -5.8605  -5.8605  -5.8605
     4.7505   4.7642   4.7642   4.7642   6.2586   6.2586   6.2586   6.5434
     6.5434   6.6409   6.6409   6.6409   6.6423   6.6423   6.6423   7.9296
     7.9296   7.9296   8.3078   8.3078   8.4403   8.4403   8.4403   8.4411
     8.4411   8.4411   8.8946   8.9129   8.9130   8.9130   9.3509   9.3509
     9.3510   9.4698   9.4698   9.4718  10.7344  10.7344  10.9859  10.9859
    10.9859  11.0938  11.0938  11.0938  12.6435  14.7047  14.7047  14.7047
    15.3566  15.4023  15.4023  16.0916  16.0916  16.0916  16.1388  16.1388
    16.1388  16.2585  16.2585  16.4681  16.4681

          k =-0.1768 0.1768 0.1768 (  5402 PWs)   bands (ev):

   -68.9463 -68.9437 -68.9431 -68.9431 -63.8128 -63.8097 -63.8091 -63.8091
   -37.8330 -37.8329 -37.8300 -37.8228 -37.8183 -37.8173 -37.8173 -37.8080
   -37.8080 -37.8028 -37.8002 -37.7954 -32.8245 -32.8244 -32.8209 -32.7991
   -32.7926 -32.7913 -32.7913 -32.7910 -32.7910 -32.7849 -32.7816 -32.7754
    -6.7010  -6.0195  -5.9814  -5.9814  -5.9612  -5.8791  -5.8594  -5.8594
     5.0338   5.0423   5.0423   5.1938   6.1026   6.1026   6.1741   6.4603
     6.5810   6.5810   6.6422   6.6504   6.7376   6.8708   6.8708   7.3487
     7.3487   7.7922   7.8283   8.0826   8.1110   8.2065   8.2065   8.5090
     8.7113   8.7398   8.7398   8.9040   9.0766   9.0766   9.1478   9.3350
     9.3449   9.3449   9.3508   9.3833  10.9054  10.9055  10.9055  10.9500
    11.0415  11.0415  11.0669  11.1268  13.6015  14.6886  14.8851  14.8851
    15.1398  15.4439  15.5082  15.7204  15.7204  15.7811  15.9836  16.0184
    16.0814  16.0814  16.1790  16.2081  16.2082

          k = 0.3536-0.3536-0.3536 (  5444 PWs)   bands (ev):

   -68.9448 -68.9447 -68.9427 -68.9427 -63.8114 -63.8114 -63.8093 -63.8093
   -37.8286 -37.8285 -37.8204 -37.8204 -37.8173 -37.8172 -37.8153 -37.8152
   -37.8131 -37.8130 -37.7992 -37.7991 -32.8182 -32.8181 -32.8013 -32.8012
   -32.7968 -32.7967 -32.7959 -32.7959 -32.7915 -32.7914 -32.7802 -32.7801
    -6.3749  -6.3749  -5.9848  -5.9848  -5.9217  -5.9217  -5.8585  -5.8585
     5.6208   5.6208   5.7185   5.7186   5.7663   5.7663   6.1785   6.1785
     6.5485   6.5486   6.6517   6.6517   6.7472   6.7472   6.8269   6.8269
     7.1666   7.1666   7.8422   7.8422   7.9529   7.9529   8.1784   8.1784
     8.5906   8.5907   8.9497   8.9497   9.2024   9.2024   9.3018   9.3018
     9.3020   9.3020   9.3036   9.3036  10.7908  10.7908  11.0275  11.0275
    11.1009  11.1009  11.1428  11.1428  14.7369  14.7370  15.1719  15.1719
    15.2749  15.2749  15.3481  15.3481  15.7601  15.7601  15.7623  15.7624
    16.0558  16.0559  16.0659  16.0660  16.0667

          k = 0.0000 0.0000 0.3536 (  5425 PWs)   bands (ev):

   -68.9464 -68.9439 -68.9434 -68.9434 -63.8126 -63.8096 -63.8087 -63.8087
   -37.8328 -37.8327 -37.8300 -37.8227 -37.8182 -37.8170 -37.8170 -37.8080
   -37.8080 -37.8027 -37.8002 -37.7953 -32.8247 -32.8247 -32.8209 -32.7992
   -32.7927 -32.7919 -32.7918 -32.7908 -32.7908 -32.7850 -32.7816 -32.7755
    -6.6655  -6.0883  -5.9581  -5.9581  -5.9221  -5.8886  -5.8856  -5.8855
     5.1255   5.1284   5.1379   5.1380   5.9350   6.2803   6.2803   6.4918
     6.5346   6.5346   6.6385   6.7017   6.7603   6.7603   6.9120   7.3251
     7.3251   7.7718   7.9018   7.9018   8.0734   8.1033   8.1596   8.3649
     8.5779   8.7058   8.8298   8.8298   9.0861   9.0861   9.1941   9.3766
     9.3766   9.4950   9.5464   9.6570  10.6967  10.7322  10.7500  10.9141
    10.9141  10.9172  11.0614  11.0614  13.8689  14.7818  14.8197  14.8197
    15.2566  15.3196  15.4827  15.5783  15.7898  15.7898  15.9807  15.9987
    16.0109  16.0110  16.0225  16.1898  16.1898

          k = 0.5303-0.5303-0.1768 (  5413 PWs)   bands (ev):

   -68.9450 -68.9448 -68.9430 -68.9430 -63.8114 -63.8110 -63.8089 -63.8089
   -37.8283 -37.8283 -37.8206 -37.8201 -37.8169 -37.8169 -37.8154 -37.8151
   -37.8132 -37.8131 -37.7991 -37.7991 -32.8185 -32.8184 -32.8014 -32.8010
   -32.7968 -32.7968 -32.7964 -32.7958 -32.7918 -32.7918 -32.7802 -32.7802
    -6.4274  -6.2057  -6.1002  -5.9838  -5.9838  -5.8629  -5.8615  -5.8614
     5.5317   5.5782   5.5782   5.6962   6.0117   6.0117   6.0698   6.3938
     6.5575   6.5575   6.6064   6.7502   6.7741   6.7741   6.8421   6.8782
     7.0208   7.0208   7.7409   7.7409   7.8508   7.9183   8.1515   8.2865
     8.5398   8.6123   8.9672   8.9672   9.1900   9.1901   9.3151   9.4466
     9.4466   9.4601   9.4720   9.4802  10.6456  10.7394  10.7394  10.7739
    10.9103  10.9498  10.9498  11.0402  14.7121  14.9415  15.0364  15.1516
    15.2615  15.2615  15.3821  15.3821  15.6356  15.6713  15.7485  15.7576
    15.9177  15.9177  16.1506  16.1507  16.2516

          k = 0.3536-0.3536 0.0000 (  5416 PWs)   bands (ev):

   -68.9468 -68.9445 -68.9438 -68.9438 -63.8122 -63.8087 -63.8082 -63.8082
   -37.8326 -37.8325 -37.8296 -37.8227 -37.8176 -37.8167 -37.8167 -37.8079
   -37.8079 -37.8027 -37.8002 -37.7954 -32.8250 -32.8250 -32.8215 -32.7993
   -32.7935 -32.7921 -32.7921 -32.7911 -32.7911 -32.7851 -32.7815 -32.7755
    -6.5140  -6.1258  -6.0974  -6.0369  -6.0369  -5.8550  -5.8050  -5.8050
     5.3387   5.3387   5.5241   5.5629   5.8980   5.8980   6.1130   6.3921
     6.4557   6.4557   6.5018   6.7284   6.7517   7.0257   7.0257   7.4092
     7.4092   7.5497   7.6773   7.8207   7.8207   8.0561   8.0677   8.0934
     8.4358   8.6217   8.7762   8.7762   9.0841   9.0842   9.1049   9.1514
     9.4717   9.5399   9.5399   9.7321  10.6965  10.7859  10.7859  10.9248
    10.9248  10.9645  11.1343  11.2471  14.5644  14.5830  14.8157  14.8157
    15.0197  15.3738  15.4919  15.7659  15.7659  15.8210  15.9171  15.9596
    16.0089  16.0439  16.0442  16.0722  16.1443

          k = 0.0000 0.0000-0.7071 (  5434 PWs)   bands (ev):

   -68.9451 -68.9450 -68.9433 -68.9433 -63.8111 -63.8110 -63.8085 -63.8085
   -37.8281 -37.8281 -37.8204 -37.8203 -37.8167 -37.8166 -37.8153 -37.8152
   -37.8132 -37.8132 -37.7991 -37.7990 -32.8188 -32.8187 -32.8012 -32.8011
   -32.7969 -32.7969 -32.7962 -32.7962 -32.7921 -32.7920 -32.7803 -32.7803
    -6.3257  -6.3257  -5.9824  -5.9824  -5.9739  -5.9739  -5.8647  -5.8647
     5.5025   5.5025   5.6051   5.6052   6.2054   6.2054   6.3235   6.3235
     6.5586   6.5586   6.7478   6.7478   6.7639   6.7640   6.8713   6.8713
     6.8744   6.8744   7.4701   7.4701   7.9282   7.9283   8.3121   8.3121
     8.5948   8.5948   8.9521   8.9521   9.1967   9.1967   9.4995   9.4995
     9.6499   9.6499   9.9066   9.9066  10.0372  10.0372  10.4655  10.4656
    10.7968  10.7968  11.0311  11.0312  14.8554  14.8554  15.0133  15.0133
    15.2757  15.2757  15.4086  15.4086  15.5953  15.5954  15.7448  15.7449
    15.7925  15.7925  16.1321  16.1321  16.3514

          k = 0.0000 0.3536-0.7071 (  5400 PWs)   bands (ev):

   -68.9453 -68.9443 -68.9443 -68.9428 -63.8117 -63.8097 -63.8096 -63.8082
   -37.8289 -37.8233 -37.8233 -37.8212 -37.8184 -37.8183 -37.8183 -37.8160
   -37.8103 -37.8042 -37.8042 -37.7988 -32.8189 -32.8126 -32.8126 -32.8033
   -32.7969 -32.7944 -32.7944 -32.7943 -32.7913 -32.7862 -32.7862 -32.7796
    -6.2293  -6.2116  -6.2116  -6.1705  -5.9222  -5.8623  -5.8623  -5.8262
     5.7403   5.7403   5.7737   5.8018   5.8386   6.0292   6.0292   6.1441
     6.3375   6.5710   6.5710   6.7697   6.7874   6.7874   6.9296   7.0524
     7.2731   7.3312   7.4518   7.4518   7.4540   7.9461   7.9461   8.3873
     8.5429   8.6767   8.6767   8.9120   9.2569   9.3064   9.3305   9.3305
     9.5303   9.7226   9.7226   9.8699  10.2246  10.4540  10.4540  10.6918
    10.8947  10.9913  10.9913  11.0626  14.9712  14.9712  15.0002  15.2197
    15.2452  15.2692  15.4393  15.4394  15.5098  15.5099  15.7501  15.7551
    15.7806  16.0347  16.0469  16.0469  16.1368

          k =-0.1768 0.1768-0.1768 (  5402 PWs)   bands (ev):

   -68.9476 -68.9442 -68.9442 -68.9442 -63.8126 -63.8080 -63.8080 -63.8079
   -37.8356 -37.8356 -37.8356 -37.8236 -37.8168 -37.8168 -37.8168 -37.8042
   -37.8041 -37.8041 -37.7938 -37.7938 -32.8297 -32.8296 -32.8296 -32.8005
   -32.7919 -32.7919 -32.7918 -32.7871 -32.7870 -32.7870 -32.7736 -32.7736
    -6.7016  -6.0253  -6.0253  -6.0253  -6.0184  -5.8150  -5.8150  -5.8150
     4.9861   4.9861   4.9861   5.1562   6.1258   6.1258   6.1258   6.6130
     6.6130   6.6460   6.6460   6.6460   6.6589   6.6589   6.6589   7.7711
     7.7711   7.7711   8.2198   8.3179   8.3179   8.3223   8.3223   8.3223
     8.3984   8.3984   8.3984   8.9135   8.9135   8.9135   9.1177   9.1177
     9.1924   9.4609   9.4609   9.4609  10.9548  10.9548  10.9548  11.0650
    11.0650  11.0650  11.0771  11.0771  13.6151  14.5789  14.5789  14.5789
    15.0984  15.3729  15.3729  15.9937  15.9937  15.9937  16.1306  16.1306
    16.1307  16.1530  16.1530  16.2027  16.2027

          k = 0.3536-0.3536 0.3536 (  5444 PWs)   bands (ev):

   -68.9482 -68.9450 -68.9450 -68.9449 -63.8120 -63.8071 -63.8071 -63.8070
   -37.8353 -37.8352 -37.8352 -37.8234 -37.8163 -37.8163 -37.8162 -37.8041
   -37.8041 -37.8041 -37.7937 -37.7937 -32.8302 -32.8302 -32.8302 -32.8008
   -32.7928 -32.7928 -32.7927 -32.7872 -32.7872 -32.7872 -32.7737 -32.7737
    -6.4012  -6.3486  -6.0583  -6.0583  -6.0583  -5.7841  -5.7841  -5.7841
     5.2858   5.2858   5.2858   5.8313   6.1631   6.1631   6.1631   6.3287
     6.3287   6.3288   6.6513   6.6513   6.6513   6.6916   6.6916   7.2307
     7.6997   7.6997   7.6997   8.2613   8.2613   8.2613   8.3317   8.3317
     8.3582   8.3582   8.3582   8.8364   8.8364   8.9140   8.9140   8.9140
     9.1195   9.5186   9.5186   9.5187  10.8420  10.8421  10.8421  11.1438
    11.1438  11.1438  11.3399  11.3399  14.4797  14.4797  14.4797  14.7084
    15.0318  15.3424  15.3424  15.7698  15.9298  15.9298  15.9298  16.0478
    16.0478  16.1191  16.1903  16.1904  16.1904

          k = 0.5303 0.5303 0.1768 (  5413 PWs)   bands (ev):

   -68.9452 -68.9441 -68.9439 -68.9426 -63.8117 -63.8102 -63.8099 -63.8085
   -37.8291 -37.8236 -37.8233 -37.8211 -37.8188 -37.8185 -37.8183 -37.8161
   -37.8102 -37.8042 -37.8042 -37.7988 -32.8186 -32.8125 -32.8121 -32.8034
   -32.7971 -32.7945 -32.7943 -32.7938 -32.7910 -32.7862 -32.7861 -32.7796
    -6.4250  -6.1955  -6.1402  -5.9632  -5.9351  -5.9082  -5.8802  -5.8392
     5.5002   5.5544   5.5564   5.8365   5.9635   6.0267   6.1545   6.3293
     6.3469   6.4340   6.6820   6.6982   6.7448   6.8809   6.8879   7.0635
     7.1601   7.3314   7.4052   7.5416   7.5690   7.9030   8.3480   8.5023
     8.5958   8.6110   8.7145   8.9142   9.2630   9.2743   9.3071   9.3617
     9.4176   9.5025   9.5808   9.6135  10.4606  10.6643  10.7363  10.7559
    10.9357  10.9450  10.9786  11.1117  14.7859  14.9155  15.0253  15.1692
    15.2610  15.2871  15.3487  15.4512  15.5735  15.7126  15.7197  15.7774
    15.8126  16.0361  16.0546  16.1310  16.1411

          k = 0.5303-0.1768 0.5303 (  5413 PWs)   bands (ev):

   -68.9469 -68.9447 -68.9441 -68.9441 -63.8120 -63.8085 -63.8078 -63.8078
   -37.8324 -37.8324 -37.8296 -37.8226 -37.8175 -37.8165 -37.8164 -37.8079
   -37.8079 -37.8026 -37.8002 -37.7953 -32.8253 -32.8253 -32.8215 -32.7994
   -32.7936 -32.7926 -32.7926 -32.7910 -32.7910 -32.7851 -32.7815 -32.7756
    -6.4241  -6.1946  -6.1543  -6.0277  -6.0276  -5.8226  -5.8171  -5.8171
     5.4538   5.4602   5.4602   5.7727   5.8164   6.0865   6.0865   6.3002
     6.3435   6.3435   6.6929   6.7374   6.8175   6.9362   6.9362   7.4331
     7.4331   7.5412   7.5412   7.6380   7.8178   8.0295   8.0496   8.1436
     8.3061   8.5167   8.8051   8.8051   9.0971   9.0972   9.1954   9.2193
     9.5625   9.5625   9.6926   9.7077  10.5369  10.7251  10.7480  10.7480
    10.9857  11.0017  11.0017  11.0937  14.6562  14.7083  14.7653  14.7653
    15.1150  15.3231  15.4667  15.5589  15.8593  15.8593  15.9214  15.9215
    15.9304  16.0161  16.1574  16.1575  16.1793

          k = 0.3536 0.3536 0.0000 (  5416 PWs)   bands (ev):

   -68.9452 -68.9437 -68.9437 -68.9423 -63.8118 -63.8105 -63.8104 -63.8088
   -37.8293 -37.8236 -37.8236 -37.8210 -37.8189 -37.8189 -37.8182 -37.8164
   -37.8101 -37.8043 -37.8043 -37.7989 -32.8183 -32.8121 -32.8121 -32.8034
   -32.7972 -32.7946 -32.7936 -32.7936 -32.7907 -32.7861 -32.7861 -32.7796
    -6.5138  -6.1089  -6.1089  -5.9682  -5.9682  -5.8838  -5.8627  -5.8627
     5.4171   5.4202   5.5578   5.5578   6.0040   6.0040   6.1620   6.3655
     6.4676   6.6530   6.6670   6.6967   6.6967   6.8972   6.9262   6.9263
     7.2163   7.2782   7.2782   7.5909   7.8037   8.2247   8.2247   8.5021
     8.6472   8.7018   8.7018   8.9084   9.2384   9.2384   9.2779   9.2865
     9.2921   9.4240   9.4240   9.6697  10.6487  10.7494  10.7495  10.9105
    10.9411  11.0688  11.0689  11.0884  14.6253  14.9788  14.9788  15.1398
    15.2639  15.3032  15.3737  15.3737  15.6805  15.7558  15.7558  15.8037
    15.8303  16.0346  16.0348  16.0445  16.1579

     the Fermi energy is    12.0394 ev

!    total energy              =   -1946.26039148 Ry
     Harris-Foulkes estimate   =   -1946.26039126 Ry
     estimated scf accuracy    <          7.5E-09 Ry

     The total energy is the sum of the following terms:

     one-electron contribution =    -894.92794230 Ry
     hartree contribution      =     531.70970300 Ry
     xc contribution           =    -269.87164806 Ry
     ewald contribution        =   -1313.56707236 Ry
     Hubbard energy            =       0.39656824 Ry
     smearing contrib. (-TS)   =      -0.00000000 Ry

     total magnetization       =     0.00 Bohr mag/cell
     absolute magnetization    =    37.67 Bohr mag/cell

     convergence has been achieved in  11 iterations

     Forces acting on atoms (Ry/au):


     negative rho (up, down):  3.588E-03 3.588E-03
     atom    1 type  1   force =  -0.74374519E-30  0.74374519E-30 -0.74374519E-30
     atom    2 type  3   force =   0.61958618E-06 -0.61958618E-06  0.61958618E-06
     atom    3 type  1   force =  -0.29749808E-29  0.29749808E-29 -0.29749808E-29
     atom    4 type  3   force =   0.54460040E-06 -0.65393580E-06  0.65393580E-06
     atom    5 type  2   force =  -0.29749808E-29  0.29749808E-29 -0.29749808E-29
     atom    6 type  3   force =  -0.65393580E-06  0.54460040E-06 -0.65393580E-06
     atom    7 type  2   force =   0.44624712E-29 -0.14874904E-29  0.29749808E-29
     atom    8 type  3   force =  -0.65393580E-06  0.65393580E-06 -0.54460040E-06
     atom    9 type  1   force =   0.44624712E-29 -0.44624712E-29 -0.74374519E-29
     atom   10 type  3   force =   0.65393580E-06 -0.65393580E-06  0.54460040E-06
     atom   11 type  1   force =   0.00000000E+00 -0.14874904E-29  0.00000000E+00
     atom   12 type  3   force =   0.65393580E-06 -0.54460040E-06  0.65393580E-06
     atom   13 type  2   force =   0.29749808E-29 -0.44624712E-29  0.44624712E-29
     atom   14 type  3   force =  -0.54460040E-06  0.65393580E-06 -0.65393580E-06
     atom   15 type  2   force =   0.00000000E+00  0.00000000E+00  0.00000000E+00
     atom   16 type  3   force =  -0.61958618E-06  0.61958618E-06 -0.61958618E-06

     Total force =     0.000003     Total SCF correction =     0.000043
     SCF correction compared to forces is large: reduce conv_thr to get better values


     entering subroutine stress ...


     negative rho (up, down):  3.588E-03 3.588E-03
          total   stress  (Ry/bohr**3)                   (kbar)     P=  -29.34
  -0.0001994283   0.0000708942  -0.0000708942        -29.34     10.43    -10.43
   0.0000708942  -0.0001994283   0.0000708942         10.43    -29.34     10.43
  -0.0000708942   0.0000708942  -0.0001994283        -10.43     10.43    -29.34


     Writing output data file mno_fm.scf.in.super.222.sub_frozen.022.save

     init_run     :     26.08s CPU     25.17s WALL (       1 calls)
     electrons    :    783.52s CPU    823.63s WALL (       1 calls)
     forces       :     54.22s CPU     58.88s WALL (       1 calls)
     stress       :    163.09s CPU    171.01s WALL (       1 calls)

     Called by init_run:
     wfcinit      :     24.63s CPU     23.68s WALL (       1 calls)
     potinit      :      0.21s CPU      0.22s WALL (       1 calls)

     Called by electrons:
     c_bands      :    705.23s CPU    747.39s WALL (      11 calls)
     sum_band     :     71.36s CPU     69.23s WALL (      11 calls)
     v_of_rho     :      1.75s CPU      1.76s WALL (      12 calls)
     newd         :      4.48s CPU      4.51s WALL (      12 calls)
     mix_rho      :      0.96s CPU      0.96s WALL (      11 calls)

     Called by c_bands:
     init_us_2    :      3.31s CPU      3.37s WALL (     936 calls)
     cegterg      :    693.68s CPU    735.33s WALL (     286 calls)

     Called by *egterg:
     h_psi        :    325.90s CPU    326.58s WALL (    1424 calls)
     s_psi        :     46.91s CPU     35.63s WALL (    1710 calls)
     g_psi        :      0.38s CPU      0.44s WALL (    1112 calls)
     cdiaghg      :    202.54s CPU    257.74s WALL (    1398 calls)

     Called by h_psi:
     add_vuspsi   :     34.42s CPU     27.47s WALL (    1424 calls)
     vhpsi        :     32.52s CPU     42.24s WALL (    1424 calls)

     General routines
     calbec       :    260.62s CPU    270.16s WALL (   19228 calls)
     fft          :      1.83s CPU      1.84s WALL (     406 calls)
     ffts         :      0.50s CPU      0.53s WALL (     272 calls)
     fftw         :    235.15s CPU    238.71s WALL (  177526 calls)
     interpolate  :      0.22s CPU      0.23s WALL (      46 calls)
     davcio       :      0.00s CPU      0.01s WALL (      26 calls)

     Parallel routines
     fft_scatter  :    104.19s CPU    106.81s WALL (  178204 calls)
     Hubbard U routines
     new_ns       :      5.90s CPU      6.12s WALL (      11 calls)
     vhpsi        :     32.52s CPU     42.24s WALL (    1424 calls)
     force_hub    :     46.91s CPU     52.63s WALL (       1 calls)
     stres_hub    :    145.88s CPU    154.05s WALL (       1 calls)

     PWSCF        : 17m 9.25s CPU    18m 1.46s WALL


   This run was terminated on:  11: 7:39  17Aug2017            

=------------------------------------------------------------------------------=
   JOB DONE.
=------------------------------------------------------------------------------=
