
     Program PWSCF v.5.1 starts on 24Aug2017 at  1:12:50 

     This program is part of the open-source Quantum ESPRESSO suite
     for quantum simulation of materials; please cite
         "P. Giannozzi et al., J. Phys.:Condens. Matter 21 395502 (2009);
          URL http://www.quantum-espresso.org", 
     in publications or presentations arising from this work. More details at
     http://www.quantum-espresso.org/quote

     Parallel version (MPI), running on     8 processors
     R & G space division:  proc/nbgrp/npool/nimage =       8
     Reading input from /tmp/mno_fm.scf.in.k.0.01.6572/mno_fm.scf.in.k.0.01.t
Warning: card &IONS ignored
Warning: card   ION_DYNAMICS='BFGS', ignored
Warning: card / ignored
Warning: card &CELL ignored
Warning: card  CELL_DYNAMICS = 'BFGS' ignored
Warning: card / ignored

     Current dimensions of program PWSCF are:
     Max number of different atomic species (ntypx) = 10
     Max number of k-points (npk) =  40000
     Max angular momentum in pseudopotentials (lmaxx) =  3
 kfg - two_fermi_energies  T
     Message from routine  set_nelup_neldw :
     BEWARE: non-integer number of up and down electrons!

     Subspace diagonalization in iterative solution of the eigenvalue problem:
     a serial algorithm will be used

     warning: symmetry operation #  2 not compatible with FFT grid. 
  -1   1  -1
   0   0  -1
   0  -1   0
     warning: symmetry operation #  3 not compatible with FFT grid. 
  -1   1   0
   0   1   0
   0   1  -1
     warning: symmetry operation #  5 not compatible with FFT grid. 
   1  -1   0
   0   0  -1
   0   1  -1
     warning: symmetry operation #  6 not compatible with FFT grid. 
   1  -1   1
   0  -1   1
   0  -1   0
     warning: symmetry operation #  8 not compatible with FFT grid. 
   1  -1   1
   0   0   1
   0   1   0
     warning: symmetry operation #  9 not compatible with FFT grid. 
   1  -1   0
   0  -1   0
   0  -1   1
     warning: symmetry operation # 11 not compatible with FFT grid. 
  -1   1   0
   0   0   1
   0  -1   1
     warning: symmetry operation # 12 not compatible with FFT grid. 
  -1   1  -1
   0   1  -1
   0   1   0

     Parallelization info
     --------------------
     sticks:   dense  smooth     PW     G-vecs:    dense   smooth      PW
     Min         119      97     30                 1832     1340     246
     Max         121      98     31                 1833     1353     248
     Sum         961     781    245                14661    10773    1973

     Generating pointlists ...
     new r_m :   0.1662 (alat units)  1.7270 (a.u.) for type    1
     new r_m :   0.1662 (alat units)  1.7270 (a.u.) for type    2


     bravais-lattice index     =            0
     lattice parameter (alat)  =    10.388967996  a.u.
     unit-cell volume          =     305.1760 (a.u.)^3
     number of atoms/cell      =            4
     number of atomic types    =            2
     number of electrons       =        42.00 (up:  23.50, down:  18.50)
     number of Kohn-Sham states=           28
     kinetic-energy cutoff     =      41.0000  Ry
     charge density cutoff     =     200.0000  Ry
     convergence threshold     =      1.0E-08
     mixing beta               =       0.3000
     number of iterations used =            8  local-TF  mixing
     Exchange-correlation      = SLA  PW   PSX  PSC ( 1  4 10  8 0)
     A smooth kinetic-energy cutoff is imposed at      40.0000 Ry
     height of the smooth step-function =             800.0000 Ry
     width of the smooth step-function  =               1.0000 Ry


     celldm(1)=  10.388968  celldm(2)=   0.000000  celldm(3)=   0.000000
     celldm(4)=   0.000000  celldm(5)=   0.000000  celldm(6)=   0.000000

     crystal axes: (cart. coord. in units of alat)
               a(1) = (   0.816496580928   0.408248290464  -0.408248290464 )  
               a(2) = (   0.408248290464   0.000000000000   0.408248290464 )  
               a(3) = (   0.000000000000   0.408248290464   0.408248290464 )  

     reciprocal axes: (cart. coord. in units 2 pi/alat)
               b(1) = (  0.612372  0.612372 -0.612372 )  
               b(2) = (  1.224745 -1.224745  1.224745 )  
               b(3) = ( -0.612372  1.837117  0.612372 )  


     PseudoPot. # 1 for Mn read from file:
     /users/kfg/psuedo/gbrv_1.5/mn.pbesol.UPF
     MD5 check sum: 0716d5f563e6e95a34f9080f4c78c109
     Pseudo is Ultrasoft + core correction, Zval = 15.0
     Generated by new atomic code, or converted to UPF format
     Using radial grid of  859 points,  6 beta functions with: 
                l(1) =   0
                l(2) =   0
                l(3) =   1
                l(4) =   1
                l(5) =   2
                l(6) =   2
     Q(r) pseudized with  8 coefficients,  rinner =    0.950   0.950   0.950
                                                       0.950   0.950

     PseudoPot. # 2 for O  read from file:
     /users/kfg/psuedo/gbrv_1.5/o.pbesol.UPF
     MD5 check sum: 501638753501ef6325af9037351f7734
     Pseudo is Ultrasoft + core correction, Zval =  6.0
     Generated by new atomic code, or converted to UPF format
     Using radial grid of  737 points,  5 beta functions with: 
                l(1) =   0
                l(2) =   0
                l(3) =   1
                l(4) =   1
                l(5) =   2
     Q(r) pseudized with  8 coefficients,  rinner =    0.900   0.900   0.900
                                                       0.900   0.900

     atomic species   valence    mass     pseudopotential
        Mn            15.00    54.90000     Mn( 1.00)
        O              6.00    15.99900     O ( 1.00)

     Starting magnetic structure 
     atomic species   magnetization
        Mn           1.000
        O            0.000


     Simplified LDA+U calculation (l_max = 2) with parameters (eV):
     atomic species    L          U    alpha       J0     beta
        Mn             2     3.0000   0.0000   0.0000   0.0000



     No symmetry found



   Cartesian axes

     site n.     atom                  positions (alat units)
         1           Mn  tau(   1) = (   -0.00135759228    0.00401315755    0.00381682461  )
         2           O   tau(   2) = (    0.40974561050    0.41282614997    0.41255563488  )
         3           Mn  tau(   3) = (    0.40444856945    0.40857600066    0.00197297873  )
         4           O   tau(   4) = (    0.81891210461    0.40545497652    0.00304231130  )

     number of k points=   456  gaussian smearing, width (Ry)=  0.0100

     Number of k-points >= 100: set verbosity='high' to print them.

     Dense  grid:    14661 G-vectors     FFT dimensions: (  48,  27,  27)

     Smooth grid:    10773 G-vectors     FFT dimensions: (  45,  25,  25)

     Largest allocated arrays     est. size (Mb)     dimensions
        Kohn-Sham Wavefunctions         0.08 Mb     (     178,   28)
        Atomic Hubbard wavefuncts       0.03 Mb     (     178,   10)
        NL pseudopotentials             0.17 Mb     (     178,   62)
        Each V/rho on FFT grid          0.16 Mb     (    5184,   2)
        Each G-vector array             0.01 Mb     (    1833)
        G-vector shells                 0.00 Mb     (     296)
     Largest temporary arrays     est. size (Mb)     dimensions
        Auxiliary wavefunctions         0.30 Mb     (     178,  112)
        Each subspace H/S matrix        0.19 Mb     (     112,  112)
        Each <psi_i|beta_j> matrix      0.03 Mb     (      62,   28)
        Arrays for rho mixing           0.63 Mb     (    5184,    8)

     Check: negative/imaginary core charge=   -0.000056    0.000000

     Initial potential from superposition of free atoms

     starting charge   40.99984, renormalised to   42.00000
     Number of +U iterations with fixed ns =  0
     Starting occupations:
 --- enter write_ns ---
 LDA+U parameters:
U( 1)     =  3.00000000
alpha( 1) =  0.00000000
atom    1   Tr[ns(na)] (up, down, total) =   5.00000  0.00000  5.00000
   spin  1
    eigenvalues: 
  1.000  1.000  1.000  1.000  1.000
    eigenvectors:
  1.000  0.000  0.000  0.000  0.000
  0.000  1.000  0.000  0.000  0.000
  0.000  0.000  1.000  0.000  0.000
  0.000  0.000  0.000  1.000  0.000
  0.000  0.000  0.000  0.000  1.000
    occupations:
  1.000  0.000  0.000  0.000  0.000
  0.000  1.000  0.000  0.000  0.000
  0.000  0.000  1.000  0.000  0.000
  0.000  0.000  0.000  1.000  0.000
  0.000  0.000  0.000  0.000  1.000
   spin  2
    eigenvalues: 
  0.000  0.000  0.000  0.000  0.000
    eigenvectors:
  1.000  0.000  0.000  0.000  0.000
  0.000  1.000  0.000  0.000  0.000
  0.000  0.000  1.000  0.000  0.000
  0.000  0.000  0.000  1.000  0.000
  0.000  0.000  0.000  0.000  1.000
    occupations:
  0.000  0.000  0.000  0.000  0.000
  0.000  0.000  0.000  0.000  0.000
  0.000  0.000  0.000  0.000  0.000
  0.000  0.000  0.000  0.000  0.000
  0.000  0.000  0.000  0.000  0.000
atomic mag. moment =     5.000000
atom    3   Tr[ns(na)] (up, down, total) =   5.00000  0.00000  5.00000
   spin  1
    eigenvalues: 
  1.000  1.000  1.000  1.000  1.000
    eigenvectors:
  1.000  0.000  0.000  0.000  0.000
  0.000  1.000  0.000  0.000  0.000
  0.000  0.000  1.000  0.000  0.000
  0.000  0.000  0.000  1.000  0.000
  0.000  0.000  0.000  0.000  1.000
    occupations:
  1.000  0.000  0.000  0.000  0.000
  0.000  1.000  0.000  0.000  0.000
  0.000  0.000  1.000  0.000  0.000
  0.000  0.000  0.000  1.000  0.000
  0.000  0.000  0.000  0.000  1.000
   spin  2
    eigenvalues: 
  0.000  0.000  0.000  0.000  0.000
    eigenvectors:
  1.000  0.000  0.000  0.000  0.000
  0.000  1.000  0.000  0.000  0.000
  0.000  0.000  1.000  0.000  0.000
  0.000  0.000  0.000  1.000  0.000
  0.000  0.000  0.000  0.000  1.000
    occupations:
  0.000  0.000  0.000  0.000  0.000
  0.000  0.000  0.000  0.000  0.000
  0.000  0.000  0.000  0.000  0.000
  0.000  0.000  0.000  0.000  0.000
  0.000  0.000  0.000  0.000  0.000
atomic mag. moment =     5.000000
N of occupied +U levels =   10.000000
 --- exit write_ns ---
 Atomic wfc used for LDA+U Projector are NOT orthogonalized
     Starting wfc are   34 randomized atomic wfcs

     total cpu time spent up to now is       36.9 secs

     Self-consistent Calculation

     iteration #  1     ecut=    41.00 Ry     beta=0.30
     Davidson diagonalization with overlap
     ethr =  1.00E-02,  avg # of iterations =  2.7
 --- enter write_ns ---
 LDA+U parameters:
U( 1)     =  3.00000000
alpha( 1) =  0.00000000
atom    1   Tr[ns(na)] (up, down, total) =   4.34044  0.44260  4.78304
   spin  1
    eigenvalues: 
  0.680  0.695  0.988  0.989  0.989
    eigenvectors:
  0.754  0.246  0.000  0.000  0.000
  0.000  0.000  0.971  0.022  0.007
  0.000  0.000  0.010  0.009  0.981
  0.246  0.754  0.000  0.000  0.000
  0.000  0.000  0.019  0.969  0.011
    occupations:
  0.684 -0.000 -0.003  0.007  0.001
 -0.000  0.988  0.000  0.000  0.000
 -0.003  0.000  0.989 -0.000 -0.000
  0.007  0.000 -0.000  0.691 -0.003
  0.001  0.000 -0.000 -0.003  0.989
   spin  2
    eigenvalues: 
  0.072  0.074  0.096  0.099  0.101
    eigenvectors:
  0.244  0.756  0.000  0.000  0.000
  0.000  0.000  0.855  0.145  0.000
  0.000  0.000  0.075  0.435  0.490
  0.756  0.244  0.000  0.000  0.000
  0.000  0.000  0.070  0.420  0.510
    occupations:
  0.074 -0.000 -0.000 -0.001  0.000
 -0.000  0.097 -0.001  0.000 -0.001
 -0.000 -0.001  0.100  0.000 -0.001
 -0.001  0.000  0.000  0.072 -0.000
  0.000 -0.001 -0.001 -0.000  0.100
atomic mag. moment =     3.897838
atom    3   Tr[ns(na)] (up, down, total) =   4.30782  0.43817  4.74599
   spin  1
    eigenvalues: 
  0.666  0.679  0.987  0.988  0.988
    eigenvectors:
  0.207  0.793  0.000  0.000  0.000
  0.000  0.000  0.005  0.046  0.949
  0.000  0.000  0.074  0.890  0.035
  0.793  0.207  0.000  0.000  0.000
  0.000  0.000  0.920  0.064  0.016
    occupations:
  0.676 -0.000  0.003 -0.005 -0.001
 -0.000  0.988  0.000 -0.000  0.000
  0.003  0.000  0.988  0.000  0.000
 -0.005 -0.000  0.000  0.668  0.003
 -0.001  0.000  0.000  0.003  0.987
   spin  2
    eigenvalues: 
  0.073  0.076  0.094  0.096  0.099
    eigenvectors:
  0.795  0.205  0.000  0.000  0.000
  0.000  0.000  0.001  0.119  0.881
  0.000  0.000  0.486  0.445  0.069
  0.205  0.795  0.000  0.000  0.000
  0.000  0.000  0.513  0.436  0.051
    occupations:
  0.074 -0.000  0.000  0.001 -0.000
 -0.000  0.098  0.001 -0.000  0.000
  0.000  0.001  0.095  0.000  0.001
  0.001 -0.000  0.000  0.075  0.000
 -0.000  0.000  0.001  0.000  0.095
atomic mag. moment =     3.869647
N of occupied +U levels =    9.529024
 --- exit write_ns ---

     negative rho (up, down):  0.000E+00 5.028E-05

     Magnetic moment per site:
     atom:    1    charge:   12.7051    magn:    9.9679    constr:    0.0000
     atom:    2    charge:    5.6616    magn:    0.0025    constr:    0.0000
     atom:    3    charge:   12.7051    magn:    9.9583    constr:    0.0000
     atom:    4    charge:    5.6547    magn:   -0.0021    constr:    0.0000

     total cpu time spent up to now is      401.2 secs

     total energy              =    -483.23624942 Ry
     Harris-Foulkes estimate   =    -478.60730255 Ry
     estimated scf accuracy    <       8.64557381 Ry

     total magnetization       =     5.00 Bohr mag/cell
     absolute magnetization    =     9.46 Bohr mag/cell

     iteration #  2     ecut=    41.00 Ry     beta=0.30
     Davidson diagonalization with overlap
     ethr =  1.00E-02,  avg # of iterations =  2.0

     negative rho (up, down):  0.000E+00 1.782E-04

     Magnetic moment per site:
     atom:    1    charge:   12.4803    magn:    4.1817    constr:    0.0000
     atom:    2    charge:    5.7723    magn:   -0.5959    constr:    0.0000
     atom:    3    charge:   12.4763    magn:    4.1694    constr:    0.0000
     atom:    4    charge:    5.7646    magn:   -0.5997    constr:    0.0000

     total cpu time spent up to now is      576.2 secs

     total energy              =    -485.56035888 Ry
     Harris-Foulkes estimate   =    -483.38311318 Ry
     estimated scf accuracy    <       3.99538896 Ry

     total magnetization       =     5.00 Bohr mag/cell
     absolute magnetization    =     9.12 Bohr mag/cell

     iteration #  3     ecut=    41.00 Ry     beta=0.30
     Davidson diagonalization with overlap
     ethr =  9.51E-03,  avg # of iterations =  2.0

     negative rho (up, down):  0.000E+00 2.783E-04

     Magnetic moment per site:
     atom:    1    charge:   12.4533    magn:    4.0841    constr:    0.0000
     atom:    2    charge:    5.7897    magn:   -0.6268    constr:    0.0000
     atom:    3    charge:   12.4435    magn:    4.0881    constr:    0.0000
     atom:    4    charge:    5.7820    magn:   -0.6297    constr:    0.0000

     total cpu time spent up to now is      705.5 secs

     total energy              =    -486.13610300 Ry
     Harris-Foulkes estimate   =    -486.06041425 Ry
     estimated scf accuracy    <       0.82935288 Ry

     total magnetization       =     5.00 Bohr mag/cell
     absolute magnetization    =     7.64 Bohr mag/cell

     iteration #  4     ecut=    41.00 Ry     beta=0.30
     Davidson diagonalization with overlap
     ethr =  1.97E-03,  avg # of iterations =  1.1

     Magnetic moment per site:
     atom:    1    charge:   12.5195    magn:    3.0140    constr:    0.0000
     atom:    2    charge:    5.7641    magn:   -0.5873    constr:    0.0000
     atom:    3    charge:   12.5058    magn:    3.0339    constr:    0.0000
     atom:    4    charge:    5.7566    magn:   -0.5912    constr:    0.0000

     total cpu time spent up to now is      808.0 secs

     total energy              =    -486.00864994 Ry
     Harris-Foulkes estimate   =    -486.15273633 Ry
     estimated scf accuracy    <       1.50326670 Ry

     total magnetization       =     5.00 Bohr mag/cell
     absolute magnetization    =     7.85 Bohr mag/cell

     iteration #  5     ecut=    41.00 Ry     beta=0.30
     Davidson diagonalization with overlap
     ethr =  1.97E-03,  avg # of iterations =  1.5

     Magnetic moment per site:
     atom:    1    charge:   12.5209    magn:    2.7115    constr:    0.0000
     atom:    2    charge:    5.7690    magn:   -0.5505    constr:    0.0000
     atom:    3    charge:   12.5234    magn:    2.7157    constr:    0.0000
     atom:    4    charge:    5.7617    magn:   -0.5540    constr:    0.0000

     total cpu time spent up to now is      923.8 secs

     total energy              =    -486.11767023 Ry
     Harris-Foulkes estimate   =    -486.11544154 Ry
     estimated scf accuracy    <       0.21675673 Ry

     total magnetization       =     5.00 Bohr mag/cell
     absolute magnetization    =     6.73 Bohr mag/cell
 kfg - setting two_fermi_energies to FALSE

     iteration #  6     ecut=    41.00 Ry     beta=0.30
     Davidson diagonalization with overlap
     ethr =  5.16E-04,  avg # of iterations =  1.0

     Magnetic moment per site:
     atom:    1    charge:   12.5194    magn:    3.1049    constr:    0.0000
     atom:    2    charge:    5.7773    magn:   -0.4988    constr:    0.0000
     atom:    3    charge:   12.5205    magn:    3.1083    constr:    0.0000
     atom:    4    charge:    5.7699    magn:   -0.5024    constr:    0.0000

     total cpu time spent up to now is     1025.7 secs

     total energy              =    -486.39591430 Ry
     Harris-Foulkes estimate   =    -486.33998565 Ry
     estimated scf accuracy    <       0.26330059 Ry

     total magnetization       =     9.27 Bohr mag/cell
     absolute magnetization    =     9.27 Bohr mag/cell

     iteration #  7     ecut=    41.00 Ry     beta=0.30
     Davidson diagonalization with overlap
     ethr =  5.16E-04,  avg # of iterations =  1.0

     Magnetic moment per site:
     atom:    1    charge:   12.5486    magn:    2.5395    constr:    0.0000
     atom:    2    charge:    5.7087    magn:   -0.7040    constr:    0.0000
     atom:    3    charge:   12.5573    magn:    2.5270    constr:    0.0000
     atom:    4    charge:    5.7014    magn:   -0.7087    constr:    0.0000

     total cpu time spent up to now is     1128.6 secs

     total energy              =    -486.25589653 Ry
     Harris-Foulkes estimate   =    -486.39882927 Ry
     estimated scf accuracy    <       0.21605763 Ry

     total magnetization       =     9.55 Bohr mag/cell
     absolute magnetization    =     9.55 Bohr mag/cell

     iteration #  8     ecut=    41.00 Ry     beta=0.30
     Davidson diagonalization with overlap
     ethr =  5.14E-04,  avg # of iterations =  1.9

     Magnetic moment per site:
     atom:    1    charge:   12.5433    magn:    2.8775    constr:    0.0000
     atom:    2    charge:    5.7550    magn:   -0.4993    constr:    0.0000
     atom:    3    charge:   12.5480    magn:    2.8851    constr:    0.0000
     atom:    4    charge:    5.7477    magn:   -0.5031    constr:    0.0000

     total cpu time spent up to now is     1277.5 secs

     total energy              =    -486.36188780 Ry
     Harris-Foulkes estimate   =    -486.28185458 Ry
     estimated scf accuracy    <       0.41623749 Ry

     total magnetization       =     8.78 Bohr mag/cell
     absolute magnetization    =     8.87 Bohr mag/cell

     iteration #  9     ecut=    41.00 Ry     beta=0.30
     Davidson diagonalization with overlap
     ethr =  5.14E-04,  avg # of iterations =  1.0

     negative rho (up, down):  0.000E+00 6.902E-04

     Magnetic moment per site:
     atom:    1    charge:   12.5214    magn:    4.0006    constr:    0.0000
     atom:    2    charge:    5.8919    magn:    0.0428    constr:    0.0000
     atom:    3    charge:   12.5162    magn:    4.0563    constr:    0.0000
     atom:    4    charge:    5.8839    magn:    0.0412    constr:    0.0000

     total cpu time spent up to now is     1363.7 secs

     total energy              =    -486.48939667 Ry
     Harris-Foulkes estimate   =    -486.37325233 Ry
     estimated scf accuracy    <       0.31883839 Ry

     total magnetization       =     9.43 Bohr mag/cell
     absolute magnetization    =     9.43 Bohr mag/cell

     iteration # 10     ecut=    41.00 Ry     beta=0.30
     Davidson diagonalization with overlap
     ethr =  5.14E-04,  avg # of iterations =  1.9

     negative rho (up, down):  0.000E+00 2.412E-03

     Magnetic moment per site:
     atom:    1    charge:   12.5122    magn:    4.7785    constr:    0.0000
     atom:    2    charge:    5.9889    magn:    0.4463    constr:    0.0000
     atom:    3    charge:   12.5005    magn:    4.8542    constr:    0.0000
     atom:    4    charge:    5.9806    magn:    0.4461    constr:    0.0000

     total cpu time spent up to now is     1522.9 secs

     total energy              =    -486.51202037 Ry
     Harris-Foulkes estimate   =    -486.54475344 Ry
     estimated scf accuracy    <       0.00966259 Ry

     total magnetization       =    10.00 Bohr mag/cell
     absolute magnetization    =    10.00 Bohr mag/cell

     iteration # 11     ecut=    41.00 Ry     beta=0.30
     Davidson diagonalization with overlap
     ethr =  2.30E-05,  avg # of iterations =  3.1

     negative rho (up, down):  0.000E+00 4.681E-04

     Magnetic moment per site:
     atom:    1    charge:   12.5408    magn:    3.9965    constr:    0.0000
     atom:    2    charge:    5.8916    magn:    0.0822    constr:    0.0000
     atom:    3    charge:   12.5361    magn:    3.9984    constr:    0.0000
     atom:    4    charge:    5.8840    magn:    0.0806    constr:    0.0000

     total cpu time spent up to now is     1739.3 secs

     total energy              =    -486.53253698 Ry
     Harris-Foulkes estimate   =    -486.52373212 Ry
     estimated scf accuracy    <       0.09275536 Ry

     total magnetization       =    10.00 Bohr mag/cell
     absolute magnetization    =    10.00 Bohr mag/cell

     iteration # 12     ecut=    41.00 Ry     beta=0.30
     Davidson diagonalization with overlap
     ethr =  2.30E-05,  avg # of iterations =  2.9

     negative rho (up, down):  0.000E+00 5.602E-04

     Magnetic moment per site:
     atom:    1    charge:   12.5453    magn:    4.1132    constr:    0.0000
     atom:    2    charge:    5.9062    magn:    0.1446    constr:    0.0000
     atom:    3    charge:   12.5404    magn:    4.1077    constr:    0.0000
     atom:    4    charge:    5.8985    magn:    0.1429    constr:    0.0000

     total cpu time spent up to now is     1950.0 secs

     total energy              =    -486.55079163 Ry
     Harris-Foulkes estimate   =    -486.54547033 Ry
     estimated scf accuracy    <       0.01419817 Ry

     total magnetization       =    10.00 Bohr mag/cell
     absolute magnetization    =    10.00 Bohr mag/cell

     iteration # 13     ecut=    41.00 Ry     beta=0.30
     Davidson diagonalization with overlap
     ethr =  2.30E-05,  avg # of iterations =  1.0

     negative rho (up, down):  0.000E+00 9.304E-04

     Magnetic moment per site:
     atom:    1    charge:   12.5437    magn:    4.3158    constr:    0.0000
     atom:    2    charge:    5.9287    magn:    0.2149    constr:    0.0000
     atom:    3    charge:   12.5391    magn:    4.3198    constr:    0.0000
     atom:    4    charge:    5.9209    magn:    0.2131    constr:    0.0000

     total cpu time spent up to now is     2049.0 secs

     total energy              =    -486.55223653 Ry
     Harris-Foulkes estimate   =    -486.55096484 Ry
     estimated scf accuracy    <       0.00492415 Ry

     total magnetization       =    10.00 Bohr mag/cell
     absolute magnetization    =    10.00 Bohr mag/cell

     iteration # 14     ecut=    41.00 Ry     beta=0.30
     Davidson diagonalization with overlap
     ethr =  1.17E-05,  avg # of iterations =  2.0

     negative rho (up, down):  0.000E+00 6.043E-04

     Magnetic moment per site:
     atom:    1    charge:   12.5479    magn:    4.1576    constr:    0.0000
     atom:    2    charge:    5.9087    magn:    0.1424    constr:    0.0000
     atom:    3    charge:   12.5458    magn:    4.1528    constr:    0.0000
     atom:    4    charge:    5.9010    magn:    0.1404    constr:    0.0000

     total cpu time spent up to now is     2176.7 secs

     total energy              =    -486.55163872 Ry
     Harris-Foulkes estimate   =    -486.55287525 Ry
     estimated scf accuracy    <       0.00119784 Ry

     total magnetization       =    10.00 Bohr mag/cell
     absolute magnetization    =    10.00 Bohr mag/cell

     iteration # 15     ecut=    41.00 Ry     beta=0.30
     Davidson diagonalization with overlap
     ethr =  2.85E-06,  avg # of iterations =  2.6

     negative rho (up, down):  0.000E+00 8.599E-04

     Magnetic moment per site:
     atom:    1    charge:   12.5460    magn:    4.2903    constr:    0.0000
     atom:    2    charge:    5.9220    magn:    0.1834    constr:    0.0000
     atom:    3    charge:   12.5495    magn:    4.2873    constr:    0.0000
     atom:    4    charge:    5.9143    magn:    0.1811    constr:    0.0000

     total cpu time spent up to now is     2349.3 secs

     total energy              =    -486.55290512 Ry
     Harris-Foulkes estimate   =    -486.55223457 Ry
     estimated scf accuracy    <       0.00277526 Ry

     total magnetization       =    10.00 Bohr mag/cell
     absolute magnetization    =    10.00 Bohr mag/cell

     iteration # 16     ecut=    41.00 Ry     beta=0.30
     Davidson diagonalization with overlap
     ethr =  2.85E-06,  avg # of iterations =  2.1

     negative rho (up, down):  0.000E+00 7.658E-04

     Magnetic moment per site:
     atom:    1    charge:   12.5455    magn:    4.2394    constr:    0.0000
     atom:    2    charge:    5.9179    magn:    0.1695    constr:    0.0000
     atom:    3    charge:   12.5487    magn:    4.2345    constr:    0.0000
     atom:    4    charge:    5.9102    magn:    0.1673    constr:    0.0000

     total cpu time spent up to now is     2443.0 secs

     total energy              =    -486.55315477 Ry
     Harris-Foulkes estimate   =    -486.55316398 Ry
     estimated scf accuracy    <       0.00013600 Ry

     total magnetization       =    10.00 Bohr mag/cell
     absolute magnetization    =    10.00 Bohr mag/cell

     iteration # 17     ecut=    41.00 Ry     beta=0.30
     Davidson diagonalization with overlap
     ethr =  3.24E-07,  avg # of iterations =  1.8

     negative rho (up, down):  0.000E+00 7.759E-04

     Magnetic moment per site:
     atom:    1    charge:   12.5456    magn:    4.2422    constr:    0.0000
     atom:    2    charge:    5.9186    magn:    0.1713    constr:    0.0000
     atom:    3    charge:   12.5486    magn:    4.2380    constr:    0.0000
     atom:    4    charge:    5.9109    magn:    0.1692    constr:    0.0000

     total cpu time spent up to now is     2519.9 secs

     total energy              =    -486.55320186 Ry
     Harris-Foulkes estimate   =    -486.55317407 Ry
     estimated scf accuracy    <       0.00011214 Ry

     total magnetization       =    10.00 Bohr mag/cell
     absolute magnetization    =    10.00 Bohr mag/cell

     iteration # 18     ecut=    41.00 Ry     beta=0.30
     Davidson diagonalization with overlap
     ethr =  2.67E-07,  avg # of iterations =  1.0

     negative rho (up, down):  0.000E+00 8.107E-04

     Magnetic moment per site:
     atom:    1    charge:   12.5450    magn:    4.2589    constr:    0.0000
     atom:    2    charge:    5.9208    magn:    0.1791    constr:    0.0000
     atom:    3    charge:   12.5485    magn:    4.2555    constr:    0.0000
     atom:    4    charge:    5.9130    magn:    0.1770    constr:    0.0000

     total cpu time spent up to now is     2616.2 secs

     total energy              =    -486.55322858 Ry
     Harris-Foulkes estimate   =    -486.55320239 Ry
     estimated scf accuracy    <       0.00007225 Ry

     total magnetization       =    10.00 Bohr mag/cell
     absolute magnetization    =    10.00 Bohr mag/cell

     iteration # 19     ecut=    41.00 Ry     beta=0.30
     Davidson diagonalization with overlap
     ethr =  1.72E-07,  avg # of iterations =  1.6

     negative rho (up, down):  0.000E+00 8.105E-04

     Magnetic moment per site:
     atom:    1    charge:   12.5449    magn:    4.2584    constr:    0.0000
     atom:    2    charge:    5.9208    magn:    0.1793    constr:    0.0000
     atom:    3    charge:   12.5483    magn:    4.2554    constr:    0.0000
     atom:    4    charge:    5.9131    magn:    0.1772    constr:    0.0000

     total cpu time spent up to now is     2730.5 secs

     total energy              =    -486.55323377 Ry
     Harris-Foulkes estimate   =    -486.55323379 Ry
     estimated scf accuracy    <       0.00000020 Ry

     total magnetization       =    10.00 Bohr mag/cell
     absolute magnetization    =    10.00 Bohr mag/cell

     iteration # 20     ecut=    41.00 Ry     beta=0.30
     Davidson diagonalization with overlap
     ethr =  4.65E-10,  avg # of iterations =  3.0

     negative rho (up, down):  0.000E+00 8.096E-04

     Magnetic moment per site:
     atom:    1    charge:   12.5449    magn:    4.2585    constr:    0.0000
     atom:    2    charge:    5.9208    magn:    0.1792    constr:    0.0000
     atom:    3    charge:   12.5483    magn:    4.2555    constr:    0.0000
     atom:    4    charge:    5.9131    magn:    0.1771    constr:    0.0000

     total cpu time spent up to now is     2846.7 secs

     total energy              =    -486.55323392 Ry
     Harris-Foulkes estimate   =    -486.55323390 Ry
     estimated scf accuracy    <       0.00000004 Ry

     total magnetization       =    10.00 Bohr mag/cell
     absolute magnetization    =    10.00 Bohr mag/cell

     iteration # 21     ecut=    41.00 Ry     beta=0.30
     Davidson diagonalization with overlap
     ethr =  1.02E-10,  avg # of iterations =  2.1

     negative rho (up, down):  0.000E+00 8.098E-04

     Magnetic moment per site:
     atom:    1    charge:   12.5448    magn:    4.2584    constr:    0.0000
     atom:    2    charge:    5.9209    magn:    0.1793    constr:    0.0000
     atom:    3    charge:   12.5483    magn:    4.2555    constr:    0.0000
     atom:    4    charge:    5.9132    magn:    0.1772    constr:    0.0000

     total cpu time spent up to now is     2967.3 secs

     End of self-consistent calculation
 --- enter write_ns ---
 LDA+U parameters:
U( 1)     =  3.00000000
alpha( 1) =  0.00000000
atom    1   Tr[ns(na)] (up, down, total) =   4.99215  0.45645  5.44860
   spin  1
    eigenvalues: 
  0.997  0.998  0.999  0.999  0.999
    eigenvectors:
  0.726  0.274  0.000  0.000  0.000
  0.000  0.000  0.043  0.037  0.919
  0.000  0.000  0.020  0.929  0.050
  0.274  0.726  0.001  0.000  0.000
  0.000  0.000  0.936  0.034  0.030
    occupations:
  0.997  0.000 -0.000  0.000  0.000
  0.000  0.999  0.000  0.000  0.000
 -0.000  0.000  0.999 -0.000  0.000
  0.000  0.000 -0.000  0.998 -0.000
  0.000  0.000  0.000 -0.000  0.999
   spin  2
    eigenvalues: 
  0.051  0.051  0.052  0.148  0.154
    eigenvectors:
  0.000  0.000  0.000  0.244  0.756
  0.009  0.000  0.991  0.000  0.000
  0.522  0.472  0.005  0.000  0.000
  0.000  0.000  0.000  0.756  0.244
  0.468  0.527  0.004  0.000  0.000
    occupations:
  0.152 -0.000  0.001 -0.002 -0.001
 -0.000  0.052  0.000 -0.000  0.000
  0.001  0.000  0.051  0.000 -0.000
 -0.002 -0.000  0.000  0.149  0.001
 -0.001  0.000 -0.000  0.001  0.051
atomic mag. moment =     4.535706
atom    3   Tr[ns(na)] (up, down, total) =   4.99124  0.46332  5.45456
   spin  1
    eigenvalues: 
  0.997  0.997  0.999  0.999  0.999
    eigenvectors:
  0.190  0.810  0.000  0.000  0.000
  0.000  0.000  0.903  0.094  0.002
  0.000  0.000  0.062  0.439  0.499
  0.810  0.190  0.000  0.000  0.000
  0.000  0.000  0.035  0.467  0.498
    occupations:
  0.997  0.000  0.000 -0.000 -0.000
  0.000  0.999 -0.000  0.000 -0.000
  0.000 -0.000  0.999 -0.000 -0.000
 -0.000  0.000 -0.000  0.997  0.000
 -0.000 -0.000 -0.000  0.000  0.999
   spin  2
    eigenvalues: 
  0.051  0.053  0.053  0.150  0.156
    eigenvectors:
  0.000  0.000  0.000  0.782  0.217
  0.992  0.002  0.005  0.000  0.000
  0.005  0.860  0.135  0.000  0.000
  0.000  0.000  0.000  0.217  0.782
  0.003  0.138  0.860  0.000  0.000
    occupations:
  0.151  0.000 -0.001  0.002  0.000
  0.000  0.051 -0.000  0.000 -0.000
 -0.001 -0.000  0.053 -0.000  0.000
  0.002  0.000 -0.000  0.155 -0.001
  0.000 -0.000  0.000 -0.001  0.053
atomic mag. moment =     4.527914
N of occupied +U levels =   10.903162
 --- exit write_ns ---

     Number of k-points >= 100: set verbosity='high' to print the bands.

     the Fermi energy is    12.4581 ev

!    total energy              =    -486.55323394 Ry
     Harris-Foulkes estimate   =    -486.55323393 Ry
     estimated scf accuracy    <          9.8E-09 Ry

     The total energy is the sum of the following terms:

     one-electron contribution =    -223.76904868 Ry
     hartree contribution      =     132.98958918 Ry
     xc contribution           =     -67.50347679 Ry
     ewald contribution        =    -328.36148855 Ry
     Hubbard energy            =       0.09124978 Ry
     smearing contrib. (-TS)   =      -0.00005888 Ry

     total magnetization       =    10.00 Bohr mag/cell
     absolute magnetization    =    10.00 Bohr mag/cell

     convergence has been achieved in  21 iterations

     Forces acting on atoms (Ry/au):


     negative rho (up, down):  0.000E+00 8.098E-04
     atom    1 type  1   force =  -0.82728079E-03 -0.43464521E-02  0.20983205E-02
     atom    2 type  2   force =  -0.41787536E-02 -0.34609446E-02  0.92979434E-03
     atom    3 type  1   force =   0.59783650E-02  0.33058953E-02 -0.12541138E-02
     atom    4 type  2   force =  -0.97233062E-03  0.45015014E-02 -0.17740010E-02

     Total force =     0.011264     Total SCF correction =     0.000068


     entering subroutine stress ...


     negative rho (up, down):  0.000E+00 8.098E-04
          total   stress  (Ry/bohr**3)                   (kbar)     P=    0.30
   0.0000063990   0.0000002283  -0.0000001156          0.94      0.03     -0.02
   0.0000002283   0.0000026741   0.0000001181          0.03      0.39      0.02
  -0.0000001156   0.0000001181  -0.0000028683         -0.02      0.02     -0.42


     Writing output data file mno_fm.scf.in.k.0.011.save

     init_run     :     30.59s CPU     36.37s WALL (       1 calls)
     electrons    :   2286.02s CPU   2930.47s WALL (       1 calls)
     forces       :     31.00s CPU     41.25s WALL (       1 calls)
     stress       :    148.65s CPU    186.35s WALL (       1 calls)

     Called by init_run:
     wfcinit      :     30.09s CPU     35.66s WALL (       1 calls)
     potinit      :      0.05s CPU      0.05s WALL (       1 calls)

     Called by electrons:
     c_bands      :   2025.75s CPU   2605.98s WALL (      21 calls)
     sum_band     :    258.40s CPU    322.47s WALL (      21 calls)
     v_of_rho     :      0.68s CPU      0.69s WALL (      22 calls)
     newd         :      0.69s CPU      0.73s WALL (      22 calls)
     mix_rho      :      0.44s CPU      0.50s WALL (      21 calls)

     Called by c_bands:
     init_us_2    :      9.00s CPU      9.80s WALL (   25536 calls)
     cegterg      :   1926.87s CPU   2491.10s WALL (    9576 calls)

     Called by *egterg:
     h_psi        :    885.49s CPU   1137.14s WALL (   27959 calls)
     s_psi        :     35.45s CPU    113.11s WALL (   32975 calls)
     g_psi        :      0.77s CPU      0.81s WALL (   17927 calls)
     cdiaghg      :    149.13s CPU    162.95s WALL (   27503 calls)

     Called by h_psi:
     add_vuspsi   :     30.84s CPU     83.27s WALL (   27959 calls)
     vhpsi        :     50.94s CPU     62.29s WALL (   27959 calls)

     General routines
     calbec       :    700.28s CPU    926.54s WALL (  155326 calls)
     fft          :      0.84s CPU      0.86s WALL (     716 calls)
     ffts         :      0.27s CPU      0.30s WALL (     542 calls)
     fftw         :    526.57s CPU    595.50s WALL ( 1506080 calls)
     interpolate  :      0.10s CPU      0.13s WALL (      86 calls)
     davcio       :      0.00s CPU      0.09s WALL (     456 calls)

     Parallel routines
     fft_scatter  :    327.36s CPU    379.63s WALL ( 1507338 calls)
     Hubbard U routines
     new_ns       :      4.17s CPU      4.54s WALL (      21 calls)
     vhpsi        :     50.94s CPU     62.29s WALL (   27959 calls)
     force_hub    :     16.16s CPU     19.31s WALL (       1 calls)
     stres_hub    :    126.44s CPU    157.04s WALL (       1 calls)

     PWSCF        : 41m41.28s CPU    53m20.46s WALL


   This run was terminated on:   2: 6:10  24Aug2017            

=------------------------------------------------------------------------------=
   JOB DONE.
=------------------------------------------------------------------------------=
