
     Program PWSCF v.5.1 starts on  9Mar2018 at  9:52:47 

     This program is part of the open-source Quantum ESPRESSO suite
     for quantum simulation of materials; please cite
         "P. Giannozzi et al., J. Phys.:Condens. Matter 21 395502 (2009);
          URL http://www.quantum-espresso.org", 
     in publications or presentations arising from this work. More details at
     http://www.quantum-espresso.org/quote

     Parallel version (MPI), running on     8 processors
     R & G space division:  proc/nbgrp/npool/nimage =       8
     Reading input from /tmp/mno_fm.in.sxy2.145/mno_fm.in.sxy2.t
Warning: card &IONS ignored
Warning: card   ION_DYNAMICS='BFGS', ignored
Warning: card / ignored
Warning: card &CELL ignored
Warning: card  CELL_DYNAMICS = 'BFGS' ignored
Warning: card / ignored

     Current dimensions of program PWSCF are:
     Max number of different atomic species (ntypx) = 10
     Max number of k-points (npk) =  40000
     Max angular momentum in pseudopotentials (lmaxx) =  3
 kfg - two_fermi_energies  F

     Subspace diagonalization in iterative solution of the eigenvalue problem:
     a serial algorithm will be used


     Parallelization info
     --------------------
     sticks:   dense  smooth     PW     G-vecs:    dense   smooth      PW
     Min          62      51     17                  918      674     132
     Max          63      52     18                  921      682     134
     Sum         499     413    139                 7351     5429    1067

     Generating pointlists ...
     new r_m :   0.2929 (alat units)  1.7490 (a.u.) for type    1
     new r_m :   0.2929 (alat units)  1.7490 (a.u.) for type    2


     bravais-lattice index     =            0
     lattice parameter (alat)  =     5.972445256  a.u.
     unit-cell volume          =     152.4602 (a.u.)^3
     number of atoms/cell      =            2
     number of atomic types    =            2
     number of electrons       =        21.00
     number of Kohn-Sham states=           15
     kinetic-energy cutoff     =      41.0000  Ry
     charge density cutoff     =     200.0000  Ry
     convergence threshold     =      1.0E-08
     mixing beta               =       0.3000
     number of iterations used =            8  local-TF  mixing
     Exchange-correlation      = SLA  PW   PSX  PSC ( 1  4 10  8 0)
     A smooth kinetic-energy cutoff is imposed at      40.0000 Ry
     height of the smooth step-function =             800.0000 Ry
     width of the smooth step-function  =               1.0000 Ry


     celldm(1)=   5.972445  celldm(2)=   0.000000  celldm(3)=   0.000000
     celldm(4)=   0.000000  celldm(5)=   0.000000  celldm(6)=   0.000000

     crystal axes: (cart. coord. in units of alat)
               a(1) = (   0.707106781187   0.707106781187   0.000000000000 )  
               a(2) = (   0.709946567456  -0.002839786270   0.709946567456 )  
               a(3) = (  -0.002839786270   0.709946567456   0.709946567456 )  

     reciprocal axes: (cart. coord. in units 2 pi/alat)
               b(1) = (  0.707107  0.707107 -0.704278 )  
               b(2) = (  0.701472 -0.701472  0.704278 )  
               b(3) = ( -0.701472  0.701472  0.704278 )  


     PseudoPot. # 1 for Mn read from file:
     /users/kfg/psuedo/gbrv_1.5/mn.pbesol.UPF
     MD5 check sum: 0716d5f563e6e95a34f9080f4c78c109
     Pseudo is Ultrasoft + core correction, Zval = 15.0
     Generated by new atomic code, or converted to UPF format
     Using radial grid of  859 points,  6 beta functions with: 
                l(1) =   0
                l(2) =   0
                l(3) =   1
                l(4) =   1
                l(5) =   2
                l(6) =   2
     Q(r) pseudized with  8 coefficients,  rinner =    0.950   0.950   0.950
                                                       0.950   0.950

     PseudoPot. # 2 for O  read from file:
     /users/kfg/psuedo/gbrv_1.5/o.pbesol.UPF
     MD5 check sum: 501638753501ef6325af9037351f7734
     Pseudo is Ultrasoft + core correction, Zval =  6.0
     Generated by new atomic code, or converted to UPF format
     Using radial grid of  737 points,  5 beta functions with: 
                l(1) =   0
                l(2) =   0
                l(3) =   1
                l(4) =   1
                l(5) =   2
     Q(r) pseudized with  8 coefficients,  rinner =    0.900   0.900   0.900
                                                       0.900   0.900

     atomic species   valence    mass     pseudopotential
        Mn            15.00    54.90000     Mn( 1.00)
        O              6.00    15.99900     O ( 1.00)

     Starting magnetic structure 
     atomic species   magnetization
        Mn           1.000
        O            0.000


     Simplified LDA+U calculation (l_max = 2) with parameters (eV):
     atomic species    L          U    alpha       J0     beta
        Mn             2     3.0000   0.0000   0.0000   0.0000



      8 Sym. Ops., with inversion, found



   Cartesian axes

     site n.     atom                  positions (alat units)
         1           Mn  tau(   1) = (    0.00000000000    0.00000000000    0.00000000000  )
         2           O   tau(   2) = (    0.70710678119    0.70710678119    0.70994656746  )

     number of k points=   190  gaussian smearing, width (Ry)=  0.0100

     Number of k-points >= 100: set verbosity='high' to print them.

     Dense  grid:     7351 G-vectors     FFT dimensions: (  27,  27,  27)

     Smooth grid:     5429 G-vectors     FFT dimensions: (  25,  25,  25)

     Largest allocated arrays     est. size (Mb)     dimensions
        Kohn-Sham Wavefunctions         0.02 Mb     (      93,   15)
        Atomic Hubbard wavefuncts       0.01 Mb     (      93,    5)
        NL pseudopotentials             0.04 Mb     (      93,   31)
        Each V/rho on FFT grid          0.09 Mb     (    2916,   2)
        Each G-vector array             0.01 Mb     (     921)
        G-vector shells                 0.01 Mb     (     670)
     Largest temporary arrays     est. size (Mb)     dimensions
        Auxiliary wavefunctions         0.09 Mb     (      93,   60)
        Each subspace H/S matrix        0.05 Mb     (      60,   60)
        Each <psi_i|beta_j> matrix      0.01 Mb     (      31,   15)
        Arrays for rho mixing           0.36 Mb     (    2916,    8)

     Check: negative/imaginary core charge=   -0.000057    0.000000

     Initial potential from superposition of free atoms

     starting charge   20.49992, renormalised to   21.00000
     Number of +U iterations with fixed ns =  0
     Starting occupations:
 --- enter write_ns ---
 LDA+U parameters:
U( 1)     =  3.00000000
alpha( 1) =  0.00000000
atom    1   Tr[ns(na)] (up, down, total) =   5.00000  0.00000  5.00000
   spin  1
    eigenvalues: 
  1.000  1.000  1.000  1.000  1.000
    eigenvectors:
  1.000  0.000  0.000  0.000  0.000
  0.000  1.000  0.000  0.000  0.000
  0.000  0.000  1.000  0.000  0.000
  0.000  0.000  0.000  1.000  0.000
  0.000  0.000  0.000  0.000  1.000
    occupations:
  1.000  0.000  0.000  0.000  0.000
  0.000  1.000  0.000  0.000  0.000
  0.000  0.000  1.000  0.000  0.000
  0.000  0.000  0.000  1.000  0.000
  0.000  0.000  0.000  0.000  1.000
   spin  2
    eigenvalues: 
  0.000  0.000  0.000  0.000  0.000
    eigenvectors:
  1.000  0.000  0.000  0.000  0.000
  0.000  1.000  0.000  0.000  0.000
  0.000  0.000  1.000  0.000  0.000
  0.000  0.000  0.000  1.000  0.000
  0.000  0.000  0.000  0.000  1.000
    occupations:
  0.000  0.000  0.000  0.000  0.000
  0.000  0.000  0.000  0.000  0.000
  0.000  0.000  0.000  0.000  0.000
  0.000  0.000  0.000  0.000  0.000
  0.000  0.000  0.000  0.000  0.000
atomic mag. moment =     5.000000
N of occupied +U levels =    5.000000
 --- exit write_ns ---
 Atomic wfc used for LDA+U Projector are NOT orthogonalized
     Starting wfc are   17 randomized atomic wfcs

     total cpu time spent up to now is        1.3 secs

     Self-consistent Calculation

     iteration #  1     ecut=    41.00 Ry     beta=0.30
     Davidson diagonalization with overlap
     ethr =  1.00E-02,  avg # of iterations =  2.9
 --- enter write_ns ---
 LDA+U parameters:
U( 1)     =  3.00000000
alpha( 1) =  0.00000000
atom    1   Tr[ns(na)] (up, down, total) =   4.98839  0.19366  5.18205
   spin  1
    eigenvalues: 
  0.997  0.997  0.998  0.998  0.998
    eigenvectors:
  0.000  1.000  0.000  0.000  0.000
  0.000  0.000  0.500  0.500  0.000
  0.000  0.000  0.500  0.500  0.000
  1.000  0.000  0.000  0.000  0.000
  0.000  0.000  0.000  0.000  1.000
    occupations:
  0.997 -0.000 -0.000 -0.000  0.000
 -0.000  0.998 -0.000  0.000  0.000
 -0.000 -0.000  0.998  0.000  0.000
 -0.000  0.000  0.000  0.997 -0.000
  0.000  0.000  0.000 -0.000  0.998
   spin  2
    eigenvalues: 
  0.021  0.021  0.021  0.066  0.066
    eigenvectors:
  0.000  0.000  0.000  1.000  0.000
  0.500  0.000  0.500  0.000  0.000
  0.500  0.000  0.500  0.000  0.000
  0.000  0.000  0.000  0.000  1.000
  0.000  1.000  0.000  0.000  0.000
    occupations:
  0.066 -0.000 -0.000 -0.000  0.000
 -0.000  0.021 -0.000  0.000  0.000
 -0.000 -0.000  0.021  0.000  0.000
 -0.000  0.000  0.000  0.066 -0.000
  0.000  0.000  0.000 -0.000  0.021
atomic mag. moment =     4.794724
N of occupied +U levels =    5.182051
 --- exit write_ns ---

     negative rho (up, down):  0.000E+00 2.274E-04

     Magnetic moment per site:
     atom:    1    charge:   12.8371    magn:   10.2877    constr:    0.0000
     atom:    2    charge:    5.7474    magn:    0.1983    constr:    0.0000

     total cpu time spent up to now is        4.1 secs

     total energy              =    -242.22839720 Ry
     Harris-Foulkes estimate   =    -240.12069637 Ry
     estimated scf accuracy    <       3.20343152 Ry

     total magnetization       =     5.00 Bohr mag/cell
     absolute magnetization    =     5.23 Bohr mag/cell

     iteration #  2     ecut=    41.00 Ry     beta=0.30
     Davidson diagonalization with overlap
     ethr =  1.00E-02,  avg # of iterations =  1.2

     negative rho (up, down):  0.000E+00 8.293E-04

     Magnetic moment per site:
     atom:    1    charge:   12.7184    magn:    4.5623    constr:    0.0000
     atom:    2    charge:    5.9749    magn:   -0.0449    constr:    0.0000

     total cpu time spent up to now is        6.2 secs

     total energy              =    -243.20481356 Ry
     Harris-Foulkes estimate   =    -242.26146212 Ry
     estimated scf accuracy    <       1.58238170 Ry

     total magnetization       =     5.00 Bohr mag/cell
     absolute magnetization    =     5.15 Bohr mag/cell

     iteration #  3     ecut=    41.00 Ry     beta=0.30
     Davidson diagonalization with overlap
     ethr =  7.54E-03,  avg # of iterations =  1.6

     negative rho (up, down):  0.000E+00 8.996E-04

     Magnetic moment per site:
     atom:    1    charge:   12.6521    magn:    4.3216    constr:    0.0000
     atom:    2    charge:    5.9587    magn:    0.0675    constr:    0.0000

     total cpu time spent up to now is        9.1 secs

     total energy              =    -243.26946401 Ry
     Harris-Foulkes estimate   =    -243.28225159 Ry
     estimated scf accuracy    <       0.04586196 Ry

     total magnetization       =     5.00 Bohr mag/cell
     absolute magnetization    =     5.00 Bohr mag/cell

     iteration #  4     ecut=    41.00 Ry     beta=0.30
     Davidson diagonalization with overlap
     ethr =  2.18E-04,  avg # of iterations =  2.1

     negative rho (up, down):  0.000E+00 9.194E-04

     Magnetic moment per site:
     atom:    1    charge:   12.6384    magn:    4.2261    constr:    0.0000
     atom:    2    charge:    5.9673    magn:    0.0854    constr:    0.0000

     total cpu time spent up to now is       12.3 secs

     total energy              =    -243.27630936 Ry
     Harris-Foulkes estimate   =    -243.27676984 Ry
     estimated scf accuracy    <       0.00354397 Ry

     total magnetization       =     5.00 Bohr mag/cell
     absolute magnetization    =     5.00 Bohr mag/cell

     iteration #  5     ecut=    41.00 Ry     beta=0.30
     Davidson diagonalization with overlap
     ethr =  1.69E-05,  avg # of iterations =  2.0

     negative rho (up, down):  0.000E+00 9.381E-04

     Magnetic moment per site:
     atom:    1    charge:   12.6041    magn:    4.2913    constr:    0.0000
     atom:    2    charge:    5.9762    magn:    0.1594    constr:    0.0000

     total cpu time spent up to now is       15.2 secs

     total energy              =    -243.27641358 Ry
     Harris-Foulkes estimate   =    -243.27649385 Ry
     estimated scf accuracy    <       0.00154420 Ry

     total magnetization       =     5.00 Bohr mag/cell
     absolute magnetization    =     5.00 Bohr mag/cell

     iteration #  6     ecut=    41.00 Ry     beta=0.30
     Davidson diagonalization with overlap
     ethr =  7.35E-06,  avg # of iterations =  2.1

     negative rho (up, down):  0.000E+00 9.381E-04

     Magnetic moment per site:
     atom:    1    charge:   12.5971    magn:    4.2931    constr:    0.0000
     atom:    2    charge:    5.9773    magn:    0.1758    constr:    0.0000

     total cpu time spent up to now is       18.2 secs

     total energy              =    -243.27675360 Ry
     Harris-Foulkes estimate   =    -243.27673878 Ry
     estimated scf accuracy    <       0.00006345 Ry

     total magnetization       =     5.00 Bohr mag/cell
     absolute magnetization    =     5.00 Bohr mag/cell

     iteration #  7     ecut=    41.00 Ry     beta=0.30
     Davidson diagonalization with overlap
     ethr =  3.02E-07,  avg # of iterations =  2.0

     negative rho (up, down):  0.000E+00 9.343E-04

     Magnetic moment per site:
     atom:    1    charge:   12.5973    magn:    4.2834    constr:    0.0000
     atom:    2    charge:    5.9769    magn:    0.1770    constr:    0.0000

     total cpu time spent up to now is       21.3 secs

     total energy              =    -243.27677195 Ry
     Harris-Foulkes estimate   =    -243.27676933 Ry
     estimated scf accuracy    <       0.00001223 Ry

     total magnetization       =     5.00 Bohr mag/cell
     absolute magnetization    =     5.00 Bohr mag/cell

     iteration #  8     ecut=    41.00 Ry     beta=0.30
     Davidson diagonalization with overlap
     ethr =  5.82E-08,  avg # of iterations =  2.0

     negative rho (up, down):  0.000E+00 9.274E-04

     Magnetic moment per site:
     atom:    1    charge:   12.5982    magn:    4.2816    constr:    0.0000
     atom:    2    charge:    5.9763    magn:    0.1797    constr:    0.0000

     total cpu time spent up to now is       24.2 secs

     total energy              =    -243.27677423 Ry
     Harris-Foulkes estimate   =    -243.27677366 Ry
     estimated scf accuracy    <       0.00000148 Ry

     total magnetization       =     5.00 Bohr mag/cell
     absolute magnetization    =     5.00 Bohr mag/cell

     iteration #  9     ecut=    41.00 Ry     beta=0.30
     Davidson diagonalization with overlap
     ethr =  7.02E-09,  avg # of iterations =  2.1

     negative rho (up, down):  0.000E+00 9.270E-04

     Magnetic moment per site:
     atom:    1    charge:   12.5981    magn:    4.2814    constr:    0.0000
     atom:    2    charge:    5.9763    magn:    0.1806    constr:    0.0000

     total cpu time spent up to now is       27.3 secs

     total energy              =    -243.27677481 Ry
     Harris-Foulkes estimate   =    -243.27677478 Ry
     estimated scf accuracy    <       0.00000022 Ry

     total magnetization       =     5.00 Bohr mag/cell
     absolute magnetization    =     5.00 Bohr mag/cell

     iteration # 10     ecut=    41.00 Ry     beta=0.30
     Davidson diagonalization with overlap
     ethr =  1.04E-09,  avg # of iterations =  2.1

     negative rho (up, down):  0.000E+00 9.282E-04

     Magnetic moment per site:
     atom:    1    charge:   12.5982    magn:    4.2813    constr:    0.0000
     atom:    2    charge:    5.9763    magn:    0.1808    constr:    0.0000

     total cpu time spent up to now is       30.4 secs

     total energy              =    -243.27677489 Ry
     Harris-Foulkes estimate   =    -243.27677486 Ry
     estimated scf accuracy    <       0.00000001 Ry

     total magnetization       =     5.00 Bohr mag/cell
     absolute magnetization    =     5.00 Bohr mag/cell

     iteration # 11     ecut=    41.00 Ry     beta=0.30
     Davidson diagonalization with overlap
     ethr =  5.50E-11,  avg # of iterations =  2.0

     negative rho (up, down):  0.000E+00 9.277E-04

     Magnetic moment per site:
     atom:    1    charge:   12.5982    magn:    4.2813    constr:    0.0000
     atom:    2    charge:    5.9762    magn:    0.1808    constr:    0.0000

     total cpu time spent up to now is       34.4 secs

     End of self-consistent calculation
 --- enter write_ns ---
 LDA+U parameters:
U( 1)     =  3.00000000
alpha( 1) =  0.00000000
atom    1   Tr[ns(na)] (up, down, total) =   4.99182  0.46006  5.45187
   spin  1
    eigenvalues: 
  0.997  0.997  0.999  0.999  0.999
    eigenvectors:
  0.000  1.000  0.000  0.000  0.000
  0.000  0.000  0.000  0.500  0.500
  0.000  0.000  0.000  0.500  0.500
  1.000  0.000  0.000  0.000  0.000
  0.000  0.000  1.000  0.000  0.000
    occupations:
  0.997 -0.000 -0.000 -0.000  0.000
 -0.000  0.999 -0.000  0.000  0.000
 -0.000 -0.000  0.999  0.000  0.000
 -0.000  0.000  0.000  0.997 -0.000
  0.000  0.000  0.000 -0.000  0.999
   spin  2
    eigenvalues: 
  0.052  0.052  0.052  0.152  0.152
    eigenvectors:
  0.000  0.000  0.000  0.000  1.000
  0.500  0.000  0.500  0.000  0.000
  0.500  0.000  0.500  0.000  0.000
  0.000  0.000  0.000  1.000  0.000
  0.000  1.000  0.000  0.000  0.000
    occupations:
  0.152 -0.000 -0.000 -0.000  0.000
 -0.000  0.052 -0.000  0.000  0.000
 -0.000 -0.000  0.052  0.000  0.000
 -0.000  0.000  0.000  0.152 -0.000
  0.000  0.000  0.000 -0.000  0.052
atomic mag. moment =     4.531760
N of occupied +U levels =    5.451874
 --- exit write_ns ---

     Number of k-points >= 100: set verbosity='high' to print the bands.

     the Fermi energy is    12.4886 ev

!    total energy              =    -243.27677492 Ry
     Harris-Foulkes estimate   =    -243.27677489 Ry
     estimated scf accuracy    <          2.6E-10 Ry

     The total energy is the sum of the following terms:

     one-electron contribution =    -111.78383575 Ry
     hartree contribution      =      66.45586134 Ry
     xc contribution           =     -33.75250165 Ry
     ewald contribution        =    -164.24189306 Ry
     Hubbard energy            =       0.04562525 Ry
     smearing contrib. (-TS)   =      -0.00003105 Ry

     total magnetization       =     5.00 Bohr mag/cell
     absolute magnetization    =     5.00 Bohr mag/cell

     convergence has been achieved in  11 iterations

     Forces acting on atoms (Ry/au):


     negative rho (up, down):  0.000E+00 9.277E-04
     atom    1 type  1   force =   0.00000000E+00  0.00000000E+00 -0.55557766E-30
     atom    2 type  2   force =   0.00000000E+00  0.00000000E+00  0.55557766E-30

     Total force =     0.000000     Total SCF correction =     0.000000


     entering subroutine stress ...


     negative rho (up, down):  0.000E+00 9.277E-04
          total   stress  (Ry/bohr**3)                   (kbar)     P=    1.02
   0.0000070385   0.0000390152   0.0000000000          1.04      5.74      0.00
   0.0000390152   0.0000070385   0.0000000000          5.74      1.04      0.00
   0.0000000000   0.0000000000   0.0000066954          0.00      0.00      0.98


     Writing output data file mno_fm.in.sxy2.save

     init_run     :      1.15s CPU      1.17s WALL (       1 calls)
     electrons    :     31.49s CPU     33.09s WALL (       1 calls)
     forces       :      0.61s CPU      0.62s WALL (       1 calls)
     stress       :      3.48s CPU      3.51s WALL (       1 calls)

     Called by init_run:
     wfcinit      :      0.90s CPU      0.92s WALL (       1 calls)
     potinit      :      0.05s CPU      0.05s WALL (       1 calls)

     Called by electrons:
     c_bands      :     26.58s CPU     28.07s WALL (      11 calls)
     sum_band     :      4.48s CPU      4.57s WALL (      11 calls)
     v_of_rho     :      0.17s CPU      0.17s WALL (      12 calls)
     newd         :      0.18s CPU      0.18s WALL (      12 calls)
     mix_rho      :      0.08s CPU      0.08s WALL (      11 calls)

     Called by c_bands:
     init_us_2    :      0.59s CPU      0.58s WALL (    6840 calls)
     cegterg      :     25.59s CPU     27.14s WALL (    2090 calls)

     Called by *egterg:
     h_psi        :     17.53s CPU     18.87s WALL (    6444 calls)
     s_psi        :      0.88s CPU      0.85s WALL (    8534 calls)
     g_psi        :      0.05s CPU      0.04s WALL (    4164 calls)
     cdiaghg      :      4.63s CPU      4.78s WALL (    6254 calls)

     Called by h_psi:
     add_vuspsi   :      0.53s CPU      0.62s WALL (    6444 calls)
     vhpsi        :      0.60s CPU      0.63s WALL (    6444 calls)

     General routines
     calbec       :      3.58s CPU      3.61s WALL (   36828 calls)
     fft          :      0.16s CPU      0.15s WALL (     406 calls)
     ffts         :      0.05s CPU      0.04s WALL (     270 calls)
     fftw         :     17.30s CPU     18.62s WALL (  181636 calls)
     interpolate  :      0.03s CPU      0.02s WALL (      46 calls)
     davcio       :      0.00s CPU      0.00s WALL (     190 calls)

     Parallel routines
     fft_scatter  :      7.55s CPU      8.68s WALL (  182312 calls)
     Hubbard U routines
     new_ns       :      0.14s CPU      0.14s WALL (      11 calls)
     vhpsi        :      0.60s CPU      0.63s WALL (    6444 calls)
     force_hub    :      0.34s CPU      0.35s WALL (       1 calls)
     stres_hub    :      2.82s CPU      2.85s WALL (       1 calls)

     PWSCF        :    37.81s CPU        39.60s WALL


   This run was terminated on:   9:53:27   9Mar2018            

=------------------------------------------------------------------------------=
   JOB DONE.
=------------------------------------------------------------------------------=
