
     Program PWSCF v.5.1 starts on 24Aug2017 at  1:58:10 

     This program is part of the open-source Quantum ESPRESSO suite
     for quantum simulation of materials; please cite
         "P. Giannozzi et al., J. Phys.:Condens. Matter 21 395502 (2009);
          URL http://www.quantum-espresso.org", 
     in publications or presentations arising from this work. More details at
     http://www.quantum-espresso.org/quote

     Parallel version (MPI), running on     8 processors
     R & G space division:  proc/nbgrp/npool/nimage =       8
     Reading input from /tmp/mno_fm.scf.in.k.2.01.1890/mno_fm.scf.in.k.2.01.t
Warning: card &IONS ignored
Warning: card   ION_DYNAMICS='BFGS', ignored
Warning: card / ignored
Warning: card &CELL ignored
Warning: card  CELL_DYNAMICS = 'BFGS' ignored
Warning: card / ignored

     Current dimensions of program PWSCF are:
     Max number of different atomic species (ntypx) = 10
     Max number of k-points (npk) =  40000
     Max angular momentum in pseudopotentials (lmaxx) =  3
 kfg - two_fermi_energies  T

     Subspace diagonalization in iterative solution of the eigenvalue problem:
     a serial algorithm will be used

     warning: symmetry operation #  3 not compatible with FFT grid. 
  -1   1   0
   0   1   0
   0   1  -1
     warning: symmetry operation #  4 not compatible with FFT grid. 
   0  -1   0
  -1   0   0
  -1   1  -1
     warning: symmetry operation #  5 not compatible with FFT grid. 
   0  -1   0
   1  -1   0
   1  -1   1
     warning: symmetry operation #  6 not compatible with FFT grid. 
  -1   1   0
  -1   0   0
   0  -1   1
     warning: symmetry operation #  9 not compatible with FFT grid. 
   1  -1   0
   0  -1   0
   0  -1   1
     warning: symmetry operation # 10 not compatible with FFT grid. 
   0   1   0
   1   0   0
   1  -1   1
     warning: symmetry operation # 11 not compatible with FFT grid. 
   0   1   0
  -1   1   0
  -1   1  -1
     warning: symmetry operation # 12 not compatible with FFT grid. 
   1  -1   0
   1   0   0
   0   1  -1

     Parallelization info
     --------------------
     sticks:   dense  smooth     PW     G-vecs:    dense   smooth      PW
     Min          62      52     15                 3650     2694     478
     Max          63      53     16                 3663     2701     495
     Sum         499     421    121                29255    21577    3855

     Generating pointlists ...
     new r_m :   0.2858 (alat units)  1.7141 (a.u.) for type    1
     new r_m :   0.2858 (alat units)  1.7141 (a.u.) for type    2


     bravais-lattice index     =            0
     lattice parameter (alat)  =     5.998073469  a.u.
     unit-cell volume          =     610.3520 (a.u.)^3
     number of atoms/cell      =            8
     number of atomic types    =            2
     number of electrons       =        84.00 (up:  52.00, down:  32.00)
     number of Kohn-Sham states=           62
     kinetic-energy cutoff     =      41.0000  Ry
     charge density cutoff     =     200.0000  Ry
     convergence threshold     =      1.0E-08
     mixing beta               =       0.3000
     number of iterations used =            8  local-TF  mixing
     Exchange-correlation      = SLA  PW   PSX  PSC ( 1  4 10  8 0)
     A smooth kinetic-energy cutoff is imposed at      40.0000 Ry
     height of the smooth step-function =             800.0000 Ry
     width of the smooth step-function  =               1.0000 Ry


     celldm(1)=   5.998073  celldm(2)=   0.000000  celldm(3)=   0.000000
     celldm(4)=   0.000000  celldm(5)=   0.000000  celldm(6)=   0.000000

     crystal axes: (cart. coord. in units of alat)
               a(1) = (   0.707106781187   0.707106781187   0.000000000000 )  
               a(2) = (   0.707106781187   0.000000000000   0.707106781187 )  
               a(3) = (   2.121320343560  -2.121320343560  -1.414213562373 )  

     reciprocal axes: (cart. coord. in units 2 pi/alat)
               b(1) = (  0.530330  0.883883 -0.530330 )  
               b(2) = (  0.353553 -0.353553  1.060660 )  
               b(3) = (  0.176777 -0.176777 -0.176777 )  


     PseudoPot. # 1 for Mn read from file:
     /users/kfg/psuedo/gbrv_1.5/mn.pbesol.UPF
     MD5 check sum: 0716d5f563e6e95a34f9080f4c78c109
     Pseudo is Ultrasoft + core correction, Zval = 15.0
     Generated by new atomic code, or converted to UPF format
     Using radial grid of  859 points,  6 beta functions with: 
                l(1) =   0
                l(2) =   0
                l(3) =   1
                l(4) =   1
                l(5) =   2
                l(6) =   2
     Q(r) pseudized with  8 coefficients,  rinner =    0.950   0.950   0.950
                                                       0.950   0.950

     PseudoPot. # 2 for O  read from file:
     /users/kfg/psuedo/gbrv_1.5/o.pbesol.UPF
     MD5 check sum: 501638753501ef6325af9037351f7734
     Pseudo is Ultrasoft + core correction, Zval =  6.0
     Generated by new atomic code, or converted to UPF format
     Using radial grid of  737 points,  5 beta functions with: 
                l(1) =   0
                l(2) =   0
                l(3) =   1
                l(4) =   1
                l(5) =   2
     Q(r) pseudized with  8 coefficients,  rinner =    0.900   0.900   0.900
                                                       0.900   0.900

     atomic species   valence    mass     pseudopotential
        Mn            15.00    54.90000     Mn( 1.00)
        O              6.00    15.99900     O ( 1.00)

     Starting magnetic structure 
     atomic species   magnetization
        Mn           1.000
        O            0.000


     Simplified LDA+U calculation (l_max = 2) with parameters (eV):
     atomic species    L          U    alpha       J0     beta
        Mn             2     3.0000   0.0000   0.0000   0.0000



     No symmetry found



   Cartesian axes

     site n.     atom                  positions (alat units)
         1           Mn  tau(   1) = (   -0.00439936737    0.00316663478    0.00753275981  )
         2           O   tau(   2) = (    2.82503830103   -1.40738943689   -0.71391383384  )
         3           Mn  tau(   3) = (    2.11405850944   -1.40729502825   -0.71501712039  )
         4           O   tau(   4) = (    2.11344116696   -0.70788923087   -0.70605040647  )
         5           Mn  tau(   5) = (    2.11934369143   -0.71290277205    0.00329025690  )
         6           O   tau(   6) = (    1.42184029603   -0.70828696750    0.00383123210  )
         7           Mn  tau(   7) = (    1.40936971975    0.00107582627   -0.00590471889  )
         8           O   tau(   8) = (    0.71035894209   -0.00517022933   -0.00728042332  )

     number of k points=   304  gaussian smearing, width (Ry)=  0.0100

     Number of k-points >= 100: set verbosity='high' to print them.

     Dense  grid:    29255 G-vectors     FFT dimensions: (  27,  27,  90)

     Smooth grid:    21577 G-vectors     FFT dimensions: (  25,  25,  81)

     Largest allocated arrays     est. size (Mb)     dimensions
        Kohn-Sham Wavefunctions         0.35 Mb     (     369,   62)
        Atomic Hubbard wavefuncts       0.11 Mb     (     369,   20)
        NL pseudopotentials             0.70 Mb     (     369,  124)
        Each V/rho on FFT grid          0.27 Mb     (    8748,   2)
        Each G-vector array             0.03 Mb     (    3656)
        G-vector shells                 0.01 Mb     (     925)
     Largest temporary arrays     est. size (Mb)     dimensions
        Auxiliary wavefunctions         1.40 Mb     (     369,  248)
        Each subspace H/S matrix        0.94 Mb     (     248,  248)
        Each <psi_i|beta_j> matrix      0.12 Mb     (     124,   62)
        Arrays for rho mixing           1.07 Mb     (    8748,    8)

     Check: negative/imaginary core charge=   -0.000057    0.000000

     Initial potential from superposition of free atoms

     starting charge   81.99968, renormalised to   84.00000
     Number of +U iterations with fixed ns =  0
     Starting occupations:
 --- enter write_ns ---
 LDA+U parameters:
U( 1)     =  3.00000000
alpha( 1) =  0.00000000
atom    1   Tr[ns(na)] (up, down, total) =   5.00000  0.00000  5.00000
   spin  1
    eigenvalues: 
  1.000  1.000  1.000  1.000  1.000
    eigenvectors:
  1.000  0.000  0.000  0.000  0.000
  0.000  1.000  0.000  0.000  0.000
  0.000  0.000  1.000  0.000  0.000
  0.000  0.000  0.000  1.000  0.000
  0.000  0.000  0.000  0.000  1.000
    occupations:
  1.000  0.000  0.000  0.000  0.000
  0.000  1.000  0.000  0.000  0.000
  0.000  0.000  1.000  0.000  0.000
  0.000  0.000  0.000  1.000  0.000
  0.000  0.000  0.000  0.000  1.000
   spin  2
    eigenvalues: 
  0.000  0.000  0.000  0.000  0.000
    eigenvectors:
  1.000  0.000  0.000  0.000  0.000
  0.000  1.000  0.000  0.000  0.000
  0.000  0.000  1.000  0.000  0.000
  0.000  0.000  0.000  1.000  0.000
  0.000  0.000  0.000  0.000  1.000
    occupations:
  0.000  0.000  0.000  0.000  0.000
  0.000  0.000  0.000  0.000  0.000
  0.000  0.000  0.000  0.000  0.000
  0.000  0.000  0.000  0.000  0.000
  0.000  0.000  0.000  0.000  0.000
atomic mag. moment =     5.000000
atom    3   Tr[ns(na)] (up, down, total) =   5.00000  0.00000  5.00000
   spin  1
    eigenvalues: 
  1.000  1.000  1.000  1.000  1.000
    eigenvectors:
  1.000  0.000  0.000  0.000  0.000
  0.000  1.000  0.000  0.000  0.000
  0.000  0.000  1.000  0.000  0.000
  0.000  0.000  0.000  1.000  0.000
  0.000  0.000  0.000  0.000  1.000
    occupations:
  1.000  0.000  0.000  0.000  0.000
  0.000  1.000  0.000  0.000  0.000
  0.000  0.000  1.000  0.000  0.000
  0.000  0.000  0.000  1.000  0.000
  0.000  0.000  0.000  0.000  1.000
   spin  2
    eigenvalues: 
  0.000  0.000  0.000  0.000  0.000
    eigenvectors:
  1.000  0.000  0.000  0.000  0.000
  0.000  1.000  0.000  0.000  0.000
  0.000  0.000  1.000  0.000  0.000
  0.000  0.000  0.000  1.000  0.000
  0.000  0.000  0.000  0.000  1.000
    occupations:
  0.000  0.000  0.000  0.000  0.000
  0.000  0.000  0.000  0.000  0.000
  0.000  0.000  0.000  0.000  0.000
  0.000  0.000  0.000  0.000  0.000
  0.000  0.000  0.000  0.000  0.000
atomic mag. moment =     5.000000
atom    5   Tr[ns(na)] (up, down, total) =   5.00000  0.00000  5.00000
   spin  1
    eigenvalues: 
  1.000  1.000  1.000  1.000  1.000
    eigenvectors:
  1.000  0.000  0.000  0.000  0.000
  0.000  1.000  0.000  0.000  0.000
  0.000  0.000  1.000  0.000  0.000
  0.000  0.000  0.000  1.000  0.000
  0.000  0.000  0.000  0.000  1.000
    occupations:
  1.000  0.000  0.000  0.000  0.000
  0.000  1.000  0.000  0.000  0.000
  0.000  0.000  1.000  0.000  0.000
  0.000  0.000  0.000  1.000  0.000
  0.000  0.000  0.000  0.000  1.000
   spin  2
    eigenvalues: 
  0.000  0.000  0.000  0.000  0.000
    eigenvectors:
  1.000  0.000  0.000  0.000  0.000
  0.000  1.000  0.000  0.000  0.000
  0.000  0.000  1.000  0.000  0.000
  0.000  0.000  0.000  1.000  0.000
  0.000  0.000  0.000  0.000  1.000
    occupations:
  0.000  0.000  0.000  0.000  0.000
  0.000  0.000  0.000  0.000  0.000
  0.000  0.000  0.000  0.000  0.000
  0.000  0.000  0.000  0.000  0.000
  0.000  0.000  0.000  0.000  0.000
atomic mag. moment =     5.000000
atom    7   Tr[ns(na)] (up, down, total) =   5.00000  0.00000  5.00000
   spin  1
    eigenvalues: 
  1.000  1.000  1.000  1.000  1.000
    eigenvectors:
  1.000  0.000  0.000  0.000  0.000
  0.000  1.000  0.000  0.000  0.000
  0.000  0.000  1.000  0.000  0.000
  0.000  0.000  0.000  1.000  0.000
  0.000  0.000  0.000  0.000  1.000
    occupations:
  1.000  0.000  0.000  0.000  0.000
  0.000  1.000  0.000  0.000  0.000
  0.000  0.000  1.000  0.000  0.000
  0.000  0.000  0.000  1.000  0.000
  0.000  0.000  0.000  0.000  1.000
   spin  2
    eigenvalues: 
  0.000  0.000  0.000  0.000  0.000
    eigenvectors:
  1.000  0.000  0.000  0.000  0.000
  0.000  1.000  0.000  0.000  0.000
  0.000  0.000  1.000  0.000  0.000
  0.000  0.000  0.000  1.000  0.000
  0.000  0.000  0.000  0.000  1.000
    occupations:
  0.000  0.000  0.000  0.000  0.000
  0.000  0.000  0.000  0.000  0.000
  0.000  0.000  0.000  0.000  0.000
  0.000  0.000  0.000  0.000  0.000
  0.000  0.000  0.000  0.000  0.000
atomic mag. moment =     5.000000
N of occupied +U levels =   20.000000
 --- exit write_ns ---
 Atomic wfc used for LDA+U Projector are NOT orthogonalized
     Starting wfc are   68 randomized atomic wfcs

     total cpu time spent up to now is       64.9 secs

     Self-consistent Calculation

     iteration #  1     ecut=    41.00 Ry     beta=0.30
     Davidson diagonalization with overlap
     ethr =  1.00E-02,  avg # of iterations =  3.4
 --- enter write_ns ---
 LDA+U parameters:
U( 1)     =  3.00000000
alpha( 1) =  0.00000000
atom    1   Tr[ns(na)] (up, down, total) =   4.98831  0.18855  5.17686
   spin  1
    eigenvalues: 
  0.997  0.997  0.998  0.998  0.998
    eigenvectors:
  0.998  0.001  0.000  0.000  0.000
  0.000  0.000  0.000  0.015  0.985
  0.000  0.000  0.028  0.958  0.014
  0.001  0.998  0.000  0.000  0.000
  0.000  0.000  0.971  0.027  0.001
    occupations:
  0.997  0.000  0.000  0.000  0.000
  0.000  0.998 -0.000  0.000  0.000
  0.000 -0.000  0.998  0.000 -0.000
  0.000  0.000  0.000  0.997  0.000
  0.000  0.000 -0.000  0.000  0.998
   spin  2
    eigenvalues: 
  0.020  0.020  0.020  0.063  0.065
    eigenvectors:
  0.000  0.000  0.000  0.043  0.957
  0.006  0.102  0.891  0.000  0.000
  0.002  0.897  0.101  0.000  0.000
  0.000  0.000  0.000  0.957  0.043
  0.992  0.000  0.008  0.000  0.000
    occupations:
  0.065  0.000 -0.000 -0.000  0.000
  0.000  0.020 -0.000 -0.000 -0.000
 -0.000 -0.000  0.020  0.000  0.000
 -0.000 -0.000  0.000  0.063 -0.000
  0.000 -0.000  0.000 -0.000  0.020
atomic mag. moment =     4.799767
atom    3   Tr[ns(na)] (up, down, total) =   4.98804  0.19209  5.18013
   spin  1
    eigenvalues: 
  0.997  0.997  0.998  0.998  0.998
    eigenvectors:
  0.144  0.855  0.000  0.000  0.000
  0.000  0.000  0.998  0.000  0.002
  0.000  0.000  0.000  0.978  0.021
  0.855  0.144  0.000  0.000  0.000
  0.000  0.000  0.002  0.021  0.976
    occupations:
  0.997  0.000 -0.000 -0.000 -0.000
  0.000  0.998  0.000 -0.000 -0.000
 -0.000  0.000  0.998 -0.000  0.000
 -0.000 -0.000 -0.000  0.997 -0.000
 -0.000 -0.000  0.000 -0.000  0.998
   spin  2
    eigenvalues: 
  0.020  0.021  0.021  0.064  0.067
    eigenvectors:
  0.000  0.000  0.000  0.828  0.172
  0.999  0.001  0.000  0.000  0.000
  0.000  0.857  0.143  0.000  0.000
  0.000  0.000  0.000  0.172  0.828
  0.000  0.142  0.857  0.000  0.000
    occupations:
  0.065  0.000  0.000  0.001 -0.000
  0.000  0.020  0.000  0.000 -0.000
  0.000  0.000  0.021  0.000  0.000
  0.001  0.000  0.000  0.066  0.000
 -0.000 -0.000  0.000  0.000  0.021
atomic mag. moment =     4.795952
atom    5   Tr[ns(na)] (up, down, total) =   4.98760  0.19687  5.18447
   spin  1
    eigenvalues: 
  0.996  0.997  0.998  0.998  0.998
    eigenvectors:
  0.197  0.803  0.000  0.000  0.000
  0.000  0.000  0.029  0.425  0.546
  0.000  0.000  0.944  0.056  0.000
  0.803  0.197  0.000  0.000  0.000
  0.000  0.000  0.028  0.519  0.453
    occupations:
  0.997  0.000 -0.000  0.000  0.000
  0.000  0.998  0.000  0.000  0.000
 -0.000  0.000  0.998  0.000 -0.000
  0.000  0.000  0.000  0.996  0.000
  0.000  0.000 -0.000  0.000  0.998
   spin  2
    eigenvalues: 
  0.020  0.021  0.021  0.065  0.068
    eigenvectors:
  0.000  0.000  0.000  0.819  0.181
  0.017  0.969  0.013  0.000  0.000
  0.975  0.015  0.010  0.000  0.000
  0.000  0.000  0.000  0.181  0.819
  0.007  0.016  0.977  0.000  0.000
    occupations:
  0.066 -0.001  0.000 -0.001 -0.000
 -0.001  0.021  0.000  0.000 -0.000
  0.000  0.000  0.020  0.000 -0.000
 -0.001  0.000  0.000  0.068 -0.000
 -0.000 -0.000 -0.000 -0.000  0.021
atomic mag. moment =     4.790729
atom    7   Tr[ns(na)] (up, down, total) =   4.98758  0.19649  5.18407
   spin  1
    eigenvalues: 
  0.996  0.997  0.998  0.998  0.998
    eigenvectors:
  0.998  0.001  0.000  0.000  0.000
  0.000  0.000  0.164  0.773  0.063
  0.000  0.000  0.029  0.039  0.932
  0.001  0.998  0.000  0.000  0.000
  0.000  0.000  0.806  0.188  0.005
    occupations:
  0.996 -0.000 -0.000 -0.000  0.000
 -0.000  0.998  0.000  0.000  0.000
 -0.000  0.000  0.998  0.000 -0.000
 -0.000  0.000  0.000  0.997 -0.000
  0.000  0.000 -0.000 -0.000  0.998
   spin  2
    eigenvalues: 
  0.021  0.021  0.021  0.066  0.068
    eigenvectors:
  0.000  0.000  0.000  0.070  0.930
  0.048  0.951  0.000  0.000  0.000
  0.001  0.001  0.998  0.000  0.000
  0.000  0.000  0.000  0.930  0.070
  0.950  0.048  0.002  0.000  0.000
    occupations:
  0.068  0.000 -0.000  0.001 -0.000
  0.000  0.021  0.000 -0.000  0.000
 -0.000  0.000  0.021 -0.000 -0.000
  0.001 -0.000 -0.000  0.066  0.000
 -0.000  0.000 -0.000  0.000  0.021
atomic mag. moment =     4.791082
N of occupied +U levels =   20.725529
 --- exit write_ns ---

     negative rho (up, down):  0.000E+00 2.891E-04

     Magnetic moment per site:
     atom:    1    charge:   12.7464    magn:   10.2178    constr:    0.0000
     atom:    2    charge:    5.6705    magn:    0.1822    constr:    0.0000
     atom:    3    charge:   12.7488    magn:   10.2184    constr:    0.0000
     atom:    4    charge:    5.6689    magn:    0.1816    constr:    0.0000
     atom:    5    charge:   12.7498    magn:   10.2179    constr:    0.0000
     atom:    6    charge:    5.6662    magn:    0.1796    constr:    0.0000
     atom:    7    charge:   12.7500    magn:   10.2183    constr:    0.0000
     atom:    8    charge:    5.6602    magn:    0.1747    constr:    0.0000

     total cpu time spent up to now is      331.4 secs

     total energy              =    -968.91432165 Ry
     Harris-Foulkes estimate   =    -960.50958490 Ry
     estimated scf accuracy    <      12.82555978 Ry

     total magnetization       =    20.00 Bohr mag/cell
     absolute magnetization    =    20.90 Bohr mag/cell

     iteration #  2     ecut=    41.00 Ry     beta=0.30
     Davidson diagonalization with overlap
     ethr =  1.00E-02,  avg # of iterations =  1.1

     negative rho (up, down):  0.000E+00 1.231E-03

     Magnetic moment per site:
     atom:    1    charge:   12.6338    magn:    4.5272    constr:    0.0000
     atom:    2    charge:    5.8920    magn:   -0.0505    constr:    0.0000
     atom:    3    charge:   12.6359    magn:    4.5273    constr:    0.0000
     atom:    4    charge:    5.8907    magn:   -0.0496    constr:    0.0000
     atom:    5    charge:   12.6358    magn:    4.5274    constr:    0.0000
     atom:    6    charge:    5.8879    magn:   -0.0499    constr:    0.0000
     atom:    7    charge:   12.6356    magn:    4.5282    constr:    0.0000
     atom:    8    charge:    5.8810    magn:   -0.0532    constr:    0.0000

     total cpu time spent up to now is      468.0 secs

     total energy              =    -972.81961038 Ry
     Harris-Foulkes estimate   =    -969.04578671 Ry
     estimated scf accuracy    <       6.32895283 Ry

     total magnetization       =    20.00 Bohr mag/cell
     absolute magnetization    =    20.61 Bohr mag/cell

     iteration #  3     ecut=    41.00 Ry     beta=0.30
     Davidson diagonalization with overlap
     ethr =  7.53E-03,  avg # of iterations =  1.9

     negative rho (up, down):  0.000E+00 1.402E-03

     Magnetic moment per site:
     atom:    1    charge:   12.5666    magn:    4.2729    constr:    0.0000
     atom:    2    charge:    5.8717    magn:    0.0620    constr:    0.0000
     atom:    3    charge:   12.5692    magn:    4.2720    constr:    0.0000
     atom:    4    charge:    5.8703    magn:    0.0628    constr:    0.0000
     atom:    5    charge:   12.5699    magn:    4.2701    constr:    0.0000
     atom:    6    charge:    5.8674    magn:    0.0621    constr:    0.0000
     atom:    7    charge:   12.5696    magn:    4.2708    constr:    0.0000
     atom:    8    charge:    5.8600    magn:    0.0583    constr:    0.0000

     total cpu time spent up to now is      648.3 secs

     total energy              =    -973.07713312 Ry
     Harris-Foulkes estimate   =    -973.12763362 Ry
     estimated scf accuracy    <       0.18355581 Ry

     total magnetization       =    20.00 Bohr mag/cell
     absolute magnetization    =    20.00 Bohr mag/cell

     iteration #  4     ecut=    41.00 Ry     beta=0.30
     Davidson diagonalization with overlap
     ethr =  2.19E-04,  avg # of iterations =  2.5

     negative rho (up, down):  0.000E+00 1.447E-03

     Magnetic moment per site:
     atom:    1    charge:   12.5532    magn:    4.1868    constr:    0.0000
     atom:    2    charge:    5.8797    magn:    0.0804    constr:    0.0000
     atom:    3    charge:   12.5560    magn:    4.1856    constr:    0.0000
     atom:    4    charge:    5.8783    magn:    0.0813    constr:    0.0000
     atom:    5    charge:   12.5568    magn:    4.1835    constr:    0.0000
     atom:    6    charge:    5.8754    magn:    0.0806    constr:    0.0000
     atom:    7    charge:   12.5565    magn:    4.1842    constr:    0.0000
     atom:    8    charge:    5.8681    magn:    0.0767    constr:    0.0000

     total cpu time spent up to now is      856.7 secs

     total energy              =    -973.10400459 Ry
     Harris-Foulkes estimate   =    -973.10587390 Ry
     estimated scf accuracy    <       0.01418713 Ry

     total magnetization       =    20.00 Bohr mag/cell
     absolute magnetization    =    20.00 Bohr mag/cell

     iteration #  5     ecut=    41.00 Ry     beta=0.30
     Davidson diagonalization with overlap
     ethr =  1.69E-05,  avg # of iterations =  2.7

     negative rho (up, down):  0.000E+00 1.515E-03

     Magnetic moment per site:
     atom:    1    charge:   12.5183    magn:    4.2560    constr:    0.0000
     atom:    2    charge:    5.8873    magn:    0.1567    constr:    0.0000
     atom:    3    charge:   12.5215    magn:    4.2543    constr:    0.0000
     atom:    4    charge:    5.8857    magn:    0.1576    constr:    0.0000
     atom:    5    charge:   12.5230    magn:    4.2512    constr:    0.0000
     atom:    6    charge:    5.8828    magn:    0.1566    constr:    0.0000
     atom:    7    charge:   12.5227    magn:    4.2519    constr:    0.0000
     atom:    8    charge:    5.8756    magn:    0.1527    constr:    0.0000

     total cpu time spent up to now is     1050.6 secs

     total energy              =    -973.10436604 Ry
     Harris-Foulkes estimate   =    -973.10470423 Ry
     estimated scf accuracy    <       0.00644721 Ry

     total magnetization       =    20.00 Bohr mag/cell
     absolute magnetization    =    20.00 Bohr mag/cell
 kfg - setting two_fermi_energies to FALSE

     iteration #  6     ecut=    41.00 Ry     beta=0.30
     Davidson diagonalization with overlap
     ethr =  7.68E-06,  avg # of iterations =  2.4

     negative rho (up, down):  0.000E+00 1.514E-03

     Magnetic moment per site:
     atom:    1    charge:   12.5111    magn:    4.2561    constr:    0.0000
     atom:    2    charge:    5.8884    magn:    0.1739    constr:    0.0000
     atom:    3    charge:   12.5144    magn:    4.2544    constr:    0.0000
     atom:    4    charge:    5.8868    magn:    0.1748    constr:    0.0000
     atom:    5    charge:   12.5163    magn:    4.2512    constr:    0.0000
     atom:    6    charge:    5.8838    magn:    0.1737    constr:    0.0000
     atom:    7    charge:   12.5160    magn:    4.2518    constr:    0.0000
     atom:    8    charge:    5.8766    magn:    0.1700    constr:    0.0000

     total cpu time spent up to now is     1254.7 secs

     total energy              =    -973.10573640 Ry
     Harris-Foulkes estimate   =    -973.10569232 Ry
     estimated scf accuracy    <       0.00036403 Ry

     total magnetization       =    20.00 Bohr mag/cell
     absolute magnetization    =    20.00 Bohr mag/cell

     iteration #  7     ecut=    41.00 Ry     beta=0.30
     Davidson diagonalization with overlap
     ethr =  4.33E-07,  avg # of iterations =  2.6

     negative rho (up, down):  0.000E+00 1.499E-03

     Magnetic moment per site:
     atom:    1    charge:   12.5110    magn:    4.2458    constr:    0.0000
     atom:    2    charge:    5.8879    magn:    0.1759    constr:    0.0000
     atom:    3    charge:   12.5144    magn:    4.2440    constr:    0.0000
     atom:    4    charge:    5.8863    magn:    0.1767    constr:    0.0000
     atom:    5    charge:   12.5164    magn:    4.2408    constr:    0.0000
     atom:    6    charge:    5.8833    magn:    0.1756    constr:    0.0000
     atom:    7    charge:   12.5161    magn:    4.2415    constr:    0.0000
     atom:    8    charge:    5.8761    magn:    0.1721    constr:    0.0000

     total cpu time spent up to now is     1465.3 secs

     total energy              =    -973.10580797 Ry
     Harris-Foulkes estimate   =    -973.10580781 Ry
     estimated scf accuracy    <       0.00012449 Ry

     total magnetization       =    20.00 Bohr mag/cell
     absolute magnetization    =    20.00 Bohr mag/cell

     iteration #  8     ecut=    41.00 Ry     beta=0.30
     Davidson diagonalization with overlap
     ethr =  1.48E-07,  avg # of iterations =  1.5

     negative rho (up, down):  0.000E+00 1.447E-03

     Magnetic moment per site:
     atom:    1    charge:   12.5135    magn:    4.2429    constr:    0.0000
     atom:    2    charge:    5.8864    magn:    0.1808    constr:    0.0000
     atom:    3    charge:   12.5169    magn:    4.2412    constr:    0.0000
     atom:    4    charge:    5.8848    magn:    0.1814    constr:    0.0000
     atom:    5    charge:   12.5193    magn:    4.2382    constr:    0.0000
     atom:    6    charge:    5.8819    magn:    0.1800    constr:    0.0000
     atom:    7    charge:   12.5192    magn:    4.2389    constr:    0.0000
     atom:    8    charge:    5.8747    magn:    0.1770    constr:    0.0000

     total cpu time spent up to now is     1629.8 secs

     total energy              =    -973.10579171 Ry
     Harris-Foulkes estimate   =    -973.10581788 Ry
     estimated scf accuracy    <       0.00005952 Ry

     total magnetization       =    20.00 Bohr mag/cell
     absolute magnetization    =    20.00 Bohr mag/cell

     iteration #  9     ecut=    41.00 Ry     beta=0.30
     Davidson diagonalization with overlap
     ethr =  7.09E-08,  avg # of iterations =  2.2

     negative rho (up, down):  0.000E+00 1.458E-03

     Magnetic moment per site:
     atom:    1    charge:   12.5126    magn:    4.2439    constr:    0.0000
     atom:    2    charge:    5.8866    magn:    0.1828    constr:    0.0000
     atom:    3    charge:   12.5159    magn:    4.2422    constr:    0.0000
     atom:    4    charge:    5.8850    magn:    0.1833    constr:    0.0000
     atom:    5    charge:   12.5185    magn:    4.2390    constr:    0.0000
     atom:    6    charge:    5.8822    magn:    0.1818    constr:    0.0000
     atom:    7    charge:   12.5184    magn:    4.2398    constr:    0.0000
     atom:    8    charge:    5.8749    magn:    0.1788    constr:    0.0000

     total cpu time spent up to now is     1824.2 secs

     total energy              =    -973.10579564 Ry
     Harris-Foulkes estimate   =    -973.10580509 Ry
     estimated scf accuracy    <       0.00002474 Ry

     total magnetization       =    20.00 Bohr mag/cell
     absolute magnetization    =    20.00 Bohr mag/cell

     iteration # 10     ecut=    41.00 Ry     beta=0.30
     Davidson diagonalization with overlap
     ethr =  2.94E-08,  avg # of iterations =  2.1

     negative rho (up, down):  0.000E+00 1.483E-03

     Magnetic moment per site:
     atom:    1    charge:   12.5125    magn:    4.2446    constr:    0.0000
     atom:    2    charge:    5.8869    magn:    0.1796    constr:    0.0000
     atom:    3    charge:   12.5158    magn:    4.2429    constr:    0.0000
     atom:    4    charge:    5.8853    magn:    0.1802    constr:    0.0000
     atom:    5    charge:   12.5184    magn:    4.2398    constr:    0.0000
     atom:    6    charge:    5.8825    magn:    0.1786    constr:    0.0000
     atom:    7    charge:   12.5183    magn:    4.2405    constr:    0.0000
     atom:    8    charge:    5.8751    magn:    0.1756    constr:    0.0000

     total cpu time spent up to now is     2030.1 secs

     total energy              =    -973.10580338 Ry
     Harris-Foulkes estimate   =    -973.10580308 Ry
     estimated scf accuracy    <       0.00001064 Ry

     total magnetization       =    20.00 Bohr mag/cell
     absolute magnetization    =    20.00 Bohr mag/cell

     iteration # 11     ecut=    41.00 Ry     beta=0.30
     Davidson diagonalization with overlap
     ethr =  1.27E-08,  avg # of iterations =  2.0

     negative rho (up, down):  0.000E+00 1.486E-03

     Magnetic moment per site:
     atom:    1    charge:   12.5124    magn:    4.2452    constr:    0.0000
     atom:    2    charge:    5.8871    magn:    0.1782    constr:    0.0000
     atom:    3    charge:   12.5157    magn:    4.2434    constr:    0.0000
     atom:    4    charge:    5.8855    magn:    0.1788    constr:    0.0000
     atom:    5    charge:   12.5183    magn:    4.2403    constr:    0.0000
     atom:    6    charge:    5.8827    magn:    0.1772    constr:    0.0000
     atom:    7    charge:   12.5182    magn:    4.2411    constr:    0.0000
     atom:    8    charge:    5.8753    magn:    0.1741    constr:    0.0000

     total cpu time spent up to now is     2223.5 secs

     total energy              =    -973.10580528 Ry
     Harris-Foulkes estimate   =    -973.10580521 Ry
     estimated scf accuracy    <       0.00000059 Ry

     total magnetization       =    20.00 Bohr mag/cell
     absolute magnetization    =    20.00 Bohr mag/cell

     iteration # 12     ecut=    41.00 Ry     beta=0.30
     Davidson diagonalization with overlap
     ethr =  7.05E-10,  avg # of iterations =  2.0

     negative rho (up, down):  0.000E+00 1.481E-03

     Magnetic moment per site:
     atom:    1    charge:   12.5123    magn:    4.2450    constr:    0.0000
     atom:    2    charge:    5.8871    magn:    0.1784    constr:    0.0000
     atom:    3    charge:   12.5156    magn:    4.2433    constr:    0.0000
     atom:    4    charge:    5.8855    magn:    0.1790    constr:    0.0000
     atom:    5    charge:   12.5182    magn:    4.2402    constr:    0.0000
     atom:    6    charge:    5.8827    magn:    0.1774    constr:    0.0000
     atom:    7    charge:   12.5182    magn:    4.2409    constr:    0.0000
     atom:    8    charge:    5.8753    magn:    0.1743    constr:    0.0000

     total cpu time spent up to now is     2427.7 secs

     total energy              =    -973.10580559 Ry
     Harris-Foulkes estimate   =    -973.10580559 Ry
     estimated scf accuracy    <       0.00000013 Ry

     total magnetization       =    20.00 Bohr mag/cell
     absolute magnetization    =    20.00 Bohr mag/cell

     iteration # 13     ecut=    41.00 Ry     beta=0.30
     Davidson diagonalization with overlap
     ethr =  1.59E-10,  avg # of iterations =  2.0

     negative rho (up, down):  0.000E+00 1.478E-03

     Magnetic moment per site:
     atom:    1    charge:   12.5123    magn:    4.2450    constr:    0.0000
     atom:    2    charge:    5.8871    magn:    0.1784    constr:    0.0000
     atom:    3    charge:   12.5156    magn:    4.2433    constr:    0.0000
     atom:    4    charge:    5.8855    magn:    0.1790    constr:    0.0000
     atom:    5    charge:   12.5182    magn:    4.2402    constr:    0.0000
     atom:    6    charge:    5.8827    magn:    0.1774    constr:    0.0000
     atom:    7    charge:   12.5181    magn:    4.2409    constr:    0.0000
     atom:    8    charge:    5.8753    magn:    0.1743    constr:    0.0000

     total cpu time spent up to now is     2611.0 secs

     total energy              =    -973.10580564 Ry
     Harris-Foulkes estimate   =    -973.10580561 Ry
     estimated scf accuracy    <       0.00000001 Ry

     total magnetization       =    20.00 Bohr mag/cell
     absolute magnetization    =    20.00 Bohr mag/cell

     iteration # 14     ecut=    41.00 Ry     beta=0.30
     Davidson diagonalization with overlap
     ethr =  1.62E-11,  avg # of iterations =  2.1

     negative rho (up, down):  0.000E+00 1.478E-03

     Magnetic moment per site:
     atom:    1    charge:   12.5123    magn:    4.2450    constr:    0.0000
     atom:    2    charge:    5.8871    magn:    0.1783    constr:    0.0000
     atom:    3    charge:   12.5156    magn:    4.2433    constr:    0.0000
     atom:    4    charge:    5.8855    magn:    0.1789    constr:    0.0000
     atom:    5    charge:   12.5182    magn:    4.2402    constr:    0.0000
     atom:    6    charge:    5.8827    magn:    0.1773    constr:    0.0000
     atom:    7    charge:   12.5181    magn:    4.2409    constr:    0.0000
     atom:    8    charge:    5.8753    magn:    0.1742    constr:    0.0000

     total cpu time spent up to now is     2810.1 secs

     total energy              =    -973.10580564 Ry
     Harris-Foulkes estimate   =    -973.10580564 Ry
     estimated scf accuracy    <       0.00000002 Ry

     total magnetization       =    20.00 Bohr mag/cell
     absolute magnetization    =    20.00 Bohr mag/cell

     iteration # 15     ecut=    41.00 Ry     beta=0.30
     Davidson diagonalization with overlap
     ethr =  1.62E-11,  avg # of iterations =  2.0

     negative rho (up, down):  0.000E+00 1.478E-03

     Magnetic moment per site:
     atom:    1    charge:   12.5123    magn:    4.2450    constr:    0.0000
     atom:    2    charge:    5.8871    magn:    0.1783    constr:    0.0000
     atom:    3    charge:   12.5156    magn:    4.2433    constr:    0.0000
     atom:    4    charge:    5.8855    magn:    0.1789    constr:    0.0000
     atom:    5    charge:   12.5182    magn:    4.2402    constr:    0.0000
     atom:    6    charge:    5.8827    magn:    0.1773    constr:    0.0000
     atom:    7    charge:   12.5181    magn:    4.2409    constr:    0.0000
     atom:    8    charge:    5.8753    magn:    0.1742    constr:    0.0000

     total cpu time spent up to now is     3009.5 secs

     End of self-consistent calculation
 --- enter write_ns ---
 LDA+U parameters:
U( 1)     =  3.00000000
alpha( 1) =  0.00000000
atom    1   Tr[ns(na)] (up, down, total) =   4.99251  0.45284  5.44535
   spin  1
    eigenvalues: 
  0.997  0.998  0.999  0.999  0.999
    eigenvectors:
  0.994  0.006  0.000  0.000  0.000
  0.000  0.000  0.009  0.146  0.846
  0.000  0.000  0.153  0.697  0.149
  0.006  0.994  0.000  0.000  0.000
  0.000  0.000  0.838  0.157  0.005
    occupations:
  0.997  0.000  0.000  0.000  0.000
  0.000  0.999 -0.000 -0.000 -0.000
  0.000 -0.000  0.999 -0.000 -0.000
  0.000 -0.000 -0.000  0.998  0.000
  0.000 -0.000 -0.000  0.000  0.999
   spin  2
    eigenvalues: 
  0.050  0.051  0.052  0.148  0.152
    eigenvectors:
  0.000  0.000  0.000  0.041  0.959
  0.004  0.066  0.930  0.000  0.000
  0.000  0.934  0.066  0.000  0.000
  0.000  0.000  0.000  0.959  0.041
  0.996  0.000  0.004  0.000  0.000
    occupations:
  0.152  0.000 -0.001 -0.001  0.001
  0.000  0.052 -0.000 -0.000 -0.000
 -0.001 -0.000  0.051 -0.000  0.000
 -0.001 -0.000 -0.000  0.148 -0.000
  0.001 -0.000  0.000 -0.000  0.050
atomic mag. moment =     4.539669
atom    3   Tr[ns(na)] (up, down, total) =   4.99220  0.45869  5.45089
   spin  1
    eigenvalues: 
  0.997  0.998  0.999  0.999  0.999
    eigenvectors:
  0.155  0.844  0.000  0.000  0.000
  0.000  0.000  0.955  0.007  0.038
  0.000  0.000  0.024  0.828  0.147
  0.844  0.155  0.000  0.000  0.000
  0.000  0.000  0.021  0.164  0.815
    occupations:
  0.998 -0.000 -0.000 -0.000 -0.000
 -0.000  0.999 -0.000 -0.000 -0.000
 -0.000 -0.000  0.999 -0.000  0.000
 -0.000 -0.000 -0.000  0.997 -0.000
 -0.000 -0.000  0.000 -0.000  0.999
   spin  2
    eigenvalues: 
  0.051  0.052  0.053  0.149  0.154
    eigenvectors:
  0.000  0.000  0.000  0.836  0.164
  0.999  0.001  0.000  0.000  0.000
  0.001  0.896  0.103  0.000  0.000
  0.000  0.000  0.000  0.164  0.836
  0.000  0.103  0.897  0.000  0.000
    occupations:
  0.150  0.000  0.001  0.002 -0.000
  0.000  0.051  0.000  0.001 -0.000
  0.001  0.000  0.052  0.001  0.000
  0.002  0.001  0.001  0.153  0.001
 -0.000 -0.000  0.000  0.001  0.053
atomic mag. moment =     4.533516
atom    5   Tr[ns(na)] (up, down, total) =   4.99107  0.46511  5.45618
   spin  1
    eigenvalues: 
  0.997  0.997  0.999  0.999  0.999
    eigenvectors:
  0.219  0.781  0.000  0.000  0.000
  0.000  0.000  0.123  0.073  0.803
  0.000  0.000  0.655  0.323  0.021
  0.781  0.219  0.000  0.000  0.000
  0.000  0.000  0.221  0.603  0.175
    occupations:
  0.997  0.000 -0.000  0.000  0.000
  0.000  0.999  0.000  0.000  0.000
 -0.000  0.000  0.999  0.000 -0.000
  0.000  0.000  0.000  0.997  0.000
  0.000  0.000 -0.000  0.000  0.999
   spin  2
    eigenvalues: 
  0.051  0.053  0.053  0.150  0.157
    eigenvectors:
  0.000  0.000  0.000  0.814  0.186
  0.005  0.940  0.055  0.000  0.000
  0.992  0.003  0.005  0.000  0.000
  0.000  0.000  0.000  0.186  0.814
  0.003  0.057  0.941  0.000  0.000
    occupations:
  0.152 -0.001  0.000 -0.003 -0.001
 -0.001  0.053  0.000  0.000 -0.000
  0.000  0.000  0.051  0.000 -0.000
 -0.003  0.000  0.000  0.156 -0.001
 -0.001 -0.000 -0.000 -0.001  0.053
atomic mag. moment =     4.525965
atom    7   Tr[ns(na)] (up, down, total) =   4.99086  0.46351  5.45438
   spin  1
    eigenvalues: 
  0.997  0.997  0.999  0.999  0.999
    eigenvectors:
  0.993  0.007  0.000  0.000  0.000
  0.000  0.000  0.336  0.518  0.146
  0.000  0.000  0.114  0.046  0.840
  0.007  0.992  0.000  0.000  0.001
  0.000  0.000  0.550  0.436  0.014
    occupations:
  0.997 -0.000 -0.000 -0.000  0.000
 -0.000  0.999  0.000  0.000  0.000
 -0.000  0.000  0.999  0.000 -0.000
 -0.000  0.000  0.000  0.997 -0.000
  0.000  0.000 -0.000 -0.000  0.999
   spin  2
    eigenvalues: 
  0.052  0.053  0.053  0.151  0.156
    eigenvectors:
  0.000  0.000  0.000  0.073  0.927
  0.035  0.964  0.001  0.000  0.000
  0.000  0.001  0.998  0.000  0.000
  0.000  0.000  0.000  0.927  0.073
  0.965  0.034  0.001  0.000  0.000
    occupations:
  0.155  0.001 -0.000  0.001  0.000
  0.001  0.052 -0.000 -0.001  0.000
 -0.000 -0.000  0.053 -0.001 -0.000
  0.001 -0.001 -0.001  0.151  0.001
  0.000  0.000 -0.000  0.001  0.052
atomic mag. moment =     4.527349
N of occupied +U levels =   21.806806
 --- exit write_ns ---

     Number of k-points >= 100: set verbosity='high' to print the bands.

     the Fermi energy is    12.4669 ev

!    total energy              =    -973.10580565 Ry
     Harris-Foulkes estimate   =    -973.10580565 Ry
     estimated scf accuracy    <          2.1E-10 Ry

     The total energy is the sum of the following terms:

     one-electron contribution =    -447.62740756 Ry
     hartree contribution      =     266.02299787 Ry
     xc contribution           =    -135.00706147 Ry
     ewald contribution        =    -656.67678630 Ry
     Hubbard energy            =       0.18256743 Ry
     smearing contrib. (-TS)   =      -0.00011561 Ry

     total magnetization       =    20.00 Bohr mag/cell
     absolute magnetization    =    20.00 Bohr mag/cell

     convergence has been achieved in  15 iterations

     Forces acting on atoms (Ry/au):


     negative rho (up, down):  0.000E+00 1.478E-03
     atom    1 type  1   force =   0.78630777E-02 -0.72630840E-02 -0.12723062E-01
     atom    2 type  2   force =  -0.51871780E-03 -0.85485576E-03  0.28096280E-02
     atom    3 type  1   force =  -0.18655424E-02  0.59662793E-03  0.51572968E-02
     atom    4 type  2   force =   0.60498964E-02 -0.41380350E-02 -0.56771925E-02
     atom    5 type  1   force =  -0.36190913E-02  0.63733156E-02  0.29980717E-02
     atom    6 type  2   force =  -0.27124321E-02 -0.13454238E-02 -0.31983172E-02
     atom    7 type  1   force =   0.32862543E-02 -0.16836208E-02  0.25616554E-02
     atom    8 type  2   force =  -0.84834448E-02  0.83150757E-02  0.80719196E-02

     Total force =     0.026652     Total SCF correction =     0.000096


     entering subroutine stress ...


     negative rho (up, down):  0.000E+00 1.478E-03
          total   stress  (Ry/bohr**3)                   (kbar)     P=    0.72
   0.0000052357   0.0000004755   0.0000004731          0.77      0.07      0.07
   0.0000004755   0.0000021426  -0.0000003449          0.07      0.32     -0.05
   0.0000004731  -0.0000003449   0.0000073763          0.07     -0.05      1.09


     Writing output data file mno_fm.scf.in.k.2.011.save

     init_run     :     56.58s CPU     64.73s WALL (       1 calls)
     electrons    :   2475.51s CPU   2944.61s WALL (       1 calls)
     forces       :    208.65s CPU    260.95s WALL (       1 calls)
     stress       :    387.44s CPU    425.74s WALL (       1 calls)

     Called by init_run:
     wfcinit      :     56.01s CPU     64.15s WALL (       1 calls)
     potinit      :      0.12s CPU      0.13s WALL (       1 calls)

     Called by electrons:
     c_bands      :   2245.09s CPU   2692.25s WALL (      15 calls)
     sum_band     :    227.69s CPU    249.61s WALL (      15 calls)
     v_of_rho     :      0.78s CPU      0.78s WALL (      16 calls)
     newd         :      1.52s CPU      1.53s WALL (      16 calls)
     mix_rho      :      0.48s CPU      0.48s WALL (      15 calls)

     Called by c_bands:
     init_us_2    :     14.89s CPU     15.73s WALL (   13376 calls)
     cegterg      :   2175.76s CPU   2616.86s WALL (    4560 calls)

     Called by *egterg:
     h_psi        :   1027.62s CPU   1170.81s WALL (   14783 calls)
     s_psi        :    101.81s CPU    112.60s WALL (   18127 calls)
     g_psi        :      1.81s CPU      1.80s WALL (    9919 calls)
     cdiaghg      :    425.72s CPU    594.55s WALL (   14479 calls)

     Called by h_psi:
     add_vuspsi   :     78.18s CPU     94.27s WALL (   14783 calls)
     vhpsi        :    154.17s CPU    228.81s WALL (   14783 calls)

     General routines
     calbec       :    931.70s CPU   1094.38s WALL (  135966 calls)
     fft          :      0.62s CPU      0.67s WALL (     530 calls)
     ffts         :      0.26s CPU      0.24s WALL (     380 calls)
     fftw         :    639.92s CPU    662.30s WALL ( 1624866 calls)
     interpolate  :      0.09s CPU      0.11s WALL (      62 calls)
     davcio       :      0.01s CPU      0.05s WALL (     304 calls)

     Parallel routines
     fft_scatter  :    345.45s CPU    359.78s WALL ( 1625776 calls)
     Hubbard U routines
     new_ns       :     42.30s CPU     51.11s WALL (      15 calls)
     vhpsi        :    154.17s CPU    228.81s WALL (   14783 calls)
     force_hub    :    193.44s CPU    243.01s WALL (       1 calls)
     stres_hub    :    365.11s CPU    402.09s WALL (       1 calls)

     PWSCF        :     0h52m CPU        1h 1m WALL


   This run was terminated on:   2:59:55  24Aug2017            

=------------------------------------------------------------------------------=
   JOB DONE.
=------------------------------------------------------------------------------=
