
     Program PWSCF v.5.1 starts on 24Aug2017 at  3:26: 7 

     This program is part of the open-source Quantum ESPRESSO suite
     for quantum simulation of materials; please cite
         "P. Giannozzi et al., J. Phys.:Condens. Matter 21 395502 (2009);
          URL http://www.quantum-espresso.org", 
     in publications or presentations arising from this work. More details at
     http://www.quantum-espresso.org/quote

     Parallel version (MPI), running on     8 processors
     R & G space division:  proc/nbgrp/npool/nimage =       8
     Reading input from /tmp/mno_fm.scf.in.k.6.02.3296/mno_fm.scf.in.k.6.02.t
Warning: card &IONS ignored
Warning: card   ION_DYNAMICS='BFGS', ignored
Warning: card / ignored
Warning: card &CELL ignored
Warning: card  CELL_DYNAMICS = 'BFGS' ignored
Warning: card / ignored

     Current dimensions of program PWSCF are:
     Max number of different atomic species (ntypx) = 10
     Max number of k-points (npk) =  40000
     Max angular momentum in pseudopotentials (lmaxx) =  3
 kfg - two_fermi_energies  T

     Subspace diagonalization in iterative solution of the eigenvalue problem:
     a serial algorithm will be used


     Parallelization info
     --------------------
     sticks:   dense  smooth     PW     G-vecs:    dense   smooth      PW
     Min         202     166     50                 3652     2694     444
     Max         204     167     52                 3653     2705     445
     Sum        1625    1331    405                29219    21595    3553

     Generating pointlists ...
     new r_m :   0.2023 (alat units)  1.7158 (a.u.) for type    1
     new r_m :   0.2023 (alat units)  1.7158 (a.u.) for type    2


     bravais-lattice index     =            0
     lattice parameter (alat)  =     8.482556848  a.u.
     unit-cell volume          =     610.3520 (a.u.)^3
     number of atoms/cell      =            8
     number of atomic types    =            2
     number of electrons       =        84.00 (up:  52.00, down:  32.00)
     number of Kohn-Sham states=           62
     kinetic-energy cutoff     =      41.0000  Ry
     charge density cutoff     =     200.0000  Ry
     convergence threshold     =      1.0E-08
     mixing beta               =       0.3000
     number of iterations used =            8  local-TF  mixing
     Exchange-correlation      = SLA  PW   PSX  PSC ( 1  4 10  8 0)
     A smooth kinetic-energy cutoff is imposed at      40.0000 Ry
     height of the smooth step-function =             800.0000 Ry
     width of the smooth step-function  =               1.0000 Ry


     celldm(1)=   8.482557  celldm(2)=   0.000000  celldm(3)=   0.000000
     celldm(4)=   0.000000  celldm(5)=   0.000000  celldm(6)=   0.000000

     crystal axes: (cart. coord. in units of alat)
               a(1) = (   1.000000000000   0.000000000000   0.000000000000 )  
               a(2) = (   0.000000000000   1.000000000000  -1.000000000000 )  
               a(3) = (   0.000000000000   0.500000000000   0.500000000000 )  

     reciprocal axes: (cart. coord. in units 2 pi/alat)
               b(1) = (  1.000000 -0.000000  0.000000 )  
               b(2) = (  0.000000  0.500000 -0.500000 )  
               b(3) = ( -0.000000  1.000000  1.000000 )  


     PseudoPot. # 1 for Mn read from file:
     /users/kfg/psuedo/gbrv_1.5/mn.pbesol.UPF
     MD5 check sum: 0716d5f563e6e95a34f9080f4c78c109
     Pseudo is Ultrasoft + core correction, Zval = 15.0
     Generated by new atomic code, or converted to UPF format
     Using radial grid of  859 points,  6 beta functions with: 
                l(1) =   0
                l(2) =   0
                l(3) =   1
                l(4) =   1
                l(5) =   2
                l(6) =   2
     Q(r) pseudized with  8 coefficients,  rinner =    0.950   0.950   0.950
                                                       0.950   0.950

     PseudoPot. # 2 for O  read from file:
     /users/kfg/psuedo/gbrv_1.5/o.pbesol.UPF
     MD5 check sum: 501638753501ef6325af9037351f7734
     Pseudo is Ultrasoft + core correction, Zval =  6.0
     Generated by new atomic code, or converted to UPF format
     Using radial grid of  737 points,  5 beta functions with: 
                l(1) =   0
                l(2) =   0
                l(3) =   1
                l(4) =   1
                l(5) =   2
     Q(r) pseudized with  8 coefficients,  rinner =    0.900   0.900   0.900
                                                       0.900   0.900

     atomic species   valence    mass     pseudopotential
        Mn            15.00    54.90000     Mn( 1.00)
        O              6.00    15.99900     O ( 1.00)

     Starting magnetic structure 
     atomic species   magnetization
        Mn           1.000
        O            0.000


     Simplified LDA+U calculation (l_max = 2) with parameters (eV):
     atomic species    L          U    alpha       J0     beta
        Mn             2     3.0000   0.0000   0.0000   0.0000



     No symmetry found



   Cartesian axes

     site n.     atom                  positions (alat units)
         1           Mn  tau(   1) = (   -0.00415202396   -0.00190517437   -0.00544481768  )
         2           O   tau(   2) = (    0.50087438350    0.00214900114   -0.00331314814  )
         3           Mn  tau(   3) = (    0.49802674206    0.99858702584   -0.50570419538  )
         4           O   tau(   4) = (    0.00157508467    0.99622300556   -0.49713622001  )
         5           Mn  tau(   5) = (    0.00141100404    0.49645010927   -0.50216390802  )
         6           O   tau(   6) = (    0.50141166874    0.50411778386   -0.49777582326  )
         7           Mn  tau(   7) = (    0.49900909153    0.50455887700    0.00376284747  )
         8           O   tau(   8) = (   -0.00310054783    0.50129009085    0.00420789874  )

     number of k points=   142  gaussian smearing, width (Ry)=  0.0100

     Number of k-points >= 100: set verbosity='high' to print them.

     Dense  grid:    29219 G-vectors     FFT dimensions: (  40,  60,  27)

     Smooth grid:    21595 G-vectors     FFT dimensions: (  36,  50,  25)

     Largest allocated arrays     est. size (Mb)     dimensions
        Kohn-Sham Wavefunctions         0.32 Mb     (     339,   62)
        Atomic Hubbard wavefuncts       0.10 Mb     (     339,   20)
        NL pseudopotentials             0.64 Mb     (     339,  124)
        Each V/rho on FFT grid          0.29 Mb     (    9600,   2)
        Each G-vector array             0.03 Mb     (    3653)
        G-vector shells                 0.00 Mb     (     615)
     Largest temporary arrays     est. size (Mb)     dimensions
        Auxiliary wavefunctions         1.28 Mb     (     339,  248)
        Each subspace H/S matrix        0.94 Mb     (     248,  248)
        Each <psi_i|beta_j> matrix      0.12 Mb     (     124,   62)
        Arrays for rho mixing           1.17 Mb     (    9600,    8)

     Check: negative/imaginary core charge=   -0.000057    0.000000

     Initial potential from superposition of free atoms

     starting charge   81.99968, renormalised to   84.00000
     Number of +U iterations with fixed ns =  0
     Starting occupations:
 --- enter write_ns ---
 LDA+U parameters:
U( 1)     =  3.00000000
alpha( 1) =  0.00000000
atom    1   Tr[ns(na)] (up, down, total) =   5.00000  0.00000  5.00000
   spin  1
    eigenvalues: 
  1.000  1.000  1.000  1.000  1.000
    eigenvectors:
  1.000  0.000  0.000  0.000  0.000
  0.000  1.000  0.000  0.000  0.000
  0.000  0.000  1.000  0.000  0.000
  0.000  0.000  0.000  1.000  0.000
  0.000  0.000  0.000  0.000  1.000
    occupations:
  1.000  0.000  0.000  0.000  0.000
  0.000  1.000  0.000  0.000  0.000
  0.000  0.000  1.000  0.000  0.000
  0.000  0.000  0.000  1.000  0.000
  0.000  0.000  0.000  0.000  1.000
   spin  2
    eigenvalues: 
  0.000  0.000  0.000  0.000  0.000
    eigenvectors:
  1.000  0.000  0.000  0.000  0.000
  0.000  1.000  0.000  0.000  0.000
  0.000  0.000  1.000  0.000  0.000
  0.000  0.000  0.000  1.000  0.000
  0.000  0.000  0.000  0.000  1.000
    occupations:
  0.000  0.000  0.000  0.000  0.000
  0.000  0.000  0.000  0.000  0.000
  0.000  0.000  0.000  0.000  0.000
  0.000  0.000  0.000  0.000  0.000
  0.000  0.000  0.000  0.000  0.000
atomic mag. moment =     5.000000
atom    3   Tr[ns(na)] (up, down, total) =   5.00000  0.00000  5.00000
   spin  1
    eigenvalues: 
  1.000  1.000  1.000  1.000  1.000
    eigenvectors:
  1.000  0.000  0.000  0.000  0.000
  0.000  1.000  0.000  0.000  0.000
  0.000  0.000  1.000  0.000  0.000
  0.000  0.000  0.000  1.000  0.000
  0.000  0.000  0.000  0.000  1.000
    occupations:
  1.000  0.000  0.000  0.000  0.000
  0.000  1.000  0.000  0.000  0.000
  0.000  0.000  1.000  0.000  0.000
  0.000  0.000  0.000  1.000  0.000
  0.000  0.000  0.000  0.000  1.000
   spin  2
    eigenvalues: 
  0.000  0.000  0.000  0.000  0.000
    eigenvectors:
  1.000  0.000  0.000  0.000  0.000
  0.000  1.000  0.000  0.000  0.000
  0.000  0.000  1.000  0.000  0.000
  0.000  0.000  0.000  1.000  0.000
  0.000  0.000  0.000  0.000  1.000
    occupations:
  0.000  0.000  0.000  0.000  0.000
  0.000  0.000  0.000  0.000  0.000
  0.000  0.000  0.000  0.000  0.000
  0.000  0.000  0.000  0.000  0.000
  0.000  0.000  0.000  0.000  0.000
atomic mag. moment =     5.000000
atom    5   Tr[ns(na)] (up, down, total) =   5.00000  0.00000  5.00000
   spin  1
    eigenvalues: 
  1.000  1.000  1.000  1.000  1.000
    eigenvectors:
  1.000  0.000  0.000  0.000  0.000
  0.000  1.000  0.000  0.000  0.000
  0.000  0.000  1.000  0.000  0.000
  0.000  0.000  0.000  1.000  0.000
  0.000  0.000  0.000  0.000  1.000
    occupations:
  1.000  0.000  0.000  0.000  0.000
  0.000  1.000  0.000  0.000  0.000
  0.000  0.000  1.000  0.000  0.000
  0.000  0.000  0.000  1.000  0.000
  0.000  0.000  0.000  0.000  1.000
   spin  2
    eigenvalues: 
  0.000  0.000  0.000  0.000  0.000
    eigenvectors:
  1.000  0.000  0.000  0.000  0.000
  0.000  1.000  0.000  0.000  0.000
  0.000  0.000  1.000  0.000  0.000
  0.000  0.000  0.000  1.000  0.000
  0.000  0.000  0.000  0.000  1.000
    occupations:
  0.000  0.000  0.000  0.000  0.000
  0.000  0.000  0.000  0.000  0.000
  0.000  0.000  0.000  0.000  0.000
  0.000  0.000  0.000  0.000  0.000
  0.000  0.000  0.000  0.000  0.000
atomic mag. moment =     5.000000
atom    7   Tr[ns(na)] (up, down, total) =   5.00000  0.00000  5.00000
   spin  1
    eigenvalues: 
  1.000  1.000  1.000  1.000  1.000
    eigenvectors:
  1.000  0.000  0.000  0.000  0.000
  0.000  1.000  0.000  0.000  0.000
  0.000  0.000  1.000  0.000  0.000
  0.000  0.000  0.000  1.000  0.000
  0.000  0.000  0.000  0.000  1.000
    occupations:
  1.000  0.000  0.000  0.000  0.000
  0.000  1.000  0.000  0.000  0.000
  0.000  0.000  1.000  0.000  0.000
  0.000  0.000  0.000  1.000  0.000
  0.000  0.000  0.000  0.000  1.000
   spin  2
    eigenvalues: 
  0.000  0.000  0.000  0.000  0.000
    eigenvectors:
  1.000  0.000  0.000  0.000  0.000
  0.000  1.000  0.000  0.000  0.000
  0.000  0.000  1.000  0.000  0.000
  0.000  0.000  0.000  1.000  0.000
  0.000  0.000  0.000  0.000  1.000
    occupations:
  0.000  0.000  0.000  0.000  0.000
  0.000  0.000  0.000  0.000  0.000
  0.000  0.000  0.000  0.000  0.000
  0.000  0.000  0.000  0.000  0.000
  0.000  0.000  0.000  0.000  0.000
atomic mag. moment =     5.000000
N of occupied +U levels =   20.000000
 --- exit write_ns ---
 Atomic wfc used for LDA+U Projector are NOT orthogonalized
     Starting wfc are   68 randomized atomic wfcs

     total cpu time spent up to now is       34.6 secs

     per-process dynamical memory:    73.6 Mb

     Self-consistent Calculation

     iteration #  1     ecut=    41.00 Ry     beta=0.30
     Davidson diagonalization with overlap
     ethr =  1.00E-02,  avg # of iterations =  3.3
 --- enter write_ns ---
 LDA+U parameters:
U( 1)     =  3.00000000
alpha( 1) =  0.00000000
atom    1   Tr[ns(na)] (up, down, total) =   4.98813  0.19231  5.18044
   spin  1
    eigenvalues: 
  0.997  0.997  0.998  0.998  0.998
    eigenvectors:
  0.878  0.122  0.000  0.000  0.000
  0.000  0.000  0.006  0.848  0.146
  0.000  0.000  0.983  0.013  0.004
  0.122  0.878  0.000  0.000  0.000
  0.000  0.000  0.010  0.140  0.850
    occupations:
  0.997  0.000 -0.000 -0.000 -0.000
  0.000  0.998 -0.000  0.000  0.000
 -0.000 -0.000  0.998 -0.000  0.000
 -0.000  0.000 -0.000  0.997  0.000
 -0.000  0.000  0.000  0.000  0.998
   spin  2
    eigenvalues: 
  0.020  0.020  0.021  0.065  0.066
    eigenvectors:
  0.000  0.000  0.000  0.147  0.852
  0.001  0.019  0.980  0.000  0.000
  0.038  0.945  0.017  0.000  0.000
  0.000  0.000  0.000  0.853  0.147
  0.961  0.036  0.003  0.000  0.000
    occupations:
  0.066 -0.000  0.000 -0.001  0.000
 -0.000  0.021 -0.000 -0.000  0.000
  0.000 -0.000  0.020  0.000 -0.000
 -0.001 -0.000  0.000  0.065  0.000
  0.000  0.000 -0.000  0.000  0.020
atomic mag. moment =     4.795823
atom    3   Tr[ns(na)] (up, down, total) =   4.98811  0.19211  5.18022
   spin  1
    eigenvalues: 
  0.997  0.997  0.998  0.998  0.998
    eigenvectors:
  0.648  0.352  0.000  0.000  0.000
  0.000  0.000  0.053  0.863  0.084
  0.000  0.000  0.937  0.062  0.001
  0.352  0.647  0.000  0.001  0.000
  0.000  0.000  0.010  0.075  0.915
    occupations:
  0.997 -0.000  0.000 -0.000  0.000
 -0.000  0.998 -0.000 -0.000 -0.000
  0.000 -0.000  0.998  0.000 -0.000
 -0.000 -0.000  0.000  0.997 -0.000
  0.000 -0.000 -0.000 -0.000  0.998
   spin  2
    eigenvalues: 
  0.020  0.020  0.021  0.065  0.066
    eigenvectors:
  0.000  0.000  0.000  0.980  0.020
  0.987  0.002  0.011  0.000  0.000
  0.002  0.996  0.002  0.000  0.000
  0.000  0.000  0.000  0.020  0.980
  0.011  0.002  0.987  0.000  0.000
    occupations:
  0.065 -0.000 -0.000  0.000  0.000
 -0.000  0.020  0.000  0.000  0.000
 -0.000  0.000  0.020 -0.000  0.000
  0.000  0.000 -0.000  0.066  0.000
  0.000  0.000  0.000  0.000  0.021
atomic mag. moment =     4.795995
atom    5   Tr[ns(na)] (up, down, total) =   4.98793  0.19474  5.18268
   spin  1
    eigenvalues: 
  0.996  0.997  0.998  0.998  0.998
    eigenvectors:
  0.701  0.299  0.000  0.000  0.000
  0.000  0.000  0.021  0.064  0.915
  0.000  0.000  0.929  0.064  0.006
  0.299  0.701  0.000  0.000  0.000
  0.000  0.000  0.050  0.872  0.078
    occupations:
  0.997 -0.000  0.000 -0.000  0.000
 -0.000  0.998  0.000 -0.000 -0.000
  0.000  0.000  0.998  0.000  0.000
 -0.000 -0.000  0.000  0.997  0.000
  0.000 -0.000  0.000  0.000  0.998
   spin  2
    eigenvalues: 
  0.021  0.021  0.021  0.066  0.067
    eigenvectors:
  0.000  0.000  0.000  0.809  0.190
  0.977  0.021  0.001  0.000  0.000
  0.014  0.812  0.174  0.000  0.000
  0.000  0.000  0.000  0.190  0.809
  0.009  0.166  0.825  0.000  0.000
    occupations:
  0.066  0.000 -0.000  0.001 -0.000
  0.000  0.021  0.000  0.000 -0.000
 -0.000  0.000  0.021 -0.000  0.000
  0.001  0.000 -0.000  0.067 -0.000
 -0.000 -0.000  0.000 -0.000  0.021
atomic mag. moment =     4.793188
atom    7   Tr[ns(na)] (up, down, total) =   4.98792  0.19478  5.18270
   spin  1
    eigenvalues: 
  0.996  0.997  0.998  0.998  0.998
    eigenvectors:
  0.843  0.157  0.000  0.000  0.000
  0.000  0.000  0.005  0.065  0.930
  0.000  0.000  0.237  0.697  0.066
  0.157  0.843  0.000  0.000  0.000
  0.000  0.000  0.758  0.238  0.004
    occupations:
  0.996  0.000 -0.000 -0.000 -0.000
  0.000  0.998  0.000  0.000  0.000
 -0.000  0.000  0.998 -0.000  0.000
 -0.000  0.000 -0.000  0.997  0.000
 -0.000  0.000  0.000  0.000  0.998
   spin  2
    eigenvalues: 
  0.020  0.021  0.021  0.065  0.067
    eigenvectors:
  0.000  0.000  0.000  0.013  0.987
  0.004  0.010  0.987  0.000  0.000
  0.000  0.990  0.010  0.000  0.000
  0.000  0.000  0.000  0.987  0.013
  0.996  0.001  0.004  0.000  0.000
    occupations:
  0.067  0.000  0.000 -0.000  0.000
  0.000  0.021 -0.000 -0.000 -0.000
  0.000 -0.000  0.021  0.000 -0.000
 -0.000 -0.000  0.000  0.065 -0.000
  0.000 -0.000 -0.000 -0.000  0.020
atomic mag. moment =     4.793132
N of occupied +U levels =   20.726033
 --- exit write_ns ---

     negative rho (up, down):  0.000E+00 6.988E-04

     Magnetic moment per site:
     atom:    1    charge:   12.7527    magn:   10.2215    constr:    0.0000
     atom:    2    charge:    5.6725    magn:    0.1820    constr:    0.0000
     atom:    3    charge:   12.7523    magn:   10.2214    constr:    0.0000
     atom:    4    charge:    5.6681    magn:    0.1782    constr:    0.0000
     atom:    5    charge:   12.7533    magn:   10.2214    constr:    0.0000
     atom:    6    charge:    5.6682    magn:    0.1788    constr:    0.0000
     atom:    7    charge:   12.7541    magn:   10.2218    constr:    0.0000
     atom:    8    charge:    5.6739    magn:    0.1830    constr:    0.0000

     total cpu time spent up to now is      236.9 secs

     total energy              =    -968.91495682 Ry
     Harris-Foulkes estimate   =    -960.52379071 Ry
     estimated scf accuracy    <      12.82448801 Ry

     total magnetization       =    20.00 Bohr mag/cell
     absolute magnetization    =    20.90 Bohr mag/cell

     iteration #  2     ecut=    41.00 Ry     beta=0.30
     Davidson diagonalization with overlap
     ethr =  1.00E-02,  avg # of iterations =  1.1

     negative rho (up, down):  0.000E+00 2.681E-03

     Magnetic moment per site:
     atom:    1    charge:   12.6394    magn:    4.5305    constr:    0.0000
     atom:    2    charge:    5.8942    magn:   -0.0500    constr:    0.0000
     atom:    3    charge:   12.6388    magn:    4.5308    constr:    0.0000
     atom:    4    charge:    5.8894    magn:   -0.0519    constr:    0.0000
     atom:    5    charge:   12.6394    magn:    4.5309    constr:    0.0000
     atom:    6    charge:    5.8897    magn:   -0.0511    constr:    0.0000
     atom:    7    charge:   12.6403    magn:    4.5309    constr:    0.0000
     atom:    8    charge:    5.8960    magn:   -0.0491    constr:    0.0000

     total cpu time spent up to now is      325.3 secs

     total energy              =    -972.82002434 Ry
     Harris-Foulkes estimate   =    -969.04625668 Ry
     estimated scf accuracy    <       6.32756009 Ry

     total magnetization       =    20.00 Bohr mag/cell
     absolute magnetization    =    20.61 Bohr mag/cell

     iteration #  3     ecut=    41.00 Ry     beta=0.30
     Davidson diagonalization with overlap
     ethr =  7.53E-03,  avg # of iterations =  1.9

     negative rho (up, down):  0.000E+00 2.960E-03

     Magnetic moment per site:
     atom:    1    charge:   12.5726    magn:    4.2716    constr:    0.0000
     atom:    2    charge:    5.8741    magn:    0.0618    constr:    0.0000
     atom:    3    charge:   12.5720    magn:    4.2720    constr:    0.0000
     atom:    4    charge:    5.8690    magn:    0.0595    constr:    0.0000
     atom:    5    charge:   12.5731    magn:    4.2711    constr:    0.0000
     atom:    6    charge:    5.8693    magn:    0.0604    constr:    0.0000
     atom:    7    charge:   12.5739    magn:    4.2711    constr:    0.0000
     atom:    8    charge:    5.8759    magn:    0.0629    constr:    0.0000

     total cpu time spent up to now is      427.5 secs

     total energy              =    -973.07752004 Ry
     Harris-Foulkes estimate   =    -973.12794772 Ry
     estimated scf accuracy    <       0.18367956 Ry

     total magnetization       =    20.00 Bohr mag/cell
     absolute magnetization    =    20.00 Bohr mag/cell

     iteration #  4     ecut=    41.00 Ry     beta=0.30
     Davidson diagonalization with overlap
     ethr =  2.19E-04,  avg # of iterations =  2.5

     negative rho (up, down):  0.000E+00 3.033E-03

     Magnetic moment per site:
     atom:    1    charge:   12.5594    magn:    4.1872    constr:    0.0000
     atom:    2    charge:    5.8821    magn:    0.0804    constr:    0.0000
     atom:    3    charge:   12.5587    magn:    4.1877    constr:    0.0000
     atom:    4    charge:    5.8770    magn:    0.0782    constr:    0.0000
     atom:    5    charge:   12.5599    magn:    4.1866    constr:    0.0000
     atom:    6    charge:    5.8773    magn:    0.0791    constr:    0.0000
     atom:    7    charge:   12.5608    magn:    4.1866    constr:    0.0000
     atom:    8    charge:    5.8839    magn:    0.0816    constr:    0.0000

     total cpu time spent up to now is      588.4 secs

     total energy              =    -973.10437902 Ry
     Harris-Foulkes estimate   =    -973.10620304 Ry
     estimated scf accuracy    <       0.01379018 Ry

     total magnetization       =    20.00 Bohr mag/cell
     absolute magnetization    =    20.00 Bohr mag/cell

     iteration #  5     ecut=    41.00 Ry     beta=0.30
     Davidson diagonalization with overlap
     ethr =  1.64E-05,  avg # of iterations =  2.5

     negative rho (up, down):  0.000E+00 3.123E-03

     Magnetic moment per site:
     atom:    1    charge:   12.5252    magn:    4.2554    constr:    0.0000
     atom:    2    charge:    5.8897    magn:    0.1563    constr:    0.0000
     atom:    3    charge:   12.5245    magn:    4.2561    constr:    0.0000
     atom:    4    charge:    5.8846    magn:    0.1539    constr:    0.0000
     atom:    5    charge:   12.5261    magn:    4.2546    constr:    0.0000
     atom:    6    charge:    5.8849    magn:    0.1549    constr:    0.0000
     atom:    7    charge:   12.5269    magn:    4.2544    constr:    0.0000
     atom:    8    charge:    5.8915    magn:    0.1575    constr:    0.0000

     total cpu time spent up to now is      695.2 secs

     total energy              =    -973.10479843 Ry
     Harris-Foulkes estimate   =    -973.10507677 Ry
     estimated scf accuracy    <       0.00619943 Ry

     total magnetization       =    20.00 Bohr mag/cell
     absolute magnetization    =    20.00 Bohr mag/cell
 kfg - setting two_fermi_energies to FALSE

     iteration #  6     ecut=    41.00 Ry     beta=0.30
     Davidson diagonalization with overlap
     ethr =  7.38E-06,  avg # of iterations =  2.1

     negative rho (up, down):  0.000E+00 3.121E-03

     Magnetic moment per site:
     atom:    1    charge:   12.5188    magn:    4.2555    constr:    0.0000
     atom:    2    charge:    5.8907    magn:    0.1719    constr:    0.0000
     atom:    3    charge:   12.5181    magn:    4.2563    constr:    0.0000
     atom:    4    charge:    5.8856    magn:    0.1696    constr:    0.0000
     atom:    5    charge:   12.5199    magn:    4.2546    constr:    0.0000
     atom:    6    charge:    5.8859    magn:    0.1707    constr:    0.0000
     atom:    7    charge:   12.5207    magn:    4.2545    constr:    0.0000
     atom:    8    charge:    5.8925    magn:    0.1731    constr:    0.0000

     total cpu time spent up to now is      852.2 secs

     total energy              =    -973.10617087 Ry
     Harris-Foulkes estimate   =    -973.10610618 Ry
     estimated scf accuracy    <       0.00024825 Ry

     total magnetization       =    20.00 Bohr mag/cell
     absolute magnetization    =    20.00 Bohr mag/cell

     iteration #  7     ecut=    41.00 Ry     beta=0.30
     Davidson diagonalization with overlap
     ethr =  2.96E-07,  avg # of iterations =  2.4

     negative rho (up, down):  0.000E+00 3.102E-03

     Magnetic moment per site:
     atom:    1    charge:   12.5186    magn:    4.2462    constr:    0.0000
     atom:    2    charge:    5.8903    magn:    0.1742    constr:    0.0000
     atom:    3    charge:   12.5179    magn:    4.2469    constr:    0.0000
     atom:    4    charge:    5.8852    magn:    0.1720    constr:    0.0000
     atom:    5    charge:   12.5198    magn:    4.2453    constr:    0.0000
     atom:    6    charge:    5.8854    magn:    0.1730    constr:    0.0000
     atom:    7    charge:   12.5205    magn:    4.2451    constr:    0.0000
     atom:    8    charge:    5.8921    magn:    0.1754    constr:    0.0000

     total cpu time spent up to now is      982.6 secs

     total energy              =    -973.10623961 Ry
     Harris-Foulkes estimate   =    -973.10622986 Ry
     estimated scf accuracy    <       0.00005554 Ry

     total magnetization       =    20.00 Bohr mag/cell
     absolute magnetization    =    20.00 Bohr mag/cell

     iteration #  8     ecut=    41.00 Ry     beta=0.30
     Davidson diagonalization with overlap
     ethr =  6.61E-08,  avg # of iterations =  1.5

     negative rho (up, down):  0.000E+00 3.070E-03

     Magnetic moment per site:
     atom:    1    charge:   12.5195    magn:    4.2447    constr:    0.0000
     atom:    2    charge:    5.8897    magn:    0.1767    constr:    0.0000
     atom:    3    charge:   12.5189    magn:    4.2454    constr:    0.0000
     atom:    4    charge:    5.8846    magn:    0.1745    constr:    0.0000
     atom:    5    charge:   12.5208    magn:    4.2439    constr:    0.0000
     atom:    6    charge:    5.8849    magn:    0.1755    constr:    0.0000
     atom:    7    charge:   12.5216    magn:    4.2437    constr:    0.0000
     atom:    8    charge:    5.8915    magn:    0.1778    constr:    0.0000

     total cpu time spent up to now is     1106.3 secs

     total energy              =    -973.10625012 Ry
     Harris-Foulkes estimate   =    -973.10624843 Ry
     estimated scf accuracy    <       0.00000636 Ry

     total magnetization       =    20.00 Bohr mag/cell
     absolute magnetization    =    20.00 Bohr mag/cell

     iteration #  9     ecut=    41.00 Ry     beta=0.30
     Davidson diagonalization with overlap
     ethr =  7.57E-09,  avg # of iterations =  2.0

     negative rho (up, down):  0.000E+00 3.067E-03

     Magnetic moment per site:
     atom:    1    charge:   12.5194    magn:    4.2446    constr:    0.0000
     atom:    2    charge:    5.8896    magn:    0.1778    constr:    0.0000
     atom:    3    charge:   12.5188    magn:    4.2453    constr:    0.0000
     atom:    4    charge:    5.8845    magn:    0.1757    constr:    0.0000
     atom:    5    charge:   12.5207    magn:    4.2438    constr:    0.0000
     atom:    6    charge:    5.8848    magn:    0.1767    constr:    0.0000
     atom:    7    charge:   12.5215    magn:    4.2436    constr:    0.0000
     atom:    8    charge:    5.8914    magn:    0.1789    constr:    0.0000

     total cpu time spent up to now is     1207.5 secs

     total energy              =    -973.10625193 Ry
     Harris-Foulkes estimate   =    -973.10625202 Ry
     estimated scf accuracy    <       0.00000133 Ry

     total magnetization       =    20.00 Bohr mag/cell
     absolute magnetization    =    20.00 Bohr mag/cell

     iteration # 10     ecut=    41.00 Ry     beta=0.30
     Davidson diagonalization with overlap
     ethr =  1.59E-09,  avg # of iterations =  2.0

     negative rho (up, down):  0.000E+00 3.071E-03

     Magnetic moment per site:
     atom:    1    charge:   12.5195    magn:    4.2445    constr:    0.0000
     atom:    2    charge:    5.8896    magn:    0.1780    constr:    0.0000
     atom:    3    charge:   12.5189    magn:    4.2453    constr:    0.0000
     atom:    4    charge:    5.8845    magn:    0.1759    constr:    0.0000
     atom:    5    charge:   12.5208    magn:    4.2437    constr:    0.0000
     atom:    6    charge:    5.8848    magn:    0.1769    constr:    0.0000
     atom:    7    charge:   12.5216    magn:    4.2435    constr:    0.0000
     atom:    8    charge:    5.8914    magn:    0.1791    constr:    0.0000

     total cpu time spent up to now is     1343.4 secs

     total energy              =    -973.10625236 Ry
     Harris-Foulkes estimate   =    -973.10625226 Ry
     estimated scf accuracy    <       0.00000007 Ry

     total magnetization       =    20.00 Bohr mag/cell
     absolute magnetization    =    20.00 Bohr mag/cell

     iteration # 11     ecut=    41.00 Ry     beta=0.30
     Davidson diagonalization with overlap
     ethr =  8.27E-11,  avg # of iterations =  2.0

     negative rho (up, down):  0.000E+00 3.072E-03

     Magnetic moment per site:
     atom:    1    charge:   12.5195    magn:    4.2446    constr:    0.0000
     atom:    2    charge:    5.8896    magn:    0.1779    constr:    0.0000
     atom:    3    charge:   12.5189    magn:    4.2453    constr:    0.0000
     atom:    4    charge:    5.8845    magn:    0.1758    constr:    0.0000
     atom:    5    charge:   12.5208    magn:    4.2438    constr:    0.0000
     atom:    6    charge:    5.8848    magn:    0.1767    constr:    0.0000
     atom:    7    charge:   12.5216    magn:    4.2436    constr:    0.0000
     atom:    8    charge:    5.8914    magn:    0.1790    constr:    0.0000

     total cpu time spent up to now is     1449.6 secs

     total energy              =    -973.10625242 Ry
     Harris-Foulkes estimate   =    -973.10625237 Ry
     estimated scf accuracy    <       0.00000002 Ry

     total magnetization       =    20.00 Bohr mag/cell
     absolute magnetization    =    20.00 Bohr mag/cell

     iteration # 12     ecut=    41.00 Ry     beta=0.30
     Davidson diagonalization with overlap
     ethr =  1.85E-11,  avg # of iterations =  1.6

     negative rho (up, down):  0.000E+00 3.071E-03

     Magnetic moment per site:
     atom:    1    charge:   12.5195    magn:    4.2446    constr:    0.0000
     atom:    2    charge:    5.8896    magn:    0.1779    constr:    0.0000
     atom:    3    charge:   12.5189    magn:    4.2453    constr:    0.0000
     atom:    4    charge:    5.8845    magn:    0.1758    constr:    0.0000
     atom:    5    charge:   12.5209    magn:    4.2437    constr:    0.0000
     atom:    6    charge:    5.8848    magn:    0.1768    constr:    0.0000
     atom:    7    charge:   12.5216    magn:    4.2436    constr:    0.0000
     atom:    8    charge:    5.8914    magn:    0.1790    constr:    0.0000

     total cpu time spent up to now is     1589.5 secs

     End of self-consistent calculation
 --- enter write_ns ---
 LDA+U parameters:
U( 1)     =  3.00000000
alpha( 1) =  0.00000000
atom    1   Tr[ns(na)] (up, down, total) =   4.99201  0.45877  5.45078
   spin  1
    eigenvalues: 
  0.997  0.998  0.999  0.999  0.999
    eigenvectors:
  0.921  0.078  0.000  0.000  0.000
  0.000  0.000  0.890  0.006  0.104
  0.000  0.000  0.001  0.976  0.023
  0.078  0.922  0.000  0.000  0.000
  0.000  0.000  0.109  0.017  0.874
    occupations:
  0.997  0.000 -0.000 -0.000 -0.000
  0.000  0.999 -0.000  0.000  0.000
 -0.000 -0.000  0.999 -0.000  0.000
 -0.000  0.000 -0.000  0.998 -0.000
 -0.000  0.000  0.000 -0.000  0.999
   spin  2
    eigenvalues: 
  0.051  0.052  0.053  0.150  0.153
    eigenvectors:
  0.000  0.000  0.000  0.098  0.902
  0.001  0.016  0.983  0.000  0.000
  0.016  0.969  0.015  0.000  0.000
  0.000  0.000  0.000  0.902  0.098
  0.984  0.014  0.002  0.000  0.000
    occupations:
  0.153 -0.000  0.001 -0.001  0.000
 -0.000  0.053 -0.000  0.000  0.000
  0.001 -0.000  0.052  0.000 -0.000
 -0.001  0.000  0.000  0.150  0.000
  0.000  0.000 -0.000  0.000  0.051
atomic mag. moment =     4.533234
atom    3   Tr[ns(na)] (up, down, total) =   4.99196  0.45755  5.44950
   spin  1
    eigenvalues: 
  0.997  0.998  0.999  0.999  0.999
    eigenvectors:
  0.583  0.417  0.000  0.000  0.000
  0.000  0.000  0.320  0.234  0.446
  0.000  0.000  0.503  0.488  0.009
  0.417  0.583  0.000  0.000  0.000
  0.000  0.000  0.177  0.278  0.545
    occupations:
  0.997 -0.000  0.000 -0.000  0.000
 -0.000  0.999 -0.000 -0.000 -0.000
  0.000 -0.000  0.999  0.000 -0.000
 -0.000 -0.000  0.000  0.997 -0.000
  0.000 -0.000 -0.000 -0.000  0.999
   spin  2
    eigenvalues: 
  0.051  0.052  0.052  0.149  0.153
    eigenvectors:
  0.000  0.000  0.000  0.988  0.012
  0.962  0.029  0.009  0.000  0.000
  0.032  0.960  0.009  0.000  0.000
  0.000  0.000  0.000  0.012  0.988
  0.006  0.012  0.982  0.000  0.000
    occupations:
  0.149  0.000 -0.000  0.000 -0.000
  0.000  0.051  0.000  0.000  0.000
 -0.000  0.000  0.052 -0.001  0.000
  0.000  0.000 -0.001  0.153  0.000
 -0.000  0.000  0.000  0.000  0.052
atomic mag. moment =     4.534408
atom    5   Tr[ns(na)] (up, down, total) =   4.99153  0.46142  5.45295
   spin  1
    eigenvalues: 
  0.997  0.998  0.999  0.999  0.999
    eigenvectors:
  0.681  0.319  0.000  0.000  0.000
  0.000  0.000  0.014  0.044  0.941
  0.000  0.000  0.002  0.952  0.047
  0.318  0.681  0.000  0.000  0.000
  0.000  0.000  0.984  0.004  0.012
    occupations:
  0.997 -0.000  0.000 -0.000  0.000
 -0.000  0.999  0.000 -0.000 -0.000
  0.000  0.000  0.999  0.000  0.000
 -0.000 -0.000  0.000  0.997  0.000
  0.000 -0.000  0.000  0.000  0.999
   spin  2
    eigenvalues: 
  0.052  0.052  0.053  0.151  0.154
    eigenvectors:
  0.000  0.000  0.000  0.873  0.127
  0.986  0.014  0.000  0.000  0.000
  0.013  0.935  0.052  0.000  0.000
  0.000  0.000  0.000  0.127  0.873
  0.001  0.051  0.948  0.000  0.000
    occupations:
  0.151  0.000 -0.001  0.001 -0.000
  0.000  0.052  0.000  0.000 -0.000
 -0.001  0.000  0.052 -0.000  0.000
  0.001  0.000 -0.000  0.154 -0.000
 -0.000 -0.000  0.000 -0.000  0.053
atomic mag. moment =     4.530104
atom    7   Tr[ns(na)] (up, down, total) =   4.99162  0.46217  5.45379
   spin  1
    eigenvalues: 
  0.997  0.998  0.999  0.999  0.999
    eigenvectors:
  0.870  0.130  0.000  0.000  0.000
  0.000  0.000  0.152  0.718  0.130
  0.000  0.000  0.010  0.183  0.807
  0.130  0.870  0.000  0.000  0.000
  0.000  0.000  0.838  0.099  0.063
    occupations:
  0.997  0.000 -0.000 -0.000 -0.000
  0.000  0.999  0.000  0.000  0.000
 -0.000  0.000  0.999 -0.000  0.000
 -0.000  0.000 -0.000  0.997  0.000
 -0.000  0.000  0.000  0.000  0.999
   spin  2
    eigenvalues: 
  0.051  0.052  0.053  0.151  0.155
    eigenvectors:
  0.000  0.000  0.000  0.009  0.991
  0.002  0.056  0.942  0.000  0.000
  0.003  0.939  0.057  0.000  0.000
  0.000  0.000  0.000  0.991  0.009
  0.995  0.004  0.001  0.000  0.000
    occupations:
  0.155 -0.000  0.001 -0.000  0.000
 -0.000  0.053 -0.000 -0.000 -0.000
  0.001 -0.000  0.052  0.001 -0.000
 -0.000 -0.000  0.001  0.151  0.000
  0.000 -0.000 -0.000  0.000  0.051
atomic mag. moment =     4.529454
N of occupied +U levels =   21.807022
 --- exit write_ns ---

     Number of k-points >= 100: set verbosity='high' to print the bands.

     the Fermi energy is    12.4169 ev

!    total energy              =    -973.10625247 Ry
     Harris-Foulkes estimate   =    -973.10625242 Ry
     estimated scf accuracy    <          3.3E-09 Ry

     The total energy is the sum of the following terms:

     one-electron contribution =    -447.57002982 Ry
     hartree contribution      =     265.99670478 Ry
     xc contribution           =    -135.00748991 Ry
     ewald contribution        =    -656.70783835 Ry
     Hubbard energy            =       0.18250216 Ry
     smearing contrib. (-TS)   =      -0.00010133 Ry

     total magnetization       =    20.00 Bohr mag/cell
     absolute magnetization    =    20.00 Bohr mag/cell

     convergence has been achieved in  12 iterations

     Forces acting on atoms (Ry/au):


     negative rho (up, down):  0.000E+00 3.071E-03
     atom    1 type  1   force =   0.38811764E-02 -0.42236293E-03  0.69251008E-02
     atom    2 type  2   force =  -0.28465505E-02 -0.18793927E-02  0.27662171E-02
     atom    3 type  1   force =   0.19547191E-02 -0.90886798E-03  0.45978880E-02
     atom    4 type  2   force =  -0.17992908E-02  0.33544310E-02 -0.56459811E-02
     atom    5 type  1   force =  -0.22331296E-02  0.47952753E-02  0.11398972E-02
     atom    6 type  2   force =  -0.15528016E-02 -0.21610736E-02 -0.10785701E-02
     atom    7 type  1   force =  -0.59741771E-03 -0.41290052E-03 -0.58885346E-02
     atom    8 type  2   force =   0.31932946E-02 -0.23651085E-02 -0.28160172E-02

     Total force =     0.015846     Total SCF correction =     0.000397


     entering subroutine stress ...


     negative rho (up, down):  0.000E+00 3.071E-03
          total   stress  (Ry/bohr**3)                   (kbar)     P=    0.55
   0.0000053860   0.0000002427  -0.0000004305          0.79      0.04     -0.06
   0.0000002427  -0.0000015706   0.0000002758          0.04     -0.23      0.04
  -0.0000004305   0.0000002758   0.0000074575         -0.06      0.04      1.10


     Writing output data file mno_fm.scf.in.k.6.022.save

     init_run     :     29.69s CPU     34.36s WALL (       1 calls)
     electrons    :   1216.89s CPU   1554.93s WALL (       1 calls)
     forces       :    192.79s CPU    255.36s WALL (       1 calls)
     stress       :    499.40s CPU    649.62s WALL (       1 calls)

     Called by init_run:
     wfcinit      :     29.19s CPU     33.85s WALL (       1 calls)
     potinit      :      0.09s CPU      0.10s WALL (       1 calls)

     Called by electrons:
     c_bands      :   1100.54s CPU   1418.10s WALL (      12 calls)
     sum_band     :    114.29s CPU    134.72s WALL (      12 calls)
     v_of_rho     :      0.64s CPU      0.65s WALL (      13 calls)
     newd         :      1.09s CPU      1.09s WALL (      13 calls)
     mix_rho      :      0.36s CPU      0.37s WALL (      12 calls)

     Called by c_bands:
     init_us_2    :      6.29s CPU      6.27s WALL (    5396 calls)
     cegterg      :   1065.43s CPU   1379.15s WALL (    1704 calls)

     Called by *egterg:
     h_psi        :    558.57s CPU    677.67s WALL (    5396 calls)
     s_psi        :     31.54s CPU     40.02s WALL (    6958 calls)
     g_psi        :      1.20s CPU      1.18s WALL (    3550 calls)
     cdiaghg      :    163.25s CPU    275.57s WALL (    5254 calls)

     Called by h_psi:
     add_vuspsi   :     22.50s CPU     28.87s WALL (    5396 calls)
     vhpsi        :     89.37s CPU    140.14s WALL (    5396 calls)

     General routines
     calbec       :    856.66s CPU   1118.93s WALL (   59640 calls)
     fft          :      0.40s CPU      0.41s WALL (     437 calls)
     ffts         :      0.20s CPU      0.18s WALL (     301 calls)
     fftw         :    379.64s CPU    421.60s WALL (  600776 calls)
     interpolate  :      0.08s CPU      0.09s WALL (      50 calls)
     davcio       :      0.03s CPU      0.40s WALL (     142 calls)

     Parallel routines
     fft_scatter  :    263.97s CPU    302.48s WALL (  601514 calls)
     Hubbard U routines
     new_ns       :     26.03s CPU     33.60s WALL (      12 calls)
     vhpsi        :     89.37s CPU    140.14s WALL (    5396 calls)
     force_hub    :    186.02s CPU    247.80s WALL (       1 calls)
     stres_hub    :    486.27s CPU    634.63s WALL (       1 calls)

     PWSCF        : 32m22.37s CPU    41m39.20s WALL


   This run was terminated on:   4: 7:47  24Aug2017            

=------------------------------------------------------------------------------=
   JOB DONE.
=------------------------------------------------------------------------------=
