
     Program PWSCF v.5.1 starts on 24Aug2017 at  3: 2:10 

     This program is part of the open-source Quantum ESPRESSO suite
     for quantum simulation of materials; please cite
         "P. Giannozzi et al., J. Phys.:Condens. Matter 21 395502 (2009);
          URL http://www.quantum-espresso.org", 
     in publications or presentations arising from this work. More details at
     http://www.quantum-espresso.org/quote

     Parallel version (MPI), running on     8 processors
     R & G space division:  proc/nbgrp/npool/nimage =       8
     Reading input from /tmp/mno_fm.scf.in.k.5.01.3313/mno_fm.scf.in.k.5.01.t
Warning: card &IONS ignored
Warning: card   ION_DYNAMICS='BFGS', ignored
Warning: card / ignored
Warning: card &CELL ignored
Warning: card  CELL_DYNAMICS = 'BFGS' ignored
Warning: card / ignored

     Current dimensions of program PWSCF are:
     Max number of different atomic species (ntypx) = 10
     Max number of k-points (npk) =  40000
     Max angular momentum in pseudopotentials (lmaxx) =  3
 kfg - two_fermi_energies  T

     Subspace diagonalization in iterative solution of the eigenvalue problem:
     a serial algorithm will be used

     warning: symmetry operation #  2 not compatible with FFT grid. 
  -1   0   0
   0  -1   1
   0   0   1
     warning: symmetry operation #  4 not compatible with FFT grid. 
   1   0   0
   0   1  -1
   0   0  -1

     Parallelization info
     --------------------
     sticks:   dense  smooth     PW     G-vecs:    dense   smooth      PW
     Min         212     174     52                 3651     2697     460
     Max         213     175     53                 3653     2708     461
     Sum        1697    1397    423                29215    21599    3687

     Generating pointlists ...
     new r_m :   0.1650 (alat units)  1.7137 (a.u.) for type    1
     new r_m :   0.1650 (alat units)  1.7137 (a.u.) for type    2


     bravais-lattice index     =            0
     lattice parameter (alat)  =    10.388967996  a.u.
     unit-cell volume          =     610.3520 (a.u.)^3
     number of atoms/cell      =            8
     number of atomic types    =            2
     number of electrons       =        84.00 (up:  52.00, down:  32.00)
     number of Kohn-Sham states=           62
     kinetic-energy cutoff     =      41.0000  Ry
     charge density cutoff     =     200.0000  Ry
     convergence threshold     =      1.0E-08
     mixing beta               =       0.3000
     number of iterations used =            8  local-TF  mixing
     Exchange-correlation      = SLA  PW   PSX  PSC ( 1  4 10  8 0)
     A smooth kinetic-energy cutoff is imposed at      40.0000 Ry
     height of the smooth step-function =             800.0000 Ry
     width of the smooth step-function  =               1.0000 Ry


     celldm(1)=  10.388968  celldm(2)=   0.000000  celldm(3)=   0.000000
     celldm(4)=   0.000000  celldm(5)=   0.000000  celldm(6)=   0.000000

     crystal axes: (cart. coord. in units of alat)
               a(1) = (   0.816496580928   0.408248290464  -0.408248290464 )  
               a(2) = (  -0.408248290464   0.816496580928  -0.408248290464 )  
               a(3) = (   0.000000000000   0.408248290464   0.408248290464 )  

     reciprocal axes: (cart. coord. in units 2 pi/alat)
               b(1) = (  0.918559  0.306186 -0.306186 )  
               b(2) = ( -0.612372  0.612372 -0.612372 )  
               b(3) = (  0.306186  0.918559  1.530931 )  


     PseudoPot. # 1 for Mn read from file:
     /users/kfg/psuedo/gbrv_1.5/mn.pbesol.UPF
     MD5 check sum: 0716d5f563e6e95a34f9080f4c78c109
     Pseudo is Ultrasoft + core correction, Zval = 15.0
     Generated by new atomic code, or converted to UPF format
     Using radial grid of  859 points,  6 beta functions with: 
                l(1) =   0
                l(2) =   0
                l(3) =   1
                l(4) =   1
                l(5) =   2
                l(6) =   2
     Q(r) pseudized with  8 coefficients,  rinner =    0.950   0.950   0.950
                                                       0.950   0.950

     PseudoPot. # 2 for O  read from file:
     /users/kfg/psuedo/gbrv_1.5/o.pbesol.UPF
     MD5 check sum: 501638753501ef6325af9037351f7734
     Pseudo is Ultrasoft + core correction, Zval =  6.0
     Generated by new atomic code, or converted to UPF format
     Using radial grid of  737 points,  5 beta functions with: 
                l(1) =   0
                l(2) =   0
                l(3) =   1
                l(4) =   1
                l(5) =   2
     Q(r) pseudized with  8 coefficients,  rinner =    0.900   0.900   0.900
                                                       0.900   0.900

     atomic species   valence    mass     pseudopotential
        Mn            15.00    54.90000     Mn( 1.00)
        O              6.00    15.99900     O ( 1.00)

     Starting magnetic structure 
     atomic species   magnetization
        Mn           1.000
        O            0.000


     Simplified LDA+U calculation (l_max = 2) with parameters (eV):
     atomic species    L          U    alpha       J0     beta
        Mn             2     3.0000   0.0000   0.0000   0.0000



     No symmetry found



   Cartesian axes

     site n.     atom                  positions (alat units)
         1           Mn  tau(   1) = (   -0.00163134734   -0.00276433904    0.00409591276  )
         2           O   tau(   2) = (    0.00165795550    0.81469638992   -0.40427145846  )
         3           Mn  tau(   3) = (   -0.00009456255    0.81252434012   -0.00019261131  )
         4           O   tau(   4) = (    0.40931528673    0.81513317488   -0.00093678113  )
         5           Mn  tau(   5) = (    0.40519668790    0.40409777945   -0.00002966553  )
         6           O   tau(   6) = (    0.40745655615    1.22403343441   -0.40513607841  )
         7           Mn  tau(   7) = (    0.41214428790    0.82044885396   -0.40551198882  )
         8           O   tau(   8) = (    0.00318208805    0.41265355275    0.00015042882  )

     number of k points=   212  gaussian smearing, width (Ry)=  0.0100

     Number of k-points >= 100: set verbosity='high' to print them.

     Dense  grid:    29215 G-vectors     FFT dimensions: (  48,  48,  27)

     Smooth grid:    21599 G-vectors     FFT dimensions: (  45,  45,  25)

     Largest allocated arrays     est. size (Mb)     dimensions
        Kohn-Sham Wavefunctions         0.33 Mb     (     346,   62)
        Atomic Hubbard wavefuncts       0.11 Mb     (     346,   20)
        NL pseudopotentials             0.65 Mb     (     346,  124)
        Each V/rho on FFT grid          0.28 Mb     (    9216,   2)
        Each G-vector array             0.03 Mb     (    3653)
        G-vector shells                 0.01 Mb     (     915)
     Largest temporary arrays     est. size (Mb)     dimensions
        Auxiliary wavefunctions         1.31 Mb     (     346,  248)
        Each subspace H/S matrix        0.94 Mb     (     248,  248)
        Each <psi_i|beta_j> matrix      0.12 Mb     (     124,   62)
        Arrays for rho mixing           1.13 Mb     (    9216,    8)

     Check: negative/imaginary core charge=   -0.000057    0.000000

     Initial potential from superposition of free atoms

     starting charge   81.99968, renormalised to   84.00000
     Number of +U iterations with fixed ns =  0
     Starting occupations:
 --- enter write_ns ---
 LDA+U parameters:
U( 1)     =  3.00000000
alpha( 1) =  0.00000000
atom    1   Tr[ns(na)] (up, down, total) =   5.00000  0.00000  5.00000
   spin  1
    eigenvalues: 
  1.000  1.000  1.000  1.000  1.000
    eigenvectors:
  1.000  0.000  0.000  0.000  0.000
  0.000  1.000  0.000  0.000  0.000
  0.000  0.000  1.000  0.000  0.000
  0.000  0.000  0.000  1.000  0.000
  0.000  0.000  0.000  0.000  1.000
    occupations:
  1.000  0.000  0.000  0.000  0.000
  0.000  1.000  0.000  0.000  0.000
  0.000  0.000  1.000  0.000  0.000
  0.000  0.000  0.000  1.000  0.000
  0.000  0.000  0.000  0.000  1.000
   spin  2
    eigenvalues: 
  0.000  0.000  0.000  0.000  0.000
    eigenvectors:
  1.000  0.000  0.000  0.000  0.000
  0.000  1.000  0.000  0.000  0.000
  0.000  0.000  1.000  0.000  0.000
  0.000  0.000  0.000  1.000  0.000
  0.000  0.000  0.000  0.000  1.000
    occupations:
  0.000  0.000  0.000  0.000  0.000
  0.000  0.000  0.000  0.000  0.000
  0.000  0.000  0.000  0.000  0.000
  0.000  0.000  0.000  0.000  0.000
  0.000  0.000  0.000  0.000  0.000
atomic mag. moment =     5.000000
atom    3   Tr[ns(na)] (up, down, total) =   5.00000  0.00000  5.00000
   spin  1
    eigenvalues: 
  1.000  1.000  1.000  1.000  1.000
    eigenvectors:
  1.000  0.000  0.000  0.000  0.000
  0.000  1.000  0.000  0.000  0.000
  0.000  0.000  1.000  0.000  0.000
  0.000  0.000  0.000  1.000  0.000
  0.000  0.000  0.000  0.000  1.000
    occupations:
  1.000  0.000  0.000  0.000  0.000
  0.000  1.000  0.000  0.000  0.000
  0.000  0.000  1.000  0.000  0.000
  0.000  0.000  0.000  1.000  0.000
  0.000  0.000  0.000  0.000  1.000
   spin  2
    eigenvalues: 
  0.000  0.000  0.000  0.000  0.000
    eigenvectors:
  1.000  0.000  0.000  0.000  0.000
  0.000  1.000  0.000  0.000  0.000
  0.000  0.000  1.000  0.000  0.000
  0.000  0.000  0.000  1.000  0.000
  0.000  0.000  0.000  0.000  1.000
    occupations:
  0.000  0.000  0.000  0.000  0.000
  0.000  0.000  0.000  0.000  0.000
  0.000  0.000  0.000  0.000  0.000
  0.000  0.000  0.000  0.000  0.000
  0.000  0.000  0.000  0.000  0.000
atomic mag. moment =     5.000000
atom    5   Tr[ns(na)] (up, down, total) =   5.00000  0.00000  5.00000
   spin  1
    eigenvalues: 
  1.000  1.000  1.000  1.000  1.000
    eigenvectors:
  1.000  0.000  0.000  0.000  0.000
  0.000  1.000  0.000  0.000  0.000
  0.000  0.000  1.000  0.000  0.000
  0.000  0.000  0.000  1.000  0.000
  0.000  0.000  0.000  0.000  1.000
    occupations:
  1.000  0.000  0.000  0.000  0.000
  0.000  1.000  0.000  0.000  0.000
  0.000  0.000  1.000  0.000  0.000
  0.000  0.000  0.000  1.000  0.000
  0.000  0.000  0.000  0.000  1.000
   spin  2
    eigenvalues: 
  0.000  0.000  0.000  0.000  0.000
    eigenvectors:
  1.000  0.000  0.000  0.000  0.000
  0.000  1.000  0.000  0.000  0.000
  0.000  0.000  1.000  0.000  0.000
  0.000  0.000  0.000  1.000  0.000
  0.000  0.000  0.000  0.000  1.000
    occupations:
  0.000  0.000  0.000  0.000  0.000
  0.000  0.000  0.000  0.000  0.000
  0.000  0.000  0.000  0.000  0.000
  0.000  0.000  0.000  0.000  0.000
  0.000  0.000  0.000  0.000  0.000
atomic mag. moment =     5.000000
atom    7   Tr[ns(na)] (up, down, total) =   5.00000  0.00000  5.00000
   spin  1
    eigenvalues: 
  1.000  1.000  1.000  1.000  1.000
    eigenvectors:
  1.000  0.000  0.000  0.000  0.000
  0.000  1.000  0.000  0.000  0.000
  0.000  0.000  1.000  0.000  0.000
  0.000  0.000  0.000  1.000  0.000
  0.000  0.000  0.000  0.000  1.000
    occupations:
  1.000  0.000  0.000  0.000  0.000
  0.000  1.000  0.000  0.000  0.000
  0.000  0.000  1.000  0.000  0.000
  0.000  0.000  0.000  1.000  0.000
  0.000  0.000  0.000  0.000  1.000
   spin  2
    eigenvalues: 
  0.000  0.000  0.000  0.000  0.000
    eigenvectors:
  1.000  0.000  0.000  0.000  0.000
  0.000  1.000  0.000  0.000  0.000
  0.000  0.000  1.000  0.000  0.000
  0.000  0.000  0.000  1.000  0.000
  0.000  0.000  0.000  0.000  1.000
    occupations:
  0.000  0.000  0.000  0.000  0.000
  0.000  0.000  0.000  0.000  0.000
  0.000  0.000  0.000  0.000  0.000
  0.000  0.000  0.000  0.000  0.000
  0.000  0.000  0.000  0.000  0.000
atomic mag. moment =     5.000000
N of occupied +U levels =   20.000000
 --- exit write_ns ---
 Atomic wfc used for LDA+U Projector are NOT orthogonalized
     Starting wfc are   68 randomized atomic wfcs

     total cpu time spent up to now is       38.5 secs

     Self-consistent Calculation

     iteration #  1     ecut=    41.00 Ry     beta=0.30
     Davidson diagonalization with overlap
     ethr =  1.00E-02,  avg # of iterations =  3.4
 --- enter write_ns ---
 LDA+U parameters:
U( 1)     =  3.00000000
alpha( 1) =  0.00000000
atom    1   Tr[ns(na)] (up, down, total) =   4.98824  0.18949  5.17773
   spin  1
    eigenvalues: 
  0.997  0.997  0.998  0.998  0.998
    eigenvectors:
  0.480  0.520  0.000  0.000  0.000
  0.001  0.000  0.008  0.576  0.415
  0.000  0.000  0.990  0.009  0.001
  0.519  0.480  0.000  0.000  0.000
  0.000  0.000  0.002  0.415  0.584
    occupations:
  0.997 -0.000 -0.000  0.000  0.000
 -0.000  0.998  0.000  0.000 -0.000
 -0.000  0.000  0.998 -0.000  0.000
  0.000  0.000 -0.000  0.997  0.000
  0.000 -0.000  0.000  0.000  0.998
   spin  2
    eigenvalues: 
  0.020  0.020  0.020  0.064  0.065
    eigenvectors:
  0.000  0.000  0.000  0.561  0.439
  0.007  0.134  0.859  0.000  0.000
  0.978  0.020  0.001  0.000  0.000
  0.000  0.000  0.000  0.439  0.561
  0.014  0.846  0.140  0.000  0.000
    occupations:
  0.064  0.000  0.000 -0.001 -0.000
  0.000  0.020  0.000 -0.000  0.000
  0.000  0.000  0.020 -0.000 -0.000
 -0.001 -0.000 -0.000  0.065 -0.000
 -0.000  0.000 -0.000 -0.000  0.020
atomic mag. moment =     4.798754
atom    3   Tr[ns(na)] (up, down, total) =   4.98730  0.19735  5.18465
   spin  1
    eigenvalues: 
  0.996  0.997  0.998  0.998  0.998
    eigenvectors:
  0.357  0.643  0.000  0.000  0.000
  0.000  0.000  0.891  0.082  0.027
  0.000  0.000  0.002  0.367  0.630
  0.643  0.356  0.000  0.000  0.000
  0.000  0.000  0.107  0.550  0.343
    occupations:
  0.996 -0.000  0.000 -0.000 -0.000
 -0.000  0.998  0.000  0.000 -0.000
  0.000  0.000  0.998 -0.000  0.000
 -0.000  0.000 -0.000  0.996 -0.000
 -0.000 -0.000  0.000 -0.000  0.998
   spin  2
    eigenvalues: 
  0.021  0.021  0.022  0.066  0.068
    eigenvectors:
  0.000  0.000  0.000  0.404  0.596
  0.895  0.103  0.002  0.000  0.000
  0.001  0.002  0.997  0.000  0.000
  0.000  0.000  0.000  0.596  0.404
  0.104  0.896  0.001  0.000  0.000
    occupations:
  0.067 -0.000 -0.000  0.001  0.000
 -0.000  0.021 -0.000  0.000 -0.000
 -0.000 -0.000  0.022  0.000  0.000
  0.001  0.000  0.000  0.067  0.000
  0.000 -0.000  0.000  0.000  0.021
atomic mag. moment =     4.789945
atom    5   Tr[ns(na)] (up, down, total) =   4.98788  0.19278  5.18066
   spin  1
    eigenvalues: 
  0.997  0.997  0.998  0.998  0.998
    eigenvectors:
  0.100  0.898  0.000  0.001  0.000
  0.000  0.000  0.050  0.071  0.878
  0.000  0.000  0.925  0.009  0.066
  0.899  0.101  0.000  0.000  0.000
  0.000  0.001  0.025  0.919  0.055
    occupations:
  0.997  0.000  0.000  0.000 -0.000
  0.000  0.998 -0.000 -0.000 -0.000
  0.000 -0.000  0.998 -0.000 -0.000
  0.000 -0.000 -0.000  0.997  0.000
 -0.000 -0.000 -0.000  0.000  0.998
   spin  2
    eigenvalues: 
  0.020  0.021  0.021  0.064  0.067
    eigenvectors:
  0.000  0.000  0.000  0.937  0.063
  0.037  0.949  0.014  0.000  0.000
  0.962  0.035  0.003  0.000  0.000
  0.000  0.000  0.000  0.063  0.937
  0.001  0.016  0.983  0.000  0.000
    occupations:
  0.065  0.000 -0.000 -0.001  0.000
  0.000  0.021 -0.000 -0.000  0.000
 -0.000 -0.000  0.020 -0.000 -0.000
 -0.001 -0.000 -0.000  0.067 -0.000
  0.000  0.000 -0.000 -0.000  0.021
atomic mag. moment =     4.795104
atom    7   Tr[ns(na)] (up, down, total) =   4.98766  0.19425  5.18191
   spin  1
    eigenvalues: 
  0.997  0.997  0.998  0.998  0.998
    eigenvectors:
  0.959  0.041  0.000  0.000  0.000
  0.000  0.000  0.025  0.113  0.862
  0.000  0.000  0.909  0.088  0.003
  0.041  0.958  0.000  0.001  0.000
  0.000  0.001  0.066  0.799  0.135
    occupations:
  0.997 -0.000 -0.000  0.000 -0.000
 -0.000  0.998 -0.000 -0.000 -0.000
 -0.000 -0.000  0.998 -0.000 -0.000
  0.000 -0.000 -0.000  0.997 -0.000
 -0.000 -0.000 -0.000 -0.000  0.998
   spin  2
    eigenvalues: 
  0.020  0.021  0.021  0.065  0.067
    eigenvectors:
  0.000  0.000  0.000  0.009  0.991
  0.002  0.927  0.071  0.000  0.000
  0.002  0.070  0.928  0.000  0.000
  0.000  0.000  0.000  0.990  0.009
  0.996  0.003  0.001  0.000  0.000
    occupations:
  0.067 -0.000  0.000  0.000 -0.000
 -0.000  0.021  0.000  0.000 -0.000
  0.000  0.000  0.021  0.000  0.000
  0.000  0.000  0.000  0.065  0.000
 -0.000 -0.000  0.000  0.000  0.020
atomic mag. moment =     4.793408
N of occupied +U levels =   20.724948
 --- exit write_ns ---

     negative rho (up, down):  0.000E+00 7.268E-04

     Magnetic moment per site:
     atom:    1    charge:   12.7464    magn:   10.2175    constr:    0.0000
     atom:    2    charge:    5.6619    magn:    0.1763    constr:    0.0000
     atom:    3    charge:   12.7501    magn:   10.2178    constr:    0.0000
     atom:    4    charge:    5.6627    magn:    0.1771    constr:    0.0000
     atom:    5    charge:   12.7468    magn:   10.2169    constr:    0.0000
     atom:    6    charge:    5.6697    magn:    0.1821    constr:    0.0000
     atom:    7    charge:   12.7486    magn:   10.2177    constr:    0.0000
     atom:    8    charge:    5.6691    magn:    0.1818    constr:    0.0000

     total cpu time spent up to now is      176.9 secs

     total energy              =    -968.91434880 Ry
     Harris-Foulkes estimate   =    -960.51748127 Ry
     estimated scf accuracy    <      12.82552508 Ry

     total magnetization       =    20.00 Bohr mag/cell
     absolute magnetization    =    20.90 Bohr mag/cell

     iteration #  2     ecut=    41.00 Ry     beta=0.30
     Davidson diagonalization with overlap
     ethr =  1.00E-02,  avg # of iterations =  1.1

     negative rho (up, down):  0.000E+00 2.797E-03

     Magnetic moment per site:
     atom:    1    charge:   12.6338    magn:    4.5282    constr:    0.0000
     atom:    2    charge:    5.8828    magn:   -0.0523    constr:    0.0000
     atom:    3    charge:   12.6360    magn:    4.5284    constr:    0.0000
     atom:    4    charge:    5.8838    magn:   -0.0518    constr:    0.0000
     atom:    5    charge:   12.6334    magn:    4.5284    constr:    0.0000
     atom:    6    charge:    5.8912    magn:   -0.0497    constr:    0.0000
     atom:    7    charge:   12.6349    magn:    4.5285    constr:    0.0000
     atom:    8    charge:    5.8906    magn:   -0.0501    constr:    0.0000

     total cpu time spent up to now is      258.5 secs

     total energy              =    -972.82000217 Ry
     Harris-Foulkes estimate   =    -969.04614851 Ry
     estimated scf accuracy    <       6.32817325 Ry

     total magnetization       =    20.00 Bohr mag/cell
     absolute magnetization    =    20.61 Bohr mag/cell

     iteration #  3     ecut=    41.00 Ry     beta=0.30
     Davidson diagonalization with overlap
     ethr =  7.53E-03,  avg # of iterations =  2.0

     negative rho (up, down):  0.000E+00 3.091E-03

     Magnetic moment per site:
     atom:    1    charge:   12.5669    magn:    4.2724    constr:    0.0000
     atom:    2    charge:    5.8622    magn:    0.0588    constr:    0.0000
     atom:    3    charge:   12.5706    magn:    4.2698    constr:    0.0000
     atom:    4    charge:    5.8632    magn:    0.0596    constr:    0.0000
     atom:    5    charge:   12.5671    magn:    4.2714    constr:    0.0000
     atom:    6    charge:    5.8711    magn:    0.0622    constr:    0.0000
     atom:    7    charge:   12.5689    magn:    4.2712    constr:    0.0000
     atom:    8    charge:    5.8705    magn:    0.0615    constr:    0.0000

     total cpu time spent up to now is      361.5 secs

     total energy              =    -973.07782270 Ry
     Harris-Foulkes estimate   =    -973.12781653 Ry
     estimated scf accuracy    <       0.18304627 Ry

     total magnetization       =    20.00 Bohr mag/cell
     absolute magnetization    =    20.00 Bohr mag/cell

     iteration #  4     ecut=    41.00 Ry     beta=0.30
     Davidson diagonalization with overlap
     ethr =  2.18E-04,  avg # of iterations =  2.3

     negative rho (up, down):  0.000E+00 3.168E-03

     Magnetic moment per site:
     atom:    1    charge:   12.5532    magn:    4.1860    constr:    0.0000
     atom:    2    charge:    5.8701    magn:    0.0779    constr:    0.0000
     atom:    3    charge:   12.5572    magn:    4.1829    constr:    0.0000
     atom:    4    charge:    5.8712    magn:    0.0787    constr:    0.0000
     atom:    5    charge:   12.5536    magn:    4.1848    constr:    0.0000
     atom:    6    charge:    5.8790    magn:    0.0813    constr:    0.0000
     atom:    7    charge:   12.5554    magn:    4.1845    constr:    0.0000
     atom:    8    charge:    5.8784    magn:    0.0806    constr:    0.0000

     total cpu time spent up to now is      469.3 secs

     total energy              =    -973.10434602 Ry
     Harris-Foulkes estimate   =    -973.10615832 Ry
     estimated scf accuracy    <       0.01387882 Ry

     total magnetization       =    20.00 Bohr mag/cell
     absolute magnetization    =    20.00 Bohr mag/cell

     iteration #  5     ecut=    41.00 Ry     beta=0.30
     Davidson diagonalization with overlap
     ethr =  1.65E-05,  avg # of iterations =  2.2

     negative rho (up, down):  0.000E+00 3.262E-03

     Magnetic moment per site:
     atom:    1    charge:   12.5184    magn:    4.2548    constr:    0.0000
     atom:    2    charge:    5.8776    magn:    0.1536    constr:    0.0000
     atom:    3    charge:   12.5236    magn:    4.2502    constr:    0.0000
     atom:    4    charge:    5.8786    magn:    0.1547    constr:    0.0000
     atom:    5    charge:   12.5194    magn:    4.2530    constr:    0.0000
     atom:    6    charge:    5.8864    magn:    0.1573    constr:    0.0000
     atom:    7    charge:   12.5213    magn:    4.2526    constr:    0.0000
     atom:    8    charge:    5.8858    magn:    0.1564    constr:    0.0000

     total cpu time spent up to now is      567.8 secs

     total energy              =    -973.10472453 Ry
     Harris-Foulkes estimate   =    -973.10503625 Ry
     estimated scf accuracy    <       0.00623289 Ry

     total magnetization       =    20.00 Bohr mag/cell
     absolute magnetization    =    20.00 Bohr mag/cell
 kfg - setting two_fermi_energies to FALSE

     iteration #  6     ecut=    41.00 Ry     beta=0.30
     Davidson diagonalization with overlap
     ethr =  7.42E-06,  avg # of iterations =  2.1

     negative rho (up, down):  0.000E+00 3.261E-03

     Magnetic moment per site:
     atom:    1    charge:   12.5119    magn:    4.2550    constr:    0.0000
     atom:    2    charge:    5.8784    magn:    0.1693    constr:    0.0000
     atom:    3    charge:   12.5175    magn:    4.2503    constr:    0.0000
     atom:    4    charge:    5.8795    magn:    0.1704    constr:    0.0000
     atom:    5    charge:   12.5131    magn:    4.2532    constr:    0.0000
     atom:    6    charge:    5.8874    magn:    0.1729    constr:    0.0000
     atom:    7    charge:   12.5150    magn:    4.2528    constr:    0.0000
     atom:    8    charge:    5.8867    magn:    0.1720    constr:    0.0000

     total cpu time spent up to now is      672.3 secs

     total energy              =    -973.10610591 Ry
     Harris-Foulkes estimate   =    -973.10604390 Ry
     estimated scf accuracy    <       0.00024912 Ry

     total magnetization       =    20.00 Bohr mag/cell
     absolute magnetization    =    20.00 Bohr mag/cell

     iteration #  7     ecut=    41.00 Ry     beta=0.30
     Davidson diagonalization with overlap
     ethr =  2.97E-07,  avg # of iterations =  2.2

     negative rho (up, down):  0.000E+00 3.241E-03

     Magnetic moment per site:
     atom:    1    charge:   12.5117    magn:    4.2457    constr:    0.0000
     atom:    2    charge:    5.8780    magn:    0.1714    constr:    0.0000
     atom:    3    charge:   12.5175    magn:    4.2411    constr:    0.0000
     atom:    4    charge:    5.8791    magn:    0.1725    constr:    0.0000
     atom:    5    charge:   12.5130    magn:    4.2439    constr:    0.0000
     atom:    6    charge:    5.8870    magn:    0.1750    constr:    0.0000
     atom:    7    charge:   12.5149    magn:    4.2436    constr:    0.0000
     atom:    8    charge:    5.8863    magn:    0.1740    constr:    0.0000

     total cpu time spent up to now is      785.1 secs

     total energy              =    -973.10617444 Ry
     Harris-Foulkes estimate   =    -973.10616527 Ry
     estimated scf accuracy    <       0.00005380 Ry

     total magnetization       =    20.00 Bohr mag/cell
     absolute magnetization    =    20.00 Bohr mag/cell

     iteration #  8     ecut=    41.00 Ry     beta=0.30
     Davidson diagonalization with overlap
     ethr =  6.40E-08,  avg # of iterations =  1.5

     negative rho (up, down):  0.000E+00 3.208E-03

     Magnetic moment per site:
     atom:    1    charge:   12.5126    magn:    4.2442    constr:    0.0000
     atom:    2    charge:    5.8775    magn:    0.1740    constr:    0.0000
     atom:    3    charge:   12.5186    magn:    4.2397    constr:    0.0000
     atom:    4    charge:    5.8785    magn:    0.1751    constr:    0.0000
     atom:    5    charge:   12.5140    magn:    4.2425    constr:    0.0000
     atom:    6    charge:    5.8864    magn:    0.1775    constr:    0.0000
     atom:    7    charge:   12.5159    magn:    4.2422    constr:    0.0000
     atom:    8    charge:    5.8857    magn:    0.1765    constr:    0.0000

     total cpu time spent up to now is      890.0 secs

     total energy              =    -973.10618437 Ry
     Harris-Foulkes estimate   =    -973.10618273 Ry
     estimated scf accuracy    <       0.00000640 Ry

     total magnetization       =    20.00 Bohr mag/cell
     absolute magnetization    =    20.00 Bohr mag/cell

     iteration #  9     ecut=    41.00 Ry     beta=0.30
     Davidson diagonalization with overlap
     ethr =  7.62E-09,  avg # of iterations =  2.0

     negative rho (up, down):  0.000E+00 3.205E-03

     Magnetic moment per site:
     atom:    1    charge:   12.5125    magn:    4.2441    constr:    0.0000
     atom:    2    charge:    5.8774    magn:    0.1751    constr:    0.0000
     atom:    3    charge:   12.5186    magn:    4.2396    constr:    0.0000
     atom:    4    charge:    5.8784    magn:    0.1763    constr:    0.0000
     atom:    5    charge:   12.5139    magn:    4.2424    constr:    0.0000
     atom:    6    charge:    5.8863    magn:    0.1786    constr:    0.0000
     atom:    7    charge:   12.5158    magn:    4.2421    constr:    0.0000
     atom:    8    charge:    5.8857    magn:    0.1777    constr:    0.0000

     total cpu time spent up to now is     1003.6 secs

     total energy              =    -973.10618619 Ry
     Harris-Foulkes estimate   =    -973.10618629 Ry
     estimated scf accuracy    <       0.00000128 Ry

     total magnetization       =    20.00 Bohr mag/cell
     absolute magnetization    =    20.00 Bohr mag/cell

     iteration # 10     ecut=    41.00 Ry     beta=0.30
     Davidson diagonalization with overlap
     ethr =  1.53E-09,  avg # of iterations =  2.1

     negative rho (up, down):  0.000E+00 3.208E-03

     Magnetic moment per site:
     atom:    1    charge:   12.5125    magn:    4.2440    constr:    0.0000
     atom:    2    charge:    5.8773    magn:    0.1753    constr:    0.0000
     atom:    3    charge:   12.5186    magn:    4.2395    constr:    0.0000
     atom:    4    charge:    5.8784    magn:    0.1764    constr:    0.0000
     atom:    5    charge:   12.5140    magn:    4.2423    constr:    0.0000
     atom:    6    charge:    5.8863    magn:    0.1788    constr:    0.0000
     atom:    7    charge:   12.5159    magn:    4.2420    constr:    0.0000
     atom:    8    charge:    5.8856    magn:    0.1778    constr:    0.0000

     total cpu time spent up to now is     1114.7 secs

     total energy              =    -973.10618662 Ry
     Harris-Foulkes estimate   =    -973.10618652 Ry
     estimated scf accuracy    <       0.00000007 Ry

     total magnetization       =    20.00 Bohr mag/cell
     absolute magnetization    =    20.00 Bohr mag/cell

     iteration # 11     ecut=    41.00 Ry     beta=0.30
     Davidson diagonalization with overlap
     ethr =  8.73E-11,  avg # of iterations =  2.0

     negative rho (up, down):  0.000E+00 3.210E-03

     Magnetic moment per site:
     atom:    1    charge:   12.5125    magn:    4.2441    constr:    0.0000
     atom:    2    charge:    5.8774    magn:    0.1752    constr:    0.0000
     atom:    3    charge:   12.5187    magn:    4.2396    constr:    0.0000
     atom:    4    charge:    5.8784    magn:    0.1763    constr:    0.0000
     atom:    5    charge:   12.5140    magn:    4.2424    constr:    0.0000
     atom:    6    charge:    5.8863    magn:    0.1787    constr:    0.0000
     atom:    7    charge:   12.5159    magn:    4.2421    constr:    0.0000
     atom:    8    charge:    5.8856    magn:    0.1777    constr:    0.0000

     total cpu time spent up to now is     1215.0 secs

     total energy              =    -973.10618668 Ry
     Harris-Foulkes estimate   =    -973.10618662 Ry
     estimated scf accuracy    <       0.00000002 Ry

     total magnetization       =    20.00 Bohr mag/cell
     absolute magnetization    =    20.00 Bohr mag/cell

     iteration # 12     ecut=    41.00 Ry     beta=0.30
     Davidson diagonalization with overlap
     ethr =  1.89E-11,  avg # of iterations =  1.6

     negative rho (up, down):  0.000E+00 3.209E-03

     Magnetic moment per site:
     atom:    1    charge:   12.5125    magn:    4.2441    constr:    0.0000
     atom:    2    charge:    5.8774    magn:    0.1752    constr:    0.0000
     atom:    3    charge:   12.5187    magn:    4.2396    constr:    0.0000
     atom:    4    charge:    5.8784    magn:    0.1763    constr:    0.0000
     atom:    5    charge:   12.5141    magn:    4.2423    constr:    0.0000
     atom:    6    charge:    5.8863    magn:    0.1787    constr:    0.0000
     atom:    7    charge:   12.5159    magn:    4.2421    constr:    0.0000
     atom:    8    charge:    5.8856    magn:    0.1777    constr:    0.0000

     total cpu time spent up to now is     1310.3 secs

     End of self-consistent calculation
 --- enter write_ns ---
 LDA+U parameters:
U( 1)     =  3.00000000
alpha( 1) =  0.00000000
atom    1   Tr[ns(na)] (up, down, total) =   4.99240  0.45466  5.44707
   spin  1
    eigenvalues: 
  0.998  0.998  0.999  0.999  0.999
    eigenvectors:
  0.502  0.498  0.000  0.000  0.000
  0.001  0.000  0.027  0.960  0.013
  0.000  0.000  0.961  0.030  0.008
  0.498  0.502  0.000  0.000  0.000
  0.000  0.000  0.012  0.009  0.979
    occupations:
  0.998 -0.000 -0.000  0.000  0.000
 -0.000  0.999  0.000  0.000 -0.000
 -0.000  0.000  0.999 -0.000  0.000
  0.000  0.000 -0.000  0.998  0.000
  0.000 -0.000  0.000  0.000  0.999
   spin  2
    eigenvalues: 
  0.051  0.051  0.052  0.148  0.152
    eigenvectors:
  0.000  0.000  0.000  0.573  0.427
  0.008  0.090  0.902  0.000  0.000
  0.985  0.012  0.003  0.000  0.000
  0.000  0.000  0.000  0.427  0.573
  0.007  0.898  0.095  0.000  0.000
    occupations:
  0.150  0.001  0.000 -0.002 -0.000
  0.001  0.052  0.000 -0.001  0.000
  0.000  0.000  0.051 -0.000 -0.000
 -0.002 -0.001 -0.000  0.151 -0.000
 -0.000  0.000 -0.000 -0.000  0.052
atomic mag. moment =     4.537740
atom    3   Tr[ns(na)] (up, down, total) =   4.99087  0.46590  5.45677
   spin  1
    eigenvalues: 
  0.997  0.997  0.999  0.999  0.999
    eigenvectors:
  0.449  0.551  0.000  0.000  0.000
  0.000  0.000  0.989  0.006  0.006
  0.000  0.001  0.007  0.027  0.965
  0.551  0.449  0.000  0.000  0.000
  0.000  0.000  0.004  0.967  0.029
    occupations:
  0.997  0.000  0.000 -0.000 -0.000
  0.000  0.999  0.000 -0.000 -0.000
  0.000  0.000  0.999 -0.000  0.000
 -0.000 -0.000 -0.000  0.997 -0.000
 -0.000 -0.000  0.000 -0.000  0.999
   spin  2
    eigenvalues: 
  0.052  0.052  0.054  0.151  0.156
    eigenvectors:
  0.000  0.000  0.000  0.379  0.621
  0.918  0.080  0.002  0.000  0.000
  0.002  0.000  0.998  0.000  0.000
  0.000  0.000  0.000  0.621  0.379
  0.080  0.920  0.000  0.000  0.000
    occupations:
  0.155 -0.001 -0.001  0.002  0.000
 -0.001  0.052 -0.000  0.000 -0.000
 -0.001 -0.000  0.054  0.000 -0.000
  0.002  0.000  0.000  0.153  0.000
  0.000 -0.000 -0.000  0.000  0.052
atomic mag. moment =     4.524968
atom    5   Tr[ns(na)] (up, down, total) =   4.99173  0.45865  5.45038
   spin  1
    eigenvalues: 
  0.997  0.997  0.999  0.999  0.999
    eigenvectors:
  0.070  0.929  0.001  0.000  0.000
  0.000  0.000  0.247  0.416  0.337
  0.000  0.000  0.012  0.504  0.484
  0.930  0.070  0.000  0.000  0.000
  0.000  0.001  0.740  0.080  0.179
    occupations:
  0.997  0.000  0.000  0.000 -0.000
  0.000  0.999 -0.000  0.000  0.000
  0.000 -0.000  0.999 -0.000 -0.000
  0.000  0.000 -0.000  0.997  0.000
 -0.000  0.000 -0.000  0.000  0.999
   spin  2
    eigenvalues: 
  0.051  0.052  0.053  0.149  0.154
    eigenvectors:
  0.000  0.000  0.000  0.980  0.020
  0.048  0.948  0.004  0.000  0.000
  0.950  0.049  0.001  0.000  0.000
  0.000  0.000  0.000  0.020  0.980
  0.002  0.003  0.995  0.000  0.000
    occupations:
  0.150  0.000 -0.000 -0.001  0.001
  0.000  0.052 -0.000 -0.000  0.000
 -0.000 -0.000  0.051 -0.001  0.000
 -0.001 -0.000 -0.001  0.154 -0.001
  0.001  0.000  0.000 -0.001  0.053
atomic mag. moment =     4.533076
atom    7   Tr[ns(na)] (up, down, total) =   4.99150  0.46061  5.45211
   spin  1
    eigenvalues: 
  0.997  0.997  0.999  0.999  0.999
    eigenvectors:
  0.996  0.004  0.000  0.000  0.000
  0.000  0.000  0.025  0.026  0.948
  0.000  0.000  0.276  0.721  0.003
  0.004  0.995  0.000  0.001  0.000
  0.000  0.001  0.698  0.252  0.049
    occupations:
  0.997 -0.000 -0.000  0.000 -0.000
 -0.000  0.999 -0.000 -0.000 -0.000
 -0.000 -0.000  0.999 -0.000  0.000
  0.000 -0.000 -0.000  0.997 -0.000
 -0.000 -0.000  0.000 -0.000  0.999
   spin  2
    eigenvalues: 
  0.051  0.052  0.052  0.151  0.154
    eigenvectors:
  0.000  0.000  0.000  0.011  0.989
  0.000  0.967  0.033  0.000  0.000
  0.000  0.033  0.967  0.000  0.000
  0.000  0.000  0.000  0.989  0.011
  0.999  0.001  0.000  0.000  0.000
    occupations:
  0.154 -0.000  0.000  0.000 -0.000
 -0.000  0.052  0.000  0.001 -0.000
  0.000  0.000  0.052  0.000  0.000
  0.000  0.001  0.000  0.151  0.001
 -0.000 -0.000  0.000  0.001  0.052
atomic mag. moment =     4.530895
N of occupied +U levels =   21.806332
 --- exit write_ns ---

     Number of k-points >= 100: set verbosity='high' to print the bands.

     the Fermi energy is    12.4279 ev

!    total energy              =    -973.10618673 Ry
     Harris-Foulkes estimate   =    -973.10618668 Ry
     estimated scf accuracy    <          2.6E-09 Ry

     The total energy is the sum of the following terms:

     one-electron contribution =    -447.56490422 Ry
     hartree contribution      =     265.99050264 Ry
     xc contribution           =    -135.00643415 Ry
     ewald contribution        =    -656.70778455 Ry
     Hubbard energy            =       0.18255768 Ry
     smearing contrib. (-TS)   =      -0.00012413 Ry

     total magnetization       =    20.00 Bohr mag/cell
     absolute magnetization    =    20.00 Bohr mag/cell

     convergence has been achieved in  12 iterations

     Forces acting on atoms (Ry/au):


     negative rho (up, down):  0.000E+00 3.209E-03
     atom    1 type  1   force =   0.18394980E-02  0.25196155E-02 -0.27634647E-02
     atom    2 type  2   force =  -0.39203201E-02  0.86665445E-03 -0.39217072E-02
     atom    3 type  1   force =   0.47484884E-02  0.75376225E-02 -0.49144753E-03
     atom    4 type  2   force =   0.33320405E-02  0.83965450E-03  0.21057592E-02
     atom    5 type  1   force =   0.36820858E-02  0.20965122E-02  0.19916479E-02
     atom    6 type  2   force =   0.15501804E-04  0.22484114E-02 -0.18442118E-02
     atom    7 type  1   force =  -0.65713065E-02 -0.76803250E-02  0.11232858E-02
     atom    8 type  2   force =  -0.31259879E-02 -0.84281456E-02  0.38001383E-02

     Total force =     0.019333     Total SCF correction =     0.000263


     entering subroutine stress ...


     negative rho (up, down):  0.000E+00 3.209E-03
          total   stress  (Ry/bohr**3)                   (kbar)     P=    0.55
   0.0000011881  -0.0000004679   0.0000005635          0.17     -0.07      0.08
  -0.0000004679   0.0000085789  -0.0000000330         -0.07      1.26     -0.00
   0.0000005635  -0.0000000330   0.0000013488          0.08     -0.00      0.20


     Writing output data file mno_fm.scf.in.k.5.011.save

     init_run     :     36.98s CPU     38.35s WALL (       1 calls)
     electrons    :   1201.71s CPU   1271.79s WALL (       1 calls)
     forces       :     84.60s CPU     94.65s WALL (       1 calls)
     stress       :    280.21s CPU    303.33s WALL (       1 calls)

     Called by init_run:
     wfcinit      :     36.35s CPU     37.70s WALL (       1 calls)
     potinit      :      0.13s CPU      0.14s WALL (       1 calls)

     Called by electrons:
     c_bands      :   1070.92s CPU   1136.94s WALL (      12 calls)
     sum_band     :    128.62s CPU    132.65s WALL (      12 calls)
     v_of_rho     :      0.65s CPU      0.66s WALL (      13 calls)
     newd         :      1.22s CPU      1.23s WALL (      13 calls)
     mix_rho      :      0.37s CPU      0.37s WALL (      12 calls)

     Called by c_bands:
     init_us_2    :      8.46s CPU      8.73s WALL (    8056 calls)
     cegterg      :   1044.73s CPU   1108.00s WALL (    2544 calls)

     Called by *egterg:
     h_psi        :    553.23s CPU    577.49s WALL (    7934 calls)
     s_psi        :     59.22s CPU     53.02s WALL (   10266 calls)
     g_psi        :      0.92s CPU      0.97s WALL (    5178 calls)
     cdiaghg      :    222.19s CPU    245.95s WALL (    7722 calls)

     Called by h_psi:
     add_vuspsi   :     44.09s CPU     40.65s WALL (    7934 calls)
     vhpsi        :     58.44s CPU     69.20s WALL (    7934 calls)

     General routines
     calbec       :    466.70s CPU    514.04s WALL (   88796 calls)
     fft          :      0.50s CPU      0.52s WALL (     437 calls)
     ffts         :      0.22s CPU      0.21s WALL (     299 calls)
     fftw         :    415.50s CPU    426.19s WALL (  896194 calls)
     interpolate  :      0.07s CPU      0.09s WALL (      50 calls)
     davcio       :      0.01s CPU      0.03s WALL (     212 calls)

     Parallel routines
     fft_scatter  :    168.68s CPU    173.35s WALL (  896930 calls)
     Hubbard U routines
     new_ns       :     15.04s CPU     16.68s WALL (      12 calls)
     vhpsi        :     58.44s CPU     69.20s WALL (    7934 calls)
     force_hub    :     75.25s CPU     84.61s WALL (       1 calls)
     stres_hub    :    265.21s CPU    288.10s WALL (       1 calls)

     PWSCF        : 26m49.06s CPU    28m34.65s WALL


   This run was terminated on:   3:30:44  24Aug2017            

=------------------------------------------------------------------------------=
   JOB DONE.
=------------------------------------------------------------------------------=
