
     Program PWSCF v.5.1 starts on 16Aug2017 at 19:34:52 

     This program is part of the open-source Quantum ESPRESSO suite
     for quantum simulation of materials; please cite
         "P. Giannozzi et al., J. Phys.:Condens. Matter 21 395502 (2009);
          URL http://www.quantum-espresso.org", 
     in publications or presentations arising from this work. More details at
     http://www.quantum-espresso.org/quote

     Parallel version (MPI), running on     8 processors
     R & G space division:  proc/nbgrp/npool/nimage =       8
     Reading input from /tmp/mno_afm.in.222.06.14651/mno_afm.in.222.06.t
Warning: card &IONS ignored
Warning: card   ION_DYNAMICS='BFGS', ignored
Warning: card / ignored
Warning: card &CELL ignored
Warning: card  CELL_DYNAMICS = 'BFGS' ignored
Warning: card / ignored

     Current dimensions of program PWSCF are:
     Max number of different atomic species (ntypx) = 10
     Max number of k-points (npk) =  40000
     Max angular momentum in pseudopotentials (lmaxx) =  3
 kfg - two_fermi_energies  F

     Subspace diagonalization in iterative solution of the eigenvalue problem:
     a serial algorithm will be used


     Parallelization info
     --------------------
     sticks:   dense  smooth     PW     G-vecs:    dense   smooth      PW
     Min         242     200     57                 7129     5289     816
     Max         243     201     58                 7131     5300     818
     Sum        1943    1605    459                57043    42351    6537

     Generating pointlists ...
     new r_m :   0.1411 (alat units)  1.6660 (a.u.) for type    1
     new r_m :   0.1414 (alat units)  1.6694 (a.u.) for type    2
     new r_m :   0.1411 (alat units)  1.6660 (a.u.) for type    3


     bravais-lattice index     =            0
     lattice parameter (alat)  =    11.809860670  a.u.
     unit-cell volume          =    1194.2399 (a.u.)^3
     number of atoms/cell      =           16
     number of atomic types    =            3
     number of electrons       =       168.00
     number of Kohn-Sham states=          101
     kinetic-energy cutoff     =      41.0000  Ry
     charge density cutoff     =     200.0000  Ry
     convergence threshold     =      1.0E-08
     mixing beta               =       0.3000
     number of iterations used =            8  local-TF  mixing
     Exchange-correlation      = SLA  PW   PSX  PSC ( 1  4 10  8 0)
     A smooth kinetic-energy cutoff is imposed at      40.0000 Ry
     height of the smooth step-function =             800.0000 Ry
     width of the smooth step-function  =               1.0000 Ry


     celldm(1)=  11.809861  celldm(2)=   0.000000  celldm(3)=   0.000000
     celldm(4)=   0.000000  celldm(5)=   0.000000  celldm(6)=   0.000000

     crystal axes: (cart. coord. in units of alat)
               a(1) = (  -0.012055939014   0.707055391866   0.707055391866 )  
               a(2) = (   0.707055391866  -0.012055939014   0.707055391866 )  
               a(3) = (   0.707055391866   0.707055391866  -0.012055939014 )  

     reciprocal axes: (cart. coord. in units 2 pi/alat)
               b(1) = ( -0.689324  0.701281  0.701281 )  
               b(2) = (  0.701281 -0.689324  0.701281 )  
               b(3) = (  0.701281  0.701281 -0.689324 )  


     PseudoPot. # 1 for Mn read from file:
     /users/kfg/psuedo/gbrv_1.5/mn.pbesol.UPF
     MD5 check sum: 0716d5f563e6e95a34f9080f4c78c109
     Pseudo is Ultrasoft + core correction, Zval = 15.0
     Generated by new atomic code, or converted to UPF format
     Using radial grid of  859 points,  6 beta functions with: 
                l(1) =   0
                l(2) =   0
                l(3) =   1
                l(4) =   1
                l(5) =   2
                l(6) =   2
     Q(r) pseudized with  8 coefficients,  rinner =    0.950   0.950   0.950
                                                       0.950   0.950

     PseudoPot. # 2 for Mn read from file:
     /users/kfg/psuedo/gbrv_1.5/mn.pbesol.UPF
     MD5 check sum: 0716d5f563e6e95a34f9080f4c78c109
     Pseudo is Ultrasoft + core correction, Zval = 15.0
     Generated by new atomic code, or converted to UPF format
     Using radial grid of  859 points,  6 beta functions with: 
                l(1) =   0
                l(2) =   0
                l(3) =   1
                l(4) =   1
                l(5) =   2
                l(6) =   2
     Q(r) pseudized with  8 coefficients,  rinner =    0.950   0.950   0.950
                                                       0.950   0.950

     PseudoPot. # 3 for O  read from file:
     /users/kfg/psuedo/gbrv_1.5/o.pbesol.UPF
     MD5 check sum: 501638753501ef6325af9037351f7734
     Pseudo is Ultrasoft + core correction, Zval =  6.0
     Generated by new atomic code, or converted to UPF format
     Using radial grid of  737 points,  5 beta functions with: 
                l(1) =   0
                l(2) =   0
                l(3) =   1
                l(4) =   1
                l(5) =   2
     Q(r) pseudized with  8 coefficients,  rinner =    0.900   0.900   0.900
                                                       0.900   0.900

     atomic species   valence    mass     pseudopotential
        Mn            15.00    54.90000     Mn( 1.00)
        Fe            15.00    54.90000     Mn( 1.00)
        O              6.00    15.99900     O ( 1.00)

     Starting magnetic structure 
     atomic species   magnetization
        Mn           1.000
        Fe          -1.000
        O            0.000


     Simplified LDA+U calculation (l_max = 2) with parameters (eV):
     atomic species    L          U    alpha       J0     beta
        Mn             2     3.0000   0.0000   0.0000   0.0000
        Fe             2     3.0000   0.0000   0.0000   0.0000



     No symmetry found



   Cartesian axes

     site n.     atom                  positions (alat units)
         1           Mn  tau(   1) = (   -0.00745512130    0.00102854971   -0.00211042450  )
         2           O   tau(   2) = (    0.34213866452    0.34565890715    0.34631318263  )
         3           Fe  tau(   3) = (    0.70553861456    0.70931917445    0.70438821830  )
         4           O   tau(   4) = (    1.04989173750    1.05263955196    1.05549028813  )
         5           Mn  tau(   5) = (    1.05437742165    1.06256618803    0.70028790967  )
         6           O   tau(   6) = (    0.70540727280    0.70057317415    1.06207843386  )
         7           Fe  tau(   7) = (    0.36187981424    0.34527018222   -0.01311285001  )
         8           O   tau(   8) = (    0.71008415743    0.70439868738    0.33827809840  )
         9           Mn  tau(   9) = (    0.34025707311    0.70855072884    0.34933911084  )
        10           O   tau(  10) = (    0.70263525701    1.05968675726    0.70247275799  )
        11           Fe  tau(  11) = (    0.34933232948   -0.00700276546    0.35564869314  )
        12           O   tau(  12) = (    0.70247683882    0.33881339345    0.71139261120  )
        13           Mn  tau(  13) = (    0.70285129882    1.05508530314    1.06164655514  )
        14           O   tau(  14) = (    1.06237038576    0.69122013948    0.70023541555  )
        15           Fe  tau(  15) = (    0.70196031106    1.06148867198    0.33494171391  )
        16           O   tau(  16) = (    0.33840766001    0.70396886511    0.70724228706  )

     number of k points=    72  gaussian smearing, width (Ry)=  0.0100
                       cart. coord. in units 2pi/alat
        k(    1) = (   0.0000000   0.0000000   0.0000000), wk =   0.0156250
        k(    2) = (   0.1753203   0.1753203  -0.1723310), wk =   0.0312500
        k(    3) = (  -0.3506407  -0.3506407   0.3446619), wk =   0.0156250
        k(    4) = (   0.3506407   0.0029894   0.0029894), wk =   0.0312500
        k(    5) = (  -0.1753203  -0.5229717   0.5199823), wk =   0.0312500
        k(    6) = (   0.0000000  -0.3476513   0.3476513), wk =   0.0312500
        k(    7) = (  -0.7012814  -0.0059787  -0.0059787), wk =   0.0156250
        k(    8) = (   0.1783097   0.1783097   0.1783097), wk =   0.0312500
        k(    9) = (  -0.3476513  -0.3476513   0.6953026), wk =   0.0312500
        k(   10) = (  -0.1723310  -0.1723310   0.5229717), wk =   0.0312500
        k(   11) = (  -0.8736123   0.1693416   0.1693416), wk =   0.0312500
        k(   12) = (  -0.6982920   0.3446619  -0.0029894), wk =   0.0312500
        k(   13) = (  -0.3566194  -0.3566194  -0.3566194), wk =   0.0156250
        k(   14) = (   0.1723310  -0.1753203  -0.1753203), wk =   0.0312500
        k(   15) = (  -0.1753203   0.1723310  -0.1753203), wk =   0.0312500
        k(   16) = (  -0.3446619   0.3506407   0.3506407), wk =   0.0156250
        k(   17) = (   0.3506407  -0.3446619   0.3506407), wk =   0.0156250
        k(   18) = (  -0.0029894  -0.3506407  -0.0029894), wk =   0.0312500
        k(   19) = (  -0.0029894  -0.0029894  -0.3506407), wk =   0.0312500
        k(   20) = (   0.5229717   0.1753203  -0.5199823), wk =   0.0312500
        k(   21) = (  -0.5199823   0.5229717   0.1753203), wk =   0.0312500
        k(   22) = (   0.1753203  -0.5199823   0.5229717), wk =   0.0312500
        k(   23) = (  -0.5229717   0.5199823  -0.1753203), wk =   0.0312500
        k(   24) = (   0.5199823  -0.1753203  -0.5229717), wk =   0.0312500
        k(   25) = (   0.3476513   0.0000000  -0.3476513), wk =   0.0312500
        k(   26) = (  -0.3476513   0.3476513   0.0000000), wk =   0.0312500
        k(   27) = (   0.0059787   0.7012814   0.0059787), wk =   0.0156250
        k(   28) = (   0.0059787   0.0059787   0.7012814), wk =   0.0156250
        k(   29) = (  -0.6953026   0.3476513   0.3476513), wk =   0.0312500
        k(   30) = (   0.3476513  -0.6953026   0.3476513), wk =   0.0312500
        k(   31) = (  -0.5229717   0.1723310   0.1723310), wk =   0.0312500
        k(   32) = (   0.1723310  -0.5229717   0.1723310), wk =   0.0312500
        k(   33) = (  -0.1693416   0.8736123  -0.1693416), wk =   0.0312500
        k(   34) = (  -0.1693416  -0.1693416   0.8736123), wk =   0.0312500
        k(   35) = (  -0.3446619   0.6982920   0.0029894), wk =   0.0312500
        k(   36) = (   0.6982920   0.0029894  -0.3446619), wk =   0.0312500
        k(   37) = (   0.0000000   0.0000000   0.0000000), wk =   0.0156250
        k(   38) = (   0.1753203   0.1753203  -0.1723310), wk =   0.0312500
        k(   39) = (  -0.3506407  -0.3506407   0.3446619), wk =   0.0156250
        k(   40) = (   0.3506407   0.0029894   0.0029894), wk =   0.0312500
        k(   41) = (  -0.1753203  -0.5229717   0.5199823), wk =   0.0312500
        k(   42) = (   0.0000000  -0.3476513   0.3476513), wk =   0.0312500
        k(   43) = (  -0.7012814  -0.0059787  -0.0059787), wk =   0.0156250
        k(   44) = (   0.1783097   0.1783097   0.1783097), wk =   0.0312500
        k(   45) = (  -0.3476513  -0.3476513   0.6953026), wk =   0.0312500
        k(   46) = (  -0.1723310  -0.1723310   0.5229717), wk =   0.0312500
        k(   47) = (  -0.8736123   0.1693416   0.1693416), wk =   0.0312500
        k(   48) = (  -0.6982920   0.3446619  -0.0029894), wk =   0.0312500
        k(   49) = (  -0.3566194  -0.3566194  -0.3566194), wk =   0.0156250
        k(   50) = (   0.1723310  -0.1753203  -0.1753203), wk =   0.0312500
        k(   51) = (  -0.1753203   0.1723310  -0.1753203), wk =   0.0312500
        k(   52) = (  -0.3446619   0.3506407   0.3506407), wk =   0.0156250
        k(   53) = (   0.3506407  -0.3446619   0.3506407), wk =   0.0156250
        k(   54) = (  -0.0029894  -0.3506407  -0.0029894), wk =   0.0312500
        k(   55) = (  -0.0029894  -0.0029894  -0.3506407), wk =   0.0312500
        k(   56) = (   0.5229717   0.1753203  -0.5199823), wk =   0.0312500
        k(   57) = (  -0.5199823   0.5229717   0.1753203), wk =   0.0312500
        k(   58) = (   0.1753203  -0.5199823   0.5229717), wk =   0.0312500
        k(   59) = (  -0.5229717   0.5199823  -0.1753203), wk =   0.0312500
        k(   60) = (   0.5199823  -0.1753203  -0.5229717), wk =   0.0312500
        k(   61) = (   0.3476513   0.0000000  -0.3476513), wk =   0.0312500
        k(   62) = (  -0.3476513   0.3476513   0.0000000), wk =   0.0312500
        k(   63) = (   0.0059787   0.7012814   0.0059787), wk =   0.0156250
        k(   64) = (   0.0059787   0.0059787   0.7012814), wk =   0.0156250
        k(   65) = (  -0.6953026   0.3476513   0.3476513), wk =   0.0312500
        k(   66) = (   0.3476513  -0.6953026   0.3476513), wk =   0.0312500
        k(   67) = (  -0.5229717   0.1723310   0.1723310), wk =   0.0312500
        k(   68) = (   0.1723310  -0.5229717   0.1723310), wk =   0.0312500
        k(   69) = (  -0.1693416   0.8736123  -0.1693416), wk =   0.0312500
        k(   70) = (  -0.1693416  -0.1693416   0.8736123), wk =   0.0312500
        k(   71) = (  -0.3446619   0.6982920   0.0029894), wk =   0.0312500
        k(   72) = (   0.6982920   0.0029894  -0.3446619), wk =   0.0312500

     Dense  grid:    57043 G-vectors     FFT dimensions: (  54,  54,  54)

     Smooth grid:    42351 G-vectors     FFT dimensions: (  50,  50,  50)

     Largest allocated arrays     est. size (Mb)     dimensions
        Kohn-Sham Wavefunctions         1.04 Mb     (     675,  101)
        Atomic Hubbard wavefuncts       0.41 Mb     (     675,   40)
        NL pseudopotentials             2.55 Mb     (     675,  248)
        Each V/rho on FFT grid          0.62 Mb     (   20412,   2)
        Each G-vector array             0.05 Mb     (    7131)
        G-vector shells                 0.02 Mb     (    3247)
     Largest temporary arrays     est. size (Mb)     dimensions
        Auxiliary wavefunctions         4.16 Mb     (     675,  404)
        Each subspace H/S matrix        2.49 Mb     (     404,  404)
        Each <psi_i|beta_j> matrix      0.38 Mb     (     248,  101)
        Arrays for rho mixing           2.49 Mb     (   20412,    8)

     Check: negative/imaginary core charge=   -0.000061    0.000000

     Initial potential from superposition of free atoms

     starting charge  163.99935, renormalised to  168.00000
     Number of +U iterations with fixed ns =  0
     Starting occupations:
 --- enter write_ns ---
 LDA+U parameters:
U( 1)     =  3.00000000
alpha( 1) =  0.00000000
U( 2)     =  3.00000000
alpha( 2) =  0.00000000
atom    1   Tr[ns(na)] (up, down, total) =   5.00000  0.00000  5.00000
   spin  1
    eigenvalues: 
  1.000  1.000  1.000  1.000  1.000
    eigenvectors:
  1.000  0.000  0.000  0.000  0.000
  0.000  1.000  0.000  0.000  0.000
  0.000  0.000  1.000  0.000  0.000
  0.000  0.000  0.000  1.000  0.000
  0.000  0.000  0.000  0.000  1.000
    occupations:
  1.000  0.000  0.000  0.000  0.000
  0.000  1.000  0.000  0.000  0.000
  0.000  0.000  1.000  0.000  0.000
  0.000  0.000  0.000  1.000  0.000
  0.000  0.000  0.000  0.000  1.000
   spin  2
    eigenvalues: 
  0.000  0.000  0.000  0.000  0.000
    eigenvectors:
  1.000  0.000  0.000  0.000  0.000
  0.000  1.000  0.000  0.000  0.000
  0.000  0.000  1.000  0.000  0.000
  0.000  0.000  0.000  1.000  0.000
  0.000  0.000  0.000  0.000  1.000
    occupations:
  0.000  0.000  0.000  0.000  0.000
  0.000  0.000  0.000  0.000  0.000
  0.000  0.000  0.000  0.000  0.000
  0.000  0.000  0.000  0.000  0.000
  0.000  0.000  0.000  0.000  0.000
atomic mag. moment =     5.000000
atom    3   Tr[ns(na)] (up, down, total) =   0.00000  5.00000  5.00000
   spin  1
    eigenvalues: 
  0.000  0.000  0.000  0.000  0.000
    eigenvectors:
  1.000  0.000  0.000  0.000  0.000
  0.000  1.000  0.000  0.000  0.000
  0.000  0.000  1.000  0.000  0.000
  0.000  0.000  0.000  1.000  0.000
  0.000  0.000  0.000  0.000  1.000
    occupations:
  0.000  0.000  0.000  0.000  0.000
  0.000  0.000  0.000  0.000  0.000
  0.000  0.000  0.000  0.000  0.000
  0.000  0.000  0.000  0.000  0.000
  0.000  0.000  0.000  0.000  0.000
   spin  2
    eigenvalues: 
  1.000  1.000  1.000  1.000  1.000
    eigenvectors:
  1.000  0.000  0.000  0.000  0.000
  0.000  1.000  0.000  0.000  0.000
  0.000  0.000  1.000  0.000  0.000
  0.000  0.000  0.000  1.000  0.000
  0.000  0.000  0.000  0.000  1.000
    occupations:
  1.000  0.000  0.000  0.000  0.000
  0.000  1.000  0.000  0.000  0.000
  0.000  0.000  1.000  0.000  0.000
  0.000  0.000  0.000  1.000  0.000
  0.000  0.000  0.000  0.000  1.000
atomic mag. moment =    -5.000000
atom    5   Tr[ns(na)] (up, down, total) =   5.00000  0.00000  5.00000
   spin  1
    eigenvalues: 
  1.000  1.000  1.000  1.000  1.000
    eigenvectors:
  1.000  0.000  0.000  0.000  0.000
  0.000  1.000  0.000  0.000  0.000
  0.000  0.000  1.000  0.000  0.000
  0.000  0.000  0.000  1.000  0.000
  0.000  0.000  0.000  0.000  1.000
    occupations:
  1.000  0.000  0.000  0.000  0.000
  0.000  1.000  0.000  0.000  0.000
  0.000  0.000  1.000  0.000  0.000
  0.000  0.000  0.000  1.000  0.000
  0.000  0.000  0.000  0.000  1.000
   spin  2
    eigenvalues: 
  0.000  0.000  0.000  0.000  0.000
    eigenvectors:
  1.000  0.000  0.000  0.000  0.000
  0.000  1.000  0.000  0.000  0.000
  0.000  0.000  1.000  0.000  0.000
  0.000  0.000  0.000  1.000  0.000
  0.000  0.000  0.000  0.000  1.000
    occupations:
  0.000  0.000  0.000  0.000  0.000
  0.000  0.000  0.000  0.000  0.000
  0.000  0.000  0.000  0.000  0.000
  0.000  0.000  0.000  0.000  0.000
  0.000  0.000  0.000  0.000  0.000
atomic mag. moment =     5.000000
atom    7   Tr[ns(na)] (up, down, total) =   0.00000  5.00000  5.00000
   spin  1
    eigenvalues: 
  0.000  0.000  0.000  0.000  0.000
    eigenvectors:
  1.000  0.000  0.000  0.000  0.000
  0.000  1.000  0.000  0.000  0.000
  0.000  0.000  1.000  0.000  0.000
  0.000  0.000  0.000  1.000  0.000
  0.000  0.000  0.000  0.000  1.000
    occupations:
  0.000  0.000  0.000  0.000  0.000
  0.000  0.000  0.000  0.000  0.000
  0.000  0.000  0.000  0.000  0.000
  0.000  0.000  0.000  0.000  0.000
  0.000  0.000  0.000  0.000  0.000
   spin  2
    eigenvalues: 
  1.000  1.000  1.000  1.000  1.000
    eigenvectors:
  1.000  0.000  0.000  0.000  0.000
  0.000  1.000  0.000  0.000  0.000
  0.000  0.000  1.000  0.000  0.000
  0.000  0.000  0.000  1.000  0.000
  0.000  0.000  0.000  0.000  1.000
    occupations:
  1.000  0.000  0.000  0.000  0.000
  0.000  1.000  0.000  0.000  0.000
  0.000  0.000  1.000  0.000  0.000
  0.000  0.000  0.000  1.000  0.000
  0.000  0.000  0.000  0.000  1.000
atomic mag. moment =    -5.000000
atom    9   Tr[ns(na)] (up, down, total) =   5.00000  0.00000  5.00000
   spin  1
    eigenvalues: 
  1.000  1.000  1.000  1.000  1.000
    eigenvectors:
  1.000  0.000  0.000  0.000  0.000
  0.000  1.000  0.000  0.000  0.000
  0.000  0.000  1.000  0.000  0.000
  0.000  0.000  0.000  1.000  0.000
  0.000  0.000  0.000  0.000  1.000
    occupations:
  1.000  0.000  0.000  0.000  0.000
  0.000  1.000  0.000  0.000  0.000
  0.000  0.000  1.000  0.000  0.000
  0.000  0.000  0.000  1.000  0.000
  0.000  0.000  0.000  0.000  1.000
   spin  2
    eigenvalues: 
  0.000  0.000  0.000  0.000  0.000
    eigenvectors:
  1.000  0.000  0.000  0.000  0.000
  0.000  1.000  0.000  0.000  0.000
  0.000  0.000  1.000  0.000  0.000
  0.000  0.000  0.000  1.000  0.000
  0.000  0.000  0.000  0.000  1.000
    occupations:
  0.000  0.000  0.000  0.000  0.000
  0.000  0.000  0.000  0.000  0.000
  0.000  0.000  0.000  0.000  0.000
  0.000  0.000  0.000  0.000  0.000
  0.000  0.000  0.000  0.000  0.000
atomic mag. moment =     5.000000
atom   11   Tr[ns(na)] (up, down, total) =   0.00000  5.00000  5.00000
   spin  1
    eigenvalues: 
  0.000  0.000  0.000  0.000  0.000
    eigenvectors:
  1.000  0.000  0.000  0.000  0.000
  0.000  1.000  0.000  0.000  0.000
  0.000  0.000  1.000  0.000  0.000
  0.000  0.000  0.000  1.000  0.000
  0.000  0.000  0.000  0.000  1.000
    occupations:
  0.000  0.000  0.000  0.000  0.000
  0.000  0.000  0.000  0.000  0.000
  0.000  0.000  0.000  0.000  0.000
  0.000  0.000  0.000  0.000  0.000
  0.000  0.000  0.000  0.000  0.000
   spin  2
    eigenvalues: 
  1.000  1.000  1.000  1.000  1.000
    eigenvectors:
  1.000  0.000  0.000  0.000  0.000
  0.000  1.000  0.000  0.000  0.000
  0.000  0.000  1.000  0.000  0.000
  0.000  0.000  0.000  1.000  0.000
  0.000  0.000  0.000  0.000  1.000
    occupations:
  1.000  0.000  0.000  0.000  0.000
  0.000  1.000  0.000  0.000  0.000
  0.000  0.000  1.000  0.000  0.000
  0.000  0.000  0.000  1.000  0.000
  0.000  0.000  0.000  0.000  1.000
atomic mag. moment =    -5.000000
atom   13   Tr[ns(na)] (up, down, total) =   5.00000  0.00000  5.00000
   spin  1
    eigenvalues: 
  1.000  1.000  1.000  1.000  1.000
    eigenvectors:
  1.000  0.000  0.000  0.000  0.000
  0.000  1.000  0.000  0.000  0.000
  0.000  0.000  1.000  0.000  0.000
  0.000  0.000  0.000  1.000  0.000
  0.000  0.000  0.000  0.000  1.000
    occupations:
  1.000  0.000  0.000  0.000  0.000
  0.000  1.000  0.000  0.000  0.000
  0.000  0.000  1.000  0.000  0.000
  0.000  0.000  0.000  1.000  0.000
  0.000  0.000  0.000  0.000  1.000
   spin  2
    eigenvalues: 
  0.000  0.000  0.000  0.000  0.000
    eigenvectors:
  1.000  0.000  0.000  0.000  0.000
  0.000  1.000  0.000  0.000  0.000
  0.000  0.000  1.000  0.000  0.000
  0.000  0.000  0.000  1.000  0.000
  0.000  0.000  0.000  0.000  1.000
    occupations:
  0.000  0.000  0.000  0.000  0.000
  0.000  0.000  0.000  0.000  0.000
  0.000  0.000  0.000  0.000  0.000
  0.000  0.000  0.000  0.000  0.000
  0.000  0.000  0.000  0.000  0.000
atomic mag. moment =     5.000000
atom   15   Tr[ns(na)] (up, down, total) =   0.00000  5.00000  5.00000
   spin  1
    eigenvalues: 
  0.000  0.000  0.000  0.000  0.000
    eigenvectors:
  1.000  0.000  0.000  0.000  0.000
  0.000  1.000  0.000  0.000  0.000
  0.000  0.000  1.000  0.000  0.000
  0.000  0.000  0.000  1.000  0.000
  0.000  0.000  0.000  0.000  1.000
    occupations:
  0.000  0.000  0.000  0.000  0.000
  0.000  0.000  0.000  0.000  0.000
  0.000  0.000  0.000  0.000  0.000
  0.000  0.000  0.000  0.000  0.000
  0.000  0.000  0.000  0.000  0.000
   spin  2
    eigenvalues: 
  1.000  1.000  1.000  1.000  1.000
    eigenvectors:
  1.000  0.000  0.000  0.000  0.000
  0.000  1.000  0.000  0.000  0.000
  0.000  0.000  1.000  0.000  0.000
  0.000  0.000  0.000  1.000  0.000
  0.000  0.000  0.000  0.000  1.000
    occupations:
  1.000  0.000  0.000  0.000  0.000
  0.000  1.000  0.000  0.000  0.000
  0.000  0.000  1.000  0.000  0.000
  0.000  0.000  0.000  1.000  0.000
  0.000  0.000  0.000  0.000  1.000
atomic mag. moment =    -5.000000
N of occupied +U levels =   40.000000
 --- exit write_ns ---
 Atomic wfc used for LDA+U Projector are NOT orthogonalized
     Starting wfc are  136 randomized atomic wfcs

     total cpu time spent up to now is       57.7 secs

     per-process dynamical memory:   133.8 Mb

     Self-consistent Calculation

     iteration #  1     ecut=    41.00 Ry     beta=0.30
     Davidson diagonalization with overlap
     ethr =  1.00E-02,  avg # of iterations =  4.5
 --- enter write_ns ---
 LDA+U parameters:
U( 1)     =  3.00000000
alpha( 1) =  0.00000000
U( 2)     =  3.00000000
alpha( 2) =  0.00000000
atom    1   Tr[ns(na)] (up, down, total) =   4.99358  0.22243  5.21601
   spin  1
    eigenvalues: 
  0.998  0.998  0.998  0.999  0.999
    eigenvectors:
  0.001  0.003  0.000  0.369  0.627
  0.560  0.086  0.345  0.009  0.000
  0.390  0.377  0.229  0.004  0.000
  0.000  0.000  0.013  0.618  0.368
  0.049  0.534  0.412  0.001  0.004
    occupations:
  0.999  0.000  0.000  0.000  0.000
  0.000  0.998  0.000 -0.000 -0.000
  0.000  0.000  0.998 -0.000 -0.000
  0.000 -0.000 -0.000  0.999  0.000
  0.000 -0.000 -0.000  0.000  0.998
   spin  2
    eigenvalues: 
  0.027  0.027  0.027  0.070  0.071
    eigenvectors:
  0.000  0.000  0.000  0.420  0.580
  0.047  0.107  0.846  0.000  0.000
  0.843  0.063  0.094  0.000  0.000
  0.000  0.000  0.000  0.580  0.420
  0.110  0.830  0.060  0.000  0.000
    occupations:
  0.071  0.000  0.000 -0.001 -0.000
  0.000  0.027  0.000 -0.000 -0.000
  0.000  0.000  0.027  0.001 -0.000
 -0.001 -0.000  0.001  0.071  0.001
 -0.000 -0.000 -0.000  0.001  0.027
atomic mag. moment =     4.771155
atom    3   Tr[ns(na)] (up, down, total) =   0.19442  4.99447  5.18889
   spin  1
    eigenvalues: 
  0.023  0.024  0.024  0.061  0.062
    eigenvectors:
  0.000  0.000  0.000  0.664  0.336
  0.906  0.013  0.081  0.000  0.000
  0.004  0.691  0.304  0.000  0.000
  0.000  0.000  0.000  0.336  0.664
  0.090  0.296  0.614  0.000  0.000
    occupations:
  0.061 -0.000 -0.000  0.001 -0.000
 -0.000  0.023  0.000 -0.000 -0.000
 -0.000  0.000  0.024  0.000 -0.000
  0.001 -0.000  0.000  0.062 -0.001
 -0.000 -0.000 -0.000 -0.001  0.024
   spin  2
    eigenvalues: 
  0.998  0.998  0.998  1.000  1.000
    eigenvectors:
  0.000  0.000  0.000  0.124  0.875
  0.594  0.101  0.304  0.000  0.000
  0.028  0.539  0.433  0.000  0.000
  0.000  0.000  0.000  0.876  0.124
  0.378  0.360  0.263  0.000  0.000
    occupations:
  1.000  0.000 -0.000 -0.000 -0.000
  0.000  0.998  0.000  0.000 -0.000
 -0.000  0.000  0.998 -0.000 -0.000
 -0.000  0.000 -0.000  1.000  0.000
 -0.000 -0.000 -0.000  0.000  0.998
atomic mag. moment =    -4.800047
atom    5   Tr[ns(na)] (up, down, total) =   4.99398  0.20451  5.19849
   spin  1
    eigenvalues: 
  0.998  0.998  0.998  0.999  1.000
    eigenvectors:
  0.000  0.002  0.000  0.001  0.997
  0.043  0.592  0.365  0.000  0.000
  0.822  0.007  0.172  0.000  0.000
  0.002  0.002  0.002  0.994  0.001
  0.133  0.398  0.462  0.005  0.002
    occupations:
  1.000 -0.000 -0.000  0.000 -0.000
 -0.000  0.998  0.000  0.000 -0.000
 -0.000  0.000  0.998  0.000 -0.000
  0.000  0.000  0.000  0.999  0.000
 -0.000 -0.000 -0.000  0.000  0.998
   spin  2
    eigenvalues: 
  0.024  0.025  0.026  0.063  0.067
    eigenvectors:
  0.000  0.000  0.000  0.836  0.164
  0.013  0.909  0.078  0.000  0.000
  0.947  0.027  0.026  0.000  0.000
  0.000  0.000  0.000  0.164  0.836
  0.040  0.064  0.896  0.000  0.000
    occupations:
  0.063 -0.001 -0.001 -0.002  0.000
 -0.001  0.025 -0.000 -0.001 -0.000
 -0.001 -0.000  0.024  0.000 -0.000
 -0.002 -0.001  0.000  0.066  0.000
  0.000 -0.000 -0.000  0.000  0.026
atomic mag. moment =     4.789472
atom    7   Tr[ns(na)] (up, down, total) =   0.21222  4.99353  5.20575
   spin  1
    eigenvalues: 
  0.025  0.026  0.027  0.065  0.070
    eigenvectors:
  0.001  0.000  0.000  0.212  0.787
  0.002  0.901  0.097  0.000  0.000
  0.002  0.095  0.902  0.000  0.000
  0.000  0.000  0.000  0.787  0.213
  0.995  0.003  0.001  0.000  0.001
    occupations:
  0.069  0.000  0.000  0.002 -0.001
  0.000  0.026  0.000 -0.000 -0.000
  0.000  0.000  0.027  0.000 -0.000
  0.002 -0.000  0.000  0.066 -0.000
 -0.001 -0.000 -0.000 -0.000  0.025
   spin  2
    eigenvalues: 
  0.998  0.998  0.998  0.999  0.999
    eigenvectors:
  0.001  0.000  0.004  0.978  0.017
  0.005  0.832  0.151  0.001  0.011
  0.311  0.136  0.538  0.007  0.009
  0.006  0.004  0.013  0.014  0.963
  0.678  0.028  0.294  0.000  0.000
    occupations:
  0.999 -0.000 -0.000  0.000  0.000
 -0.000  0.998  0.000  0.000 -0.000
 -0.000  0.000  0.998  0.000 -0.000
  0.000  0.000  0.000  0.999  0.000
  0.000 -0.000 -0.000  0.000  0.998
atomic mag. moment =    -4.781310
atom    9   Tr[ns(na)] (up, down, total) =   4.99394  0.20648  5.20042
   spin  1
    eigenvalues: 
  0.998  0.998  0.998  0.999  1.000
    eigenvectors:
  0.000  0.000  0.000  0.317  0.683
  0.294  0.229  0.476  0.001  0.000
  0.701  0.060  0.238  0.000  0.000
  0.001  0.001  0.000  0.681  0.316
  0.004  0.709  0.285  0.001  0.000
    occupations:
  1.000 -0.000  0.000  0.000  0.000
 -0.000  0.998  0.000 -0.000 -0.000
  0.000  0.000  0.998  0.000 -0.000
  0.000 -0.000  0.000  0.999 -0.000
  0.000 -0.000 -0.000 -0.000  0.998
   spin  2
    eigenvalues: 
  0.024  0.025  0.026  0.064  0.067
    eigenvectors:
  0.000  0.000  0.000  0.545  0.455
  0.032  0.150  0.818  0.000  0.000
  0.940  0.050  0.009  0.000  0.001
  0.000  0.000  0.000  0.455  0.544
  0.027  0.800  0.172  0.000  0.000
    occupations:
  0.065  0.000 -0.000 -0.001 -0.001
  0.000  0.026  0.000  0.000 -0.000
 -0.000  0.000  0.025  0.001  0.000
 -0.001  0.000  0.001  0.066 -0.001
 -0.001 -0.000  0.000 -0.001  0.025
atomic mag. moment =     4.787459
atom   11   Tr[ns(na)] (up, down, total) =   0.21127  4.99391  5.20518
   spin  1
    eigenvalues: 
  0.025  0.025  0.026  0.066  0.068
    eigenvectors:
  0.000  0.000  0.000  0.747  0.253
  0.919  0.080  0.000  0.000  0.001
  0.036  0.465  0.498  0.000  0.000
  0.001  0.000  0.000  0.253  0.746
  0.044  0.455  0.501  0.000  0.000
    occupations:
  0.067 -0.001 -0.000  0.001 -0.000
 -0.001  0.025  0.000 -0.001  0.000
 -0.000  0.000  0.026 -0.000 -0.000
  0.001 -0.001 -0.000  0.068  0.000
 -0.000  0.000 -0.000  0.000  0.026
   spin  2
    eigenvalues: 
  0.998  0.998  0.998  0.999  1.000
    eigenvectors:
  0.001  0.000  0.000  0.025  0.973
  0.674  0.006  0.320  0.000  0.001
  0.143  0.449  0.407  0.001  0.000
  0.000  0.003  0.000  0.971  0.026
  0.181  0.543  0.273  0.002  0.001
    occupations:
  1.000 -0.000  0.000  0.000 -0.000
 -0.000  0.998  0.000  0.000 -0.000
  0.000  0.000  0.998  0.000 -0.000
  0.000  0.000  0.000  0.999  0.000
 -0.000 -0.000 -0.000  0.000  0.998
atomic mag. moment =    -4.782645
atom   13   Tr[ns(na)] (up, down, total) =   4.99411  0.20487  5.19898
   spin  1
    eigenvalues: 
  0.998  0.998  0.998  0.999  1.000
    eigenvectors:
  0.002  0.000  0.001  0.113  0.884
  0.754  0.020  0.221  0.004  0.001
  0.190  0.437  0.372  0.001  0.000
  0.003  0.001  0.000  0.881  0.115
  0.052  0.542  0.405  0.001  0.000
    occupations:
  1.000  0.000  0.000  0.000 -0.000
  0.000  0.998  0.000 -0.000 -0.000
  0.000  0.000  0.998  0.000 -0.000
  0.000 -0.000  0.000  0.999  0.000
 -0.000 -0.000 -0.000  0.000  0.998
   spin  2
    eigenvalues: 
  0.024  0.025  0.025  0.064  0.066
    eigenvectors:
  0.000  0.000  0.000  0.678  0.322
  0.719  0.213  0.068  0.000  0.000
  0.163  0.060  0.776  0.000  0.000
  0.000  0.000  0.000  0.321  0.678
  0.117  0.727  0.155  0.000  0.000
    occupations:
  0.065  0.000  0.000  0.001 -0.001
  0.000  0.025  0.000 -0.001  0.000
  0.000  0.000  0.025 -0.000 -0.000
  0.001 -0.001 -0.000  0.065  0.000
 -0.001  0.000 -0.000  0.000  0.025
atomic mag. moment =     4.789235
atom   15   Tr[ns(na)] (up, down, total) =   0.21275  4.99364  5.20639
   spin  1
    eigenvalues: 
  0.025  0.025  0.027  0.066  0.069
    eigenvectors:
  0.000  0.000  0.000  0.336  0.663
  0.029  0.116  0.855  0.000  0.000
  0.715  0.283  0.002  0.000  0.001
  0.000  0.000  0.000  0.663  0.336
  0.256  0.601  0.143  0.000  0.000
    occupations:
  0.068 -0.001 -0.001 -0.001 -0.000
 -0.001  0.026  0.000  0.000 -0.000
 -0.001  0.000  0.025  0.001 -0.000
 -0.001  0.000  0.001  0.067 -0.001
 -0.000 -0.000 -0.000 -0.001  0.026
   spin  2
    eigenvalues: 
  0.998  0.998  0.998  0.999  0.999
    eigenvectors:
  0.000  0.019  0.005  0.873  0.103
  0.005  0.637  0.334  0.023  0.001
  0.435  0.226  0.338  0.000  0.001
  0.001  0.000  0.000  0.104  0.895
  0.559  0.118  0.323  0.000  0.000
    occupations:
  0.999 -0.000  0.000  0.000 -0.000
 -0.000  0.998  0.000  0.000 -0.000
  0.000  0.000  0.998  0.000 -0.000
  0.000  0.000  0.000  0.999  0.000
 -0.000 -0.000 -0.000  0.000  0.998
atomic mag. moment =    -4.780887
N of occupied +U levels =   41.620108
 --- exit write_ns ---

     negative rho (up, down):  2.374E-04 1.034E-04

     Magnetic moment per site:
     atom:    1    charge:   12.6366    magn:   10.0942    constr:    0.0000
     atom:    2    charge:    5.5507    magn:   -0.0208    constr:    0.0000
     atom:    3    charge:   12.6327    magn:  -10.0975    constr:    0.0000
     atom:    4    charge:    5.5833    magn:    0.0009    constr:    0.0000
     atom:    5    charge:   12.6280    magn:   10.0915    constr:    0.0000
     atom:    6    charge:    5.5746    magn:    0.0205    constr:    0.0000
     atom:    7    charge:   12.6417    magn:  -10.0999    constr:    0.0000
     atom:    8    charge:    5.5604    magn:   -0.0053    constr:    0.0000
     atom:    9    charge:   12.6292    magn:   10.0914    constr:    0.0000
     atom:   10    charge:    5.5675    magn:    0.0018    constr:    0.0000
     atom:   11    charge:   12.6408    magn:  -10.0998    constr:    0.0000
     atom:   12    charge:    5.5664    magn:    0.0066    constr:    0.0000
     atom:   13    charge:   12.6287    magn:   10.0919    constr:    0.0000
     atom:   14    charge:    5.5638    magn:    0.0022    constr:    0.0000
     atom:   15    charge:   12.6415    magn:  -10.0997    constr:    0.0000
     atom:   16    charge:    5.5697    magn:    0.0037    constr:    0.0000

     total cpu time spent up to now is      223.6 secs

     total energy              =   -1937.89442046 Ry
     Harris-Foulkes estimate   =   -1921.77811380 Ry
     estimated scf accuracy    <      25.38655251 Ry

     total magnetization       =     0.00 Bohr mag/cell
     absolute magnetization    =    40.63 Bohr mag/cell

     iteration #  2     ecut=    41.00 Ry     beta=0.30
     Davidson diagonalization with overlap
     ethr =  1.00E-02,  avg # of iterations =  1.0

     negative rho (up, down):  9.266E-04 5.493E-04

     Magnetic moment per site:
     atom:    1    charge:   12.5260    magn:    4.4181    constr:    0.0000
     atom:    2    charge:    5.7706    magn:    0.0013    constr:    0.0000
     atom:    3    charge:   12.5255    magn:   -4.4132    constr:    0.0000
     atom:    4    charge:    5.8057    magn:    0.0016    constr:    0.0000
     atom:    5    charge:   12.5199    magn:    4.4117    constr:    0.0000
     atom:    6    charge:    5.7966    magn:   -0.0003    constr:    0.0000
     atom:    7    charge:   12.5318    magn:   -4.4185    constr:    0.0000
     atom:    8    charge:    5.7810    magn:   -0.0009    constr:    0.0000
     atom:    9    charge:   12.5208    magn:    4.4120    constr:    0.0000
     atom:   10    charge:    5.7887    magn:    0.0007    constr:    0.0000
     atom:   11    charge:   12.5312    magn:   -4.4187    constr:    0.0000
     atom:   12    charge:    5.7876    magn:   -0.0020    constr:    0.0000
     atom:   13    charge:   12.5204    magn:    4.4123    constr:    0.0000
     atom:   14    charge:    5.7846    magn:    0.0024    constr:    0.0000
     atom:   15    charge:   12.5317    magn:   -4.4185    constr:    0.0000
     atom:   16    charge:    5.7911    magn:    0.0015    constr:    0.0000

     total cpu time spent up to now is      326.7 secs

     total energy              =   -1945.57704988 Ry
     Harris-Foulkes estimate   =   -1938.16371593 Ry
     estimated scf accuracy    <      12.61830662 Ry

     total magnetization       =    -0.00 Bohr mag/cell
     absolute magnetization    =    40.20 Bohr mag/cell

     iteration #  3     ecut=    41.00 Ry     beta=0.30
     Davidson diagonalization with overlap
     ethr =  7.51E-03,  avg # of iterations =  3.9

     negative rho (up, down):  9.672E-04 5.783E-04

     Magnetic moment per site:
     atom:    1    charge:   12.4518    magn:    4.1964    constr:    0.0000
     atom:    2    charge:    5.7313    magn:   -0.0002    constr:    0.0000
     atom:    3    charge:   12.4472    magn:   -4.2005    constr:    0.0000
     atom:    4    charge:    5.7685    magn:    0.0033    constr:    0.0000
     atom:    5    charge:   12.4432    magn:    4.1960    constr:    0.0000
     atom:    6    charge:    5.7588    magn:    0.0032    constr:    0.0000
     atom:    7    charge:   12.4562    magn:   -4.1996    constr:    0.0000
     atom:    8    charge:    5.7422    magn:   -0.0049    constr:    0.0000
     atom:    9    charge:   12.4443    magn:    4.1954    constr:    0.0000
     atom:   10    charge:    5.7504    magn:   -0.0032    constr:    0.0000
     atom:   11    charge:   12.4556    magn:   -4.2002    constr:    0.0000
     atom:   12    charge:    5.7493    magn:    0.0009    constr:    0.0000
     atom:   13    charge:   12.4436    magn:    4.1967    constr:    0.0000
     atom:   14    charge:    5.7464    magn:    0.0019    constr:    0.0000
     atom:   15    charge:   12.4566    magn:   -4.1986    constr:    0.0000
     atom:   16    charge:    5.7529    magn:    0.0011    constr:    0.0000

     total cpu time spent up to now is      493.3 secs

     total energy              =   -1946.14256528 Ry
     Harris-Foulkes estimate   =   -1946.28653082 Ry
     estimated scf accuracy    <       0.41446507 Ry

     total magnetization       =    -0.00 Bohr mag/cell
     absolute magnetization    =    37.90 Bohr mag/cell

     iteration #  4     ecut=    41.00 Ry     beta=0.30
     Davidson diagonalization with overlap
     ethr =  2.47E-04,  avg # of iterations =  7.3

     negative rho (up, down):  9.894E-04 5.996E-04

     Magnetic moment per site:
     atom:    1    charge:   12.4458    magn:    4.0855    constr:    0.0000
     atom:    2    charge:    5.7428    magn:   -0.0006    constr:    0.0000
     atom:    3    charge:   12.4409    magn:   -4.0904    constr:    0.0000
     atom:    4    charge:    5.7796    magn:    0.0036    constr:    0.0000
     atom:    5    charge:   12.4370    magn:    4.0857    constr:    0.0000
     atom:    6    charge:    5.7700    magn:    0.0038    constr:    0.0000
     atom:    7    charge:   12.4501    magn:   -4.0890    constr:    0.0000
     atom:    8    charge:    5.7536    magn:   -0.0052    constr:    0.0000
     atom:    9    charge:   12.4382    magn:    4.0851    constr:    0.0000
     atom:   10    charge:    5.7617    magn:   -0.0034    constr:    0.0000
     atom:   11    charge:   12.4494    magn:   -4.0897    constr:    0.0000
     atom:   12    charge:    5.7607    magn:    0.0012    constr:    0.0000
     atom:   13    charge:   12.4374    magn:    4.0863    constr:    0.0000
     atom:   14    charge:    5.7577    magn:    0.0018    constr:    0.0000
     atom:   15    charge:   12.4504    magn:   -4.0881    constr:    0.0000
     atom:   16    charge:    5.7641    magn:    0.0011    constr:    0.0000

     total cpu time spent up to now is      783.7 secs

     total energy              =   -1946.24849255 Ry
     Harris-Foulkes estimate   =   -1946.25597422 Ry
     estimated scf accuracy    <       0.03210119 Ry

     total magnetization       =    -0.00 Bohr mag/cell
     absolute magnetization    =    37.72 Bohr mag/cell

     iteration #  5     ecut=    41.00 Ry     beta=0.30
     Davidson diagonalization with overlap
     ethr =  1.91E-05,  avg # of iterations =  3.7

     negative rho (up, down):  9.995E-04 6.146E-04

     Magnetic moment per site:
     atom:    1    charge:   12.4208    magn:    4.1253    constr:    0.0000
     atom:    2    charge:    5.7466    magn:   -0.0034    constr:    0.0000
     atom:    3    charge:   12.4142    magn:   -4.1341    constr:    0.0000
     atom:    4    charge:    5.7831    magn:    0.0050    constr:    0.0000
     atom:    5    charge:   12.4107    magn:    4.1287    constr:    0.0000
     atom:    6    charge:    5.7736    magn:    0.0077    constr:    0.0000
     atom:    7    charge:   12.4242    magn:   -4.1308    constr:    0.0000
     atom:    8    charge:    5.7573    magn:   -0.0076    constr:    0.0000
     atom:    9    charge:   12.4121    magn:    4.1277    constr:    0.0000
     atom:   10    charge:    5.7652    magn:   -0.0051    constr:    0.0000
     atom:   11    charge:   12.4236    magn:   -4.1317    constr:    0.0000
     atom:   12    charge:    5.7643    magn:    0.0037    constr:    0.0000
     atom:   13    charge:   12.4113    magn:    4.1290    constr:    0.0000
     atom:   14    charge:    5.7613    magn:    0.0013    constr:    0.0000
     atom:   15    charge:   12.4247    magn:   -4.1301    constr:    0.0000
     atom:   16    charge:    5.7676    magn:    0.0009    constr:    0.0000

     total cpu time spent up to now is      945.5 secs

     total energy              =   -1946.25111625 Ry
     Harris-Foulkes estimate   =   -1946.25144338 Ry
     estimated scf accuracy    <       0.00847519 Ry

     total magnetization       =    -0.00 Bohr mag/cell
     absolute magnetization    =    37.60 Bohr mag/cell

     iteration #  6     ecut=    41.00 Ry     beta=0.30
     Davidson diagonalization with overlap
     ethr =  5.04E-06,  avg # of iterations =  4.8

     negative rho (up, down):  9.937E-04 6.069E-04

     Magnetic moment per site:
     atom:    1    charge:   12.4170    magn:    4.1330    constr:    0.0000
     atom:    2    charge:    5.7463    magn:   -0.0040    constr:    0.0000
     atom:    3    charge:   12.4098    magn:   -4.1426    constr:    0.0000
     atom:    4    charge:    5.7829    magn:    0.0053    constr:    0.0000
     atom:    5    charge:   12.4066    magn:    4.1370    constr:    0.0000
     atom:    6    charge:    5.7734    magn:    0.0085    constr:    0.0000
     atom:    7    charge:   12.4203    magn:   -4.1388    constr:    0.0000
     atom:    8    charge:    5.7570    magn:   -0.0083    constr:    0.0000
     atom:    9    charge:   12.4081    magn:    4.1358    constr:    0.0000
     atom:   10    charge:    5.7650    magn:   -0.0056    constr:    0.0000
     atom:   11    charge:   12.4196    magn:   -4.1396    constr:    0.0000
     atom:   12    charge:    5.7641    magn:    0.0041    constr:    0.0000
     atom:   13    charge:   12.4072    magn:    4.1371    constr:    0.0000
     atom:   14    charge:    5.7611    magn:    0.0011    constr:    0.0000
     atom:   15    charge:   12.4207    magn:   -4.1380    constr:    0.0000
     atom:   16    charge:    5.7674    magn:    0.0008    constr:    0.0000

     total cpu time spent up to now is     1162.3 secs

     total energy              =   -1946.25268479 Ry
     Harris-Foulkes estimate   =   -1946.25269466 Ry
     estimated scf accuracy    <       0.00045082 Ry

     total magnetization       =    -0.00 Bohr mag/cell
     absolute magnetization    =    37.52 Bohr mag/cell

     iteration #  7     ecut=    41.00 Ry     beta=0.30
     Davidson diagonalization with overlap
     ethr =  2.68E-07,  avg # of iterations =  1.3

     negative rho (up, down):  9.871E-04 5.964E-04

     Magnetic moment per site:
     atom:    1    charge:   12.4157    magn:    4.1218    constr:    0.0000
     atom:    2    charge:    5.7459    magn:   -0.0042    constr:    0.0000
     atom:    3    charge:   12.4079    magn:   -4.1314    constr:    0.0000
     atom:    4    charge:    5.7827    magn:    0.0055    constr:    0.0000
     atom:    5    charge:   12.4049    magn:    4.1258    constr:    0.0000
     atom:    6    charge:    5.7731    magn:    0.0088    constr:    0.0000
     atom:    7    charge:   12.4187    magn:   -4.1276    constr:    0.0000
     atom:    8    charge:    5.7567    magn:   -0.0086    constr:    0.0000
     atom:    9    charge:   12.4064    magn:    4.1246    constr:    0.0000
     atom:   10    charge:    5.7648    magn:   -0.0059    constr:    0.0000
     atom:   11    charge:   12.4181    magn:   -4.1283    constr:    0.0000
     atom:   12    charge:    5.7638    magn:    0.0043    constr:    0.0000
     atom:   13    charge:   12.4055    magn:    4.1259    constr:    0.0000
     atom:   14    charge:    5.7608    magn:    0.0010    constr:    0.0000
     atom:   15    charge:   12.4192    magn:   -4.1267    constr:    0.0000
     atom:   16    charge:    5.7671    magn:    0.0007    constr:    0.0000

     total cpu time spent up to now is     1269.4 secs

     total energy              =   -1946.25271820 Ry
     Harris-Foulkes estimate   =   -1946.25271123 Ry
     estimated scf accuracy    <       0.00010044 Ry

     total magnetization       =    -0.00 Bohr mag/cell
     absolute magnetization    =    37.51 Bohr mag/cell

     iteration #  8     ecut=    41.00 Ry     beta=0.30
     Davidson diagonalization with overlap
     ethr =  5.98E-08,  avg # of iterations =  3.1

     negative rho (up, down):  9.786E-04 5.844E-04

     Magnetic moment per site:
     atom:    1    charge:   12.4161    magn:    4.1209    constr:    0.0000
     atom:    2    charge:    5.7454    magn:   -0.0042    constr:    0.0000
     atom:    3    charge:   12.4080    magn:   -4.1305    constr:    0.0000
     atom:    4    charge:    5.7822    magn:    0.0056    constr:    0.0000
     atom:    5    charge:   12.4051    magn:    4.1249    constr:    0.0000
     atom:    6    charge:    5.7726    magn:    0.0088    constr:    0.0000
     atom:    7    charge:   12.4190    magn:   -4.1266    constr:    0.0000
     atom:    8    charge:    5.7562    magn:   -0.0088    constr:    0.0000
     atom:    9    charge:   12.4067    magn:    4.1236    constr:    0.0000
     atom:   10    charge:    5.7642    magn:   -0.0061    constr:    0.0000
     atom:   11    charge:   12.4184    magn:   -4.1273    constr:    0.0000
     atom:   12    charge:    5.7633    magn:    0.0044    constr:    0.0000
     atom:   13    charge:   12.4058    magn:    4.1250    constr:    0.0000
     atom:   14    charge:    5.7603    magn:    0.0008    constr:    0.0000
     atom:   15    charge:   12.4195    magn:   -4.1257    constr:    0.0000
     atom:   16    charge:    5.7666    magn:    0.0006    constr:    0.0000

     total cpu time spent up to now is     1428.6 secs

     total energy              =   -1946.25273286 Ry
     Harris-Foulkes estimate   =   -1946.25273412 Ry
     estimated scf accuracy    <       0.00000909 Ry

     total magnetization       =    -0.00 Bohr mag/cell
     absolute magnetization    =    37.49 Bohr mag/cell

     iteration #  9     ecut=    41.00 Ry     beta=0.30
     Davidson diagonalization with overlap
     ethr =  5.41E-09,  avg # of iterations =  3.1

     negative rho (up, down):  9.736E-04 5.773E-04

     Magnetic moment per site:
     atom:    1    charge:   12.4160    magn:    4.1211    constr:    0.0000
     atom:    2    charge:    5.7453    magn:   -0.0042    constr:    0.0000
     atom:    3    charge:   12.4078    magn:   -4.1308    constr:    0.0000
     atom:    4    charge:    5.7821    magn:    0.0057    constr:    0.0000
     atom:    5    charge:   12.4049    magn:    4.1251    constr:    0.0000
     atom:    6    charge:    5.7725    magn:    0.0089    constr:    0.0000
     atom:    7    charge:   12.4189    magn:   -4.1268    constr:    0.0000
     atom:    8    charge:    5.7561    magn:   -0.0090    constr:    0.0000
     atom:    9    charge:   12.4066    magn:    4.1238    constr:    0.0000
     atom:   10    charge:    5.7641    magn:   -0.0063    constr:    0.0000
     atom:   11    charge:   12.4183    magn:   -4.1274    constr:    0.0000
     atom:   12    charge:    5.7632    magn:    0.0045    constr:    0.0000
     atom:   13    charge:   12.4056    magn:    4.1252    constr:    0.0000
     atom:   14    charge:    5.7602    magn:    0.0007    constr:    0.0000
     atom:   15    charge:   12.4194    magn:   -4.1258    constr:    0.0000
     atom:   16    charge:    5.7664    magn:    0.0006    constr:    0.0000

     total cpu time spent up to now is     1612.3 secs

     total energy              =   -1946.25273459 Ry
     Harris-Foulkes estimate   =   -1946.25273588 Ry
     estimated scf accuracy    <       0.00000502 Ry

     total magnetization       =    -0.00 Bohr mag/cell
     absolute magnetization    =    37.49 Bohr mag/cell

     iteration # 10     ecut=    41.00 Ry     beta=0.30
     Davidson diagonalization with overlap
     ethr =  2.99E-09,  avg # of iterations =  2.1

     negative rho (up, down):  9.744E-04 5.785E-04

     Magnetic moment per site:
     atom:    1    charge:   12.4160    magn:    4.1213    constr:    0.0000
     atom:    2    charge:    5.7453    magn:   -0.0042    constr:    0.0000
     atom:    3    charge:   12.4078    magn:   -4.1309    constr:    0.0000
     atom:    4    charge:    5.7821    magn:    0.0058    constr:    0.0000
     atom:    5    charge:   12.4049    magn:    4.1253    constr:    0.0000
     atom:    6    charge:    5.7725    magn:    0.0089    constr:    0.0000
     atom:    7    charge:   12.4189    magn:   -4.1269    constr:    0.0000
     atom:    8    charge:    5.7561    magn:   -0.0090    constr:    0.0000
     atom:    9    charge:   12.4066    magn:    4.1239    constr:    0.0000
     atom:   10    charge:    5.7641    magn:   -0.0063    constr:    0.0000
     atom:   11    charge:   12.4183    magn:   -4.1276    constr:    0.0000
     atom:   12    charge:    5.7632    magn:    0.0045    constr:    0.0000
     atom:   13    charge:   12.4056    magn:    4.1254    constr:    0.0000
     atom:   14    charge:    5.7602    magn:    0.0007    constr:    0.0000
     atom:   15    charge:   12.4194    magn:   -4.1260    constr:    0.0000
     atom:   16    charge:    5.7665    magn:    0.0005    constr:    0.0000

     total cpu time spent up to now is     1750.2 secs

     total energy              =   -1946.25273551 Ry
     Harris-Foulkes estimate   =   -1946.25273531 Ry
     estimated scf accuracy    <       0.00000024 Ry

     total magnetization       =    -0.00 Bohr mag/cell
     absolute magnetization    =    37.49 Bohr mag/cell

     iteration # 11     ecut=    41.00 Ry     beta=0.30
     Davidson diagonalization with overlap
     ethr =  1.43E-10,  avg # of iterations =  2.3

     negative rho (up, down):  9.755E-04 5.800E-04

     Magnetic moment per site:
     atom:    1    charge:   12.4160    magn:    4.1213    constr:    0.0000
     atom:    2    charge:    5.7453    magn:   -0.0042    constr:    0.0000
     atom:    3    charge:   12.4078    magn:   -4.1308    constr:    0.0000
     atom:    4    charge:    5.7821    magn:    0.0058    constr:    0.0000
     atom:    5    charge:   12.4049    magn:    4.1252    constr:    0.0000
     atom:    6    charge:    5.7725    magn:    0.0090    constr:    0.0000
     atom:    7    charge:   12.4189    magn:   -4.1269    constr:    0.0000
     atom:    8    charge:    5.7561    magn:   -0.0091    constr:    0.0000
     atom:    9    charge:   12.4066    magn:    4.1239    constr:    0.0000
     atom:   10    charge:    5.7641    magn:   -0.0064    constr:    0.0000
     atom:   11    charge:   12.4183    magn:   -4.1276    constr:    0.0000
     atom:   12    charge:    5.7632    magn:    0.0045    constr:    0.0000
     atom:   13    charge:   12.4056    magn:    4.1253    constr:    0.0000
     atom:   14    charge:    5.7602    magn:    0.0007    constr:    0.0000
     atom:   15    charge:   12.4194    magn:   -4.1260    constr:    0.0000
     atom:   16    charge:    5.7665    magn:    0.0005    constr:    0.0000

     total cpu time spent up to now is     1885.2 secs

     total energy              =   -1946.25273561 Ry
     Harris-Foulkes estimate   =   -1946.25273553 Ry
     estimated scf accuracy    <       0.00000012 Ry

     total magnetization       =    -0.00 Bohr mag/cell
     absolute magnetization    =    37.49 Bohr mag/cell

     iteration # 12     ecut=    41.00 Ry     beta=0.30
     Davidson diagonalization with overlap
     ethr =  6.85E-11,  avg # of iterations =  2.9

     negative rho (up, down):  9.760E-04 5.808E-04

     Magnetic moment per site:
     atom:    1    charge:   12.4160    magn:    4.1213    constr:    0.0000
     atom:    2    charge:    5.7453    magn:   -0.0042    constr:    0.0000
     atom:    3    charge:   12.4078    magn:   -4.1308    constr:    0.0000
     atom:    4    charge:    5.7821    magn:    0.0058    constr:    0.0000
     atom:    5    charge:   12.4049    magn:    4.1253    constr:    0.0000
     atom:    6    charge:    5.7725    magn:    0.0089    constr:    0.0000
     atom:    7    charge:   12.4189    magn:   -4.1270    constr:    0.0000
     atom:    8    charge:    5.7561    magn:   -0.0090    constr:    0.0000
     atom:    9    charge:   12.4066    magn:    4.1240    constr:    0.0000
     atom:   10    charge:    5.7641    magn:   -0.0063    constr:    0.0000
     atom:   11    charge:   12.4183    magn:   -4.1276    constr:    0.0000
     atom:   12    charge:    5.7632    magn:    0.0045    constr:    0.0000
     atom:   13    charge:   12.4056    magn:    4.1254    constr:    0.0000
     atom:   14    charge:    5.7602    magn:    0.0007    constr:    0.0000
     atom:   15    charge:   12.4194    magn:   -4.1260    constr:    0.0000
     atom:   16    charge:    5.7665    magn:    0.0005    constr:    0.0000

     total cpu time spent up to now is     2043.4 secs

     total energy              =   -1946.25273568 Ry
     Harris-Foulkes estimate   =   -1946.25273563 Ry
     estimated scf accuracy    <       0.00000002 Ry

     total magnetization       =    -0.00 Bohr mag/cell
     absolute magnetization    =    37.49 Bohr mag/cell

     iteration # 13     ecut=    41.00 Ry     beta=0.30
     Davidson diagonalization with overlap
     ethr =  9.36E-12,  avg # of iterations =  2.2

     negative rho (up, down):  9.755E-04 5.800E-04

     Magnetic moment per site:
     atom:    1    charge:   12.4160    magn:    4.1213    constr:    0.0000
     atom:    2    charge:    5.7453    magn:   -0.0042    constr:    0.0000
     atom:    3    charge:   12.4078    magn:   -4.1309    constr:    0.0000
     atom:    4    charge:    5.7821    magn:    0.0058    constr:    0.0000
     atom:    5    charge:   12.4049    magn:    4.1253    constr:    0.0000
     atom:    6    charge:    5.7725    magn:    0.0089    constr:    0.0000
     atom:    7    charge:   12.4189    magn:   -4.1270    constr:    0.0000
     atom:    8    charge:    5.7561    magn:   -0.0090    constr:    0.0000
     atom:    9    charge:   12.4066    magn:    4.1240    constr:    0.0000
     atom:   10    charge:    5.7642    magn:   -0.0063    constr:    0.0000
     atom:   11    charge:   12.4183    magn:   -4.1276    constr:    0.0000
     atom:   12    charge:    5.7632    magn:    0.0045    constr:    0.0000
     atom:   13    charge:   12.4056    magn:    4.1254    constr:    0.0000
     atom:   14    charge:    5.7602    magn:    0.0007    constr:    0.0000
     atom:   15    charge:   12.4194    magn:   -4.1260    constr:    0.0000
     atom:   16    charge:    5.7665    magn:    0.0005    constr:    0.0000

     total cpu time spent up to now is     2186.5 secs

     End of self-consistent calculation
 --- enter write_ns ---
 LDA+U parameters:
U( 1)     =  3.00000000
alpha( 1) =  0.00000000
U( 2)     =  3.00000000
alpha( 2) =  0.00000000
atom    1   Tr[ns(na)] (up, down, total) =   4.97877  0.53786  5.51663
   spin  1
    eigenvalues: 
  0.994  0.995  0.996  0.997  0.997
    eigenvectors:
  0.369  0.558  0.001  0.055  0.018
  0.018  0.070  0.200  0.496  0.216
  0.032  0.000  0.531  0.000  0.437
  0.558  0.349  0.001  0.034  0.058
  0.023  0.023  0.268  0.414  0.272
    occupations:
  0.995 -0.000 -0.000  0.000 -0.000
 -0.000  0.996 -0.000 -0.001 -0.000
 -0.000 -0.000  0.996  0.000  0.000
  0.000 -0.001  0.000  0.995  0.000
 -0.000 -0.000  0.000  0.000  0.996
   spin  2
    eigenvalues: 
  0.061  0.062  0.063  0.174  0.177
    eigenvectors:
  0.000  0.001  0.001  0.467  0.531
  0.098  0.131  0.770  0.001  0.000
  0.683  0.312  0.004  0.000  0.001
  0.000  0.000  0.001  0.531  0.468
  0.219  0.556  0.224  0.001  0.000
    occupations:
  0.176  0.002  0.003 -0.001  0.003
  0.002  0.063 -0.000  0.003  0.001
  0.003 -0.000  0.061 -0.002  0.001
 -0.001  0.003 -0.002  0.176  0.002
  0.003  0.001  0.001  0.002  0.062
atomic mag. moment =     4.440911
atom    3   Tr[ns(na)] (up, down, total) =   0.50621  4.98574  5.49196
   spin  1
    eigenvalues: 
  0.056  0.058  0.059  0.165  0.168
    eigenvectors:
  0.000  0.000  0.001  0.664  0.335
  0.695  0.299  0.006  0.000  0.001
  0.210  0.372  0.417  0.001  0.000
  0.000  0.000  0.001  0.334  0.664
  0.095  0.329  0.575  0.002  0.000
    occupations:
  0.166  0.001  0.001  0.002  0.004
  0.001  0.057 -0.001  0.003  0.000
  0.001 -0.001  0.058 -0.003  0.001
  0.002  0.003 -0.003  0.167 -0.002
  0.004  0.000  0.001 -0.002  0.058
   spin  2
    eigenvalues: 
  0.997  0.997  0.997  0.997  0.998
    eigenvectors:
  0.162  0.024  0.142  0.056  0.617
  0.121  0.436  0.181  0.252  0.010
  0.109  0.006  0.608  0.161  0.116
  0.331  0.080  0.045  0.432  0.112
  0.278  0.455  0.023  0.099  0.144
    occupations:
  0.997 -0.000 -0.000 -0.000 -0.000
 -0.000  0.997 -0.000 -0.000  0.000
 -0.000 -0.000  0.997  0.000  0.000
 -0.000 -0.000  0.000  0.997 -0.000
 -0.000  0.000  0.000 -0.000  0.997
atomic mag. moment =    -4.479531
atom    5   Tr[ns(na)] (up, down, total) =   4.98329  0.51722  5.50051
   spin  1
    eigenvalues: 
  0.996  0.996  0.997  0.997  0.997
    eigenvectors:
  0.127  0.334  0.081  0.010  0.447
  0.040  0.051  0.296  0.437  0.176
  0.036  0.047  0.562  0.334  0.021
  0.655  0.188  0.003  0.145  0.008
  0.141  0.379  0.058  0.074  0.347
    occupations:
  0.997 -0.000 -0.000  0.000 -0.000
 -0.000  0.997 -0.000 -0.000  0.000
 -0.000 -0.000  0.997  0.000  0.000
  0.000 -0.000  0.000  0.996  0.000
 -0.000  0.000  0.000  0.000  0.997
   spin  2
    eigenvalues: 
  0.058  0.060  0.060  0.164  0.175
    eigenvectors:
  0.000  0.000  0.002  0.832  0.165
  0.110  0.752  0.137  0.000  0.000
  0.857  0.140  0.002  0.000  0.001
  0.000  0.001  0.000  0.165  0.833
  0.032  0.107  0.859  0.002  0.000
    occupations:
  0.166  0.001  0.001 -0.004  0.005
  0.001  0.060 -0.001  0.003  0.000
  0.001 -0.001  0.058 -0.003  0.000
 -0.004  0.003 -0.003  0.173  0.000
  0.005  0.000  0.000  0.000  0.060
atomic mag. moment =     4.466065
atom    7   Tr[ns(na)] (up, down, total) =   0.52703  4.98114  5.50817
   spin  1
    eigenvalues: 
  0.059  0.061  0.062  0.167  0.178
    eigenvectors:
  0.000  0.001  0.001  0.212  0.787
  0.294  0.702  0.004  0.000  0.001
  0.045  0.005  0.949  0.002  0.000
  0.000  0.000  0.001  0.786  0.212
  0.661  0.293  0.046  0.000  0.000
    occupations:
  0.175  0.003  0.003  0.005  0.002
  0.003  0.061 -0.000  0.002  0.001
  0.003 -0.000  0.063 -0.003  0.001
  0.005  0.002 -0.003  0.169 -0.000
  0.002  0.001  0.001 -0.000  0.060
   spin  2
    eigenvalues: 
  0.995  0.996  0.997  0.997  0.997
    eigenvectors:
  0.836  0.000  0.038  0.078  0.047
  0.084  0.001  0.827  0.008  0.080
  0.048  0.261  0.015  0.674  0.002
  0.012  0.738  0.008  0.239  0.002
  0.020  0.000  0.111  0.001  0.868
    occupations:
  0.995 -0.000 -0.000 -0.000 -0.000
 -0.000  0.997 -0.000 -0.000  0.000
 -0.000 -0.000  0.996  0.000 -0.000
 -0.000 -0.000  0.000  0.996 -0.000
 -0.000  0.000 -0.000 -0.000  0.997
atomic mag. moment =    -4.454111
atom    9   Tr[ns(na)] (up, down, total) =   4.98281  0.52024  5.50305
   spin  1
    eigenvalues: 
  0.996  0.996  0.997  0.997  0.997
    eigenvectors:
  0.226  0.484  0.038  0.003  0.249
  0.100  0.419  0.163  0.091  0.228
  0.041  0.006  0.387  0.566  0.001
  0.608  0.050  0.058  0.141  0.143
  0.025  0.041  0.354  0.200  0.380
    occupations:
  0.996 -0.000 -0.000  0.000 -0.000
 -0.000  0.997 -0.000 -0.000  0.000
 -0.000 -0.000  0.997  0.000  0.000
  0.000 -0.000  0.000  0.996  0.000
 -0.000  0.000  0.000  0.000  0.997
   spin  2
    eigenvalues: 
  0.058  0.060  0.061  0.167  0.174
    eigenvectors:
  0.000  0.001  0.000  0.544  0.455
  0.063  0.028  0.906  0.002  0.000
  0.780  0.131  0.088  0.000  0.000
  0.000  0.000  0.002  0.454  0.544
  0.156  0.840  0.003  0.000  0.001
    occupations:
  0.170  0.003  0.001 -0.003  0.003
  0.003  0.061 -0.001  0.004  0.000
  0.001 -0.001  0.059 -0.002  0.001
 -0.003  0.004 -0.002  0.171 -0.001
  0.003  0.000  0.001 -0.001  0.060
atomic mag. moment =     4.462575
atom   11   Tr[ns(na)] (up, down, total) =   0.52553  4.98176  5.50728
   spin  1
    eigenvalues: 
  0.059  0.060  0.061  0.170  0.175
    eigenvectors:
  0.000  0.001  0.001  0.762  0.236
  0.497  0.028  0.475  0.000  0.000
  0.235  0.677  0.087  0.001  0.001
  0.000  0.001  0.001  0.236  0.763
  0.269  0.294  0.436  0.001  0.001
    occupations:
  0.171  0.001  0.002  0.002  0.004
  0.001  0.060 -0.001  0.001  0.001
  0.002 -0.001  0.060 -0.004  0.000
  0.002  0.001 -0.004  0.173  0.001
  0.004  0.001  0.000  0.001  0.061
   spin  2
    eigenvalues: 
  0.996  0.996  0.997  0.997  0.997
    eigenvectors:
  0.011  0.745  0.024  0.019  0.202
  0.016  0.024  0.018  0.576  0.366
  0.143  0.032  0.515  0.163  0.146
  0.826  0.006  0.095  0.066  0.007
  0.005  0.193  0.348  0.176  0.279
    occupations:
  0.996 -0.000 -0.000 -0.000 -0.000
 -0.000  0.997  0.000 -0.000 -0.000
 -0.000  0.000  0.997  0.000  0.000
 -0.000 -0.000  0.000  0.996  0.000
 -0.000 -0.000  0.000  0.000  0.997
atomic mag. moment =    -4.456230
atom   13   Tr[ns(na)] (up, down, total) =   4.98326  0.51779  5.50105
   spin  1
    eigenvalues: 
  0.996  0.996  0.997  0.997  0.997
    eigenvectors:
  0.002  0.733  0.012  0.147  0.106
  0.074  0.035  0.420  0.302  0.169
  0.248  0.042  0.382  0.018  0.312
  0.673  0.006  0.033  0.109  0.179
  0.003  0.184  0.154  0.424  0.234
    occupations:
  0.997 -0.000 -0.000 -0.000 -0.000
 -0.000  0.997 -0.000 -0.000  0.000
 -0.000 -0.000  0.997  0.000  0.000
 -0.000 -0.000  0.000  0.996 -0.000
 -0.000  0.000  0.000 -0.000  0.997
   spin  2
    eigenvalues: 
  0.058  0.059  0.060  0.168  0.172
    eigenvectors:
  0.000  0.000  0.002  0.667  0.331
  0.440  0.306  0.253  0.000  0.001
  0.284  0.674  0.040  0.001  0.000
  0.000  0.002  0.000  0.331  0.667
  0.276  0.018  0.705  0.000  0.001
    occupations:
  0.169  0.003  0.002  0.002  0.003
  0.003  0.059 -0.000  0.002  0.001
  0.002 -0.000  0.059 -0.004  0.000
  0.002  0.002 -0.004  0.171  0.001
  0.003  0.001  0.000  0.001  0.060
atomic mag. moment =     4.465465
atom   15   Tr[ns(na)] (up, down, total) =   0.52803  4.98125  5.50929
   spin  1
    eigenvalues: 
  0.059  0.061  0.062  0.169  0.177
    eigenvectors:
  0.000  0.001  0.000  0.349  0.650
  0.050  0.053  0.895  0.001  0.000
  0.296  0.602  0.101  0.000  0.000
  0.000  0.000  0.001  0.650  0.348
  0.653  0.343  0.002  0.000  0.001
    occupations:
  0.174  0.000  0.001 -0.003  0.004
  0.000  0.062 -0.001  0.004  0.000
  0.001 -0.001  0.060 -0.002  0.001
 -0.003  0.004 -0.002  0.172 -0.001
  0.004  0.000  0.001 -0.001  0.060
   spin  2
    eigenvalues: 
  0.995  0.996  0.997  0.997  0.997
    eigenvectors:
  0.777  0.076  0.007  0.006  0.134
  0.019  0.209  0.198  0.007  0.568
  0.011  0.031  0.004  0.950  0.004
  0.115  0.684  0.079  0.034  0.087
  0.078  0.000  0.712  0.003  0.207
    occupations:
  0.995 -0.000 -0.000  0.000 -0.000
 -0.000  0.997  0.000 -0.000  0.000
 -0.000  0.000  0.997  0.000 -0.000
  0.000 -0.000  0.000  0.996  0.000
 -0.000  0.000 -0.000  0.000  0.997
atomic mag. moment =    -4.453222
N of occupied +U levels =   44.037938
 --- exit write_ns ---

 ------ SPIN UP ------------


          k = 0.0000 0.0000 0.0000 (  5263 PWs)   bands (ev):

   -68.6024 -68.5972 -68.5796 -68.3658 -63.6090 -63.3914 -63.3884 -63.3727
   -37.4962 -37.4910 -37.4905 -37.4712 -37.4690 -37.4643 -37.4472 -37.4436
   -37.4317 -37.2595 -37.2372 -37.2324 -32.6099 -32.5932 -32.5885 -32.4028
   -32.3945 -32.3910 -32.3897 -32.3840 -32.3728 -32.3631 -32.3437 -32.3398
    -6.6473  -5.9133  -5.8110  -5.7520  -5.6196  -5.5909  -5.5403  -5.3954
     4.9517   4.9560   4.9648   5.0105   6.4597   6.4781   6.4869   6.7276
     6.7512   6.8597   6.8692   6.8826   6.9963   7.0261   7.0514   8.2498
     8.2749   8.3102   8.5344   8.5811   8.6629   8.6881   8.7211   8.8044
     8.8240   8.8876   9.2650   9.3123   9.3321   9.3720   9.6388   9.7301
     9.7444   9.7591   9.8042   9.9161  11.0605  11.1135  11.3528  11.3870
    11.4318  11.4725  11.6025  11.6265  13.1172  15.0624  15.0835  15.1172
    15.7385  15.7508  15.7613  16.3673  16.4113  16.4185  16.4664  16.4744
    16.5006  16.5333  16.5532  16.6976  16.7895

          k = 0.1753 0.1753-0.1723 (  5270 PWs)   bands (ev):

   -68.6020 -68.5970 -68.5794 -68.3655 -63.6091 -63.3912 -63.3888 -63.3728
   -37.4955 -37.4906 -37.4868 -37.4711 -37.4695 -37.4630 -37.4504 -37.4459
   -37.4318 -37.2594 -37.2378 -37.2332 -32.6101 -32.5920 -32.5876 -32.4019
   -32.3927 -32.3918 -32.3853 -32.3826 -32.3735 -32.3645 -32.3500 -32.3410
    -6.5201  -5.9500  -5.8126  -5.7597  -5.6860  -5.6187  -5.5530  -5.4099
     5.2306   5.2379   5.2905   5.3925   6.3244   6.3514   6.4063   6.6512
     6.7924   6.8292   6.8600   6.9387   7.0018   7.2230   7.2553   7.6251
     7.6504   8.1076   8.1428   8.3223   8.4375   8.5336   8.6069   8.8795
     9.0192   9.0501   9.1305   9.2621   9.4274   9.4768   9.5245   9.6277
     9.6858   9.7428   9.8038   9.8268  11.2173  11.2803  11.3335  11.3739
    11.4111  11.4721  11.5991  11.6676  14.0592  15.0358  15.2434  15.2691
    15.4802  15.8133  15.8430  16.0670  16.0950  16.1987  16.3184  16.3711
    16.3942  16.4155  16.4803  16.5883  16.6276

          k =-0.3506-0.3506 0.3447 (  5310 PWs)   bands (ev):

   -68.6017 -68.5968 -68.5791 -68.3653 -63.6092 -63.3910 -63.3891 -63.3729
   -37.4949 -37.4907 -37.4783 -37.4752 -37.4710 -37.4584 -37.4556 -37.4486
   -37.4318 -37.2593 -37.2385 -37.2339 -32.6103 -32.5909 -32.5866 -32.4010
   -32.3929 -32.3922 -32.3817 -32.3751 -32.3721 -32.3657 -32.3625 -32.3419
    -6.2399  -6.1665  -5.8423  -5.7670  -5.7274  -5.6213  -5.5677  -5.4178
     5.7747   5.7988   5.8846   5.9895   6.0193   6.0474   6.3828   6.4364
     6.6657   6.8305   6.8619   6.9394   7.0220   7.0627   7.0978   7.1193
     7.5050   7.5587   8.0845   8.1602   8.2508   8.3045   8.5138   8.5855
     8.9354   9.0140   9.2488   9.3221   9.5205   9.5553   9.5796   9.6141
     9.6608   9.7171   9.7995   9.8374  11.1457  11.2470  11.3849  11.4299
    11.4895  11.5003  11.6900  11.7128  15.0122  15.1031  15.5640  15.5804
    15.6291  15.6619  15.7573  15.8008  16.0385  16.0684  16.1537  16.1946
    16.2840  16.3076  16.3937  16.4435  16.4927

          k = 0.3506 0.0030 0.0030 (  5287 PWs)   bands (ev):

   -68.6023 -68.5972 -68.5796 -68.3658 -63.6088 -63.3912 -63.3881 -63.3725
   -37.4954 -37.4903 -37.4879 -37.4709 -37.4688 -37.4616 -37.4502 -37.4450
   -37.4334 -37.2592 -37.2376 -37.2333 -32.6104 -32.5919 -32.5879 -32.4028
   -32.3928 -32.3899 -32.3878 -32.3830 -32.3740 -32.3642 -32.3462 -32.3442
    -6.4832  -5.9589  -5.8207  -5.7747  -5.6661  -5.6339  -5.5663  -5.4178
     5.3170   5.3326   5.3494   5.3934   6.1761   6.4937   6.5064   6.7013
     6.7909   6.8123   6.8329   6.9379   7.0565   7.0945   7.2821   7.5980
     7.6206   8.0674   8.1965   8.2397   8.3656   8.4258   8.4938   8.7193
     8.9024   9.0482   9.1834   9.2795   9.4347   9.4776   9.5597   9.7137
     9.7768   9.9024   9.9125  10.0672  11.0511  11.1074  11.1324  11.3011
    11.3402  11.3951  11.4866  11.5845  14.3543  15.1364  15.1582  15.1982
    15.6059  15.6782  15.8047  15.9834  16.1265  16.1673  16.2823  16.3251
    16.3453  16.3855  16.4163  16.5465  16.5936

          k =-0.1753-0.5230 0.5200 (  5293 PWs)   bands (ev):

   -68.6019 -68.5970 -68.5794 -68.3655 -63.6089 -63.3911 -63.3884 -63.3726
   -37.4948 -37.4904 -37.4819 -37.4716 -37.4706 -37.4581 -37.4553 -37.4471
   -37.4337 -37.2591 -37.2382 -37.2341 -32.6106 -32.5906 -32.5871 -32.4020
   -32.3925 -32.3901 -32.3819 -32.3802 -32.3746 -32.3646 -32.3564 -32.3442
    -6.2530  -6.0670  -5.9065  -5.7621  -5.7308  -5.6499  -5.5706  -5.4183
     5.7039   5.7437   5.8072   6.0316   6.1771   6.2434   6.4094   6.5494
     6.5932   6.7326   6.8603   6.9773   7.0238   7.1242   7.2469   7.3438
     7.4874   7.6357   7.7117   7.8236   7.8976   8.2346   8.6847   8.8082
     8.9402   8.9984   9.1341   9.2735   9.5926   9.6344   9.6881   9.7628
     9.8145   9.9162   9.9696  10.0115  10.8631  11.0503  11.1469  11.2395
    11.3190  11.3368  11.4205  11.6283  15.2194  15.2484  15.3839  15.5004
    15.5611  15.6644  15.7419  15.8279  15.9574  16.0478  16.0754  16.1580
    16.1828  16.3777  16.4025  16.4411  16.5179

          k = 0.0000-0.3477 0.3477 (  5294 PWs)   bands (ev):

   -68.6018 -68.5967 -68.5791 -68.3653 -63.6092 -63.3911 -63.3891 -63.3730
   -37.4953 -37.4904 -37.4827 -37.4710 -37.4703 -37.4606 -37.4504 -37.4499
   -37.4342 -37.2593 -37.2388 -37.2335 -32.6104 -32.5914 -32.5861 -32.4024
   -32.3921 -32.3889 -32.3853 -32.3749 -32.3709 -32.3687 -32.3591 -32.3429
    -6.3440  -5.9900  -5.9081  -5.7442  -5.7103  -5.6735  -5.5646  -5.4125
     5.6024   5.6538   5.7052   5.8128   6.2099   6.2627   6.4049   6.5320
     6.7526   6.8022   6.9118   6.9666   7.0042   7.1577   7.2600   7.3355
     7.4944   7.5400   7.6011   7.9186   8.1217   8.5198   8.5927   8.8351
     9.0166   9.0806   9.0895   9.2259   9.5596   9.6169   9.6501   9.6765
     9.7667   9.8067   9.8304  10.0290  11.0167  11.1442  11.2179  11.3195
    11.3776  11.4385  11.4928  11.6806  15.0591  15.2913  15.3274  15.4764
    15.5924  15.6850  15.7509  15.8352  16.0115  16.0983  16.1381  16.1636
    16.1996  16.3335  16.3829  16.4021  16.5544

          k =-0.7013-0.0060-0.0060 (  5286 PWs)   bands (ev):

   -68.6022 -68.5973 -68.5797 -68.3658 -63.6086 -63.3910 -63.3878 -63.3723
   -37.4947 -37.4901 -37.4841 -37.4706 -37.4688 -37.4571 -37.4548 -37.4475
   -37.4349 -37.2590 -37.2380 -37.2342 -32.6110 -32.5907 -32.5871 -32.4031
   -32.3928 -32.3902 -32.3815 -32.3796 -32.3759 -32.3655 -32.3537 -32.3459
    -6.1841  -6.1261  -5.8358  -5.7861  -5.7379  -5.7019  -5.5645  -5.4302
     5.7100   5.7587   5.7982   5.8214   6.4334   6.4463   6.5267   6.5516
     6.7684   6.8052   6.9484   6.9723   7.0084   7.0549   7.1582   7.1981
     7.2504   7.3047   7.7481   7.7667   8.1589   8.2714   8.5971   8.7391
     8.9090   8.9801   9.3194   9.3821   9.5230   9.5963   9.8180   9.8551
     9.9919  10.1061  10.2661  10.3255  10.4726  10.5131  10.8855  10.9953
    11.0629  11.2445  11.3721  11.5552  15.2116  15.2518  15.3774  15.5061
    15.5170  15.6110  15.7184  15.7959  15.9283  16.0048  16.0492  16.1179
    16.1613  16.1946  16.4400  16.5355  16.6015

          k = 0.1783 0.1783 0.1783 (  5320 PWs)   bands (ev):

   -68.6032 -68.5980 -68.5805 -68.3666 -63.6080 -63.3904 -63.3873 -63.3716
   -37.4957 -37.4906 -37.4899 -37.4706 -37.4688 -37.4640 -37.4471 -37.4435
   -37.4315 -37.2589 -37.2370 -37.2322 -32.6108 -32.5936 -32.5889 -32.4034
   -32.3953 -32.3918 -32.3902 -32.3846 -32.3737 -32.3634 -32.3438 -32.3399
    -6.5137  -5.9516  -5.8467  -5.7974  -5.6971  -5.5742  -5.5339  -5.3990
     5.1842   5.1960   5.2115   5.4391   6.3707   6.3860   6.4121   6.7857
     6.7976   6.8145   6.8527   6.8738   6.9737   7.0241   7.0596   8.0443
     8.1095   8.1232   8.5023   8.5538   8.5797   8.6291   8.6589   8.6973
     8.7275   8.7851   8.8539   9.2368   9.3021   9.3266   9.3691   9.4244
     9.6115   9.8274   9.8457   9.8604  11.2883  11.3262  11.3448  11.4036
    11.4232  11.4727  11.6407  11.6818  14.0874  14.9106  14.9345  14.9669
    15.4577  15.6994  15.7153  16.3094  16.3290  16.3346  16.4482  16.4520
    16.4626  16.4718  16.5019  16.5810  16.6168

          k =-0.3477-0.3477 0.6953 (  5292 PWs)   bands (ev):

   -68.6028 -68.5978 -68.5802 -68.3664 -63.6081 -63.3903 -63.3876 -63.3718
   -37.4951 -37.4899 -37.4863 -37.4705 -37.4693 -37.4627 -37.4502 -37.4458
   -37.4316 -37.2588 -37.2376 -37.2330 -32.6110 -32.5924 -32.5880 -32.4025
   -32.3935 -32.3925 -32.3860 -32.3831 -32.3744 -32.3648 -32.3501 -32.3411
    -6.3266  -6.0246  -5.8901  -5.8104  -5.7533  -5.5874  -5.5599  -5.3979
     5.5486   5.5596   5.7445   5.8293   6.1362   6.1749   6.3755   6.5905
     6.7027   6.7351   6.7664   6.9308   6.9634   7.3266   7.3635   7.6818
     7.6971   7.8935   7.9449   8.1257   8.1729   8.2943   8.4011   8.4654
     8.8388   8.9784   9.0733   9.1772   9.3886   9.4360   9.4919   9.5338
     9.8525   9.8942   9.9800  10.1202  11.0544  11.1755  11.1862  11.3011
    11.3694  11.4936  11.5425  11.7543  14.8866  15.0419  15.1570  15.1787
    15.3538  15.7184  15.8217  16.1043  16.1237  16.2017  16.2881  16.3344
    16.3580  16.3798  16.3897  16.4531  16.5174

          k =-0.1723-0.1723 0.5230 (  5304 PWs)   bands (ev):

   -68.6019 -68.5971 -68.5794 -68.3655 -63.6089 -63.3907 -63.3888 -63.3726
   -37.4947 -37.4905 -37.4783 -37.4750 -37.4707 -37.4584 -37.4555 -37.4486
   -37.4318 -37.2591 -37.2384 -37.2339 -32.6106 -32.5911 -32.5867 -32.4012
   -32.3930 -32.3925 -32.3820 -32.3750 -32.3724 -32.3658 -32.3626 -32.3419
    -6.2651  -6.0346  -5.9273  -5.7617  -5.7316  -5.6300  -5.6001  -5.4078
     5.7538   5.7696   5.7802   5.9151   6.2336   6.2456   6.3124   6.6130
     6.7576   6.8231   6.8682   6.9455   7.0234   7.0837   7.1135   7.2112
     7.3691   7.4222   8.0164   8.0621   8.1196   8.2332   8.5150   8.6286
     8.9285   8.9802   9.2818   9.3611   9.5255   9.5887   9.6305   9.7475
     9.7925   9.8703   9.9377   9.9641  11.0172  11.1044  11.1331  11.2574
    11.3184  11.3659  11.4025  11.5904  15.0467  15.2786  15.4637  15.5487
    15.5785  15.6433  15.7305  15.7789  15.9738  16.0318  16.0917  16.1573
    16.2576  16.2887  16.4493  16.4875  16.5679

          k =-0.8736 0.1693 0.1693 (  5303 PWs)   bands (ev):

   -68.6031 -68.5980 -68.5805 -68.3666 -63.6078 -63.3903 -63.3870 -63.3714
   -37.4949 -37.4897 -37.4875 -37.4703 -37.4685 -37.4613 -37.4501 -37.4449
   -37.4332 -37.2587 -37.2374 -37.2331 -32.6113 -32.5923 -32.5883 -32.4034
   -32.3936 -32.3904 -32.3886 -32.3835 -32.3748 -32.3645 -32.3463 -32.3443
    -6.2405  -6.0666  -5.8718  -5.8401  -5.8094  -5.5958  -5.5320  -5.4054
     5.6755   5.6907   5.6980   6.0479   6.0782   6.3117   6.3455   6.5212
     6.5930   6.6255   6.9090   6.9403   7.1151   7.2103   7.2292   7.7229
     7.7416   7.8208   7.8532   7.9582   8.1260   8.3399   8.3574   8.4235
     8.7032   8.8758   9.1587   9.2131   9.4284   9.4842   9.5216   9.5836
     9.9170   9.9836  10.0517  10.1150  10.9527  11.1107  11.1633  11.2559
    11.3070  11.3998  11.4238  11.6365  15.0025  15.0733  15.1161  15.1582
    15.4575  15.6737  15.7842  15.9803  16.1682  16.1809  16.2617  16.2744
    16.3138  16.3753  16.4601  16.4830  16.5613

          k =-0.6983 0.3447-0.0030 (  5306 PWs)   bands (ev):

   -68.6022 -68.5973 -68.5796 -68.3658 -63.6086 -63.3907 -63.3881 -63.3723
   -37.4946 -37.4902 -37.4819 -37.4714 -37.4704 -37.4580 -37.4553 -37.4471
   -37.4337 -37.2589 -37.2380 -37.2341 -32.6109 -32.5907 -32.5872 -32.4022
   -32.3928 -32.3903 -32.3821 -32.3804 -32.3747 -32.3649 -32.3564 -32.3443
    -6.1588  -6.0085  -5.9934  -5.8642  -5.7469  -5.6128  -5.5775  -5.4072
     5.8905   5.9398   6.0117   6.0275   6.1068   6.2161   6.3218   6.4084
     6.5906   6.7989   6.8763   6.9912   7.0230   7.0648   7.2537   7.3670
     7.5589   7.6105   7.7314   7.7510   7.7799   8.2344   8.3151   8.7009
     8.9113   9.0280   9.1218   9.2754   9.6008   9.6302   9.7001   9.7678
     9.9262  10.0823  10.1260  10.2525  10.6298  10.7969  10.9685  11.1802
    11.2661  11.3560  11.3911  11.6153  15.2816  15.3006  15.4359  15.5214
    15.5874  15.6199  15.8020  15.8269  15.8834  15.9366  16.0721  16.1317
    16.1507  16.3655  16.4003  16.4060  16.5138

          k =-0.3566-0.3566-0.3566 (  5300 PWs)   bands (ev):

   -68.6040 -68.5988 -68.5813 -68.3674 -63.6070 -63.3895 -63.3862 -63.3706
   -37.4952 -37.4902 -37.4892 -37.4699 -37.4685 -37.4636 -37.4470 -37.4434
   -37.4314 -37.2584 -37.2368 -37.2320 -32.6116 -32.5940 -32.5893 -32.4040
   -32.3960 -32.3926 -32.3907 -32.3852 -32.3746 -32.3637 -32.3439 -32.3400
    -6.2301  -6.1321  -5.8964  -5.8431  -5.8061  -5.5461  -5.5136  -5.3891
     5.5233   5.5314   5.5337   6.1586   6.4080   6.4565   6.4995   6.5214
     6.5627   6.5912   6.8488   6.8711   6.8807   6.9318   6.9754   7.6046
     7.9613   7.9886   8.0510   8.4818   8.5330   8.5754   8.6416   8.6808
     8.6921   8.7129   8.7922   9.0589   9.0773   9.2750   9.3354   9.3463
     9.5380   9.8725   9.9021   9.9072  11.1825  11.2780  11.2983  11.5060
    11.5443  11.5655  11.8246  11.8590  14.7949  14.8180  14.8533  15.0039
    15.5353  15.6595  15.6756  16.2256  16.2463  16.2605  16.3126  16.3854
    16.4060  16.4449  16.4509  16.4983  16.5589

          k = 0.1723-0.1753-0.1753 (  5270 PWs)   bands (ev):

   -68.6021 -68.5970 -68.5794 -68.3655 -63.6091 -63.3914 -63.3885 -63.3728
   -37.4955 -37.4905 -37.4881 -37.4711 -37.4688 -37.4618 -37.4503 -37.4451
   -37.4334 -37.2594 -37.2377 -37.2333 -32.6101 -32.5919 -32.5877 -32.4024
   -32.3926 -32.3896 -32.3875 -32.3831 -32.3738 -32.3640 -32.3462 -32.3441
    -6.5227  -5.9219  -5.8275  -5.7508  -5.7217  -5.6079  -5.5535  -5.4040
     5.2252   5.2299   5.2858   5.4062   6.3402   6.3486   6.3941   6.6782
     6.8036   6.8125   6.8491   6.9661   7.0024   7.2093   7.2431   7.6182
     7.6368   8.0921   8.1503   8.3071   8.4040   8.5729   8.6114   8.8713
     9.0489   9.0651   9.1332   9.2954   9.4243   9.4597   9.5179   9.6206
     9.6886   9.7331   9.8108   9.8289  11.2094  11.2681  11.3021  11.3555
    11.4452  11.4868  11.5933  11.6732  14.0580  15.0453  15.2311  15.2674
    15.4814  15.8081  15.8324  16.0749  16.0925  16.1996  16.3247  16.3633
    16.4033  16.4071  16.4803  16.5986  16.6334

          k =-0.1753 0.1723-0.1753 (  5270 PWs)   bands (ev):

   -68.6021 -68.5968 -68.5794 -68.3656 -63.6091 -63.3912 -63.3887 -63.3728
   -37.4959 -37.4903 -37.4883 -37.4711 -37.4681 -37.4624 -37.4480 -37.4466
   -37.4340 -37.2594 -37.2382 -37.2327 -32.6102 -32.5926 -32.5870 -32.4034
   -32.3927 -32.3887 -32.3873 -32.3821 -32.3734 -32.3647 -32.3497 -32.3414
    -6.5214  -5.9300  -5.8411  -5.7513  -5.6858  -5.6192  -5.5550  -5.4064
     5.2193   5.2440   5.2908   5.3956   6.3358   6.3431   6.4064   6.6650
     6.8074   6.8241   6.8560   6.9459   6.9822   7.2312   7.2424   7.5898
     7.6668   8.0853   8.1679   8.3430   8.4361   8.5483   8.5714   8.8574
     9.0236   9.0678   9.1537   9.2821   9.4350   9.4706   9.5078   9.6476
     9.6782   9.7194   9.7966   9.8377  11.2205  11.2531  11.3257  11.3731
    11.4118  11.4814  11.6231  11.6584  14.0606  15.0313  15.2453  15.2702
    15.4808  15.8052  15.8456  16.0606  16.1034  16.1961  16.3238  16.3697
    16.3984  16.4145  16.4714  16.5918  16.6316

          k =-0.3447 0.3506 0.3506 (  5310 PWs)   bands (ev):

   -68.6017 -68.5968 -68.5791 -68.3653 -63.6092 -63.3914 -63.3887 -63.3730
   -37.4948 -37.4905 -37.4845 -37.4710 -37.4687 -37.4573 -37.4551 -37.4476
   -37.4349 -37.2592 -37.2382 -37.2343 -32.6102 -32.5906 -32.5869 -32.4022
   -32.3925 -32.3894 -32.3818 -32.3795 -32.3754 -32.3651 -32.3536 -32.3457
    -6.2934  -6.0586  -5.8947  -5.7914  -5.7132  -5.6286  -5.5601  -5.4098
     5.7205   5.7628   5.8588   6.0051   6.0706   6.1214   6.3758   6.4740
     6.7247   6.7893   6.8992   6.9565   6.9650   7.0334   7.0734   7.0963
     7.4758   7.5410   8.0793   8.1258   8.3091   8.3376   8.4879   8.6063
     8.9137   9.0263   9.2782   9.3479   9.5193   9.5518   9.5886   9.6262
     9.6750   9.6856   9.8045   9.8266  11.0916  11.2377  11.4131  11.4247
    11.4640  11.5285  11.6820  11.7152  15.0219  15.0990  15.5415  15.5698
    15.6183  15.6830  15.7376  15.7967  16.0570  16.0816  16.1414  16.1785
    16.2987  16.3012  16.3992  16.4374  16.5301

          k = 0.3506-0.3447 0.3506 (  5310 PWs)   bands (ev):

   -68.6019 -68.5965 -68.5792 -68.3653 -63.6092 -63.3911 -63.3891 -63.3730
   -37.4956 -37.4901 -37.4851 -37.4711 -37.4671 -37.4588 -37.4536 -37.4468
   -37.4366 -37.2593 -37.2392 -37.2331 -32.6104 -32.5920 -32.5854 -32.4040
   -32.3919 -32.3880 -32.3845 -32.3747 -32.3709 -32.3655 -32.3633 -32.3424
    -6.2736  -6.1057  -5.8880  -5.7705  -5.6794  -5.6621  -5.5570  -5.4138
     5.7350   5.7942   5.8901   5.9677   6.0462   6.0966   6.3538   6.4737
     6.7257   6.8005   6.9116   6.9646   6.9864   7.0201   7.0398   7.1090
     7.4952   7.5405   8.1030   8.1585   8.2611   8.3161   8.5262   8.5860
     8.8928   9.0700   9.2426   9.3358   9.5090   9.5689   9.6082   9.6305
     9.6443   9.6550   9.8129   9.8406  11.1211  11.2629  11.3601  11.4406
    11.4819  11.5030  11.6952  11.7206  14.9963  15.1224  15.5452  15.5813
    15.6324  15.6992  15.7336  15.7889  16.0432  16.0809  16.1582  16.1706
    16.2914  16.3100  16.3965  16.4394  16.4936

[...]
     5.7065   5.7609   5.7993   6.0405   6.1973   6.2720   6.4207   6.5704
     6.6287   6.6977   6.8665   6.9525   7.0070   7.1446   7.2111   7.3754
     7.4475   7.6106   7.6845   7.8237   7.8919   8.1963   8.6611   8.8292
     8.9290   8.9949   9.0691   9.2663   9.5661   9.6224   9.6908   9.7088
     9.8185   9.8994   9.9485  10.0040  10.7828  10.9996  11.1353  11.1895
    11.2280  11.4290  11.4685  11.5831  15.1760  15.2731  15.3993  15.5138
    15.6182  15.6646  15.7434  15.8633  15.9514  16.0836  16.0984  16.1725
    16.2060  16.3883  16.4215  16.5068  16.5358

          k =-0.5230 0.5200-0.1753 (  5293 PWs)   bands (ev):

   -68.7288 -68.5060 -68.5047 -68.4868 -63.4838 -63.4788 -63.4627 -63.2518
   -37.6178 -37.5944 -37.5896 -37.4013 -37.3957 -37.3838 -37.3831 -37.3768
   -37.3678 -37.3658 -37.3572 -37.3428 -32.4911 -32.4857 -32.4852 -32.4715
   -32.4673 -32.4605 -32.4493 -32.4461 -32.4328 -32.2587 -32.2442 -32.2390
    -6.2553  -6.0458  -5.8591  -5.8058  -5.7066  -5.6238  -5.5856  -5.4619
     5.7069   5.7687   5.8021   6.0403   6.1846   6.2683   6.4208   6.5655
     6.6318   6.7004   6.8973   6.9558   7.0038   7.1368   7.2135   7.3675
     7.4310   7.5906   7.6931   7.8185   7.8882   8.1949   8.6723   8.8420
     8.9203   8.9911   9.0874   9.2670   9.5724   9.6261   9.6800   9.7351
     9.7966   9.9022   9.9438  10.0141  10.7884  11.0222  11.1355  11.1721
    11.2376  11.4127  11.4557  11.5626  15.2159  15.2624  15.4144  15.5185
    15.6020  15.6757  15.7255  15.8432  15.9659  16.0674  16.1029  16.1711
    16.1937  16.3870  16.4295  16.5242  16.5490

          k = 0.5200-0.1753-0.5230 (  5293 PWs)   bands (ev):

   -68.7288 -68.5063 -68.5043 -68.4868 -63.4839 -63.4786 -63.4627 -63.2518
   -37.6179 -37.5942 -37.5897 -37.4020 -37.3955 -37.3840 -37.3819 -37.3769
   -37.3729 -37.3613 -37.3554 -37.3445 -32.4911 -32.4884 -32.4853 -32.4698
   -32.4672 -32.4575 -32.4488 -32.4459 -32.4355 -32.2589 -32.2438 -32.2392
    -6.2664  -5.9898  -5.9235  -5.7859  -5.7200  -5.6246  -5.5716  -5.4620
     5.7104   5.7513   5.7993   6.0587   6.1999   6.2622   6.4148   6.5740
     6.6300   6.7110   6.8844   6.9620   7.0142   7.1061   7.2206   7.3630
     7.4534   7.6230   7.6678   7.8113   7.8776   8.1968   8.6779   8.8230
     8.9261   8.9788   9.0926   9.2517   9.5607   9.6108   9.6814   9.7624
     9.7947   9.8908   9.9576   9.9895  10.8029  11.0212  11.1439  11.1707
    11.2656  11.4027  11.4543  11.5803  15.2094  15.2522  15.4095  15.5090
    15.6148  15.6790  15.7538  15.8652  15.9557  16.0667  16.0769  16.1572
    16.1952  16.4029  16.4125  16.5065  16.5446

          k = 0.3477 0.0000-0.3477 (  5294 PWs)   bands (ev):

   -68.7286 -68.5060 -68.5041 -68.4865 -63.4841 -63.4792 -63.4630 -63.2521
   -37.6180 -37.5942 -37.5899 -37.4016 -37.3958 -37.3851 -37.3809 -37.3774
   -37.3740 -37.3609 -37.3550 -37.3448 -32.4903 -32.4860 -32.4845 -32.4729
   -32.4669 -32.4572 -32.4536 -32.4449 -32.4318 -32.2585 -32.2433 -32.2397
    -6.3427  -5.9731  -5.8561  -5.7744  -5.7278  -5.6347  -5.5672  -5.4569
     5.6090   5.6626   5.7618   5.7771   6.2162   6.2736   6.4108   6.5909
     6.7113   6.8428   6.9316   6.9564   6.9828   7.1961   7.2254   7.2742
     7.4790   7.5463   7.5642   7.8904   8.1173   8.5182   8.5565   8.7981
     9.0066   9.0439   9.0753   9.2324   9.5110   9.5902   9.6443   9.7042
     9.7379   9.8002   9.8199  10.0150  10.9270  11.1399  11.2013  11.2508
    11.3594  11.4540  11.5488  11.6101  15.0559  15.3082  15.3754  15.4855
    15.6280  15.6939  15.7460  15.8447  16.0352  16.0875  16.1119  16.1850
    16.2244  16.3862  16.4067  16.4642  16.5076

          k =-0.3477 0.3477 0.0000 (  5294 PWs)   bands (ev):

   -68.7286 -68.5060 -68.5041 -68.4865 -63.4842 -63.4790 -63.4631 -63.2521
   -37.6180 -37.5944 -37.5897 -37.4020 -37.3957 -37.3842 -37.3821 -37.3772
   -37.3730 -37.3612 -37.3554 -37.3446 -32.4908 -32.4880 -32.4850 -32.4698
   -32.4670 -32.4573 -32.4488 -32.4460 -32.4353 -32.2585 -32.2439 -32.2390
    -6.3447  -5.9582  -5.8557  -5.7990  -5.7285  -5.6079  -5.5840  -5.4546
     5.6062   5.6639   5.7607   5.7774   6.2197   6.2621   6.4110   6.5939
     6.7192   6.8300   6.9230   6.9436   7.0032   7.2013   7.2370   7.2796
     7.4831   7.5324   7.5716   7.8923   8.1197   8.5147   8.5518   8.8124
     8.9800   9.0479   9.0654   9.2454   9.5165   9.5985   9.6565   9.6906
     9.7166   9.7796   9.8348  10.0344  10.9055  11.1703  11.1847  11.2487
    11.3498  11.4795  11.5547  11.5955  15.0525  15.3267  15.3542  15.4853
    15.6315  15.6831  15.7796  15.8410  16.0138  16.0836  16.1376  16.1938
    16.2380  16.3654  16.4044  16.4480  16.5155

          k = 0.0060 0.7013 0.0060 (  5286 PWs)   bands (ev):

   -68.7291 -68.5062 -68.5050 -68.4871 -63.4837 -63.4781 -63.4624 -63.2515
   -37.6177 -37.5943 -37.5894 -37.4019 -37.3954 -37.3848 -37.3809 -37.3765
   -37.3674 -37.3635 -37.3609 -37.3421 -32.4925 -32.4886 -32.4854 -32.4678
   -32.4655 -32.4590 -32.4530 -32.4416 -32.4376 -32.2592 -32.2444 -32.2387
    -6.1867  -6.1100  -5.8054  -5.7600  -5.7375  -5.7102  -5.5682  -5.4743
     5.7217   5.7547   5.7753   5.8698   6.4277   6.4794   6.5479   6.6245
     6.7807   6.7868   6.9303   6.9680   7.0209   7.0366   7.1714   7.1930
     7.2130   7.2632   7.6998   7.7439   8.1402   8.2252   8.5883   8.7469
     8.9299   8.9443   9.2687   9.3681   9.5232   9.5928   9.7593   9.8705
     9.9817  10.0943  10.2636  10.3057  10.3745  10.5267  10.8567  10.9273
    11.0201  11.2741  11.4148  11.5115  15.2201  15.2289  15.3888  15.5170
    15.5778  15.6699  15.7256  15.7858  15.9100  16.0298  16.0712  16.1552
    16.1721  16.1980  16.4418  16.5666  16.7032

          k = 0.0060 0.0060 0.7013 (  5286 PWs)   bands (ev):

   -68.7291 -68.5062 -68.5050 -68.4871 -63.4834 -63.4786 -63.4623 -63.2514
   -37.6176 -37.5941 -37.5898 -37.4008 -37.3956 -37.3859 -37.3805 -37.3766
   -37.3694 -37.3633 -37.3589 -37.3423 -32.4906 -32.4864 -32.4807 -32.4776
   -32.4676 -32.4569 -32.4542 -32.4478 -32.4291 -32.2590 -32.2439 -32.2395
    -6.1916  -6.1024  -5.8301  -5.7502  -5.7268  -5.6906  -5.5937  -5.4670
     5.7077   5.7649   5.8139   5.8339   6.4485   6.4668   6.5423   6.5918
     6.7926   6.8029   6.9638   6.9879   6.9945   7.0209   7.1242   7.1887
     7.2359   7.2627   7.6873   7.7694   8.1815   8.2209   8.5565   8.7440
     8.9149   8.9836   9.2739   9.3749   9.5173   9.5848   9.7623   9.8677
     9.9726  10.1017  10.2392  10.3382  10.3531  10.5325  10.8429  10.9451
    11.0281  11.2680  11.4010  11.5004  15.2038  15.2508  15.3817  15.5015
    15.5931  15.6820  15.7187  15.7768  15.8874  16.0388  16.0602  16.1218
    16.1916  16.2450  16.4603  16.5587  16.7193

          k =-0.6953 0.3477 0.3477 (  5292 PWs)   bands (ev):

   -68.7297 -68.5073 -68.5050 -68.4876 -63.4831 -63.4779 -63.4618 -63.2510
   -37.6176 -37.5942 -37.5899 -37.4017 -37.3953 -37.3848 -37.3818 -37.3790
   -37.3757 -37.3605 -37.3477 -37.3440 -32.4951 -32.4915 -32.4858 -32.4701
   -32.4676 -32.4634 -32.4469 -32.4423 -32.4318 -32.2591 -32.2431 -32.2390
    -6.3311  -5.9615  -5.8859  -5.8191  -5.7729  -5.5845  -5.5336  -5.4472
     5.5518   5.5684   5.7633   5.8452   6.1361   6.1613   6.3905   6.6449
     6.6966   6.7172   6.7907   6.9064   6.9883   7.3090   7.3446   7.6388
     7.6880   7.8446   7.9658   8.1044   8.1561   8.2943   8.3836   8.4666
     8.8067   8.9812   9.0597   9.1387   9.3580   9.4381   9.4797   9.5225
     9.8321   9.8844   9.9560  10.0991  10.9806  11.1177  11.2196  11.2944
    11.3628  11.4400  11.5161  11.7426  14.8978  15.0329  15.1879  15.2217
    15.3606  15.7318  15.8429  16.0997  16.1376  16.2297  16.3005  16.3593
    16.3928  16.3991  16.4367  16.4611  16.5108

          k = 0.3477-0.6953 0.3477 (  5292 PWs)   bands (ev):

   -68.7297 -68.5070 -68.5053 -68.4876 -63.4832 -63.4778 -63.4619 -63.2510
   -37.6176 -37.5945 -37.5897 -37.4016 -37.3954 -37.3846 -37.3827 -37.3771
   -37.3751 -37.3616 -37.3511 -37.3412 -32.4958 -32.4910 -32.4856 -32.4692
   -32.4676 -32.4641 -32.4460 -32.4423 -32.4329 -32.2590 -32.2438 -32.2383
    -6.3276  -5.9799  -5.8999  -5.8014  -5.7329  -5.6155  -5.5343  -5.4444
     5.5599   5.5723   5.7605   5.8332   6.1265   6.1721   6.4116   6.6249
     6.6779   6.7075   6.7759   6.9451   6.9985   7.3027   7.3506   7.6370
     7.6890   7.8355   7.9409   8.1243   8.1639   8.2890   8.3663   8.4760
     8.7910   8.9500   9.0747   9.1766   9.3630   9.4358   9.4841   9.5409
     9.8371   9.8734   9.9628  10.1013  11.0075  11.1038  11.2203  11.3227
    11.3852  11.4207  11.4915  11.6951  14.9235  15.0040  15.1777  15.2114
    15.3651  15.7401  15.8310  16.1041  16.1328  16.2591  16.3075  16.3572
    16.3853  16.4103  16.4358  16.4720  16.5296

          k =-0.5230 0.1723 0.1723 (  5304 PWs)   bands (ev):

   -68.7288 -68.5064 -68.5042 -68.4868 -63.4838 -63.4788 -63.4627 -63.2518
   -37.6178 -37.5941 -37.5898 -37.4018 -37.3954 -37.3854 -37.3805 -37.3772
   -37.3746 -37.3610 -37.3506 -37.3477 -32.4909 -32.4885 -32.4855 -32.4689
   -32.4671 -32.4562 -32.4533 -32.4457 -32.4333 -32.2588 -32.2435 -32.2397
    -6.2761  -5.9774  -5.8904  -5.7953  -5.7705  -5.6031  -5.5713  -5.4596
     5.7504   5.7729   5.7946   5.9313   6.2550   6.2758   6.3200   6.6433
     6.7852   6.7975   6.8820   6.9273   6.9948   7.0650   7.1125   7.2230
     7.3499   7.3755   7.9944   8.0454   8.1280   8.2203   8.4846   8.6157
     8.8872   8.9804   9.2531   9.3406   9.5247   9.5668   9.5909   9.7269
     9.8185   9.8610   9.8938   9.9353  10.9333  11.0865  11.1590  11.2227
    11.2710  11.3920  11.4208  11.5430  15.0398  15.2879  15.4749  15.5531
    15.6361  15.6712  15.7429  15.7565  15.9574  16.0729  16.0897  16.1873
    16.2901  16.3187  16.4782  16.5644  16.5769

          k = 0.1723-0.5230 0.1723 (  5304 PWs)   bands (ev):

   -68.7288 -68.5060 -68.5047 -68.4868 -63.4839 -63.4785 -63.4628 -63.2518
   -37.6178 -37.5945 -37.5895 -37.4019 -37.3956 -37.3850 -37.3810 -37.3769
   -37.3675 -37.3634 -37.3608 -37.3422 -32.4923 -32.4882 -32.4850 -32.4677
   -32.4655 -32.4590 -32.4529 -32.4416 -32.4374 -32.2588 -32.2445 -32.2385
    -6.2617  -6.0241  -5.8911  -5.7650  -5.7208  -5.6526  -5.5750  -5.4536
     5.7456   5.7816   5.8179   5.9176   6.2516   6.2639   6.3286   6.6163
     6.7661   6.8151   6.8692   6.9540   6.9901   7.0723   7.1289   7.2035
     7.3555   7.3763   8.0073   8.0365   8.0970   8.1958   8.4912   8.6316
     8.8905   8.9700   9.2660   9.3738   9.5084   9.5701   9.6170   9.7614
     9.8203   9.8498   9.8937   9.9354  10.9582  11.0752  11.1532  11.2227
    11.2845  11.3457  11.4100  11.5160  15.0600  15.3019  15.5151  15.5527
    15.6203  15.6517  15.7354  15.7729  15.9616  16.0518  16.1134  16.1903
    16.2619  16.2854  16.4679  16.5744  16.5994

          k =-0.1693 0.8736-0.1693 (  5303 PWs)   bands (ev):

   -68.7299 -68.5073 -68.5056 -68.4879 -63.4829 -63.4774 -63.4615 -63.2506
   -37.6174 -37.5943 -37.5896 -37.4016 -37.3952 -37.3844 -37.3826 -37.3769
   -37.3749 -37.3616 -37.3511 -37.3411 -32.4960 -32.4914 -32.4859 -32.4692
   -32.4678 -32.4644 -32.4461 -32.4423 -32.4331 -32.2594 -32.2436 -32.2385
    -6.2408  -6.0314  -5.9147  -5.8028  -5.7772  -5.5933  -5.5408  -5.4461
     5.6758   5.6947   5.7311   6.0422   6.0909   6.3068   6.3553   6.5454
     6.6033   6.6367   6.9137   6.9699   7.1064   7.1779   7.2178   7.6801
     7.7210   7.8067   7.8318   7.9305   8.1291   8.3201   8.3646   8.3950
     8.6815   8.8657   9.1166   9.1998   9.4125   9.4629   9.5281   9.5899
     9.8965   9.9676  10.0474  10.0973  10.8847  11.0804  11.1393  11.2152
    11.2632  11.4072  11.4803  11.5650  15.0261  15.0845  15.1379  15.1599
    15.4740  15.6860  15.8008  15.9833  16.1826  16.1951  16.2646  16.2995
    16.3418  16.3938  16.4799  16.5684  16.5912

          k =-0.1693-0.1693 0.8736 (  5303 PWs)   bands (ev):

   -68.7299 -68.5073 -68.5056 -68.4879 -63.4828 -63.4776 -63.4615 -63.2506
   -37.6174 -37.5942 -37.5898 -37.4011 -37.3952 -37.3853 -37.3819 -37.3773
   -37.3751 -37.3614 -37.3508 -37.3412 -32.4942 -32.4912 -32.4861 -32.4711
   -32.4683 -32.4645 -32.4474 -32.4438 -32.4295 -32.2593 -32.2434 -32.2389
    -6.2430  -6.0090  -5.9498  -5.7954  -5.7645  -5.5891  -5.5545  -5.4419
     5.6877   5.6955   5.7186   6.0432   6.0875   6.3066   6.3553   6.5461
     6.6060   6.6310   6.9240   6.9642   7.0986   7.1785   7.2208   7.6894
     7.7369   7.7694   7.8297   7.9331   8.1343   8.3256   8.3685   8.3983
     8.6941   8.8690   9.1241   9.2040   9.4159   9.4420   9.5201   9.5853
     9.8936   9.9764  10.0295  10.1139  10.8746  11.0794  11.1567  11.2005
    11.2762  11.4085  11.4827  11.5470  15.0145  15.1016  15.1429  15.1573
    15.4703  15.6722  15.8070  15.9706  16.1780  16.1999  16.2513  16.3045
    16.3451  16.4101  16.4988  16.5661  16.5826

          k =-0.3447 0.6983 0.0030 (  5306 PWs)   bands (ev):

   -68.7291 -68.5062 -68.5050 -68.4871 -63.4835 -63.4783 -63.4624 -63.2514
   -37.6177 -37.5942 -37.5896 -37.4013 -37.3955 -37.3836 -37.3828 -37.3764
   -37.3678 -37.3658 -37.3573 -37.3428 -32.4914 -32.4862 -32.4855 -32.4713
   -32.4676 -32.4607 -32.4494 -32.4461 -32.4330 -32.2591 -32.2441 -32.2392
    -6.1518  -6.0284  -5.9287  -5.8811  -5.7154  -5.6344  -5.5658  -5.4495
     5.9291   5.9749   5.9948   6.0257   6.1258   6.2273   6.3056   6.4440
     6.5881   6.8054   6.8345   6.9906   7.0340   7.0913   7.2466   7.3642
     7.4965   7.6208   7.6743   7.7177   7.7918   8.1756   8.3262   8.7113
     8.8902   9.0304   9.0691   9.2640   9.5668   9.6420   9.6698   9.7566
     9.9039  10.0884  10.1147  10.2504  10.5671  10.8144  10.9430  11.1359
    11.1728  11.3806  11.4235  11.5476  15.3017  15.3371  15.4236  15.5678
    15.6135  15.6175  15.7528  15.8639  15.8799  15.9582  16.0871  16.1436
    16.1689  16.3927  16.4177  16.4598  16.5419

          k = 0.6983 0.0030-0.3447 (  5306 PWs)   bands (ev):

   -68.7291 -68.5065 -68.5047 -68.4871 -63.4836 -63.4783 -63.4624 -63.2515
   -37.6176 -37.5942 -37.5896 -37.4017 -37.3953 -37.3840 -37.3819 -37.3768
   -37.3727 -37.3611 -37.3554 -37.3445 -32.4911 -32.4888 -32.4856 -32.4700
   -32.4675 -32.4576 -32.4488 -32.4461 -32.4356 -32.2591 -32.2440 -32.2393
    -6.1541  -6.0349  -5.9210  -5.8711  -5.7393  -5.6261  -5.5521  -5.4563
     5.9152   5.9759   5.9958   6.0356   6.1198   6.2394   6.2888   6.4335
     6.5938   6.8265   6.8394   6.9833   7.0141   7.0683   7.2619   7.3617
     7.5175   7.6186   7.7085   7.7293   7.7788   8.2100   8.2929   8.7091
     8.8901   9.0351   9.0540   9.2582   9.5737   9.6375   9.6854   9.7463
     9.8977  10.0852  10.1048  10.2495  10.5449  10.8192  10.9290  11.1106
    11.1777  11.3964  11.4691  11.5483  15.2997  15.3375  15.4296  15.5767
    15.5977  15.6293  15.7961  15.8329  15.8957  15.9359  16.0902  16.1551
    16.1700  16.3951  16.4051  16.4185  16.5482

     the Fermi energy is    12.5230 ev

!    total energy              =   -1946.25273574 Ry
     Harris-Foulkes estimate   =   -1946.25273569 Ry
     estimated scf accuracy    <          1.6E-09 Ry

     The total energy is the sum of the following terms:

     one-electron contribution =    -881.86524968 Ry
     hartree contribution      =     527.39605850 Ry
     xc contribution           =    -270.07388979 Ry
     ewald contribution        =   -1322.12476328 Ry
     Hubbard energy            =       0.41510851 Ry
     smearing contrib. (-TS)   =      -0.00000000 Ry

     total magnetization       =    -0.00 Bohr mag/cell
     absolute magnetization    =    37.49 Bohr mag/cell

     convergence has been achieved in  13 iterations

     Forces acting on atoms (Ry/au):


     negative rho (up, down):  9.755E-04 5.800E-04
     atom    1 type  1   force =   0.47079315E-02 -0.41570092E-02  0.88754461E-02
     atom    2 type  3   force =   0.16767085E-01  0.62539680E-02  0.96578935E-02
     atom    3 type  2   force =   0.13173565E-03 -0.10951704E-01 -0.52446611E-02
     atom    4 type  3   force =   0.74371571E-02 -0.27084830E-02 -0.38401261E-02
     atom    5 type  1   force =   0.14834243E-02 -0.73473539E-02 -0.14183279E-01
     atom    6 type  3   force =  -0.13796305E-01 -0.45738469E-03 -0.11370069E-01
     atom    7 type  2   force =  -0.92260217E-02  0.99807204E-02  0.20402051E-01
     atom    8 type  3   force =  -0.15361286E-01 -0.49965827E-02  0.19549928E-01
     atom    9 type  1   force =   0.19873035E-01 -0.14802044E-01 -0.37624580E-02
     atom   10 type  3   force =  -0.92882427E-03 -0.10212925E-01 -0.26079196E-02
     atom   11 type  2   force =   0.53965014E-02  0.11217179E-01  0.53064357E-03
     atom   12 type  3   force =  -0.41867721E-02  0.17077965E-01 -0.14316257E-01
     atom   13 type  1   force =  -0.22201336E-01  0.90072518E-02 -0.28286628E-02
     atom   14 type  3   force =  -0.13712124E-01  0.71887201E-02 -0.10341503E-02
     atom   15 type  2   force =   0.60845227E-02 -0.28844206E-02  0.63253237E-02
     atom   16 type  3   force =   0.17531276E-01 -0.22078979E-02 -0.61537034E-02

     Total force =     0.072427     Total SCF correction =     0.000224


     entering subroutine stress ...


     negative rho (up, down):  9.755E-04 5.800E-04
          total   stress  (Ry/bohr**3)                   (kbar)     P=    4.55
   0.0000483217   0.0000006770   0.0000015716          7.11      0.10      0.23
   0.0000006770   0.0000239118  -0.0000011307          0.10      3.52     -0.17
   0.0000015716  -0.0000011307   0.0000206123          0.23     -0.17      3.03


     Writing output data file mno_afm.in.222.066.save

     init_run     :     61.68s CPU     57.28s WALL (       1 calls)
     electrons    :   2093.91s CPU   2128.91s WALL (       1 calls)
     forces       :    136.46s CPU    146.28s WALL (       1 calls)
     stress       :    419.41s CPU    445.70s WALL (       1 calls)

     Called by init_run:
     wfcinit      :     59.63s CPU     55.19s WALL (       1 calls)
     potinit      :      0.50s CPU      0.50s WALL (       1 calls)

     Called by electrons:
     c_bands      :   1896.89s CPU   1938.92s WALL (      13 calls)
     sum_band     :    188.78s CPU    181.68s WALL (      13 calls)
     v_of_rho     :      1.82s CPU      1.80s WALL (      14 calls)
     newd         :      5.85s CPU      5.85s WALL (      14 calls)
     mix_rho      :      0.89s CPU      0.92s WALL (      13 calls)

     Called by c_bands:
     init_us_2    :      9.29s CPU      9.62s WALL (    2880 calls)
     cegterg      :   1863.48s CPU   1903.98s WALL (     936 calls)

     Called by *egterg:
     h_psi        :    888.85s CPU    874.72s WALL (    4044 calls)
     s_psi        :    130.19s CPU     97.19s WALL (    4836 calls)
     g_psi        :      1.29s CPU      1.26s WALL (    3036 calls)
     cdiaghg      :    515.85s CPU    622.82s WALL (    3972 calls)

     Called by h_psi:
     add_vuspsi   :     98.39s CPU     77.32s WALL (    4044 calls)
     vhpsi        :     87.99s CPU    108.19s WALL (    4044 calls)

     General routines
     calbec       :    697.20s CPU    717.98s WALL (   53736 calls)
     fft          :      1.35s CPU      1.30s WALL (     468 calls)
     ffts         :      0.52s CPU      0.53s WALL (     330 calls)
     fftw         :    633.20s CPU    637.90s WALL (  569242 calls)
     interpolate  :      0.24s CPU      0.23s WALL (      54 calls)
     davcio       :      0.01s CPU      0.03s WALL (      72 calls)

     Parallel routines
     fft_scatter  :    230.71s CPU    232.31s WALL (  570040 calls)
     Hubbard U routines
     new_ns       :     16.98s CPU     17.64s WALL (      13 calls)
     vhpsi        :     87.99s CPU    108.19s WALL (    4044 calls)
     force_hub    :    119.76s CPU    132.54s WALL (       1 calls)
     stres_hub    :    384.16s CPU    411.26s WALL (       1 calls)

     PWSCF        : 45m16.49s CPU    46m24.11s WALL


   This run was terminated on:  20:21:16  16Aug2017            

=------------------------------------------------------------------------------=
   JOB DONE.
=------------------------------------------------------------------------------=
