
     Program PWSCF v.5.1 starts on 24Aug2017 at  1:36:55 

     This program is part of the open-source Quantum ESPRESSO suite
     for quantum simulation of materials; please cite
         "P. Giannozzi et al., J. Phys.:Condens. Matter 21 395502 (2009);
          URL http://www.quantum-espresso.org", 
     in publications or presentations arising from this work. More details at
     http://www.quantum-espresso.org/quote

     Parallel version (MPI), running on     8 processors
     R & G space division:  proc/nbgrp/npool/nimage =       8
     Reading input from /tmp/mno_fm.scf.in.k.0.02.29262/mno_fm.scf.in.k.0.02.t
Warning: card &IONS ignored
Warning: card   ION_DYNAMICS='BFGS', ignored
Warning: card / ignored
Warning: card &CELL ignored
Warning: card  CELL_DYNAMICS = 'BFGS' ignored
Warning: card / ignored

     Current dimensions of program PWSCF are:
     Max number of different atomic species (ntypx) = 10
     Max number of k-points (npk) =  40000
     Max angular momentum in pseudopotentials (lmaxx) =  3
 kfg - two_fermi_energies  T
     Message from routine  set_nelup_neldw :
     BEWARE: non-integer number of up and down electrons!

     Subspace diagonalization in iterative solution of the eigenvalue problem:
     a serial algorithm will be used

     warning: symmetry operation #  2 not compatible with FFT grid. 
  -1   1  -1
   0   0  -1
   0  -1   0
     warning: symmetry operation #  3 not compatible with FFT grid. 
  -1   1   0
   0   1   0
   0   1  -1
     warning: symmetry operation #  5 not compatible with FFT grid. 
   1  -1   0
   0   0  -1
   0   1  -1
     warning: symmetry operation #  6 not compatible with FFT grid. 
   1  -1   1
   0  -1   1
   0  -1   0
     warning: symmetry operation #  8 not compatible with FFT grid. 
   1  -1   1
   0   0   1
   0   1   0
     warning: symmetry operation #  9 not compatible with FFT grid. 
   1  -1   0
   0  -1   0
   0  -1   1
     warning: symmetry operation # 11 not compatible with FFT grid. 
  -1   1   0
   0   0   1
   0  -1   1
     warning: symmetry operation # 12 not compatible with FFT grid. 
  -1   1  -1
   0   1  -1
   0   1   0

     Parallelization info
     --------------------
     sticks:   dense  smooth     PW     G-vecs:    dense   smooth      PW
     Min         119      97     30                 1832     1340     246
     Max         121      98     31                 1833     1353     248
     Sum         961     781    245                14661    10773    1973

     Generating pointlists ...
     new r_m :   0.1656 (alat units)  1.7201 (a.u.) for type    1
     new r_m :   0.1656 (alat units)  1.7201 (a.u.) for type    2


     bravais-lattice index     =            0
     lattice parameter (alat)  =    10.388967996  a.u.
     unit-cell volume          =     305.1760 (a.u.)^3
     number of atoms/cell      =            4
     number of atomic types    =            2
     number of electrons       =        42.00 (up:  23.50, down:  18.50)
     number of Kohn-Sham states=           28
     kinetic-energy cutoff     =      41.0000  Ry
     charge density cutoff     =     200.0000  Ry
     convergence threshold     =      1.0E-08
     mixing beta               =       0.3000
     number of iterations used =            8  local-TF  mixing
     Exchange-correlation      = SLA  PW   PSX  PSC ( 1  4 10  8 0)
     A smooth kinetic-energy cutoff is imposed at      40.0000 Ry
     height of the smooth step-function =             800.0000 Ry
     width of the smooth step-function  =               1.0000 Ry


     celldm(1)=  10.388968  celldm(2)=   0.000000  celldm(3)=   0.000000
     celldm(4)=   0.000000  celldm(5)=   0.000000  celldm(6)=   0.000000

     crystal axes: (cart. coord. in units of alat)
               a(1) = (   0.816496580928   0.408248290464  -0.408248290464 )  
               a(2) = (   0.408248290464   0.000000000000   0.408248290464 )  
               a(3) = (   0.000000000000   0.408248290464   0.408248290464 )  

     reciprocal axes: (cart. coord. in units 2 pi/alat)
               b(1) = (  0.612372  0.612372 -0.612372 )  
               b(2) = (  1.224745 -1.224745  1.224745 )  
               b(3) = ( -0.612372  1.837117  0.612372 )  


     PseudoPot. # 1 for Mn read from file:
     /users/kfg/psuedo/gbrv_1.5/mn.pbesol.UPF
     MD5 check sum: 0716d5f563e6e95a34f9080f4c78c109
     Pseudo is Ultrasoft + core correction, Zval = 15.0
     Generated by new atomic code, or converted to UPF format
     Using radial grid of  859 points,  6 beta functions with: 
                l(1) =   0
                l(2) =   0
                l(3) =   1
                l(4) =   1
                l(5) =   2
                l(6) =   2
     Q(r) pseudized with  8 coefficients,  rinner =    0.950   0.950   0.950
                                                       0.950   0.950

     PseudoPot. # 2 for O  read from file:
     /users/kfg/psuedo/gbrv_1.5/o.pbesol.UPF
     MD5 check sum: 501638753501ef6325af9037351f7734
     Pseudo is Ultrasoft + core correction, Zval =  6.0
     Generated by new atomic code, or converted to UPF format
     Using radial grid of  737 points,  5 beta functions with: 
                l(1) =   0
                l(2) =   0
                l(3) =   1
                l(4) =   1
                l(5) =   2
     Q(r) pseudized with  8 coefficients,  rinner =    0.900   0.900   0.900
                                                       0.900   0.900

     atomic species   valence    mass     pseudopotential
        Mn            15.00    54.90000     Mn( 1.00)
        O              6.00    15.99900     O ( 1.00)

     Starting magnetic structure 
     atomic species   magnetization
        Mn           1.000
        O            0.000


     Simplified LDA+U calculation (l_max = 2) with parameters (eV):
     atomic species    L          U    alpha       J0     beta
        Mn             2     3.0000   0.0000   0.0000   0.0000



     No symmetry found



   Cartesian axes

     site n.     atom                  positions (alat units)
         1           Mn  tau(   1) = (    0.00064397983    0.00101054391    0.00057801094  )
         2           O   tau(   2) = (    0.41058757115    0.41121641957    0.40909600664  )
         3           Mn  tau(   3) = (    0.40673921894    0.40429064095   -0.00457841940  )
         4           O   tau(   4) = (    0.81397931943    0.40627051101   -0.00180935336  )

     number of k points=   456  gaussian smearing, width (Ry)=  0.0100

     Number of k-points >= 100: set verbosity='high' to print them.

     Dense  grid:    14661 G-vectors     FFT dimensions: (  48,  27,  27)

     Smooth grid:    10773 G-vectors     FFT dimensions: (  45,  25,  25)

     Largest allocated arrays     est. size (Mb)     dimensions
        Kohn-Sham Wavefunctions         0.08 Mb     (     178,   28)
        Atomic Hubbard wavefuncts       0.03 Mb     (     178,   10)
        NL pseudopotentials             0.17 Mb     (     178,   62)
        Each V/rho on FFT grid          0.16 Mb     (    5184,   2)
        Each G-vector array             0.01 Mb     (    1833)
        G-vector shells                 0.00 Mb     (     296)
     Largest temporary arrays     est. size (Mb)     dimensions
        Auxiliary wavefunctions         0.30 Mb     (     178,  112)
        Each subspace H/S matrix        0.19 Mb     (     112,  112)
        Each <psi_i|beta_j> matrix      0.03 Mb     (      62,   28)
        Arrays for rho mixing           0.63 Mb     (    5184,    8)

     Check: negative/imaginary core charge=   -0.000057    0.000000

     Initial potential from superposition of free atoms

     starting charge   40.99984, renormalised to   42.00000
     Number of +U iterations with fixed ns =  0
     Starting occupations:
 --- enter write_ns ---
 LDA+U parameters:
U( 1)     =  3.00000000
alpha( 1) =  0.00000000
atom    1   Tr[ns(na)] (up, down, total) =   5.00000  0.00000  5.00000
   spin  1
    eigenvalues: 
  1.000  1.000  1.000  1.000  1.000
    eigenvectors:
  1.000  0.000  0.000  0.000  0.000
  0.000  1.000  0.000  0.000  0.000
  0.000  0.000  1.000  0.000  0.000
  0.000  0.000  0.000  1.000  0.000
  0.000  0.000  0.000  0.000  1.000
    occupations:
  1.000  0.000  0.000  0.000  0.000
  0.000  1.000  0.000  0.000  0.000
  0.000  0.000  1.000  0.000  0.000
  0.000  0.000  0.000  1.000  0.000
  0.000  0.000  0.000  0.000  1.000
   spin  2
    eigenvalues: 
  0.000  0.000  0.000  0.000  0.000
    eigenvectors:
  1.000  0.000  0.000  0.000  0.000
  0.000  1.000  0.000  0.000  0.000
  0.000  0.000  1.000  0.000  0.000
  0.000  0.000  0.000  1.000  0.000
  0.000  0.000  0.000  0.000  1.000
    occupations:
  0.000  0.000  0.000  0.000  0.000
  0.000  0.000  0.000  0.000  0.000
  0.000  0.000  0.000  0.000  0.000
  0.000  0.000  0.000  0.000  0.000
  0.000  0.000  0.000  0.000  0.000
atomic mag. moment =     5.000000
atom    3   Tr[ns(na)] (up, down, total) =   5.00000  0.00000  5.00000
   spin  1
    eigenvalues: 
  1.000  1.000  1.000  1.000  1.000
    eigenvectors:
  1.000  0.000  0.000  0.000  0.000
  0.000  1.000  0.000  0.000  0.000
  0.000  0.000  1.000  0.000  0.000
  0.000  0.000  0.000  1.000  0.000
  0.000  0.000  0.000  0.000  1.000
    occupations:
  1.000  0.000  0.000  0.000  0.000
  0.000  1.000  0.000  0.000  0.000
  0.000  0.000  1.000  0.000  0.000
  0.000  0.000  0.000  1.000  0.000
  0.000  0.000  0.000  0.000  1.000
   spin  2
    eigenvalues: 
  0.000  0.000  0.000  0.000  0.000
    eigenvectors:
  1.000  0.000  0.000  0.000  0.000
  0.000  1.000  0.000  0.000  0.000
  0.000  0.000  1.000  0.000  0.000
  0.000  0.000  0.000  1.000  0.000
  0.000  0.000  0.000  0.000  1.000
    occupations:
  0.000  0.000  0.000  0.000  0.000
  0.000  0.000  0.000  0.000  0.000
  0.000  0.000  0.000  0.000  0.000
  0.000  0.000  0.000  0.000  0.000
  0.000  0.000  0.000  0.000  0.000
atomic mag. moment =     5.000000
N of occupied +U levels =   10.000000
 --- exit write_ns ---
 Atomic wfc used for LDA+U Projector are NOT orthogonalized
     Starting wfc are   34 randomized atomic wfcs

     total cpu time spent up to now is       30.7 secs

     Self-consistent Calculation

     iteration #  1     ecut=    41.00 Ry     beta=0.30
     Davidson diagonalization with overlap
     ethr =  1.00E-02,  avg # of iterations =  2.7
 --- enter write_ns ---
 LDA+U parameters:
U( 1)     =  3.00000000
alpha( 1) =  0.00000000
atom    1   Tr[ns(na)] (up, down, total) =   4.34657  0.44325  4.78981
   spin  1
    eigenvalues: 
  0.683  0.697  0.988  0.989  0.989
    eigenvectors:
  1.000  0.000  0.000  0.000  0.000
  0.000  0.000  0.354  0.644  0.002
  0.000  0.000  0.646  0.353  0.001
  0.000  1.000  0.000  0.000  0.000
  0.000  0.000  0.000  0.003  0.997
    occupations:
  0.683 -0.002 -0.002  0.000  0.001
 -0.002  0.989  0.000  0.001 -0.000
 -0.002  0.000  0.988 -0.001  0.000
  0.000  0.001 -0.001  0.697  0.000
  0.001 -0.000  0.000  0.000  0.989
   spin  2
    eigenvalues: 
  0.071  0.074  0.097  0.099  0.102
    eigenvectors:
  0.000  1.000  0.000  0.000  0.000
  0.000  0.000  0.444  0.471  0.084
  0.000  0.000  0.385  0.528  0.086
  1.000  0.000  0.000  0.000  0.000
  0.000  0.000  0.170  0.000  0.830
    occupations:
  0.074 -0.000 -0.000 -0.000  0.000
 -0.000  0.098 -0.001  0.000 -0.001
 -0.000 -0.001  0.099 -0.000 -0.001
 -0.000  0.000 -0.000  0.071 -0.000
  0.000 -0.001 -0.001 -0.000  0.101
atomic mag. moment =     3.903321
atom    3   Tr[ns(na)] (up, down, total) =   4.30165  0.43784  4.73948
   spin  1
    eigenvalues: 
  0.663  0.675  0.987  0.988  0.988
    eigenvectors:
  0.001  0.999  0.000  0.000  0.000
  0.000  0.000  0.026  0.353  0.621
  0.000  0.000  0.036  0.643  0.321
  0.999  0.001  0.000  0.000  0.000
  0.000  0.000  0.938  0.003  0.058
    occupations:
  0.675  0.002  0.002 -0.000 -0.002
  0.002  0.988  0.000 -0.001  0.000
  0.002  0.000  0.988  0.001  0.000
 -0.000 -0.001  0.001  0.663 -0.000
 -0.002  0.000  0.000 -0.000  0.987
   spin  2
    eigenvalues: 
  0.074  0.076  0.093  0.096  0.099
    eigenvectors:
  0.997  0.002  0.000  0.000  0.000
  0.000  0.000  0.073  0.498  0.429
  0.000  0.000  0.075  0.502  0.423
  0.002  0.998  0.000  0.000  0.000
  0.000  0.000  0.852  0.000  0.148
    occupations:
  0.074  0.000  0.000  0.000 -0.000
  0.000  0.097  0.001 -0.000  0.001
  0.000  0.001  0.097  0.000  0.001
  0.000 -0.000  0.000  0.076  0.000
 -0.000  0.001  0.001  0.000  0.094
atomic mag. moment =     3.863809
N of occupied +U levels =    9.529298
 --- exit write_ns ---

     negative rho (up, down):  0.000E+00 2.085E-04

     Magnetic moment per site:
     atom:    1    charge:   12.6877    magn:    9.9572    constr:    0.0000
     atom:    2    charge:    5.6443    magn:   -0.0017    constr:    0.0000
     atom:    3    charge:   12.6882    magn:    9.9443    constr:    0.0000
     atom:    4    charge:    5.6411    magn:   -0.0040    constr:    0.0000

     total cpu time spent up to now is      135.9 secs

     total energy              =    -483.23678926 Ry
     Harris-Foulkes estimate   =    -478.61279753 Ry
     estimated scf accuracy    <       8.64591018 Ry

     total magnetization       =     5.00 Bohr mag/cell
     absolute magnetization    =     9.46 Bohr mag/cell

     iteration #  2     ecut=    41.00 Ry     beta=0.30
     Davidson diagonalization with overlap
     ethr =  1.00E-02,  avg # of iterations =  2.0

     negative rho (up, down):  0.000E+00 7.051E-04

     Magnetic moment per site:
     atom:    1    charge:   12.4640    magn:    4.1764    constr:    0.0000
     atom:    2    charge:    5.7542    magn:   -0.5968    constr:    0.0000
     atom:    3    charge:   12.4589    magn:    4.1589    constr:    0.0000
     atom:    4    charge:    5.7505    magn:   -0.5985    constr:    0.0000

     total cpu time spent up to now is      229.8 secs

     total energy              =    -485.55988194 Ry
     Harris-Foulkes estimate   =    -483.38326420 Ry
     estimated scf accuracy    <       3.99629392 Ry

     total magnetization       =     5.00 Bohr mag/cell
     absolute magnetization    =     9.12 Bohr mag/cell

     iteration #  3     ecut=    41.00 Ry     beta=0.30
     Davidson diagonalization with overlap
     ethr =  9.51E-03,  avg # of iterations =  2.0

     negative rho (up, down):  0.000E+00 9.220E-04

     Magnetic moment per site:
     atom:    1    charge:   12.4400    magn:    4.0813    constr:    0.0000
     atom:    2    charge:    5.7704    magn:   -0.6254    constr:    0.0000
     atom:    3    charge:   12.4273    magn:    4.0850    constr:    0.0000
     atom:    4    charge:    5.7668    magn:   -0.6266    constr:    0.0000

     total cpu time spent up to now is      313.7 secs

     total energy              =    -486.13236718 Ry
     Harris-Foulkes estimate   =    -486.06127225 Ry
     estimated scf accuracy    <       0.84424414 Ry

     total magnetization       =     5.00 Bohr mag/cell
     absolute magnetization    =     7.63 Bohr mag/cell

     iteration #  4     ecut=    41.00 Ry     beta=0.30
     Davidson diagonalization with overlap
     ethr =  2.01E-03,  avg # of iterations =  1.1

     negative rho (up, down):  0.000E+00 7.413E-05

     Magnetic moment per site:
     atom:    1    charge:   12.5033    magn:    3.1572    constr:    0.0000
     atom:    2    charge:    5.7439    magn:   -0.5847    constr:    0.0000
     atom:    3    charge:   12.4879    magn:    3.1721    constr:    0.0000
     atom:    4    charge:    5.7403    magn:   -0.5863    constr:    0.0000

     total cpu time spent up to now is      365.9 secs

     total energy              =    -486.01498062 Ry
     Harris-Foulkes estimate   =    -486.14746525 Ry
     estimated scf accuracy    <       1.49564673 Ry

     total magnetization       =     5.00 Bohr mag/cell
     absolute magnetization    =     7.83 Bohr mag/cell

     iteration #  5     ecut=    41.00 Ry     beta=0.30
     Davidson diagonalization with overlap
     ethr =  2.01E-03,  avg # of iterations =  1.5

     Magnetic moment per site:
     atom:    1    charge:   12.5042    magn:    2.7154    constr:    0.0000
     atom:    2    charge:    5.7501    magn:   -0.5513    constr:    0.0000
     atom:    3    charge:   12.5071    magn:    2.7151    constr:    0.0000
     atom:    4    charge:    5.7466    magn:   -0.5526    constr:    0.0000

     total cpu time spent up to now is      426.2 secs

     total energy              =    -486.11454245 Ry
     Harris-Foulkes estimate   =    -486.10924914 Ry
     estimated scf accuracy    <       0.28011763 Ry

     total magnetization       =     5.00 Bohr mag/cell
     absolute magnetization    =     6.81 Bohr mag/cell
 kfg - setting two_fermi_energies to FALSE

     iteration #  6     ecut=    41.00 Ry     beta=0.30
     Davidson diagonalization with overlap
     ethr =  6.67E-04,  avg # of iterations =  1.0

     negative rho (up, down):  0.000E+00 6.346E-05

     Magnetic moment per site:
     atom:    1    charge:   12.5029    magn:    3.1078    constr:    0.0000
     atom:    2    charge:    5.7585    magn:   -0.4994    constr:    0.0000
     atom:    3    charge:   12.5043    magn:    3.1072    constr:    0.0000
     atom:    4    charge:    5.7550    magn:   -0.5007    constr:    0.0000

     total cpu time spent up to now is      478.4 secs

     total energy              =    -486.39638469 Ry
     Harris-Foulkes estimate   =    -486.34051553 Ry
     estimated scf accuracy    <       0.26245549 Ry

     total magnetization       =     9.27 Bohr mag/cell
     absolute magnetization    =     9.27 Bohr mag/cell

     iteration #  7     ecut=    41.00 Ry     beta=0.30
     Davidson diagonalization with overlap
     ethr =  6.25E-04,  avg # of iterations =  1.0

     Magnetic moment per site:
     atom:    1    charge:   12.5299    magn:    2.5510    constr:    0.0000
     atom:    2    charge:    5.6909    magn:   -0.7026    constr:    0.0000
     atom:    3    charge:   12.5408    magn:    2.5250    constr:    0.0000
     atom:    4    charge:    5.6875    magn:   -0.7044    constr:    0.0000

     total cpu time spent up to now is      529.3 secs

     total energy              =    -486.25827238 Ry
     Harris-Foulkes estimate   =    -486.39936409 Ry
     estimated scf accuracy    <       0.21578185 Ry

     total magnetization       =     9.55 Bohr mag/cell
     absolute magnetization    =     9.55 Bohr mag/cell

     iteration #  8     ecut=    41.00 Ry     beta=0.30
     Davidson diagonalization with overlap
     ethr =  5.14E-04,  avg # of iterations =  1.9

     Magnetic moment per site:
     atom:    1    charge:   12.5262    magn:    2.8549    constr:    0.0000
     atom:    2    charge:    5.7332    magn:   -0.5146    constr:    0.0000
     atom:    3    charge:   12.5323    magn:    2.8554    constr:    0.0000
     atom:    4    charge:    5.7297    magn:   -0.5160    constr:    0.0000

     total cpu time spent up to now is      596.3 secs

     total energy              =    -486.35774737 Ry
     Harris-Foulkes estimate   =    -486.28360088 Ry
     estimated scf accuracy    <       0.41471875 Ry

     total magnetization       =     8.80 Bohr mag/cell
     absolute magnetization    =     8.89 Bohr mag/cell

     iteration #  9     ecut=    41.00 Ry     beta=0.30
     Davidson diagonalization with overlap
     ethr =  5.14E-04,  avg # of iterations =  1.0

     negative rho (up, down):  0.000E+00 1.719E-03

     Magnetic moment per site:
     atom:    1    charge:   12.5081    magn:    3.9845    constr:    0.0000
     atom:    2    charge:    5.8736    magn:    0.0500    constr:    0.0000
     atom:    3    charge:   12.5004    magn:    4.0605    constr:    0.0000
     atom:    4    charge:    5.8698    magn:    0.0494    constr:    0.0000

     total cpu time spent up to now is      646.6 secs

     total energy              =    -486.48648448 Ry
     Harris-Foulkes estimate   =    -486.36730527 Ry
     estimated scf accuracy    <       0.32508987 Ry

     total magnetization       =     9.40 Bohr mag/cell
     absolute magnetization    =     9.40 Bohr mag/cell

     iteration # 10     ecut=    41.00 Ry     beta=0.30
     Davidson diagonalization with overlap
     ethr =  5.14E-04,  avg # of iterations =  1.9

     negative rho (up, down):  0.000E+00 3.226E-03

     Magnetic moment per site:
     atom:    1    charge:   12.5008    magn:    4.7532    constr:    0.0000
     atom:    2    charge:    5.9701    magn:    0.4533    constr:    0.0000
     atom:    3    charge:   12.4843    magn:    4.8610    constr:    0.0000
     atom:    4    charge:    5.9661    magn:    0.4531    constr:    0.0000

     total cpu time spent up to now is      701.3 secs

     total energy              =    -486.51190751 Ry
     Harris-Foulkes estimate   =    -486.54505440 Ry
     estimated scf accuracy    <       0.00941909 Ry

     total magnetization       =    10.00 Bohr mag/cell
     absolute magnetization    =    10.00 Bohr mag/cell

     iteration # 11     ecut=    41.00 Ry     beta=0.30
     Davidson diagonalization with overlap
     ethr =  2.24E-05,  avg # of iterations =  3.2

     negative rho (up, down):  0.000E+00 1.426E-03

     Magnetic moment per site:
     atom:    1    charge:   12.5247    magn:    4.0213    constr:    0.0000
     atom:    2    charge:    5.8748    magn:    0.0922    constr:    0.0000
     atom:    3    charge:   12.5185    magn:    4.0282    constr:    0.0000
     atom:    4    charge:    5.8712    magn:    0.0915    constr:    0.0000

     total cpu time spent up to now is      790.3 secs

     total energy              =    -486.53474831 Ry
     Harris-Foulkes estimate   =    -486.52376689 Ry
     estimated scf accuracy    <       0.09484802 Ry

     total magnetization       =    10.00 Bohr mag/cell
     absolute magnetization    =    10.00 Bohr mag/cell

     iteration # 12     ecut=    41.00 Ry     beta=0.30
     Davidson diagonalization with overlap
     ethr =  2.24E-05,  avg # of iterations =  2.9

     negative rho (up, down):  0.000E+00 1.554E-03

     Magnetic moment per site:
     atom:    1    charge:   12.5298    magn:    4.1247    constr:    0.0000
     atom:    2    charge:    5.8874    magn:    0.1478    constr:    0.0000
     atom:    3    charge:   12.5241    magn:    4.1168    constr:    0.0000
     atom:    4    charge:    5.8838    magn:    0.1471    constr:    0.0000

     total cpu time spent up to now is      881.7 secs

     total energy              =    -486.55137385 Ry
     Harris-Foulkes estimate   =    -486.54728029 Ry
     estimated scf accuracy    <       0.01089403 Ry

     total magnetization       =    10.00 Bohr mag/cell
     absolute magnetization    =    10.00 Bohr mag/cell

     iteration # 13     ecut=    41.00 Ry     beta=0.30
     Davidson diagonalization with overlap
     ethr =  2.24E-05,  avg # of iterations =  1.0

     negative rho (up, down):  0.000E+00 1.899E-03

     Magnetic moment per site:
     atom:    1    charge:   12.5287    magn:    4.2834    constr:    0.0000
     atom:    2    charge:    5.9056    magn:    0.2033    constr:    0.0000
     atom:    3    charge:   12.5237    magn:    4.2864    constr:    0.0000
     atom:    4    charge:    5.9019    magn:    0.2024    constr:    0.0000

     total cpu time spent up to now is      930.3 secs

     total energy              =    -486.55274725 Ry
     Harris-Foulkes estimate   =    -486.55150689 Ry
     estimated scf accuracy    <       0.00409910 Ry

     total magnetization       =    10.00 Bohr mag/cell
     absolute magnetization    =    10.00 Bohr mag/cell

     iteration # 14     ecut=    41.00 Ry     beta=0.30
     Davidson diagonalization with overlap
     ethr =  9.76E-06,  avg # of iterations =  1.9

     negative rho (up, down):  0.000E+00 1.601E-03

     Magnetic moment per site:
     atom:    1    charge:   12.5321    magn:    4.1522    constr:    0.0000
     atom:    2    charge:    5.8881    magn:    0.1388    constr:    0.0000
     atom:    3    charge:   12.5308    magn:    4.1446    constr:    0.0000
     atom:    4    charge:    5.8845    magn:    0.1378    constr:    0.0000

     total cpu time spent up to now is      996.8 secs

     total energy              =    -486.55176170 Ry
     Harris-Foulkes estimate   =    -486.55317171 Ry
     estimated scf accuracy    <       0.00067582 Ry

     total magnetization       =    10.00 Bohr mag/cell
     absolute magnetization    =    10.00 Bohr mag/cell

     iteration # 15     ecut=    41.00 Ry     beta=0.30
     Davidson diagonalization with overlap
     ethr =  1.61E-06,  avg # of iterations =  3.0

     negative rho (up, down):  0.000E+00 1.945E-03

     Magnetic moment per site:
     atom:    1    charge:   12.5286    magn:    4.3147    constr:    0.0000
     atom:    2    charge:    5.9059    magn:    0.1912    constr:    0.0000
     atom:    3    charge:   12.5346    magn:    4.3128    constr:    0.0000
     atom:    4    charge:    5.9022    magn:    0.1900    constr:    0.0000

     total cpu time spent up to now is     1093.2 secs

     total energy              =    -486.55243296 Ry
     Harris-Foulkes estimate   =    -486.55228477 Ry
     estimated scf accuracy    <       0.00302691 Ry

     total magnetization       =    10.00 Bohr mag/cell
     absolute magnetization    =    10.00 Bohr mag/cell

     iteration # 16     ecut=    41.00 Ry     beta=0.30
     Davidson diagonalization with overlap
     ethr =  1.61E-06,  avg # of iterations =  2.8

     negative rho (up, down):  0.000E+00 1.815E-03

     Magnetic moment per site:
     atom:    1    charge:   12.5284    magn:    4.2445    constr:    0.0000
     atom:    2    charge:    5.8999    magn:    0.1729    constr:    0.0000
     atom:    3    charge:   12.5339    magn:    4.2383    constr:    0.0000
     atom:    4    charge:    5.8962    magn:    0.1718    constr:    0.0000

     total cpu time spent up to now is     1191.3 secs

     total energy              =    -486.55319484 Ry
     Harris-Foulkes estimate   =    -486.55290589 Ry
     estimated scf accuracy    <       0.00068019 Ry

     total magnetization       =    10.00 Bohr mag/cell
     absolute magnetization    =    10.00 Bohr mag/cell

     iteration # 17     ecut=    41.00 Ry     beta=0.30
     Davidson diagonalization with overlap
     ethr =  1.61E-06,  avg # of iterations =  1.5

     negative rho (up, down):  0.000E+00 1.798E-03

     Magnetic moment per site:
     atom:    1    charge:   12.5289    magn:    4.2365    constr:    0.0000
     atom:    2    charge:    5.8989    magn:    0.1703    constr:    0.0000
     atom:    3    charge:   12.5338    magn:    4.2307    constr:    0.0000
     atom:    4    charge:    5.8953    magn:    0.1692    constr:    0.0000

     total cpu time spent up to now is     1250.2 secs

     total energy              =    -486.55321674 Ry
     Harris-Foulkes estimate   =    -486.55323609 Ry
     estimated scf accuracy    <       0.00001759 Ry

     total magnetization       =    10.00 Bohr mag/cell
     absolute magnetization    =    10.00 Bohr mag/cell

     iteration # 18     ecut=    41.00 Ry     beta=0.30
     Davidson diagonalization with overlap
     ethr =  4.19E-08,  avg # of iterations =  2.5

     negative rho (up, down):  0.000E+00 1.832E-03

     Magnetic moment per site:
     atom:    1    charge:   12.5281    magn:    4.2517    constr:    0.0000
     atom:    2    charge:    5.9008    magn:    0.1780    constr:    0.0000
     atom:    3    charge:   12.5335    magn:    4.2474    constr:    0.0000
     atom:    4    charge:    5.8972    magn:    0.1770    constr:    0.0000

     total cpu time spent up to now is     1321.0 secs

     total energy              =    -486.55324544 Ry
     Harris-Foulkes estimate   =    -486.55322144 Ry
     estimated scf accuracy    <       0.00006591 Ry

     total magnetization       =    10.00 Bohr mag/cell
     absolute magnetization    =    10.00 Bohr mag/cell

     iteration # 19     ecut=    41.00 Ry     beta=0.30
     Davidson diagonalization with overlap
     ethr =  4.19E-08,  avg # of iterations =  2.3

     negative rho (up, down):  0.000E+00 1.831E-03

     Magnetic moment per site:
     atom:    1    charge:   12.5281    magn:    4.2516    constr:    0.0000
     atom:    2    charge:    5.9008    magn:    0.1780    constr:    0.0000
     atom:    3    charge:   12.5335    magn:    4.2476    constr:    0.0000
     atom:    4    charge:    5.8972    magn:    0.1770    constr:    0.0000

     total cpu time spent up to now is     1400.9 secs

     total energy              =    -486.55325084 Ry
     Harris-Foulkes estimate   =    -486.55325083 Ry
     estimated scf accuracy    <       0.00000007 Ry

     total magnetization       =    10.00 Bohr mag/cell
     absolute magnetization    =    10.00 Bohr mag/cell

     iteration # 20     ecut=    41.00 Ry     beta=0.30
     Davidson diagonalization with overlap
     ethr =  1.76E-10,  avg # of iterations =  2.7

     negative rho (up, down):  0.000E+00 1.831E-03

     Magnetic moment per site:
     atom:    1    charge:   12.5281    magn:    4.2516    constr:    0.0000
     atom:    2    charge:    5.9009    magn:    0.1781    constr:    0.0000
     atom:    3    charge:   12.5334    magn:    4.2476    constr:    0.0000
     atom:    4    charge:    5.8972    magn:    0.1771    constr:    0.0000

     total cpu time spent up to now is     1492.2 secs

     total energy              =    -486.55325088 Ry
     Harris-Foulkes estimate   =    -486.55325088 Ry
     estimated scf accuracy    <       0.00000005 Ry

     total magnetization       =    10.00 Bohr mag/cell
     absolute magnetization    =    10.00 Bohr mag/cell

     iteration # 21     ecut=    41.00 Ry     beta=0.30
     Davidson diagonalization with overlap
     ethr =  1.08E-10,  avg # of iterations =  2.0

     negative rho (up, down):  0.000E+00 1.831E-03

     Magnetic moment per site:
     atom:    1    charge:   12.5281    magn:    4.2515    constr:    0.0000
     atom:    2    charge:    5.9009    magn:    0.1781    constr:    0.0000
     atom:    3    charge:   12.5334    magn:    4.2476    constr:    0.0000
     atom:    4    charge:    5.8972    magn:    0.1771    constr:    0.0000

     total cpu time spent up to now is     1563.9 secs

     End of self-consistent calculation
 --- enter write_ns ---
 LDA+U parameters:
U( 1)     =  3.00000000
alpha( 1) =  0.00000000
atom    1   Tr[ns(na)] (up, down, total) =   4.99236  0.45498  5.44734
   spin  1
    eigenvalues: 
  0.997  0.998  0.999  0.999  0.999
    eigenvectors:
  1.000  0.000  0.000  0.000  0.000
  0.000  0.000  0.011  0.527  0.462
  0.000  0.000  0.011  0.473  0.516
  0.000  1.000  0.000  0.000  0.000
  0.000  0.000  0.978  0.000  0.022
    occupations:
  0.997 -0.000 -0.000 -0.000  0.000
 -0.000  0.999  0.000 -0.000  0.000
 -0.000  0.000  0.999  0.000  0.000
 -0.000 -0.000  0.000  0.998 -0.000
  0.000  0.000  0.000 -0.000  0.999
   spin  2
    eigenvalues: 
  0.050  0.052  0.052  0.148  0.153
    eigenvectors:
  0.000  0.000  0.000  0.000  1.000
  0.000  0.469  0.531  0.000  0.000
  0.000  0.531  0.469  0.000  0.000
  0.000  0.000  0.000  1.000  0.000
  1.000  0.000  0.000  0.000  0.000
    occupations:
  0.153  0.001  0.001 -0.000 -0.001
  0.001  0.052  0.000 -0.000 -0.000
  0.001  0.000  0.052  0.000 -0.000
 -0.000 -0.000  0.000  0.148  0.000
 -0.001 -0.000 -0.000  0.000  0.050
atomic mag. moment =     4.537389
atom    3   Tr[ns(na)] (up, down, total) =   4.99107  0.46469  5.45576
   spin  1
    eigenvalues: 
  0.997  0.997  0.999  0.999  0.999
    eigenvectors:
  0.008  0.992  0.000  0.000  0.001
  0.000  0.000  0.447  0.527  0.026
  0.000  0.000  0.459  0.468  0.072
  0.992  0.008  0.000  0.000  0.000
  0.000  0.001  0.093  0.005  0.901
    occupations:
  0.997  0.000  0.000 -0.000 -0.000
  0.000  0.999 -0.000 -0.000 -0.000
  0.000 -0.000  0.999  0.000 -0.000
 -0.000 -0.000  0.000  0.997 -0.000
 -0.000 -0.000 -0.000 -0.000  0.999
   spin  2
    eigenvalues: 
  0.052  0.052  0.053  0.151  0.156
    eigenvectors:
  0.000  0.000  0.000  0.999  0.000
  0.702  0.298  0.000  0.000  0.000
  0.298  0.702  0.000  0.000  0.000
  0.000  0.000  0.000  0.000  1.000
  0.000  0.000  0.999  0.000  0.000
    occupations:
  0.151 -0.001 -0.001  0.000  0.001
 -0.001  0.052 -0.000  0.000  0.000
 -0.001 -0.000  0.052 -0.000  0.000
  0.000  0.000 -0.000  0.156 -0.000
  0.001  0.000  0.000 -0.000  0.053
atomic mag. moment =     4.526378
N of occupied +U levels =   10.903099
 --- exit write_ns ---

     Number of k-points >= 100: set verbosity='high' to print the bands.

     the Fermi energy is    12.4596 ev

!    total energy              =    -486.55325090 Ry
     Harris-Foulkes estimate   =    -486.55325089 Ry
     estimated scf accuracy    <          1.3E-09 Ry

     The total energy is the sum of the following terms:

     one-electron contribution =    -223.75842704 Ry
     hartree contribution      =     132.98450713 Ry
     xc contribution           =     -67.50331355 Ry
     ewald contribution        =    -328.36719399 Ry
     Hubbard energy            =       0.09123540 Ry
     smearing contrib. (-TS)   =      -0.00005885 Ry

     total magnetization       =    10.00 Bohr mag/cell
     absolute magnetization    =    10.00 Bohr mag/cell

     convergence has been achieved in  21 iterations

     Forces acting on atoms (Ry/au):


     negative rho (up, down):  0.000E+00 1.831E-03
     atom    1 type  1   force =  -0.17677719E-02 -0.20393328E-02 -0.24365168E-03
     atom    2 type  2   force =  -0.41808531E-02 -0.54279305E-02  0.91268888E-03
     atom    3 type  1   force =   0.23026200E-02  0.46856343E-02  0.17476127E-02
     atom    4 type  2   force =   0.36460050E-02  0.27816291E-02 -0.24166499E-02

     Total force =     0.010597     Total SCF correction =     0.000045


     entering subroutine stress ...


     negative rho (up, down):  0.000E+00 1.831E-03
          total   stress  (Ry/bohr**3)                   (kbar)     P=    0.39
   0.0000022146   0.0000000280  -0.0000002965          0.33      0.00     -0.04
   0.0000000280   0.0000053782  -0.0000005984          0.00      0.79     -0.09
  -0.0000002965  -0.0000005984   0.0000003998         -0.04     -0.09      0.06


     Writing output data file mno_fm.scf.in.k.0.022.save

     init_run     :     25.97s CPU     30.29s WALL (       1 calls)
     electrons    :   1296.32s CPU   1533.15s WALL (       1 calls)
     forces       :     20.76s CPU     24.79s WALL (       1 calls)
     stress       :    104.45s CPU    125.29s WALL (       1 calls)

     Called by init_run:
     wfcinit      :     25.57s CPU     29.84s WALL (       1 calls)
     potinit      :      0.06s CPU      0.06s WALL (       1 calls)

     Called by electrons:
     c_bands      :   1145.26s CPU   1356.48s WALL (      21 calls)
     sum_band     :    149.29s CPU    174.72s WALL (      21 calls)
     v_of_rho     :      0.62s CPU      0.67s WALL (      22 calls)
     newd         :      0.70s CPU      0.71s WALL (      22 calls)
     mix_rho      :      0.40s CPU      0.40s WALL (      21 calls)

     Called by c_bands:
     init_us_2    :      9.26s CPU      9.85s WALL (   25536 calls)
     cegterg      :   1088.62s CPU   1294.51s WALL (    9576 calls)

     Called by *egterg:
     h_psi        :    539.94s CPU    639.36s WALL (   29097 calls)
     s_psi        :     36.23s CPU     81.48s WALL (   34113 calls)
     g_psi        :      0.78s CPU      0.79s WALL (   19065 calls)
     cdiaghg      :    130.24s CPU    133.55s WALL (   28641 calls)

     Called by h_psi:
     add_vuspsi   :     30.97s CPU     60.91s WALL (   29097 calls)
     vhpsi        :     20.08s CPU     21.72s WALL (   29097 calls)

     General routines
     calbec       :    369.70s CPU    463.68s WALL (  157602 calls)
     fft          :      0.52s CPU      0.55s WALL (     716 calls)
     ffts         :      0.20s CPU      0.21s WALL (     542 calls)
     fftw         :    346.88s CPU    361.08s WALL ( 1526728 calls)
     interpolate  :      0.09s CPU      0.09s WALL (      86 calls)
     davcio       :      0.00s CPU      0.02s WALL (     456 calls)

     Parallel routines
     fft_scatter  :    143.91s CPU    149.24s WALL ( 1527986 calls)
     Hubbard U routines
     new_ns       :      3.59s CPU      3.77s WALL (      21 calls)
     vhpsi        :     20.08s CPU     21.72s WALL (   29097 calls)
     force_hub    :     13.03s CPU     15.19s WALL (       1 calls)
     stres_hub    :     96.16s CPU    115.86s WALL (       1 calls)

     PWSCF        : 24m12.73s CPU    28m39.73s WALL


   This run was terminated on:   2: 5:35  24Aug2017            

=------------------------------------------------------------------------------=
   JOB DONE.
=------------------------------------------------------------------------------=
