
     Program PWSCF v.5.1 starts on  9Mar2018 at  9:52:53 

     This program is part of the open-source Quantum ESPRESSO suite
     for quantum simulation of materials; please cite
         "P. Giannozzi et al., J. Phys.:Condens. Matter 21 395502 (2009);
          URL http://www.quantum-espresso.org", 
     in publications or presentations arising from this work. More details at
     http://www.quantum-espresso.org/quote

     Parallel version (MPI), running on     8 processors
     R & G space division:  proc/nbgrp/npool/nimage =       8
     Reading input from /tmp/mno_fm.in.sx2.8333/mno_fm.in.sx2.t
Warning: card &IONS ignored
Warning: card   ION_DYNAMICS='BFGS', ignored
Warning: card / ignored
Warning: card &CELL ignored
Warning: card  CELL_DYNAMICS = 'BFGS' ignored
Warning: card / ignored

     Current dimensions of program PWSCF are:
     Max number of different atomic species (ntypx) = 10
     Max number of k-points (npk) =  40000
     Max angular momentum in pseudopotentials (lmaxx) =  3
 kfg - two_fermi_energies  F

     Subspace diagonalization in iterative solution of the eigenvalue problem:
     a serial algorithm will be used


     Parallelization info
     --------------------
     sticks:   dense  smooth     PW     G-vecs:    dense   smooth      PW
     Min          62      51     15                  914      662     120
     Max          63      52     16                  917      671     123
     Sum         499     409    127                 7319     5329     965

     Generating pointlists ...
     new r_m :   0.2909 (alat units)  1.7403 (a.u.) for type    1
     new r_m :   0.2909 (alat units)  1.7403 (a.u.) for type    2


     bravais-lattice index     =            0
     lattice parameter (alat)  =     5.981458689  a.u.
     unit-cell volume          =     151.7004 (a.u.)^3
     number of atoms/cell      =            2
     number of atomic types    =            2
     number of electrons       =        21.00
     number of Kohn-Sham states=           15
     kinetic-energy cutoff     =      41.0000  Ry
     charge density cutoff     =     200.0000  Ry
     convergence threshold     =      1.0E-08
     mixing beta               =       0.3000
     number of iterations used =            8  local-TF  mixing
     Exchange-correlation      = SLA  PW   PSX  PSC ( 1  4 10  8 0)
     A smooth kinetic-energy cutoff is imposed at      40.0000 Ry
     height of the smooth step-function =             800.0000 Ry
     width of the smooth step-function  =               1.0000 Ry


     celldm(1)=   5.981459  celldm(2)=   0.000000  celldm(3)=   0.000000
     celldm(4)=   0.000000  celldm(5)=   0.000000  celldm(6)=   0.000000

     crystal axes: (cart. coord. in units of alat)
               a(1) = (   0.705332368518   0.708876752279   0.000000000000 )  
               a(2) = (   0.705332368518   0.000000000000   0.708876752279 )  
               a(3) = (   0.000000000000   0.708876752279   0.708876752279 )  

     reciprocal axes: (cart. coord. in units 2 pi/alat)
               b(1) = (  0.708886  0.705341 -0.705341 )  
               b(2) = (  0.708886 -0.705341  0.705341 )  
               b(3) = ( -0.708886  0.705341  0.705341 )  


     PseudoPot. # 1 for Mn read from file:
     /users/kfg/psuedo/gbrv_1.5/mn.pbesol.UPF
     MD5 check sum: 0716d5f563e6e95a34f9080f4c78c109
     Pseudo is Ultrasoft + core correction, Zval = 15.0
     Generated by new atomic code, or converted to UPF format
     Using radial grid of  859 points,  6 beta functions with: 
                l(1) =   0
                l(2) =   0
                l(3) =   1
                l(4) =   1
                l(5) =   2
                l(6) =   2
     Q(r) pseudized with  8 coefficients,  rinner =    0.950   0.950   0.950
                                                       0.950   0.950

     PseudoPot. # 2 for O  read from file:
     /users/kfg/psuedo/gbrv_1.5/o.pbesol.UPF
     MD5 check sum: 501638753501ef6325af9037351f7734
     Pseudo is Ultrasoft + core correction, Zval =  6.0
     Generated by new atomic code, or converted to UPF format
     Using radial grid of  737 points,  5 beta functions with: 
                l(1) =   0
                l(2) =   0
                l(3) =   1
                l(4) =   1
                l(5) =   2
     Q(r) pseudized with  8 coefficients,  rinner =    0.900   0.900   0.900
                                                       0.900   0.900

     atomic species   valence    mass     pseudopotential
        Mn            15.00    54.90000     Mn( 1.00)
        O              6.00    15.99900     O ( 1.00)

     Starting magnetic structure 
     atomic species   magnetization
        Mn           1.000
        O            0.000


     Simplified LDA+U calculation (l_max = 2) with parameters (eV):
     atomic species    L          U    alpha       J0     beta
        Mn             2     3.0000   0.0000   0.0000   0.0000



     16 Sym. Ops., with inversion, found



   Cartesian axes

     site n.     atom                  positions (alat units)
         1           Mn  tau(   1) = (    0.00000000000    0.00000000000    0.00000000000  )
         2           O   tau(   2) = (    0.70533236852    0.70887675228    0.70887675228  )

     number of k points=   118  gaussian smearing, width (Ry)=  0.0100

     Number of k-points >= 100: set verbosity='high' to print them.

     Dense  grid:     7319 G-vectors     FFT dimensions: (  27,  27,  27)

     Smooth grid:     5329 G-vectors     FFT dimensions: (  25,  25,  25)

     Largest allocated arrays     est. size (Mb)     dimensions
        Kohn-Sham Wavefunctions         0.02 Mb     (      95,   15)
        Atomic Hubbard wavefuncts       0.01 Mb     (      95,    5)
        NL pseudopotentials             0.04 Mb     (      95,   31)
        Each V/rho on FFT grid          0.09 Mb     (    2916,   2)
        Each G-vector array             0.01 Mb     (     917)
        G-vector shells                 0.00 Mb     (     427)
     Largest temporary arrays     est. size (Mb)     dimensions
        Auxiliary wavefunctions         0.09 Mb     (      95,   60)
        Each subspace H/S matrix        0.05 Mb     (      60,   60)
        Each <psi_i|beta_j> matrix      0.01 Mb     (      31,   15)
        Arrays for rho mixing           0.36 Mb     (    2916,    8)

     Check: negative/imaginary core charge=   -0.000058    0.000000

     Initial potential from superposition of free atoms

     starting charge   20.49992, renormalised to   21.00000
     Number of +U iterations with fixed ns =  0
     Starting occupations:
 --- enter write_ns ---
 LDA+U parameters:
U( 1)     =  3.00000000
alpha( 1) =  0.00000000
atom    1   Tr[ns(na)] (up, down, total) =   5.00000  0.00000  5.00000
   spin  1
    eigenvalues: 
  1.000  1.000  1.000  1.000  1.000
    eigenvectors:
  1.000  0.000  0.000  0.000  0.000
  0.000  1.000  0.000  0.000  0.000
  0.000  0.000  1.000  0.000  0.000
  0.000  0.000  0.000  1.000  0.000
  0.000  0.000  0.000  0.000  1.000
    occupations:
  1.000  0.000  0.000  0.000  0.000
  0.000  1.000  0.000  0.000  0.000
  0.000  0.000  1.000  0.000  0.000
  0.000  0.000  0.000  1.000  0.000
  0.000  0.000  0.000  0.000  1.000
   spin  2
    eigenvalues: 
  0.000  0.000  0.000  0.000  0.000
    eigenvectors:
  1.000  0.000  0.000  0.000  0.000
  0.000  1.000  0.000  0.000  0.000
  0.000  0.000  1.000  0.000  0.000
  0.000  0.000  0.000  1.000  0.000
  0.000  0.000  0.000  0.000  1.000
    occupations:
  0.000  0.000  0.000  0.000  0.000
  0.000  0.000  0.000  0.000  0.000
  0.000  0.000  0.000  0.000  0.000
  0.000  0.000  0.000  0.000  0.000
  0.000  0.000  0.000  0.000  0.000
atomic mag. moment =     5.000000
N of occupied +U levels =    5.000000
 --- exit write_ns ---
 Atomic wfc used for LDA+U Projector are NOT orthogonalized
     Starting wfc are   17 randomized atomic wfcs

     total cpu time spent up to now is        1.3 secs

     Self-consistent Calculation

     iteration #  1     ecut=    41.00 Ry     beta=0.30
     Davidson diagonalization with overlap
     ethr =  1.00E-02,  avg # of iterations =  2.9
 --- enter write_ns ---
 LDA+U parameters:
U( 1)     =  3.00000000
alpha( 1) =  0.00000000
atom    1   Tr[ns(na)] (up, down, total) =   4.98832  0.19561  5.18393
   spin  1
    eigenvalues: 
  0.997  0.997  0.998  0.998  0.998
    eigenvectors:
  0.250  0.750  0.000  0.000  0.000
  0.000  0.000  0.000  0.143  0.857
  0.000  0.000  1.000  0.000  0.000
  0.750  0.250  0.000  0.000  0.000
  0.000  0.000  0.000  0.857  0.143
    occupations:
  0.997 -0.000 -0.000  0.000  0.000
 -0.000  0.998 -0.000  0.000  0.000
 -0.000 -0.000  0.998  0.000  0.000
  0.000  0.000  0.000  0.997 -0.000
  0.000  0.000  0.000 -0.000  0.998
   spin  2
    eigenvalues: 
  0.021  0.021  0.021  0.066  0.067
    eigenvectors:
  0.000  0.000  0.000  0.750  0.250
  0.000  0.174  0.826  0.000  0.000
  1.000  0.000  0.000  0.000  0.000
  0.000  0.000  0.000  0.250  0.750
  0.000  0.826  0.174  0.000  0.000
    occupations:
  0.066 -0.000 -0.000 -0.001  0.000
 -0.000  0.021 -0.000  0.000  0.000
 -0.000 -0.000  0.021  0.000  0.000
 -0.001  0.000  0.000  0.067 -0.000
  0.000  0.000  0.000 -0.000  0.021
atomic mag. moment =     4.792705
N of occupied +U levels =    5.183926
 --- exit write_ns ---

     negative rho (up, down):  0.000E+00 2.262E-04

     Magnetic moment per site:
     atom:    1    charge:   12.8173    magn:   10.2714    constr:    0.0000
     atom:    2    charge:    5.7309    magn:    0.1963    constr:    0.0000

     total cpu time spent up to now is        3.6 secs

     total energy              =    -242.22788415 Ry
     Harris-Foulkes estimate   =    -240.12256801 Ry
     estimated scf accuracy    <       3.20294765 Ry

     total magnetization       =     5.00 Bohr mag/cell
     absolute magnetization    =     5.22 Bohr mag/cell

     iteration #  2     ecut=    41.00 Ry     beta=0.30
     Davidson diagonalization with overlap
     ethr =  1.00E-02,  avg # of iterations =  1.2

     negative rho (up, down):  0.000E+00 8.257E-04

     Magnetic moment per site:
     atom:    1    charge:   12.6998    magn:    4.5528    constr:    0.0000
     atom:    2    charge:    5.9576    magn:   -0.0445    constr:    0.0000

     total cpu time spent up to now is        5.3 secs

     total energy              =    -243.20455249 Ry
     Harris-Foulkes estimate   =    -242.26098725 Ry
     estimated scf accuracy    <       1.58194932 Ry

     total magnetization       =     5.00 Bohr mag/cell
     absolute magnetization    =     5.15 Bohr mag/cell

     iteration #  3     ecut=    41.00 Ry     beta=0.30
     Davidson diagonalization with overlap
     ethr =  7.53E-03,  avg # of iterations =  1.6

     negative rho (up, down):  0.000E+00 8.950E-04

     Magnetic moment per site:
     atom:    1    charge:   12.6339    magn:    4.3119    constr:    0.0000
     atom:    2    charge:    5.9404    magn:    0.0684    constr:    0.0000

     total cpu time spent up to now is        7.3 secs

     total energy              =    -243.26947927 Ry
     Harris-Foulkes estimate   =    -243.28215038 Ry
     estimated scf accuracy    <       0.04572793 Ry

     total magnetization       =     5.00 Bohr mag/cell
     absolute magnetization    =     5.00 Bohr mag/cell

     iteration #  4     ecut=    41.00 Ry     beta=0.30
     Davidson diagonalization with overlap
     ethr =  2.18E-04,  avg # of iterations =  2.1

     negative rho (up, down):  0.000E+00 9.146E-04

     Magnetic moment per site:
     atom:    1    charge:   12.6201    magn:    4.2162    constr:    0.0000
     atom:    2    charge:    5.9488    magn:    0.0867    constr:    0.0000

     total cpu time spent up to now is        9.4 secs

     total energy              =    -243.27630009 Ry
     Harris-Foulkes estimate   =    -243.27674232 Ry
     estimated scf accuracy    <       0.00349402 Ry

     total magnetization       =     5.00 Bohr mag/cell
     absolute magnetization    =     5.00 Bohr mag/cell

     iteration #  5     ecut=    41.00 Ry     beta=0.30
     Davidson diagonalization with overlap
     ethr =  1.66E-05,  avg # of iterations =  1.9

     negative rho (up, down):  0.000E+00 9.328E-04

     Magnetic moment per site:
     atom:    1    charge:   12.5862    magn:    4.2808    constr:    0.0000
     atom:    2    charge:    5.9573    magn:    0.1607    constr:    0.0000

     total cpu time spent up to now is       11.3 secs

     total energy              =    -243.27641060 Ry
     Harris-Foulkes estimate   =    -243.27648185 Ry
     estimated scf accuracy    <       0.00151974 Ry

     total magnetization       =     5.00 Bohr mag/cell
     absolute magnetization    =     5.00 Bohr mag/cell

     iteration #  6     ecut=    41.00 Ry     beta=0.30
     Davidson diagonalization with overlap
     ethr =  7.24E-06,  avg # of iterations =  2.1

     negative rho (up, down):  0.000E+00 9.327E-04

     Magnetic moment per site:
     atom:    1    charge:   12.5793    magn:    4.2825    constr:    0.0000
     atom:    2    charge:    5.9583    magn:    0.1773    constr:    0.0000

     total cpu time spent up to now is       13.4 secs

     total energy              =    -243.27674682 Ry
     Harris-Foulkes estimate   =    -243.27673179 Ry
     estimated scf accuracy    <       0.00006253 Ry

     total magnetization       =     5.00 Bohr mag/cell
     absolute magnetization    =     5.00 Bohr mag/cell

     iteration #  7     ecut=    41.00 Ry     beta=0.30
     Davidson diagonalization with overlap
     ethr =  2.98E-07,  avg # of iterations =  2.0

     negative rho (up, down):  0.000E+00 9.290E-04

     Magnetic moment per site:
     atom:    1    charge:   12.5795    magn:    4.2730    constr:    0.0000
     atom:    2    charge:    5.9580    magn:    0.1783    constr:    0.0000

     total cpu time spent up to now is       15.4 secs

     total energy              =    -243.27676512 Ry
     Harris-Foulkes estimate   =    -243.27676262 Ry
     estimated scf accuracy    <       0.00001203 Ry

     total magnetization       =     5.00 Bohr mag/cell
     absolute magnetization    =     5.00 Bohr mag/cell

     iteration #  8     ecut=    41.00 Ry     beta=0.30
     Davidson diagonalization with overlap
     ethr =  5.73E-08,  avg # of iterations =  1.8

     negative rho (up, down):  0.000E+00 9.221E-04

     Magnetic moment per site:
     atom:    1    charge:   12.5804    magn:    4.2712    constr:    0.0000
     atom:    2    charge:    5.9573    magn:    0.1811    constr:    0.0000

     total cpu time spent up to now is       17.4 secs

     total energy              =    -243.27676732 Ry
     Harris-Foulkes estimate   =    -243.27676675 Ry
     estimated scf accuracy    <       0.00000147 Ry

     total magnetization       =     5.00 Bohr mag/cell
     absolute magnetization    =     5.00 Bohr mag/cell

     iteration #  9     ecut=    41.00 Ry     beta=0.30
     Davidson diagonalization with overlap
     ethr =  7.00E-09,  avg # of iterations =  2.1

     negative rho (up, down):  0.000E+00 9.217E-04

     Magnetic moment per site:
     atom:    1    charge:   12.5803    magn:    4.2711    constr:    0.0000
     atom:    2    charge:    5.9573    magn:    0.1820    constr:    0.0000

     total cpu time spent up to now is       19.5 secs

     total energy              =    -243.27676791 Ry
     Harris-Foulkes estimate   =    -243.27676789 Ry
     estimated scf accuracy    <       0.00000022 Ry

     total magnetization       =     5.00 Bohr mag/cell
     absolute magnetization    =     5.00 Bohr mag/cell

     iteration # 10     ecut=    41.00 Ry     beta=0.30
     Davidson diagonalization with overlap
     ethr =  1.04E-09,  avg # of iterations =  2.1

     negative rho (up, down):  0.000E+00 9.228E-04

     Magnetic moment per site:
     atom:    1    charge:   12.5804    magn:    4.2710    constr:    0.0000
     atom:    2    charge:    5.9573    magn:    0.1822    constr:    0.0000

     total cpu time spent up to now is       21.5 secs

     total energy              =    -243.27676799 Ry
     Harris-Foulkes estimate   =    -243.27676796 Ry
     estimated scf accuracy    <       0.00000001 Ry

     total magnetization       =     5.00 Bohr mag/cell
     absolute magnetization    =     5.00 Bohr mag/cell

     iteration # 11     ecut=    41.00 Ry     beta=0.30
     Davidson diagonalization with overlap
     ethr =  5.52E-11,  avg # of iterations =  2.0

     negative rho (up, down):  0.000E+00 9.223E-04

     Magnetic moment per site:
     atom:    1    charge:   12.5804    magn:    4.2710    constr:    0.0000
     atom:    2    charge:    5.9573    magn:    0.1822    constr:    0.0000

     total cpu time spent up to now is       23.5 secs

     End of self-consistent calculation
 --- enter write_ns ---
 LDA+U parameters:
U( 1)     =  3.00000000
alpha( 1) =  0.00000000
atom    1   Tr[ns(na)] (up, down, total) =   4.99167  0.46341  5.45507
   spin  1
    eigenvalues: 
  0.997  0.997  0.999  0.999  0.999
    eigenvectors:
  0.250  0.750  0.000  0.000  0.000
  0.000  0.000  0.000  0.153  0.847
  0.000  0.000  1.000  0.000  0.000
  0.750  0.250  0.000  0.000  0.000
  0.000  0.000  0.000  0.847  0.153
    occupations:
  0.997 -0.000 -0.000  0.000  0.000
 -0.000  0.999 -0.000  0.000  0.000
 -0.000 -0.000  0.999  0.000  0.000
  0.000  0.000  0.000  0.997 -0.000
  0.000  0.000  0.000 -0.000  0.999
   spin  2
    eigenvalues: 
  0.052  0.053  0.053  0.152  0.154
    eigenvectors:
  0.000  0.000  0.000  0.750  0.250
  0.000  0.124  0.876  0.000  0.000
  1.000  0.000  0.000  0.000  0.000
  0.000  0.000  0.000  0.250  0.750
  0.000  0.876  0.124  0.000  0.000
    occupations:
  0.152 -0.000 -0.000 -0.001  0.000
 -0.000  0.053 -0.000  0.000  0.000
 -0.000 -0.000  0.052  0.000  0.000
 -0.001  0.000  0.000  0.154 -0.000
  0.000  0.000  0.000 -0.000  0.053
atomic mag. moment =     4.528260
N of occupied +U levels =    5.455071
 --- exit write_ns ---

     Number of k-points >= 100: set verbosity='high' to print the bands.

     the Fermi energy is    12.5931 ev

!    total energy              =    -243.27676802 Ry
     Harris-Foulkes estimate   =    -243.27676800 Ry
     estimated scf accuracy    <          3.2E-10 Ry

     The total energy is the sum of the following terms:

     one-electron contribution =    -111.35847048 Ry
     hartree contribution      =      66.30906807 Ry
     xc contribution           =     -33.75879393 Ry
     ewald contribution        =    -164.51446793 Ry
     Hubbard energy            =       0.04592680 Ry
     smearing contrib. (-TS)   =      -0.00003055 Ry

     total magnetization       =     5.00 Bohr mag/cell
     absolute magnetization    =     5.00 Bohr mag/cell

     convergence has been achieved in  11 iterations

     Forces acting on atoms (Ry/au):


     negative rho (up, down):  0.000E+00 9.223E-04
     atom    1 type  1   force =   0.00000000E+00  0.00000000E+00  0.00000000E+00
     atom    2 type  2   force =   0.34950761E-31  0.34776008E-31 -0.34776008E-31

     Total force =     0.000000     Total SCF correction =     0.000000


     entering subroutine stress ...


     negative rho (up, down):  0.000E+00 9.223E-04
          total   stress  (Ry/bohr**3)                   (kbar)     P=    8.88
   0.0000800827  -0.0000000000   0.0000000000         11.78     -0.00      0.00
   0.0000000000   0.0000504801  -0.0000000000          0.00      7.43     -0.00
   0.0000000000  -0.0000000000   0.0000504801          0.00     -0.00      7.43


     Writing output data file mno_fm.in.sx2.save

     init_run     :      1.06s CPU      1.09s WALL (       1 calls)
     electrons    :     21.81s CPU     22.27s WALL (       1 calls)
     forces       :      0.54s CPU      0.55s WALL (       1 calls)
     stress       :      2.91s CPU      2.92s WALL (       1 calls)

     Called by init_run:
     wfcinit      :      0.78s CPU      0.80s WALL (       1 calls)
     potinit      :      0.05s CPU      0.05s WALL (       1 calls)

     Called by electrons:
     c_bands      :     18.29s CPU     18.64s WALL (      11 calls)
     sum_band     :      3.08s CPU      3.17s WALL (      11 calls)
     v_of_rho     :      0.18s CPU      0.18s WALL (      12 calls)
     newd         :      0.19s CPU      0.20s WALL (      12 calls)
     mix_rho      :      0.08s CPU      0.09s WALL (      11 calls)

     Called by c_bands:
     init_us_2    :      0.40s CPU      0.42s WALL (    4248 calls)
     cegterg      :     17.64s CPU     17.99s WALL (    1298 calls)

     Called by *egterg:
     h_psi        :     12.03s CPU     12.33s WALL (    3998 calls)
     s_psi        :      0.72s CPU      0.69s WALL (    5296 calls)
     g_psi        :      0.01s CPU      0.03s WALL (    2582 calls)
     cdiaghg      :      3.37s CPU      3.40s WALL (    3880 calls)

     Called by h_psi:
     add_vuspsi   :      0.52s CPU      0.53s WALL (    3998 calls)
     vhpsi        :      0.33s CPU      0.35s WALL (    3998 calls)

     General routines
     calbec       :      2.74s CPU      2.84s WALL (   22864 calls)
     fft          :      0.14s CPU      0.14s WALL (     406 calls)
     ffts         :      0.06s CPU      0.05s WALL (     270 calls)
     fftw         :     11.65s CPU     11.77s WALL (  112646 calls)
     interpolate  :      0.03s CPU      0.02s WALL (      46 calls)
     davcio       :      0.00s CPU      0.00s WALL (     118 calls)

     Parallel routines
     fft_scatter  :      4.40s CPU      4.43s WALL (  113322 calls)
     Hubbard U routines
     new_ns       :      0.10s CPU      0.09s WALL (      11 calls)
     vhpsi        :      0.33s CPU      0.35s WALL (    3998 calls)
     force_hub    :      0.30s CPU      0.31s WALL (       1 calls)
     stres_hub    :      2.31s CPU      2.32s WALL (       1 calls)

     PWSCF        :    27.13s CPU        28.54s WALL


   This run was terminated on:   9:53:22   9Mar2018            

=------------------------------------------------------------------------------=
   JOB DONE.
=------------------------------------------------------------------------------=
