
     Program PWSCF v.5.1 starts on 22Aug2017 at 16:31:51 

     This program is part of the open-source Quantum ESPRESSO suite
     for quantum simulation of materials; please cite
         "P. Giannozzi et al., J. Phys.:Condens. Matter 21 395502 (2009);
          URL http://www.quantum-espresso.org", 
     in publications or presentations arising from this work. More details at
     http://www.quantum-espresso.org/quote

     Parallel version (MPI), running on     8 processors
     R & G space division:  proc/nbgrp/npool/nimage =       8
     Reading input from /tmp/mno_fm.scf.in.super.444.01.6978/mno_fm.scf.in.super.444.01.t
Warning: card &IONS ignored
Warning: card   ION_DYNAMICS='BFGS', ignored
Warning: card / ignored
Warning: card &CELL ignored
Warning: card  CELL_DYNAMICS = 'BFGS' ignored
Warning: card / ignored

     Current dimensions of program PWSCF are:
     Max number of different atomic species (ntypx) = 10
     Max number of k-points (npk) =  40000
     Max angular momentum in pseudopotentials (lmaxx) =  3
 kfg - two_fermi_energies  T

     Subspace diagonalization in iterative solution of the eigenvalue problem:
     a serial algorithm will be used


     Parallelization info
     --------------------
     sticks:   dense  smooth     PW     G-vecs:    dense   smooth      PW
     Min         989     813    215                58290    43304    5897
     Max         990     814    216                58293    43314    5900
     Sum        7915    6505   1723               466337   346477   47183

     Generating pointlists ...
     new r_m :   0.0726 (alat units)  1.7415 (a.u.) for type    1
     new r_m :   0.0726 (alat units)  1.7415 (a.u.) for type    2


     bravais-lattice index     =            0
     lattice parameter (alat)  =    23.992293876  a.u.
     unit-cell volume          =    9765.6312 (a.u.)^3
     number of atoms/cell      =          128
     number of atomic types    =            2
     number of electrons       =      1344.00 (up: 832.00, down: 512.00)
     number of Kohn-Sham states=          998
     kinetic-energy cutoff     =      41.0000  Ry
     charge density cutoff     =     200.0000  Ry
     convergence threshold     =      1.0E-08
     mixing beta               =       0.3000
     number of iterations used =            8  local-TF  mixing
     Exchange-correlation      = SLA  PW   PSX  PSC ( 1  4 10  8 0)
     A smooth kinetic-energy cutoff is imposed at      40.0000 Ry
     height of the smooth step-function =             800.0000 Ry
     width of the smooth step-function  =               1.0000 Ry


     celldm(1)=  23.992294  celldm(2)=   0.000000  celldm(3)=   0.000000
     celldm(4)=   0.000000  celldm(5)=   0.000000  celldm(6)=   0.000000

     crystal axes: (cart. coord. in units of alat)
               a(1) = (   0.707106781187   0.707106781187   0.000000000000 )  
               a(2) = (   0.707106781187   0.000000000000   0.707106781187 )  
               a(3) = (   0.000000000000   0.707106781187   0.707106781187 )  

     reciprocal axes: (cart. coord. in units 2 pi/alat)
               b(1) = (  0.707107  0.707107 -0.707107 )  
               b(2) = (  0.707107 -0.707107  0.707107 )  
               b(3) = ( -0.707107  0.707107  0.707107 )  


     PseudoPot. # 1 for Mn read from file:
     /users/kfg/psuedo/gbrv_1.5/mn.pbesol.UPF
     MD5 check sum: 0716d5f563e6e95a34f9080f4c78c109
     Pseudo is Ultrasoft + core correction, Zval = 15.0
     Generated by new atomic code, or converted to UPF format
     Using radial grid of  859 points,  6 beta functions with: 
                l(1) =   0
                l(2) =   0
                l(3) =   1
                l(4) =   1
                l(5) =   2
                l(6) =   2
     Q(r) pseudized with  8 coefficients,  rinner =    0.950   0.950   0.950
                                                       0.950   0.950

     PseudoPot. # 2 for O  read from file:
     /users/kfg/psuedo/gbrv_1.5/o.pbesol.UPF
     MD5 check sum: 501638753501ef6325af9037351f7734
     Pseudo is Ultrasoft + core correction, Zval =  6.0
     Generated by new atomic code, or converted to UPF format
     Using radial grid of  737 points,  5 beta functions with: 
                l(1) =   0
                l(2) =   0
                l(3) =   1
                l(4) =   1
                l(5) =   2
     Q(r) pseudized with  8 coefficients,  rinner =    0.900   0.900   0.900
                                                       0.900   0.900

     atomic species   valence    mass     pseudopotential
        Mn            15.00    54.90000     Mn( 1.00)
        O              6.00    15.99900     O ( 1.00)

     Starting magnetic structure 
     atomic species   magnetization
        Mn           1.000
        O            0.000


     Simplified LDA+U calculation (l_max = 2) with parameters (eV):
     atomic species    L          U    alpha       J0     beta
        Mn             2     3.0000   0.0000   0.0000   0.0000



     No symmetry found



   Cartesian axes

     site n.     atom                  positions (alat units)
         1           Mn  tau(   1) = (    0.00026716688   -0.00035688150   -0.00022965075  )
         2           O   tau(   2) = (    0.17640084794    0.17640775592    0.17641027966  )
         3           Mn  tau(   3) = (   -0.00012508131    0.17645536654    0.17710467398  )
         4           O   tau(   4) = (    0.17693879928    0.35341083370    0.35360590722  )
         5           Mn  tau(   5) = (    0.00004512358    0.35333379941    0.35333588048  )
         6           O   tau(   6) = (    0.17661161388    0.53026189864    0.53001873262  )
         7           Mn  tau(   7) = (   -0.00039232599    0.52992017761    0.53022468143  )
         8           O   tau(   8) = (    0.17717329431    0.70732132812    0.70676219069  )
         9           Mn  tau(   9) = (    0.17701348527   -0.00013847749    0.17640395584  )
        10           O   tau(  10) = (    0.35334194842    0.17690494989    0.35395695952  )
        11           Mn  tau(  11) = (    0.17645409601    0.17671980219    0.35323547453  )
        12           O   tau(  12) = (    0.35338417417    0.35359131023    0.53038635810  )
        13           Mn  tau(  13) = (    0.17683004184    0.35396656036    0.53056865311  )
        14           O   tau(  14) = (    0.35377813288    0.53069585819    0.70718064141  )
        15           Mn  tau(  15) = (    0.17653677924    0.52997518101    0.70730448151  )
        16           O   tau(  16) = (    0.35354814048    0.70706855427    0.88406756173  )
        17           Mn  tau(  17) = (    0.35347188630   -0.00025265729    0.35338839619  )
        18           O   tau(  18) = (    0.53008739934    0.17670098042    0.53032287738  )
        19           Mn  tau(  19) = (    0.35334466321    0.17715520158    0.53020334777  )
        20           O   tau(  20) = (    0.53029848756    0.35353554891    0.70744336531  )
        21           Mn  tau(  21) = (    0.35354029011    0.35388196569    0.70742190360  )
        22           O   tau(  22) = (    0.53048673398    0.53013731782    0.88406194247  )
        23           Mn  tau(  23) = (    0.35370758684    0.53033090377    0.88402693960  )
        24           O   tau(  24) = (    0.53056106037    0.70728734960    1.06047029239  )
        25           Mn  tau(  25) = (    0.53015438148   -0.00002805221    0.53057629037  )
        26           O   tau(  26) = (    0.70705008584    0.17636166769    0.70738749298  )
        27           Mn  tau(  27) = (    0.53054764102    0.17718397321    0.70731077035  )
        28           O   tau(  28) = (    0.70708078425    0.35372834503    0.88403821923  )
        29           Mn  tau(  29) = (    0.53004706071    0.35381156789    0.88356792203  )
        30           O   tau(  30) = (    0.70747282706    0.52998068761    1.06062744405  )
        31           Mn  tau(  31) = (    0.53024839588    0.53039093685    1.06040771957  )
        32           O   tau(  32) = (    0.70708928159    0.70675808428    1.23710592563  )
        33           Mn  tau(  33) = (    0.17708175502    0.17664447063    0.00033721174  )
        34           O   tau(  34) = (    0.35355112856    0.35348863965    0.17715618038  )
        35           Mn  tau(  35) = (    0.17680945812    0.35386319708    0.17688026667  )
        36           O   tau(  36) = (    0.35344286223    0.53069252891    0.35340568257  )
        37           Mn  tau(  37) = (    0.17673283912    0.53002756382    0.35371759889  )
        38           O   tau(  38) = (    0.35343878137    0.70744185913    0.53058097242  )
        39           Mn  tau(  39) = (    0.17688228568    0.70729957010    0.53055961372  )
        40           O   tau(  40) = (    0.35331707000    0.88375481219    0.70686804653  )
        41           Mn  tau(  41) = (    0.35374392154    0.17693696884    0.17656977771  )
        42           O   tau(  42) = (    0.53013003729    0.35329858420    0.35372057734  )
        43           Mn  tau(  43) = (    0.35395424399    0.35368047877    0.35333987779  )
        44           O   tau(  44) = (    0.53038157094    0.52995860805    0.53069593789  )
        45           Mn  tau(  45) = (    0.35337622078    0.52993879314    0.53047276652  )
        46           O   tau(  46) = (    0.53049732804    0.70735280631    0.70705907802  )
        47           Mn  tau(  47) = (    0.35389701838    0.70721423691    0.70691169052  )
        48           O   tau(  48) = (    0.53057472710    0.88429031952    0.88408510132  )
        49           Mn  tau(  49) = (    0.53021759164    0.17679360931    0.35356858658  )
        50           O   tau(  50) = (    0.70684987387    0.35391168120    0.52999664716  )
        51           Mn  tau(  51) = (    0.53043951469    0.35347066922    0.53042746595  )
        52           O   tau(  52) = (    0.70677940827    0.53033474627    0.70740117832  )
        53           Mn  tau(  53) = (    0.53051945241    0.53036942762    0.70712172995  )
        54           O   tau(  54) = (    0.70744335369    0.70747309346    0.88364341754  )
        55           Mn  tau(  55) = (    0.53030605156    0.70712595521    0.88370836441  )
        56           O   tau(  56) = (    0.70734392728    0.88368905335    1.06101701944  )
        57           Mn  tau(  57) = (    0.70742400058    0.17649518068    0.53025575031  )
        58           O   tau(  58) = (    0.88396496354    0.35372350910    0.70725310750  )
        59           Mn  tau(  59) = (    0.70751246974    0.35382139150    0.70690427944  )
        60           O   tau(  60) = (    0.88383199994    0.53072015812    0.88365688785  )
        61           Mn  tau(  61) = (    0.70729843054    0.53038378796    0.88346733734  )
        62           O   tau(  62) = (    0.88418459411    0.70712304554    1.06078499762  )
        63           Mn  tau(  63) = (    0.70748582882    0.70716888210    1.06061111635  )
        64           O   tau(  64) = (    0.88411765406    0.88399114478    1.23715192776  )
        65           Mn  tau(  65) = (    0.35355215991    0.35345324616   -0.00020634810  )
        66           O   tau(  66) = (    0.53050383484    0.53026897933    0.17714048833  )
        67           Mn  tau(  67) = (    0.35332076964    0.52994108998    0.17693320997  )
        68           O   tau(  68) = (    0.53004596083    0.70683022236    0.35316344021  )
        69           Mn  tau(  69) = (    0.35348383369    0.70703363236    0.35371731741  )
        70           O   tau(  70) = (    0.52997507546    0.88391566534    0.53011919199  )
        71           Mn  tau(  71) = (    0.35386145437    0.88415468252    0.52999862534  )
        72           O   tau(  72) = (    0.53035470053    1.06067057836    0.70696666296  )
        73           Mn  tau(  73) = (    0.53033745215    0.35328374531    0.17683946145  )
        74           O   tau(  74) = (    0.70710028788    0.53058498448    0.35333725307  )
        75           Mn  tau(  75) = (    0.53032225223    0.53055727724    0.35376670832  )
        76           O   tau(  76) = (    0.70725936324    0.70751109460    0.53061722228  )
        77           Mn  tau(  77) = (    0.53000378441    0.70678107853    0.52999177473  )
        78           O   tau(  78) = (    0.70683086591    0.88410399955    0.70675412904  )
        79           Mn  tau(  79) = (    0.53018042716    0.88378923181    0.70678260677  )
        80           O   tau(  80) = (    0.70752324806    1.06099176023    0.88404857274  )
        81           Mn  tau(  81) = (    0.70709960051    0.35368884812    0.35340988788  )
        82           O   tau(  82) = (    0.88351717056    0.53031160110    0.53057428532  )
        83           Mn  tau(  83) = (    0.70738656387    0.53017330083    0.53055754333  )
        84           O   tau(  84) = (    0.88366159040    0.70687565159    0.70677276895  )
        85           Mn  tau(  85) = (    0.70711876625    0.70702539514    0.70720911899  )
        86           O   tau(  86) = (    0.88354065964    0.88384386659    0.88387099001  )
        87           Mn  tau(  87) = (    0.70724872519    0.88351134349    0.88375430446  )
        88           O   tau(  88) = (    0.88347492369    1.06091622700    1.06059371861  )
        89           Mn  tau(  89) = (    0.88403011551    0.35314778613    0.52998180847  )
        90           O   tau(  90) = (    1.06092993599    0.53009489313    0.70736276185  )
        91           Mn  tau(  91) = (    0.88408505643    0.53071477976    0.70745918058  )
        92           O   tau(  92) = (    1.06107551970    0.70745336215    0.88418887131  )
        93           Mn  tau(  93) = (    0.88389568668    0.70692183309    0.88398550696  )
        94           O   tau(  94) = (    1.06077256433    0.88410695153    1.06065515893  )
        95           Mn  tau(  95) = (    0.88362564477    0.88424765701    1.06107427360  )
        96           O   tau(  96) = (    1.06046424297    1.06104049183    1.23753054992  )
        97           Mn  tau(  97) = (    0.53044248478    0.53007291955    0.00007019246  )
        98           O   tau(  98) = (    0.70699484725    0.70684003773    0.17643302432  )
        99           Mn  tau(  99) = (    0.53032054360    0.70673239008    0.17710046197  )
       100           O   tau( 100) = (    0.70751393148    0.88365854759    0.35322850699  )
       101           Mn  tau( 101) = (    0.52994502846    0.88423058496    0.35393802080  )
       102           O   tau( 102) = (    0.70737207792    1.06074401566    0.53053758448  )
       103           Mn  tau( 103) = (    0.53051205338    1.06069808203    0.52992954529  )
       104           O   tau( 104) = (    0.70703805222    1.23724053392    0.70688939701  )
       105           Mn  tau( 105) = (    0.70746755293    0.53005498187    0.17638822231  )
       106           O   tau( 106) = (    0.88383565700    0.70675546377    0.35387178992  )
       107           Mn  tau( 107) = (    0.70741766894    0.70703910582    0.35368081079  )
       108           O   tau( 108) = (    0.88418826407    0.88387927832    0.53061814053  )
       109           Mn  tau( 109) = (    0.70714569417    0.88392731989    0.52992741579  )
       110           O   tau( 110) = (    0.88361761498    1.06102076238    0.70747571507  )
       111           Mn  tau( 111) = (    0.70673336803    1.06041170063    0.70709401418  )
       112           O   tau( 112) = (    0.88352421577    1.23723776839    0.88408413164  )
       113           Mn  tau( 113) = (    0.88358733287    0.53008851830    0.35363957309  )
       114           O   tau( 114) = (    1.06046778961    0.70725211289    0.53022704390  )
       115           Mn  tau( 115) = (    0.88384793091    0.70669272365    0.53071949025  )
       116           O   tau( 116) = (    1.06044755367    0.88364454516    0.70713869599  )
       117           Mn  tau( 117) = (    0.88374900894    0.88386584607    0.70719440334  )
       118           O   tau( 118) = (    1.06058640228    1.06060019599    0.88358946115  )
       119           Mn  tau( 119) = (    0.88348791028    1.06075327062    0.88403357092  )
       120           O   tau( 120) = (    1.06067099875    1.23740334608    1.06051298053  )
       121           Mn  tau( 121) = (    1.06048798087    0.53030158021    0.52992397470  )
       122           O   tau( 122) = (    1.23743844815    0.70681408726    0.70750447426  )
       123           Mn  tau( 123) = (    1.06087501744    0.70710213486    0.70689442861  )
       124           O   tau( 124) = (    1.23777673602    0.88406564322    0.88390312650  )
       125           Mn  tau( 125) = (    1.06083703473    0.88396952136    0.88401686272  )
       126           O   tau( 126) = (    1.23758295041    1.06048640648    1.06087114245  )
       127           Mn  tau( 127) = (    1.06073601118    1.06027023065    1.06102994247  )
       128           O   tau( 128) = (    1.23703457842    1.23738249851    1.23769791416  )

     number of k points=    16  gaussian smearing, width (Ry)=  0.0100
                       cart. coord. in units 2pi/alat
        k(    1) = (   0.0000000   0.0000000   0.0000000), wk =   0.1250000
        k(    2) = (   0.3535534  -0.3535534  -0.3535534), wk =   0.1250000
        k(    3) = (   0.0000000   0.0000000  -0.7071068), wk =   0.1250000
        k(    4) = (  -0.3535534   0.3535534  -0.3535534), wk =   0.1250000
        k(    5) = (  -0.3535534  -0.3535534   0.3535534), wk =   0.1250000
        k(    6) = (   0.3535534   0.3535534   0.3535534), wk =   0.1250000
        k(    7) = (  -0.7071068   0.0000000   0.0000000), wk =   0.1250000
        k(    8) = (   0.0000000  -0.7071068   0.0000000), wk =   0.1250000
        k(    9) = (   0.0000000   0.0000000   0.0000000), wk =   0.1250000
        k(   10) = (   0.3535534  -0.3535534  -0.3535534), wk =   0.1250000
        k(   11) = (   0.0000000   0.0000000  -0.7071068), wk =   0.1250000
        k(   12) = (  -0.3535534   0.3535534  -0.3535534), wk =   0.1250000
        k(   13) = (  -0.3535534  -0.3535534   0.3535534), wk =   0.1250000
        k(   14) = (   0.3535534   0.3535534   0.3535534), wk =   0.1250000
        k(   15) = (  -0.7071068   0.0000000   0.0000000), wk =   0.1250000
        k(   16) = (   0.0000000  -0.7071068   0.0000000), wk =   0.1250000

     Dense  grid:   466337 G-vectors     FFT dimensions: ( 120, 120, 120)

     Smooth grid:   346477 G-vectors     FFT dimensions: ( 100, 100, 100)

     Largest allocated arrays     est. size (Mb)     dimensions
        Kohn-Sham Wavefunctions        82.70 Mb     (    5431,  998)
        Atomic Hubbard wavefuncts      26.52 Mb     (    5431,  320)
        NL pseudopotentials           164.42 Mb     (    5431, 1984)
        Each V/rho on FFT grid          6.59 Mb     (  216000,   2)
        Each G-vector array             0.44 Mb     (   58291)
        G-vector shells                 0.01 Mb     (    1944)
     Largest temporary arrays     est. size (Mb)     dimensions
        Auxiliary wavefunctions       330.82 Mb     (    5431, 3992)
        Each subspace H/S matrix      243.17 Mb     (    3992, 3992)
        Each <psi_i|beta_j> matrix     30.21 Mb     (    1984,  998)
        Arrays for rho mixing          26.37 Mb     (  216000,    8)

     Check: negative/imaginary core charge=   -0.000058    0.000000

     Initial potential from superposition of free atoms

     starting charge 1311.99482, renormalised to 1344.00000
     Number of +U iterations with fixed ns =  0
     Starting occupations:
 --- enter write_ns ---
 LDA+U parameters:
U( 1)     =  3.00000000
alpha( 1) =  0.00000000
atom    1   Tr[ns(na)] (up, down, total) =   5.00000  0.00000  5.00000
   spin  1
    eigenvalues: 
  1.000  1.000  1.000  1.000  1.000
    eigenvectors:
  1.000  0.000  0.000  0.000  0.000
  0.000  1.000  0.000  0.000  0.000
  0.000  0.000  1.000  0.000  0.000
  0.000  0.000  0.000  1.000  0.000
  0.000  0.000  0.000  0.000  1.000
    occupations:
  1.000  0.000  0.000  0.000  0.000
  0.000  1.000  0.000  0.000  0.000
  0.000  0.000  1.000  0.000  0.000
  0.000  0.000  0.000  1.000  0.000
  0.000  0.000  0.000  0.000  1.000
   spin  2
    eigenvalues: 
  0.000  0.000  0.000  0.000  0.000
    eigenvectors:
  1.000  0.000  0.000  0.000  0.000
  0.000  1.000  0.000  0.000  0.000
  0.000  0.000  1.000  0.000  0.000
  0.000  0.000  0.000  1.000  0.000
  0.000  0.000  0.000  0.000  1.000
    occupations:
  0.000  0.000  0.000  0.000  0.000
  0.000  0.000  0.000  0.000  0.000
  0.000  0.000  0.000  0.000  0.000
  0.000  0.000  0.000  0.000  0.000
  0.000  0.000  0.000  0.000  0.000
atomic mag. moment =     5.000000
atom    3   Tr[ns(na)] (up, down, total) =   5.00000  0.00000  5.00000
   spin  1
    eigenvalues: 
  1.000  1.000  1.000  1.000  1.000
    eigenvectors:
  1.000  0.000  0.000  0.000  0.000
  0.000  1.000  0.000  0.000  0.000
  0.000  0.000  1.000  0.000  0.000
  0.000  0.000  0.000  1.000  0.000
  0.000  0.000  0.000  0.000  1.000
    occupations:
  1.000  0.000  0.000  0.000  0.000
  0.000  1.000  0.000  0.000  0.000
  0.000  0.000  1.000  0.000  0.000
  0.000  0.000  0.000  1.000  0.000
  0.000  0.000  0.000  0.000  1.000
   spin  2
    eigenvalues: 
  0.000  0.000  0.000  0.000  0.000
    eigenvectors:
  1.000  0.000  0.000  0.000  0.000
  0.000  1.000  0.000  0.000  0.000
  0.000  0.000  1.000  0.000  0.000
  0.000  0.000  0.000  1.000  0.000
  0.000  0.000  0.000  0.000  1.000
    occupations:
  0.000  0.000  0.000  0.000  0.000
  0.000  0.000  0.000  0.000  0.000
  0.000  0.000  0.000  0.000  0.000
  0.000  0.000  0.000  0.000  0.000
  0.000  0.000  0.000  0.000  0.000
atomic mag. moment =     5.000000
atom    5   Tr[ns(na)] (up, down, total) =   5.00000  0.00000  5.00000
   spin  1
    eigenvalues: 
  1.000  1.000  1.000  1.000  1.000
    eigenvectors:
  1.000  0.000  0.000  0.000  0.000
  0.000  1.000  0.000  0.000  0.000
  0.000  0.000  1.000  0.000  0.000
  0.000  0.000  0.000  1.000  0.000
  0.000  0.000  0.000  0.000  1.000
    occupations:
  1.000  0.000  0.000  0.000  0.000
  0.000  1.000  0.000  0.000  0.000
  0.000  0.000  1.000  0.000  0.000
  0.000  0.000  0.000  1.000  0.000
  0.000  0.000  0.000  0.000  1.000
   spin  2
    eigenvalues: 
  0.000  0.000  0.000  0.000  0.000
    eigenvectors:
  1.000  0.000  0.000  0.000  0.000
  0.000  1.000  0.000  0.000  0.000
  0.000  0.000  1.000  0.000  0.000
  0.000  0.000  0.000  1.000  0.000
  0.000  0.000  0.000  0.000  1.000
    occupations:
  0.000  0.000  0.000  0.000  0.000
  0.000  0.000  0.000  0.000  0.000
  0.000  0.000  0.000  0.000  0.000
  0.000  0.000  0.000  0.000  0.000
  0.000  0.000  0.000  0.000  0.000
atomic mag. moment =     5.000000
atom    7   Tr[ns(na)] (up, down, total) =   5.00000  0.00000  5.00000
   spin  1
    eigenvalues: 
  1.000  1.000  1.000  1.000  1.000
    eigenvectors:
  1.000  0.000  0.000  0.000  0.000
  0.000  1.000  0.000  0.000  0.000
  0.000  0.000  1.000  0.000  0.000
  0.000  0.000  0.000  1.000  0.000
  0.000  0.000  0.000  0.000  1.000
    occupations:
  1.000  0.000  0.000  0.000  0.000
  0.000  1.000  0.000  0.000  0.000
  0.000  0.000  1.000  0.000  0.000
  0.000  0.000  0.000  1.000  0.000
  0.000  0.000  0.000  0.000  1.000
   spin  2
    eigenvalues: 
  0.000  0.000  0.000  0.000  0.000
    eigenvectors:
  1.000  0.000  0.000  0.000  0.000
  0.000  1.000  0.000  0.000  0.000
  0.000  0.000  1.000  0.000  0.000
  0.000  0.000  0.000  1.000  0.000
  0.000  0.000  0.000  0.000  1.000
    occupations:
  0.000  0.000  0.000  0.000  0.000
  0.000  0.000  0.000  0.000  0.000
  0.000  0.000  0.000  0.000  0.000
  0.000  0.000  0.000  0.000  0.000
  0.000  0.000  0.000  0.000  0.000
atomic mag. moment =     5.000000
atom    9   Tr[ns(na)] (up, down, total) =   5.00000  0.00000  5.00000
   spin  1
    eigenvalues: 
  1.000  1.000  1.000  1.000  1.000
    eigenvectors:
  1.000  0.000  0.000  0.000  0.000
  0.000  1.000  0.000  0.000  0.000
  0.000  0.000  1.000  0.000  0.000
  0.000  0.000  0.000  1.000  0.000
  0.000  0.000  0.000  0.000  1.000
    occupations:
  1.000  0.000  0.000  0.000  0.000
  0.000  1.000  0.000  0.000  0.000
  0.000  0.000  1.000  0.000  0.000
  0.000  0.000  0.000  1.000  0.000
  0.000  0.000  0.000  0.000  1.000
   spin  2
    eigenvalues: 
  0.000  0.000  0.000  0.000  0.000
    eigenvectors:
  1.000  0.000  0.000  0.000  0.000
  0.000  1.000  0.000  0.000  0.000
  0.000  0.000  1.000  0.000  0.000
  0.000  0.000  0.000  1.000  0.000
  0.000  0.000  0.000  0.000  1.000
    occupations:
  0.000  0.000  0.000  0.000  0.000
  0.000  0.000  0.000  0.000  0.000
  0.000  0.000  0.000  0.000  0.000
  0.000  0.000  0.000  0.000  0.000
  0.000  0.000  0.000  0.000  0.000
atomic mag. moment =     5.000000
atom   11   Tr[ns(na)] (up, down, total) =   5.00000  0.00000  5.00000
   spin  1
    eigenvalues: 
  1.000  1.000  1.000  1.000  1.000
    eigenvectors:
  1.000  0.000  0.000  0.000  0.000
  0.000  1.000  0.000  0.000  0.000
  0.000  0.000  1.000  0.000  0.000
  0.000  0.000  0.000  1.000  0.000
  0.000  0.000  0.000  0.000  1.000
    occupations:
  1.000  0.000  0.000  0.000  0.000
  0.000  1.000  0.000  0.000  0.000
  0.000  0.000  1.000  0.000  0.000
  0.000  0.000  0.000  1.000  0.000
  0.000  0.000  0.000  0.000  1.000
   spin  2
    eigenvalues: 
  0.000  0.000  0.000  0.000  0.000
    eigenvectors:
  1.000  0.000  0.000  0.000  0.000
  0.000  1.000  0.000  0.000  0.000
  0.000  0.000  1.000  0.000  0.000
  0.000  0.000  0.000  1.000  0.000
  0.000  0.000  0.000  0.000  1.000
    occupations:
  0.000  0.000  0.000  0.000  0.000
  0.000  0.000  0.000  0.000  0.000
  0.000  0.000  0.000  0.000  0.000
  0.000  0.000  0.000  0.000  0.000
  0.000  0.000  0.000  0.000  0.000
atomic mag. moment =     5.000000
atom   13   Tr[ns(na)] (up, down, total) =   5.00000  0.00000  5.00000
   spin  1
    eigenvalues: 
  1.000  1.000  1.000  1.000  1.000
    eigenvectors:
  1.000  0.000  0.000  0.000  0.000
  0.000  1.000  0.000  0.000  0.000
  0.000  0.000  1.000  0.000  0.000
  0.000  0.000  0.000  1.000  0.000
  0.000  0.000  0.000  0.000  1.000
    occupations:
  1.000  0.000  0.000  0.000  0.000
  0.000  1.000  0.000  0.000  0.000
  0.000  0.000  1.000  0.000  0.000
  0.000  0.000  0.000  1.000  0.000
  0.000  0.000  0.000  0.000  1.000
   spin  2
    eigenvalues: 
  0.000  0.000  0.000  0.000  0.000
    eigenvectors:
  1.000  0.000  0.000  0.000  0.000
  0.000  1.000  0.000  0.000  0.000
  0.000  0.000  1.000  0.000  0.000
  0.000  0.000  0.000  1.000  0.000
  0.000  0.000  0.000  0.000  1.000
    occupations:
  0.000  0.000  0.000  0.000  0.000
  0.000  0.000  0.000  0.000  0.000
  0.000  0.000  0.000  0.000  0.000
  0.000  0.000  0.000  0.000  0.000
  0.000  0.000  0.000  0.000  0.000
atomic mag. moment =     5.000000
atom   15   Tr[ns(na)] (up, down, total) =   5.00000  0.00000  5.00000
   spin  1
    eigenvalues: 
  1.000  1.000  1.000  1.000  1.000
    eigenvectors:
  1.000  0.000  0.000  0.000  0.000
  0.000  1.000  0.000  0.000  0.000
  0.000  0.000  1.000  0.000  0.000
  0.000  0.000  0.000  1.000  0.000
  0.000  0.000  0.000  0.000  1.000
    occupations:
  1.000  0.000  0.000  0.000  0.000
  0.000  1.000  0.000  0.000  0.000
  0.000  0.000  1.000  0.000  0.000
  0.000  0.000  0.000  1.000  0.000
  0.000  0.000  0.000  0.000  1.000
   spin  2
    eigenvalues: 
  0.000  0.000  0.000  0.000  0.000
    eigenvectors:
  1.000  0.000  0.000  0.000  0.000
  0.000  1.000  0.000  0.000  0.000
  0.000  0.000  1.000  0.000  0.000
  0.000  0.000  0.000  1.000  0.000
  0.000  0.000  0.000  0.000  1.000
    occupations:
  0.000  0.000  0.000  0.000  0.000
  0.000  0.000  0.000  0.000  0.000
  0.000  0.000  0.000  0.000  0.000
  0.000  0.000  0.000  0.000  0.000
  0.000  0.000  0.000  0.000  0.000
atomic mag. moment =     5.000000
atom   17   Tr[ns(na)] (up, down, total) =   5.00000  0.00000  5.00000
   spin  1
    eigenvalues: 
  1.000  1.000  1.000  1.000  1.000
    eigenvectors:
  1.000  0.000  0.000  0.000  0.000
  0.000  1.000  0.000  0.000  0.000
  0.000  0.000  1.000  0.000  0.000
  0.000  0.000  0.000  1.000  0.000
  0.000  0.000  0.000  0.000  1.000
    occupations:
  1.000  0.000  0.000  0.000  0.000
  0.000  1.000  0.000  0.000  0.000
  0.000  0.000  1.000  0.000  0.000
  0.000  0.000  0.000  1.000  0.000
  0.000  0.000  0.000  0.000  1.000
   spin  2
    eigenvalues: 
  0.000  0.000  0.000  0.000  0.000
    eigenvectors:
  1.000  0.000  0.000  0.000  0.000
  0.000  1.000  0.000  0.000  0.000
  0.000  0.000  1.000  0.000  0.000
  0.000  0.000  0.000  1.000  0.000
  0.000  0.000  0.000  0.000  1.000
    occupations:
  0.000  0.000  0.000  0.000  0.000
  0.000  0.000  0.000  0.000  0.000
  0.000  0.000  0.000  0.000  0.000
  0.000  0.000  0.000  0.000  0.000
  0.000  0.000  0.000  0.000  0.000
atomic mag. moment =     5.000000
atom   19   Tr[ns(na)] (up, down, total) =   5.00000  0.00000  5.00000
   spin  1
    eigenvalues: 
  1.000  1.000  1.000  1.000  1.000
    eigenvectors:
  1.000  0.000  0.000  0.000  0.000
  0.000  1.000  0.000  0.000  0.000
  0.000  0.000  1.000  0.000  0.000
  0.000  0.000  0.000  1.000  0.000
  0.000  0.000  0.000  0.000  1.000
    occupations:
  1.000  0.000  0.000  0.000  0.000
  0.000  1.000  0.000  0.000  0.000
  0.000  0.000  1.000  0.000  0.000
  0.000  0.000  0.000  1.000  0.000
  0.000  0.000  0.000  0.000  1.000
   spin  2
    eigenvalues: 
  0.000  0.000  0.000  0.000  0.000
    eigenvectors:
  1.000  0.000  0.000  0.000  0.000
  0.000  1.000  0.000  0.000  0.000
  0.000  0.000  1.000  0.000  0.000
  0.000  0.000  0.000  1.000  0.000
  0.000  0.000  0.000  0.000  1.000
    occupations:
  0.000  0.000  0.000  0.000  0.000
  0.000  0.000  0.000  0.000  0.000
  0.000  0.000  0.000  0.000  0.000
  0.000  0.000  0.000  0.000  0.000
  0.000  0.000  0.000  0.000  0.000
atomic mag. moment =     5.000000
atom   21   Tr[ns(na)] (up, down, total) =   5.00000  0.00000  5.00000
   spin  1
    eigenvalues: 
  1.000  1.000  1.000  1.000  1.000
    eigenvectors:
  1.000  0.000  0.000  0.000  0.000
  0.000  1.000  0.000  0.000  0.000
  0.000  0.000  1.000  0.000  0.000
  0.000  0.000  0.000  1.000  0.000
  0.000  0.000  0.000  0.000  1.000
    occupations:
  1.000  0.000  0.000  0.000  0.000
  0.000  1.000  0.000  0.000  0.000
  0.000  0.000  1.000  0.000  0.000
  0.000  0.000  0.000  1.000  0.000
  0.000  0.000  0.000  0.000  1.000
   spin  2
    eigenvalues: 
  0.000  0.000  0.000  0.000  0.000
    eigenvectors:
  1.000  0.000  0.000  0.000  0.000
  0.000  1.000  0.000  0.000  0.000
  0.000  0.000  1.000  0.000  0.000
  0.000  0.000  0.000  1.000  0.000
  0.000  0.000  0.000  0.000  1.000
    occupations:
  0.000  0.000  0.000  0.000  0.000
  0.000  0.000  0.000  0.000  0.000
  0.000  0.000  0.000  0.000  0.000
  0.000  0.000  0.000  0.000  0.000
  0.000  0.000  0.000  0.000  0.000
atomic mag. moment =     5.000000
atom   23   Tr[ns(na)] (up, down, total) =   5.00000  0.00000  5.00000
   spin  1
    eigenvalues: 
  1.000  1.000  1.000  1.000  1.000
    eigenvectors:
  1.000  0.000  0.000  0.000  0.000
  0.000  1.000  0.000  0.000  0.000
  0.000  0.000  1.000  0.000  0.000
  0.000  0.000  0.000  1.000  0.000
  0.000  0.000  0.000  0.000  1.000
    occupations:
  1.000  0.000  0.000  0.000  0.000
  0.000  1.000  0.000  0.000  0.000
  0.000  0.000  1.000  0.000  0.000
  0.000  0.000  0.000  1.000  0.000
  0.000  0.000  0.000  0.000  1.000
   spin  2
    eigenvalues: 
  0.000  0.000  0.000  0.000  0.000
    eigenvectors:
  1.000  0.000  0.000  0.000  0.000
  0.000  1.000  0.000  0.000  0.000
  0.000  0.000  1.000  0.000  0.000
  0.000  0.000  0.000  1.000  0.000
  0.000  0.000  0.000  0.000  1.000
    occupations:
  0.000  0.000  0.000  0.000  0.000
  0.000  0.000  0.000  0.000  0.000
  0.000  0.000  0.000  0.000  0.000
  0.000  0.000  0.000  0.000  0.000
  0.000  0.000  0.000  0.000  0.000
atomic mag. moment =     5.000000
atom   25   Tr[ns(na)] (up, down, total) =   5.00000  0.00000  5.00000
   spin  1
    eigenvalues: 
  1.000  1.000  1.000  1.000  1.000
    eigenvectors:
  1.000  0.000  0.000  0.000  0.000
  0.000  1.000  0.000  0.000  0.000
  0.000  0.000  1.000  0.000  0.000
  0.000  0.000  0.000  1.000  0.000
  0.000  0.000  0.000  0.000  1.000
    occupations:
  1.000  0.000  0.000  0.000  0.000
  0.000  1.000  0.000  0.000  0.000
  0.000  0.000  1.000  0.000  0.000
  0.000  0.000  0.000  1.000  0.000
  0.000  0.000  0.000  0.000  1.000
   spin  2
    eigenvalues: 
  0.000  0.000  0.000  0.000  0.000
    eigenvectors:
  1.000  0.000  0.000  0.000  0.000
  0.000  1.000  0.000  0.000  0.000
  0.000  0.000  1.000  0.000  0.000
  0.000  0.000  0.000  1.000  0.000
  0.000  0.000  0.000  0.000  1.000
    occupations:
  0.000  0.000  0.000  0.000  0.000
  0.000  0.000  0.000  0.000  0.000
  0.000  0.000  0.000  0.000  0.000
  0.000  0.000  0.000  0.000  0.000
  0.000  0.000  0.000  0.000  0.000
atomic mag. moment =     5.000000
atom   27   Tr[ns(na)] (up, down, total) =   5.00000  0.00000  5.00000
   spin  1
    eigenvalues: 
  1.000  1.000  1.000  1.000  1.000
    eigenvectors:
  1.000  0.000  0.000  0.000  0.000
  0.000  1.000  0.000  0.000  0.000
  0.000  0.000  1.000  0.000  0.000
  0.000  0.000  0.000  1.000  0.000
  0.000  0.000  0.000  0.000  1.000
    occupations:
  1.000  0.000  0.000  0.000  0.000
  0.000  1.000  0.000  0.000  0.000
  0.000  0.000  1.000  0.000  0.000
  0.000  0.000  0.000  1.000  0.000
  0.000  0.000  0.000  0.000  1.000
   spin  2
    eigenvalues: 
  0.000  0.000  0.000  0.000  0.000
    eigenvectors:
  1.000  0.000  0.000  0.000  0.000
  0.000  1.000  0.000  0.000  0.000
  0.000  0.000  1.000  0.000  0.000
  0.000  0.000  0.000  1.000  0.000
  0.000  0.000  0.000  0.000  1.000
    occupations:
  0.000  0.000  0.000  0.000  0.000
  0.000  0.000  0.000  0.000  0.000
  0.000  0.000  0.000  0.000  0.000
  0.000  0.000  0.000  0.000  0.000
  0.000  0.000  0.000  0.000  0.000
atomic mag. moment =     5.000000
atom   29   Tr[ns(na)] (up, down, total) =   5.00000  0.00000  5.00000
   spin  1
    eigenvalues: 
  1.000  1.000  1.000  1.000  1.000
    eigenvectors:
  1.000  0.000  0.000  0.000  0.000
  0.000  1.000  0.000  0.000  0.000
  0.000  0.000  1.000  0.000  0.000
  0.000  0.000  0.000  1.000  0.000
  0.000  0.000  0.000  0.000  1.000
    occupations:
  1.000  0.000  0.000  0.000  0.000
  0.000  1.000  0.000  0.000  0.000
  0.000  0.000  1.000  0.000  0.000
  0.000  0.000  0.000  1.000  0.000
  0.000  0.000  0.000  0.000  1.000
   spin  2
    eigenvalues: 
  0.000  0.000  0.000  0.000  0.000
    eigenvectors:
  1.000  0.000  0.000  0.000  0.000
  0.000  1.000  0.000  0.000  0.000
  0.000  0.000  1.000  0.000  0.000
  0.000  0.000  0.000  1.000  0.000
  0.000  0.000  0.000  0.000  1.000
    occupations:
  0.000  0.000  0.000  0.000  0.000
  0.000  0.000  0.000  0.000  0.000
  0.000  0.000  0.000  0.000  0.000
  0.000  0.000  0.000  0.000  0.000
  0.000  0.000  0.000  0.000  0.000
atomic mag. moment =     5.000000
atom   31   Tr[ns(na)] (up, down, total) =   5.00000  0.00000  5.00000
   spin  1
    eigenvalues: 
  1.000  1.000  1.000  1.000  1.000
    eigenvectors:
  1.000  0.000  0.000  0.000  0.000
  0.000  1.000  0.000  0.000  0.000
  0.000  0.000  1.000  0.000  0.000
  0.000  0.000  0.000  1.000  0.000
  0.000  0.000  0.000  0.000  1.000
    occupations:
  1.000  0.000  0.000  0.000  0.000
  0.000  1.000  0.000  0.000  0.000
  0.000  0.000  1.000  0.000  0.000
  0.000  0.000  0.000  1.000  0.000
  0.000  0.000  0.000  0.000  1.000
   spin  2
    eigenvalues: 
  0.000  0.000  0.000  0.000  0.000
    eigenvectors:
  1.000  0.000  0.000  0.000  0.000
  0.000  1.000  0.000  0.000  0.000
  0.000  0.000  1.000  0.000  0.000
  0.000  0.000  0.000  1.000  0.000
  0.000  0.000  0.000  0.000  1.000
    occupations:
  0.000  0.000  0.000  0.000  0.000
  0.000  0.000  0.000  0.000  0.000
  0.000  0.000  0.000  0.000  0.000
  0.000  0.000  0.000  0.000  0.000
  0.000  0.000  0.000  0.000  0.000
atomic mag. moment =     5.000000
atom   33   Tr[ns(na)] (up, down, total) =   5.00000  0.00000  5.00000
   spin  1
    eigenvalues: 
  1.000  1.000  1.000  1.000  1.000
    eigenvectors:
  1.000  0.000  0.000  0.000  0.000
  0.000  1.000  0.000  0.000  0.000
  0.000  0.000  1.000  0.000  0.000
  0.000  0.000  0.000  1.000  0.000
  0.000  0.000  0.000  0.000  1.000
    occupations:
  1.000  0.000  0.000  0.000  0.000
  0.000  1.000  0.000  0.000  0.000
  0.000  0.000  1.000  0.000  0.000
  0.000  0.000  0.000  1.000  0.000
  0.000  0.000  0.000  0.000  1.000
   spin  2
    eigenvalues: 
  0.000  0.000  0.000  0.000  0.000
    eigenvectors:
  1.000  0.000  0.000  0.000  0.000
  0.000  1.000  0.000  0.000  0.000
  0.000  0.000  1.000  0.000  0.000
  0.000  0.000  0.000  1.000  0.000
  0.000  0.000  0.000  0.000  1.000
    occupations:
  0.000  0.000  0.000  0.000  0.000
  0.000  0.000  0.000  0.000  0.000
  0.000  0.000  0.000  0.000  0.000
  0.000  0.000  0.000  0.000  0.000
  0.000  0.000  0.000  0.000  0.000
atomic mag. moment =     5.000000
atom   35   Tr[ns(na)] (up, down, total) =   5.00000  0.00000  5.00000
   spin  1
    eigenvalues: 
  1.000  1.000  1.000  1.000  1.000
    eigenvectors:
  1.000  0.000  0.000  0.000  0.000
  0.000  1.000  0.000  0.000  0.000
  0.000  0.000  1.000  0.000  0.000
  0.000  0.000  0.000  1.000  0.000
  0.000  0.000  0.000  0.000  1.000
    occupations:
  1.000  0.000  0.000  0.000  0.000
  0.000  1.000  0.000  0.000  0.000
  0.000  0.000  1.000  0.000  0.000
  0.000  0.000  0.000  1.000  0.000
  0.000  0.000  0.000  0.000  1.000
   spin  2
    eigenvalues: 
  0.000  0.000  0.000  0.000  0.000
    eigenvectors:
  1.000  0.000  0.000  0.000  0.000
  0.000  1.000  0.000  0.000  0.000
  0.000  0.000  1.000  0.000  0.000
  0.000  0.000  0.000  1.000  0.000
  0.000  0.000  0.000  0.000  1.000
    occupations:
  0.000  0.000  0.000  0.000  0.000
  0.000  0.000  0.000  0.000  0.000
  0.000  0.000  0.000  0.000  0.000
  0.000  0.000  0.000  0.000  0.000
  0.000  0.000  0.000  0.000  0.000
atomic mag. moment =     5.000000
atom   37   Tr[ns(na)] (up, down, total) =   5.00000  0.00000  5.00000
   spin  1
    eigenvalues: 
  1.000  1.000  1.000  1.000  1.000
    eigenvectors:
  1.000  0.000  0.000  0.000  0.000
  0.000  1.000  0.000  0.000  0.000
  0.000  0.000  1.000  0.000  0.000
  0.000  0.000  0.000  1.000  0.000
  0.000  0.000  0.000  0.000  1.000
    occupations:
  1.000  0.000  0.000  0.000  0.000
  0.000  1.000  0.000  0.000  0.000
  0.000  0.000  1.000  0.000  0.000
  0.000  0.000  0.000  1.000  0.000
  0.000  0.000  0.000  0.000  1.000
   spin  2
    eigenvalues: 
  0.000  0.000  0.000  0.000  0.000
    eigenvectors:
  1.000  0.000  0.000  0.000  0.000
  0.000  1.000  0.000  0.000  0.000
  0.000  0.000  1.000  0.000  0.000
  0.000  0.000  0.000  1.000  0.000
  0.000  0.000  0.000  0.000  1.000
    occupations:
  0.000  0.000  0.000  0.000  0.000
  0.000  0.000  0.000  0.000  0.000
  0.000  0.000  0.000  0.000  0.000
  0.000  0.000  0.000  0.000  0.000
  0.000  0.000  0.000  0.000  0.000
atomic mag. moment =     5.000000
atom   39   Tr[ns(na)] (up, down, total) =   5.00000  0.00000  5.00000
   spin  1
    eigenvalues: 
  1.000  1.000  1.000  1.000  1.000
    eigenvectors:
  1.000  0.000  0.000  0.000  0.000
  0.000  1.000  0.000  0.000  0.000
  0.000  0.000  1.000  0.000  0.000
  0.000  0.000  0.000  1.000  0.000
  0.000  0.000  0.000  0.000  1.000
    occupations:
  1.000  0.000  0.000  0.000  0.000
  0.000  1.000  0.000  0.000  0.000
  0.000  0.000  1.000  0.000  0.000
  0.000  0.000  0.000  1.000  0.000
  0.000  0.000  0.000  0.000  1.000
   spin  2
    eigenvalues: 
  0.000  0.000  0.000  0.000  0.000
    eigenvectors:
  1.000  0.000  0.000  0.000  0.000
  0.000  1.000  0.000  0.000  0.000
  0.000  0.000  1.000  0.000  0.000
  0.000  0.000  0.000  1.000  0.000
  0.000  0.000  0.000  0.000  1.000
    occupations:
  0.000  0.000  0.000  0.000  0.000
  0.000  0.000  0.000  0.000  0.000
  0.000  0.000  0.000  0.000  0.000
  0.000  0.000  0.000  0.000  0.000
  0.000  0.000  0.000  0.000  0.000
atomic mag. moment =     5.000000
atom   41   Tr[ns(na)] (up, down, total) =   5.00000  0.00000  5.00000
   spin  1
    eigenvalues: 
  1.000  1.000  1.000  1.000  1.000
    eigenvectors:
  1.000  0.000  0.000  0.000  0.000
  0.000  1.000  0.000  0.000  0.000
  0.000  0.000  1.000  0.000  0.000
  0.000  0.000  0.000  1.000  0.000
  0.000  0.000  0.000  0.000  1.000
    occupations:
  1.000  0.000  0.000  0.000  0.000
  0.000  1.000  0.000  0.000  0.000
  0.000  0.000  1.000  0.000  0.000
  0.000  0.000  0.000  1.000  0.000
  0.000  0.000  0.000  0.000  1.000
   spin  2
    eigenvalues: 
  0.000  0.000  0.000  0.000  0.000
    eigenvectors:
  1.000  0.000  0.000  0.000  0.000
  0.000  1.000  0.000  0.000  0.000
  0.000  0.000  1.000  0.000  0.000
  0.000  0.000  0.000  1.000  0.000
  0.000  0.000  0.000  0.000  1.000
    occupations:
  0.000  0.000  0.000  0.000  0.000
  0.000  0.000  0.000  0.000  0.000
  0.000  0.000  0.000  0.000  0.000
  0.000  0.000  0.000  0.000  0.000
  0.000  0.000  0.000  0.000  0.000
atomic mag. moment =     5.000000
atom   43   Tr[ns(na)] (up, down, total) =   5.00000  0.00000  5.00000
   spin  1
    eigenvalues: 
  1.000  1.000  1.000  1.000  1.000
    eigenvectors:
  1.000  0.000  0.000  0.000  0.000
  0.000  1.000  0.000  0.000  0.000
  0.000  0.000  1.000  0.000  0.000
  0.000  0.000  0.000  1.000  0.000
  0.000  0.000  0.000  0.000  1.000
    occupations:
  1.000  0.000  0.000  0.000  0.000
  0.000  1.000  0.000  0.000  0.000
  0.000  0.000  1.000  0.000  0.000
  0.000  0.000  0.000  1.000  0.000
  0.000  0.000  0.000  0.000  1.000
   spin  2
    eigenvalues: 
  0.000  0.000  0.000  0.000  0.000
    eigenvectors:
  1.000  0.000  0.000  0.000  0.000
  0.000  1.000  0.000  0.000  0.000
  0.000  0.000  1.000  0.000  0.000
  0.000  0.000  0.000  1.000  0.000
  0.000  0.000  0.000  0.000  1.000
    occupations:
  0.000  0.000  0.000  0.000  0.000
  0.000  0.000  0.000  0.000  0.000
  0.000  0.000  0.000  0.000  0.000
  0.000  0.000  0.000  0.000  0.000
  0.000  0.000  0.000  0.000  0.000
atomic mag. moment =     5.000000
atom   45   Tr[ns(na)] (up, down, total) =   5.00000  0.00000  5.00000
   spin  1
    eigenvalues: 
  1.000  1.000  1.000  1.000  1.000
    eigenvectors:
  1.000  0.000  0.000  0.000  0.000
  0.000  1.000  0.000  0.000  0.000
  0.000  0.000  1.000  0.000  0.000
  0.000  0.000  0.000  1.000  0.000
  0.000  0.000  0.000  0.000  1.000
    occupations:
  1.000  0.000  0.000  0.000  0.000
  0.000  1.000  0.000  0.000  0.000
  0.000  0.000  1.000  0.000  0.000
  0.000  0.000  0.000  1.000  0.000
  0.000  0.000  0.000  0.000  1.000
   spin  2
    eigenvalues: 
  0.000  0.000  0.000  0.000  0.000
    eigenvectors:
  1.000  0.000  0.000  0.000  0.000
  0.000  1.000  0.000  0.000  0.000
  0.000  0.000  1.000  0.000  0.000
  0.000  0.000  0.000  1.000  0.000
  0.000  0.000  0.000  0.000  1.000
    occupations:
  0.000  0.000  0.000  0.000  0.000
  0.000  0.000  0.000  0.000  0.000
  0.000  0.000  0.000  0.000  0.000
  0.000  0.000  0.000  0.000  0.000
  0.000  0.000  0.000  0.000  0.000
atomic mag. moment =     5.000000
atom   47   Tr[ns(na)] (up, down, total) =   5.00000  0.00000  5.00000
   spin  1
    eigenvalues: 
  1.000  1.000  1.000  1.000  1.000
    eigenvectors:
  1.000  0.000  0.000  0.000  0.000
  0.000  1.000  0.000  0.000  0.000
  0.000  0.000  1.000  0.000  0.000
  0.000  0.000  0.000  1.000  0.000
  0.000  0.000  0.000  0.000  1.000
    occupations:
  1.000  0.000  0.000  0.000  0.000
  0.000  1.000  0.000  0.000  0.000
  0.000  0.000  1.000  0.000  0.000
  0.000  0.000  0.000  1.000  0.000
  0.000  0.000  0.000  0.000  1.000
   spin  2
    eigenvalues: 
  0.000  0.000  0.000  0.000  0.000
    eigenvectors:
  1.000  0.000  0.000  0.000  0.000
  0.000  1.000  0.000  0.000  0.000
  0.000  0.000  1.000  0.000  0.000
  0.000  0.000  0.000  1.000  0.000
  0.000  0.000  0.000  0.000  1.000
    occupations:
  0.000  0.000  0.000  0.000  0.000
  0.000  0.000  0.000  0.000  0.000
  0.000  0.000  0.000  0.000  0.000
  0.000  0.000  0.000  0.000  0.000
  0.000  0.000  0.000  0.000  0.000
atomic mag. moment =     5.000000
atom   49   Tr[ns(na)] (up, down, total) =   5.00000  0.00000  5.00000
   spin  1
    eigenvalues: 
  1.000  1.000  1.000  1.000  1.000
    eigenvectors:
  1.000  0.000  0.000  0.000  0.000
  0.000  1.000  0.000  0.000  0.000
  0.000  0.000  1.000  0.000  0.000
  0.000  0.000  0.000  1.000  0.000
  0.000  0.000  0.000  0.000  1.000
    occupations:
  1.000  0.000  0.000  0.000  0.000
  0.000  1.000  0.000  0.000  0.000
  0.000  0.000  1.000  0.000  0.000
  0.000  0.000  0.000  1.000  0.000
  0.000  0.000  0.000  0.000  1.000
   spin  2
    eigenvalues: 
  0.000  0.000  0.000  0.000  0.000
    eigenvectors:
  1.000  0.000  0.000  0.000  0.000
  0.000  1.000  0.000  0.000  0.000
  0.000  0.000  1.000  0.000  0.000
  0.000  0.000  0.000  1.000  0.000
  0.000  0.000  0.000  0.000  1.000
    occupations:
  0.000  0.000  0.000  0.000  0.000
  0.000  0.000  0.000  0.000  0.000
  0.000  0.000  0.000  0.000  0.000
  0.000  0.000  0.000  0.000  0.000
  0.000  0.000  0.000  0.000  0.000
atomic mag. moment =     5.000000
atom   51   Tr[ns(na)] (up, down, total) =   5.00000  0.00000  5.00000
   spin  1
    eigenvalues: 
  1.000  1.000  1.000  1.000  1.000
    eigenvectors:
  1.000  0.000  0.000  0.000  0.000
  0.000  1.000  0.000  0.000  0.000
  0.000  0.000  1.000  0.000  0.000
  0.000  0.000  0.000  1.000  0.000
  0.000  0.000  0.000  0.000  1.000
    occupations:
  1.000  0.000  0.000  0.000  0.000
  0.000  1.000  0.000  0.000  0.000
  0.000  0.000  1.000  0.000  0.000
  0.000  0.000  0.000  1.000  0.000
  0.000  0.000  0.000  0.000  1.000
   spin  2
    eigenvalues: 
  0.000  0.000  0.000  0.000  0.000
    eigenvectors:
  1.000  0.000  0.000  0.000  0.000
  0.000  1.000  0.000  0.000  0.000
  0.000  0.000  1.000  0.000  0.000
  0.000  0.000  0.000  1.000  0.000
  0.000  0.000  0.000  0.000  1.000
    occupations:
  0.000  0.000  0.000  0.000  0.000
  0.000  0.000  0.000  0.000  0.000
  0.000  0.000  0.000  0.000  0.000
  0.000  0.000  0.000  0.000  0.000
  0.000  0.000  0.000  0.000  0.000
atomic mag. moment =     5.000000
atom   53   Tr[ns(na)] (up, down, total) =   5.00000  0.00000  5.00000
   spin  1
    eigenvalues: 
  1.000  1.000  1.000  1.000  1.000
    eigenvectors:
  1.000  0.000  0.000  0.000  0.000
  0.000  1.000  0.000  0.000  0.000
  0.000  0.000  1.000  0.000  0.000
  0.000  0.000  0.000  1.000  0.000
  0.000  0.000  0.000  0.000  1.000
    occupations:
  1.000  0.000  0.000  0.000  0.000
  0.000  1.000  0.000  0.000  0.000
  0.000  0.000  1.000  0.000  0.000
  0.000  0.000  0.000  1.000  0.000
  0.000  0.000  0.000  0.000  1.000
   spin  2
    eigenvalues: 
  0.000  0.000  0.000  0.000  0.000
    eigenvectors:
  1.000  0.000  0.000  0.000  0.000
  0.000  1.000  0.000  0.000  0.000
  0.000  0.000  1.000  0.000  0.000
  0.000  0.000  0.000  1.000  0.000
  0.000  0.000  0.000  0.000  1.000
    occupations:
  0.000  0.000  0.000  0.000  0.000
  0.000  0.000  0.000  0.000  0.000
  0.000  0.000  0.000  0.000  0.000
  0.000  0.000  0.000  0.000  0.000
  0.000  0.000  0.000  0.000  0.000
atomic mag. moment =     5.000000
atom   55   Tr[ns(na)] (up, down, total) =   5.00000  0.00000  5.00000
   spin  1
    eigenvalues: 
  1.000  1.000  1.000  1.000  1.000
    eigenvectors:
  1.000  0.000  0.000  0.000  0.000
  0.000  1.000  0.000  0.000  0.000
  0.000  0.000  1.000  0.000  0.000
  0.000  0.000  0.000  1.000  0.000
  0.000  0.000  0.000  0.000  1.000
    occupations:
  1.000  0.000  0.000  0.000  0.000
  0.000  1.000  0.000  0.000  0.000
  0.000  0.000  1.000  0.000  0.000
  0.000  0.000  0.000  1.000  0.000
  0.000  0.000  0.000  0.000  1.000
   spin  2
    eigenvalues: 
  0.000  0.000  0.000  0.000  0.000
    eigenvectors:
  1.000  0.000  0.000  0.000  0.000
  0.000  1.000  0.000  0.000  0.000
  0.000  0.000  1.000  0.000  0.000
  0.000  0.000  0.000  1.000  0.000
  0.000  0.000  0.000  0.000  1.000
    occupations:
  0.000  0.000  0.000  0.000  0.000
  0.000  0.000  0.000  0.000  0.000
  0.000  0.000  0.000  0.000  0.000
  0.000  0.000  0.000  0.000  0.000
  0.000  0.000  0.000  0.000  0.000
atomic mag. moment =     5.000000
atom   57   Tr[ns(na)] (up, down, total) =   5.00000  0.00000  5.00000
   spin  1
    eigenvalues: 
  1.000  1.000  1.000  1.000  1.000
    eigenvectors:
  1.000  0.000  0.000  0.000  0.000
  0.000  1.000  0.000  0.000  0.000
  0.000  0.000  1.000  0.000  0.000
  0.000  0.000  0.000  1.000  0.000
  0.000  0.000  0.000  0.000  1.000
    occupations:
  1.000  0.000  0.000  0.000  0.000
  0.000  1.000  0.000  0.000  0.000
  0.000  0.000  1.000  0.000  0.000
  0.000  0.000  0.000  1.000  0.000
  0.000  0.000  0.000  0.000  1.000
   spin  2
    eigenvalues: 
  0.000  0.000  0.000  0.000  0.000
    eigenvectors:
  1.000  0.000  0.000  0.000  0.000
  0.000  1.000  0.000  0.000  0.000
  0.000  0.000  1.000  0.000  0.000
  0.000  0.000  0.000  1.000  0.000
  0.000  0.000  0.000  0.000  1.000
    occupations:
  0.000  0.000  0.000  0.000  0.000
  0.000  0.000  0.000  0.000  0.000
  0.000  0.000  0.000  0.000  0.000
  0.000  0.000  0.000  0.000  0.000
  0.000  0.000  0.000  0.000  0.000
atomic mag. moment =     5.000000
atom   59   Tr[ns(na)] (up, down, total) =   5.00000  0.00000  5.00000
   spin  1
    eigenvalues: 
  1.000  1.000  1.000  1.000  1.000
    eigenvectors:
  1.000  0.000  0.000  0.000  0.000
  0.000  1.000  0.000  0.000  0.000
  0.000  0.000  1.000  0.000  0.000
  0.000  0.000  0.000  1.000  0.000
  0.000  0.000  0.000  0.000  1.000
    occupations:
  1.000  0.000  0.000  0.000  0.000
  0.000  1.000  0.000  0.000  0.000
  0.000  0.000  1.000  0.000  0.000
  0.000  0.000  0.000  1.000  0.000
  0.000  0.000  0.000  0.000  1.000
   spin  2
    eigenvalues: 
  0.000  0.000  0.000  0.000  0.000
    eigenvectors:
  1.000  0.000  0.000  0.000  0.000
  0.000  1.000  0.000  0.000  0.000
  0.000  0.000  1.000  0.000  0.000
  0.000  0.000  0.000  1.000  0.000
  0.000  0.000  0.000  0.000  1.000
    occupations:
  0.000  0.000  0.000  0.000  0.000
  0.000  0.000  0.000  0.000  0.000
  0.000  0.000  0.000  0.000  0.000
  0.000  0.000  0.000  0.000  0.000
  0.000  0.000  0.000  0.000  0.000
atomic mag. moment =     5.000000
atom   61   Tr[ns(na)] (up, down, total) =   5.00000  0.00000  5.00000
   spin  1
    eigenvalues: 
  1.000  1.000  1.000  1.000  1.000
    eigenvectors:
  1.000  0.000  0.000  0.000  0.000
  0.000  1.000  0.000  0.000  0.000
  0.000  0.000  1.000  0.000  0.000
  0.000  0.000  0.000  1.000  0.000
  0.000  0.000  0.000  0.000  1.000
    occupations:
  1.000  0.000  0.000  0.000  0.000
  0.000  1.000  0.000  0.000  0.000
  0.000  0.000  1.000  0.000  0.000
  0.000  0.000  0.000  1.000  0.000
  0.000  0.000  0.000  0.000  1.000
   spin  2
    eigenvalues: 
  0.000  0.000  0.000  0.000  0.000
    eigenvectors:
  1.000  0.000  0.000  0.000  0.000
  0.000  1.000  0.000  0.000  0.000
  0.000  0.000  1.000  0.000  0.000
  0.000  0.000  0.000  1.000  0.000
  0.000  0.000  0.000  0.000  1.000
    occupations:
  0.000  0.000  0.000  0.000  0.000
  0.000  0.000  0.000  0.000  0.000
  0.000  0.000  0.000  0.000  0.000
  0.000  0.000  0.000  0.000  0.000
  0.000  0.000  0.000  0.000  0.000
atomic mag. moment =     5.000000
atom   63   Tr[ns(na)] (up, down, total) =   5.00000  0.00000  5.00000
   spin  1
    eigenvalues: 
  1.000  1.000  1.000  1.000  1.000
    eigenvectors:
  1.000  0.000  0.000  0.000  0.000
  0.000  1.000  0.000  0.000  0.000
  0.000  0.000  1.000  0.000  0.000
  0.000  0.000  0.000  1.000  0.000
  0.000  0.000  0.000  0.000  1.000
    occupations:
  1.000  0.000  0.000  0.000  0.000
  0.000  1.000  0.000  0.000  0.000
  0.000  0.000  1.000  0.000  0.000
  0.000  0.000  0.000  1.000  0.000
  0.000  0.000  0.000  0.000  1.000
   spin  2
    eigenvalues: 
  0.000  0.000  0.000  0.000  0.000
    eigenvectors:
  1.000  0.000  0.000  0.000  0.000
  0.000  1.000  0.000  0.000  0.000
  0.000  0.000  1.000  0.000  0.000
  0.000  0.000  0.000  1.000  0.000
  0.000  0.000  0.000  0.000  1.000
    occupations:
  0.000  0.000  0.000  0.000  0.000
  0.000  0.000  0.000  0.000  0.000
  0.000  0.000  0.000  0.000  0.000
  0.000  0.000  0.000  0.000  0.000
  0.000  0.000  0.000  0.000  0.000
atomic mag. moment =     5.000000
atom   65   Tr[ns(na)] (up, down, total) =   5.00000  0.00000  5.00000
   spin  1
    eigenvalues: 
  1.000  1.000  1.000  1.000  1.000
    eigenvectors:
  1.000  0.000  0.000  0.000  0.000
  0.000  1.000  0.000  0.000  0.000
  0.000  0.000  1.000  0.000  0.000
  0.000  0.000  0.000  1.000  0.000
  0.000  0.000  0.000  0.000  1.000
    occupations:
  1.000  0.000  0.000  0.000  0.000
  0.000  1.000  0.000  0.000  0.000
  0.000  0.000  1.000  0.000  0.000
  0.000  0.000  0.000  1.000  0.000
  0.000  0.000  0.000  0.000  1.000
   spin  2
    eigenvalues: 
  0.000  0.000  0.000  0.000  0.000
    eigenvectors:
  1.000  0.000  0.000  0.000  0.000
  0.000  1.000  0.000  0.000  0.000
  0.000  0.000  1.000  0.000  0.000
  0.000  0.000  0.000  1.000  0.000
  0.000  0.000  0.000  0.000  1.000
    occupations:
  0.000  0.000  0.000  0.000  0.000
  0.000  0.000  0.000  0.000  0.000
  0.000  0.000  0.000  0.000  0.000
  0.000  0.000  0.000  0.000  0.000
  0.000  0.000  0.000  0.000  0.000
atomic mag. moment =     5.000000
atom   67   Tr[ns(na)] (up, down, total) =   5.00000  0.00000  5.00000
   spin  1
    eigenvalues: 
  1.000  1.000  1.000  1.000  1.000
    eigenvectors:
  1.000  0.000  0.000  0.000  0.000
  0.000  1.000  0.000  0.000  0.000
  0.000  0.000  1.000  0.000  0.000
  0.000  0.000  0.000  1.000  0.000
  0.000  0.000  0.000  0.000  1.000
    occupations:
  1.000  0.000  0.000  0.000  0.000
  0.000  1.000  0.000  0.000  0.000
  0.000  0.000  1.000  0.000  0.000
  0.000  0.000  0.000  1.000  0.000
  0.000  0.000  0.000  0.000  1.000
   spin  2
    eigenvalues: 
  0.000  0.000  0.000  0.000  0.000
    eigenvectors:
  1.000  0.000  0.000  0.000  0.000
  0.000  1.000  0.000  0.000  0.000
  0.000  0.000  1.000  0.000  0.000
  0.000  0.000  0.000  1.000  0.000
  0.000  0.000  0.000  0.000  1.000
    occupations:
  0.000  0.000  0.000  0.000  0.000
  0.000  0.000  0.000  0.000  0.000
  0.000  0.000  0.000  0.000  0.000
  0.000  0.000  0.000  0.000  0.000
  0.000  0.000  0.000  0.000  0.000
atomic mag. moment =     5.000000
atom   69   Tr[ns(na)] (up, down, total) =   5.00000  0.00000  5.00000
   spin  1
    eigenvalues: 
  1.000  1.000  1.000  1.000  1.000
    eigenvectors:
  1.000  0.000  0.000  0.000  0.000
  0.000  1.000  0.000  0.000  0.000
  0.000  0.000  1.000  0.000  0.000
  0.000  0.000  0.000  1.000  0.000
  0.000  0.000  0.000  0.000  1.000
    occupations:
  1.000  0.000  0.000  0.000  0.000
  0.000  1.000  0.000  0.000  0.000
  0.000  0.000  1.000  0.000  0.000
  0.000  0.000  0.000  1.000  0.000
  0.000  0.000  0.000  0.000  1.000
   spin  2
    eigenvalues: 
  0.000  0.000  0.000  0.000  0.000
    eigenvectors:
  1.000  0.000  0.000  0.000  0.000
  0.000  1.000  0.000  0.000  0.000
  0.000  0.000  1.000  0.000  0.000
  0.000  0.000  0.000  1.000  0.000
  0.000  0.000  0.000  0.000  1.000
    occupations:
  0.000  0.000  0.000  0.000  0.000
  0.000  0.000  0.000  0.000  0.000
  0.000  0.000  0.000  0.000  0.000
  0.000  0.000  0.000  0.000  0.000
  0.000  0.000  0.000  0.000  0.000
atomic mag. moment =     5.000000
atom   71   Tr[ns(na)] (up, down, total) =   5.00000  0.00000  5.00000
   spin  1
    eigenvalues: 
  1.000  1.000  1.000  1.000  1.000
    eigenvectors:
  1.000  0.000  0.000  0.000  0.000
  0.000  1.000  0.000  0.000  0.000
  0.000  0.000  1.000  0.000  0.000
  0.000  0.000  0.000  1.000  0.000
  0.000  0.000  0.000  0.000  1.000
    occupations:
  1.000  0.000  0.000  0.000  0.000
  0.000  1.000  0.000  0.000  0.000
  0.000  0.000  1.000  0.000  0.000
  0.000  0.000  0.000  1.000  0.000
  0.000  0.000  0.000  0.000  1.000
   spin  2
    eigenvalues: 
  0.000  0.000  0.000  0.000  0.000
    eigenvectors:
  1.000  0.000  0.000  0.000  0.000
  0.000  1.000  0.000  0.000  0.000
  0.000  0.000  1.000  0.000  0.000
  0.000  0.000  0.000  1.000  0.000
  0.000  0.000  0.000  0.000  1.000
    occupations:
  0.000  0.000  0.000  0.000  0.000
  0.000  0.000  0.000  0.000  0.000
  0.000  0.000  0.000  0.000  0.000
  0.000  0.000  0.000  0.000  0.000
  0.000  0.000  0.000  0.000  0.000
atomic mag. moment =     5.000000
atom   73   Tr[ns(na)] (up, down, total) =   5.00000  0.00000  5.00000
   spin  1
    eigenvalues: 
  1.000  1.000  1.000  1.000  1.000
    eigenvectors:
  1.000  0.000  0.000  0.000  0.000
  0.000  1.000  0.000  0.000  0.000
  0.000  0.000  1.000  0.000  0.000
  0.000  0.000  0.000  1.000  0.000
  0.000  0.000  0.000  0.000  1.000
    occupations:
  1.000  0.000  0.000  0.000  0.000
  0.000  1.000  0.000  0.000  0.000
  0.000  0.000  1.000  0.000  0.000
  0.000  0.000  0.000  1.000  0.000
  0.000  0.000  0.000  0.000  1.000
   spin  2
    eigenvalues: 
  0.000  0.000  0.000  0.000  0.000
    eigenvectors:
  1.000  0.000  0.000  0.000  0.000
  0.000  1.000  0.000  0.000  0.000
  0.000  0.000  1.000  0.000  0.000
  0.000  0.000  0.000  1.000  0.000
  0.000  0.000  0.000  0.000  1.000
    occupations:
  0.000  0.000  0.000  0.000  0.000
  0.000  0.000  0.000  0.000  0.000
  0.000  0.000  0.000  0.000  0.000
  0.000  0.000  0.000  0.000  0.000
  0.000  0.000  0.000  0.000  0.000
atomic mag. moment =     5.000000
atom   75   Tr[ns(na)] (up, down, total) =   5.00000  0.00000  5.00000
   spin  1
    eigenvalues: 
  1.000  1.000  1.000  1.000  1.000
    eigenvectors:
  1.000  0.000  0.000  0.000  0.000
  0.000  1.000  0.000  0.000  0.000
  0.000  0.000  1.000  0.000  0.000
  0.000  0.000  0.000  1.000  0.000
  0.000  0.000  0.000  0.000  1.000
    occupations:
  1.000  0.000  0.000  0.000  0.000
  0.000  1.000  0.000  0.000  0.000
  0.000  0.000  1.000  0.000  0.000
  0.000  0.000  0.000  1.000  0.000
  0.000  0.000  0.000  0.000  1.000
   spin  2
    eigenvalues: 
  0.000  0.000  0.000  0.000  0.000
    eigenvectors:
  1.000  0.000  0.000  0.000  0.000
  0.000  1.000  0.000  0.000  0.000
  0.000  0.000  1.000  0.000  0.000
  0.000  0.000  0.000  1.000  0.000
  0.000  0.000  0.000  0.000  1.000
    occupations:
  0.000  0.000  0.000  0.000  0.000
  0.000  0.000  0.000  0.000  0.000
  0.000  0.000  0.000  0.000  0.000
  0.000  0.000  0.000  0.000  0.000
  0.000  0.000  0.000  0.000  0.000
atomic mag. moment =     5.000000
atom   77   Tr[ns(na)] (up, down, total) =   5.00000  0.00000  5.00000
   spin  1
    eigenvalues: 
  1.000  1.000  1.000  1.000  1.000
    eigenvectors:
  1.000  0.000  0.000  0.000  0.000
  0.000  1.000  0.000  0.000  0.000
  0.000  0.000  1.000  0.000  0.000
  0.000  0.000  0.000  1.000  0.000
  0.000  0.000  0.000  0.000  1.000
    occupations:
  1.000  0.000  0.000  0.000  0.000
  0.000  1.000  0.000  0.000  0.000
  0.000  0.000  1.000  0.000  0.000
  0.000  0.000  0.000  1.000  0.000
  0.000  0.000  0.000  0.000  1.000
   spin  2
    eigenvalues: 
  0.000  0.000  0.000  0.000  0.000
    eigenvectors:
  1.000  0.000  0.000  0.000  0.000
  0.000  1.000  0.000  0.000  0.000
  0.000  0.000  1.000  0.000  0.000
  0.000  0.000  0.000  1.000  0.000
  0.000  0.000  0.000  0.000  1.000
    occupations:
  0.000  0.000  0.000  0.000  0.000
  0.000  0.000  0.000  0.000  0.000
  0.000  0.000  0.000  0.000  0.000
  0.000  0.000  0.000  0.000  0.000
  0.000  0.000  0.000  0.000  0.000
atomic mag. moment =     5.000000
atom   79   Tr[ns(na)] (up, down, total) =   5.00000  0.00000  5.00000
   spin  1
    eigenvalues: 
  1.000  1.000  1.000  1.000  1.000
    eigenvectors:
  1.000  0.000  0.000  0.000  0.000
  0.000  1.000  0.000  0.000  0.000
  0.000  0.000  1.000  0.000  0.000
  0.000  0.000  0.000  1.000  0.000
  0.000  0.000  0.000  0.000  1.000
    occupations:
  1.000  0.000  0.000  0.000  0.000
  0.000  1.000  0.000  0.000  0.000
  0.000  0.000  1.000  0.000  0.000
  0.000  0.000  0.000  1.000  0.000
  0.000  0.000  0.000  0.000  1.000
   spin  2
    eigenvalues: 
  0.000  0.000  0.000  0.000  0.000
    eigenvectors:
  1.000  0.000  0.000  0.000  0.000
  0.000  1.000  0.000  0.000  0.000
  0.000  0.000  1.000  0.000  0.000
  0.000  0.000  0.000  1.000  0.000
  0.000  0.000  0.000  0.000  1.000
    occupations:
  0.000  0.000  0.000  0.000  0.000
  0.000  0.000  0.000  0.000  0.000
  0.000  0.000  0.000  0.000  0.000
  0.000  0.000  0.000  0.000  0.000
  0.000  0.000  0.000  0.000  0.000
atomic mag. moment =     5.000000
atom   81   Tr[ns(na)] (up, down, total) =   5.00000  0.00000  5.00000
   spin  1
    eigenvalues: 
  1.000  1.000  1.000  1.000  1.000
    eigenvectors:
  1.000  0.000  0.000  0.000  0.000
  0.000  1.000  0.000  0.000  0.000
  0.000  0.000  1.000  0.000  0.000
  0.000  0.000  0.000  1.000  0.000
  0.000  0.000  0.000  0.000  1.000
    occupations:
  1.000  0.000  0.000  0.000  0.000
  0.000  1.000  0.000  0.000  0.000
  0.000  0.000  1.000  0.000  0.000
  0.000  0.000  0.000  1.000  0.000
  0.000  0.000  0.000  0.000  1.000
   spin  2
    eigenvalues: 
  0.000  0.000  0.000  0.000  0.000
    eigenvectors:
  1.000  0.000  0.000  0.000  0.000
  0.000  1.000  0.000  0.000  0.000
  0.000  0.000  1.000  0.000  0.000
  0.000  0.000  0.000  1.000  0.000
  0.000  0.000  0.000  0.000  1.000
    occupations:
  0.000  0.000  0.000  0.000  0.000
  0.000  0.000  0.000  0.000  0.000
  0.000  0.000  0.000  0.000  0.000
  0.000  0.000  0.000  0.000  0.000
  0.000  0.000  0.000  0.000  0.000
atomic mag. moment =     5.000000
atom   83   Tr[ns(na)] (up, down, total) =   5.00000  0.00000  5.00000
   spin  1
    eigenvalues: 
  1.000  1.000  1.000  1.000  1.000
    eigenvectors:
  1.000  0.000  0.000  0.000  0.000
  0.000  1.000  0.000  0.000  0.000
  0.000  0.000  1.000  0.000  0.000
  0.000  0.000  0.000  1.000  0.000
  0.000  0.000  0.000  0.000  1.000
    occupations:
  1.000  0.000  0.000  0.000  0.000
  0.000  1.000  0.000  0.000  0.000
  0.000  0.000  1.000  0.000  0.000
  0.000  0.000  0.000  1.000  0.000
  0.000  0.000  0.000  0.000  1.000
   spin  2
    eigenvalues: 
  0.000  0.000  0.000  0.000  0.000
    eigenvectors:
  1.000  0.000  0.000  0.000  0.000
  0.000  1.000  0.000  0.000  0.000
  0.000  0.000  1.000  0.000  0.000
  0.000  0.000  0.000  1.000  0.000
  0.000  0.000  0.000  0.000  1.000
    occupations:
  0.000  0.000  0.000  0.000  0.000
  0.000  0.000  0.000  0.000  0.000
  0.000  0.000  0.000  0.000  0.000
  0.000  0.000  0.000  0.000  0.000
  0.000  0.000  0.000  0.000  0.000
atomic mag. moment =     5.000000
atom   85   Tr[ns(na)] (up, down, total) =   5.00000  0.00000  5.00000
   spin  1
    eigenvalues: 
  1.000  1.000  1.000  1.000  1.000
    eigenvectors:
  1.000  0.000  0.000  0.000  0.000
  0.000  1.000  0.000  0.000  0.000
  0.000  0.000  1.000  0.000  0.000
  0.000  0.000  0.000  1.000  0.000
  0.000  0.000  0.000  0.000  1.000
    occupations:
  1.000  0.000  0.000  0.000  0.000
  0.000  1.000  0.000  0.000  0.000
  0.000  0.000  1.000  0.000  0.000
  0.000  0.000  0.000  1.000  0.000
  0.000  0.000  0.000  0.000  1.000
   spin  2
    eigenvalues: 
  0.000  0.000  0.000  0.000  0.000
    eigenvectors:
  1.000  0.000  0.000  0.000  0.000
  0.000  1.000  0.000  0.000  0.000
  0.000  0.000  1.000  0.000  0.000
  0.000  0.000  0.000  1.000  0.000
  0.000  0.000  0.000  0.000  1.000
    occupations:
  0.000  0.000  0.000  0.000  0.000
  0.000  0.000  0.000  0.000  0.000
  0.000  0.000  0.000  0.000  0.000
  0.000  0.000  0.000  0.000  0.000
  0.000  0.000  0.000  0.000  0.000
atomic mag. moment =     5.000000
atom   87   Tr[ns(na)] (up, down, total) =   5.00000  0.00000  5.00000
   spin  1
    eigenvalues: 
  1.000  1.000  1.000  1.000  1.000
    eigenvectors:
  1.000  0.000  0.000  0.000  0.000
  0.000  1.000  0.000  0.000  0.000
  0.000  0.000  1.000  0.000  0.000
  0.000  0.000  0.000  1.000  0.000
  0.000  0.000  0.000  0.000  1.000
    occupations:
  1.000  0.000  0.000  0.000  0.000
  0.000  1.000  0.000  0.000  0.000
  0.000  0.000  1.000  0.000  0.000
  0.000  0.000  0.000  1.000  0.000
  0.000  0.000  0.000  0.000  1.000
   spin  2
    eigenvalues: 
  0.000  0.000  0.000  0.000  0.000
    eigenvectors:
  1.000  0.000  0.000  0.000  0.000
  0.000  1.000  0.000  0.000  0.000
  0.000  0.000  1.000  0.000  0.000
  0.000  0.000  0.000  1.000  0.000
  0.000  0.000  0.000  0.000  1.000
    occupations:
  0.000  0.000  0.000  0.000  0.000
  0.000  0.000  0.000  0.000  0.000
  0.000  0.000  0.000  0.000  0.000
  0.000  0.000  0.000  0.000  0.000
  0.000  0.000  0.000  0.000  0.000
atomic mag. moment =     5.000000
atom   89   Tr[ns(na)] (up, down, total) =   5.00000  0.00000  5.00000
   spin  1
    eigenvalues: 
  1.000  1.000  1.000  1.000  1.000
    eigenvectors:
  1.000  0.000  0.000  0.000  0.000
  0.000  1.000  0.000  0.000  0.000
  0.000  0.000  1.000  0.000  0.000
  0.000  0.000  0.000  1.000  0.000
  0.000  0.000  0.000  0.000  1.000
    occupations:
  1.000  0.000  0.000  0.000  0.000
  0.000  1.000  0.000  0.000  0.000
  0.000  0.000  1.000  0.000  0.000
  0.000  0.000  0.000  1.000  0.000
  0.000  0.000  0.000  0.000  1.000
   spin  2
    eigenvalues: 
  0.000  0.000  0.000  0.000  0.000
    eigenvectors:
  1.000  0.000  0.000  0.000  0.000
  0.000  1.000  0.000  0.000  0.000
  0.000  0.000  1.000  0.000  0.000
  0.000  0.000  0.000  1.000  0.000
  0.000  0.000  0.000  0.000  1.000
    occupations:
  0.000  0.000  0.000  0.000  0.000
  0.000  0.000  0.000  0.000  0.000
  0.000  0.000  0.000  0.000  0.000
  0.000  0.000  0.000  0.000  0.000
  0.000  0.000  0.000  0.000  0.000
atomic mag. moment =     5.000000
atom   91   Tr[ns(na)] (up, down, total) =   5.00000  0.00000  5.00000
   spin  1
    eigenvalues: 
  1.000  1.000  1.000  1.000  1.000
    eigenvectors:
  1.000  0.000  0.000  0.000  0.000
  0.000  1.000  0.000  0.000  0.000
  0.000  0.000  1.000  0.000  0.000
  0.000  0.000  0.000  1.000  0.000
  0.000  0.000  0.000  0.000  1.000
    occupations:
  1.000  0.000  0.000  0.000  0.000
  0.000  1.000  0.000  0.000  0.000
  0.000  0.000  1.000  0.000  0.000
  0.000  0.000  0.000  1.000  0.000
  0.000  0.000  0.000  0.000  1.000
   spin  2
    eigenvalues: 
  0.000  0.000  0.000  0.000  0.000
    eigenvectors:
  1.000  0.000  0.000  0.000  0.000
  0.000  1.000  0.000  0.000  0.000
  0.000  0.000  1.000  0.000  0.000
  0.000  0.000  0.000  1.000  0.000
  0.000  0.000  0.000  0.000  1.000
    occupations:
  0.000  0.000  0.000  0.000  0.000
  0.000  0.000  0.000  0.000  0.000
  0.000  0.000  0.000  0.000  0.000
  0.000  0.000  0.000  0.000  0.000
  0.000  0.000  0.000  0.000  0.000
atomic mag. moment =     5.000000
atom   93   Tr[ns(na)] (up, down, total) =   5.00000  0.00000  5.00000
   spin  1
    eigenvalues: 
  1.000  1.000  1.000  1.000  1.000
    eigenvectors:
  1.000  0.000  0.000  0.000  0.000
  0.000  1.000  0.000  0.000  0.000
  0.000  0.000  1.000  0.000  0.000
  0.000  0.000  0.000  1.000  0.000
  0.000  0.000  0.000  0.000  1.000
    occupations:
  1.000  0.000  0.000  0.000  0.000
  0.000  1.000  0.000  0.000  0.000
  0.000  0.000  1.000  0.000  0.000
  0.000  0.000  0.000  1.000  0.000
  0.000  0.000  0.000  0.000  1.000
   spin  2
    eigenvalues: 
  0.000  0.000  0.000  0.000  0.000
    eigenvectors:
  1.000  0.000  0.000  0.000  0.000
  0.000  1.000  0.000  0.000  0.000
  0.000  0.000  1.000  0.000  0.000
  0.000  0.000  0.000  1.000  0.000
  0.000  0.000  0.000  0.000  1.000
    occupations:
  0.000  0.000  0.000  0.000  0.000
  0.000  0.000  0.000  0.000  0.000
  0.000  0.000  0.000  0.000  0.000
  0.000  0.000  0.000  0.000  0.000
  0.000  0.000  0.000  0.000  0.000
atomic mag. moment =     5.000000
atom   95   Tr[ns(na)] (up, down, total) =   5.00000  0.00000  5.00000
   spin  1
    eigenvalues: 
  1.000  1.000  1.000  1.000  1.000
    eigenvectors:
  1.000  0.000  0.000  0.000  0.000
  0.000  1.000  0.000  0.000  0.000
  0.000  0.000  1.000  0.000  0.000
  0.000  0.000  0.000  1.000  0.000
  0.000  0.000  0.000  0.000  1.000
    occupations:
  1.000  0.000  0.000  0.000  0.000
  0.000  1.000  0.000  0.000  0.000
  0.000  0.000  1.000  0.000  0.000
  0.000  0.000  0.000  1.000  0.000
  0.000  0.000  0.000  0.000  1.000
   spin  2
    eigenvalues: 
  0.000  0.000  0.000  0.000  0.000
    eigenvectors:
  1.000  0.000  0.000  0.000  0.000
  0.000  1.000  0.000  0.000  0.000
  0.000  0.000  1.000  0.000  0.000
  0.000  0.000  0.000  1.000  0.000
  0.000  0.000  0.000  0.000  1.000
    occupations:
  0.000  0.000  0.000  0.000  0.000
  0.000  0.000  0.000  0.000  0.000
  0.000  0.000  0.000  0.000  0.000
  0.000  0.000  0.000  0.000  0.000
  0.000  0.000  0.000  0.000  0.000
atomic mag. moment =     5.000000
atom   97   Tr[ns(na)] (up, down, total) =   5.00000  0.00000  5.00000
   spin  1
    eigenvalues: 
  1.000  1.000  1.000  1.000  1.000
    eigenvectors:
  1.000  0.000  0.000  0.000  0.000
  0.000  1.000  0.000  0.000  0.000
  0.000  0.000  1.000  0.000  0.000
  0.000  0.000  0.000  1.000  0.000
  0.000  0.000  0.000  0.000  1.000
    occupations:
  1.000  0.000  0.000  0.000  0.000
  0.000  1.000  0.000  0.000  0.000
  0.000  0.000  1.000  0.000  0.000
  0.000  0.000  0.000  1.000  0.000
  0.000  0.000  0.000  0.000  1.000
   spin  2
    eigenvalues: 
  0.000  0.000  0.000  0.000  0.000
    eigenvectors:
  1.000  0.000  0.000  0.000  0.000
  0.000  1.000  0.000  0.000  0.000
  0.000  0.000  1.000  0.000  0.000
  0.000  0.000  0.000  1.000  0.000
  0.000  0.000  0.000  0.000  1.000
    occupations:
  0.000  0.000  0.000  0.000  0.000
  0.000  0.000  0.000  0.000  0.000
  0.000  0.000  0.000  0.000  0.000
  0.000  0.000  0.000  0.000  0.000
  0.000  0.000  0.000  0.000  0.000
atomic mag. moment =     5.000000
atom   99   Tr[ns(na)] (up, down, total) =   5.00000  0.00000  5.00000
   spin  1
    eigenvalues: 
  1.000  1.000  1.000  1.000  1.000
    eigenvectors:
  1.000  0.000  0.000  0.000  0.000
  0.000  1.000  0.000  0.000  0.000
  0.000  0.000  1.000  0.000  0.000
  0.000  0.000  0.000  1.000  0.000
  0.000  0.000  0.000  0.000  1.000
    occupations:
  1.000  0.000  0.000  0.000  0.000
  0.000  1.000  0.000  0.000  0.000
  0.000  0.000  1.000  0.000  0.000
  0.000  0.000  0.000  1.000  0.000
  0.000  0.000  0.000  0.000  1.000
   spin  2
    eigenvalues: 
  0.000  0.000  0.000  0.000  0.000
    eigenvectors:
  1.000  0.000  0.000  0.000  0.000
  0.000  1.000  0.000  0.000  0.000
  0.000  0.000  1.000  0.000  0.000
  0.000  0.000  0.000  1.000  0.000
  0.000  0.000  0.000  0.000  1.000
    occupations:
  0.000  0.000  0.000  0.000  0.000
  0.000  0.000  0.000  0.000  0.000
  0.000  0.000  0.000  0.000  0.000
  0.000  0.000  0.000  0.000  0.000
  0.000  0.000  0.000  0.000  0.000
atomic mag. moment =     5.000000
atom  101   Tr[ns(na)] (up, down, total) =   5.00000  0.00000  5.00000
   spin  1
    eigenvalues: 
  1.000  1.000  1.000  1.000  1.000
    eigenvectors:
  1.000  0.000  0.000  0.000  0.000
  0.000  1.000  0.000  0.000  0.000
  0.000  0.000  1.000  0.000  0.000
  0.000  0.000  0.000  1.000  0.000
  0.000  0.000  0.000  0.000  1.000
    occupations:
  1.000  0.000  0.000  0.000  0.000
  0.000  1.000  0.000  0.000  0.000
  0.000  0.000  1.000  0.000  0.000
  0.000  0.000  0.000  1.000  0.000
  0.000  0.000  0.000  0.000  1.000
   spin  2
    eigenvalues: 
  0.000  0.000  0.000  0.000  0.000
    eigenvectors:
  1.000  0.000  0.000  0.000  0.000
  0.000  1.000  0.000  0.000  0.000
  0.000  0.000  1.000  0.000  0.000
  0.000  0.000  0.000  1.000  0.000
  0.000  0.000  0.000  0.000  1.000
    occupations:
  0.000  0.000  0.000  0.000  0.000
  0.000  0.000  0.000  0.000  0.000
  0.000  0.000  0.000  0.000  0.000
  0.000  0.000  0.000  0.000  0.000
  0.000  0.000  0.000  0.000  0.000
atomic mag. moment =     5.000000
atom  103   Tr[ns(na)] (up, down, total) =   5.00000  0.00000  5.00000
   spin  1
    eigenvalues: 
  1.000  1.000  1.000  1.000  1.000
    eigenvectors:
  1.000  0.000  0.000  0.000  0.000
  0.000  1.000  0.000  0.000  0.000
  0.000  0.000  1.000  0.000  0.000
  0.000  0.000  0.000  1.000  0.000
  0.000  0.000  0.000  0.000  1.000
    occupations:
  1.000  0.000  0.000  0.000  0.000
  0.000  1.000  0.000  0.000  0.000
  0.000  0.000  1.000  0.000  0.000
  0.000  0.000  0.000  1.000  0.000
  0.000  0.000  0.000  0.000  1.000
   spin  2
    eigenvalues: 
  0.000  0.000  0.000  0.000  0.000
    eigenvectors:
  1.000  0.000  0.000  0.000  0.000
  0.000  1.000  0.000  0.000  0.000
  0.000  0.000  1.000  0.000  0.000
  0.000  0.000  0.000  1.000  0.000
  0.000  0.000  0.000  0.000  1.000
    occupations:
  0.000  0.000  0.000  0.000  0.000
  0.000  0.000  0.000  0.000  0.000
  0.000  0.000  0.000  0.000  0.000
  0.000  0.000  0.000  0.000  0.000
  0.000  0.000  0.000  0.000  0.000
atomic mag. moment =     5.000000
atom  105   Tr[ns(na)] (up, down, total) =   5.00000  0.00000  5.00000
   spin  1
    eigenvalues: 
  1.000  1.000  1.000  1.000  1.000
    eigenvectors:
  1.000  0.000  0.000  0.000  0.000
  0.000  1.000  0.000  0.000  0.000
  0.000  0.000  1.000  0.000  0.000
  0.000  0.000  0.000  1.000  0.000
  0.000  0.000  0.000  0.000  1.000
    occupations:
  1.000  0.000  0.000  0.000  0.000
  0.000  1.000  0.000  0.000  0.000
  0.000  0.000  1.000  0.000  0.000
  0.000  0.000  0.000  1.000  0.000
  0.000  0.000  0.000  0.000  1.000
   spin  2
    eigenvalues: 
  0.000  0.000  0.000  0.000  0.000
    eigenvectors:
  1.000  0.000  0.000  0.000  0.000
  0.000  1.000  0.000  0.000  0.000
  0.000  0.000  1.000  0.000  0.000
  0.000  0.000  0.000  1.000  0.000
  0.000  0.000  0.000  0.000  1.000
    occupations:
  0.000  0.000  0.000  0.000  0.000
  0.000  0.000  0.000  0.000  0.000
  0.000  0.000  0.000  0.000  0.000
  0.000  0.000  0.000  0.000  0.000
  0.000  0.000  0.000  0.000  0.000
atomic mag. moment =     5.000000
atom  107   Tr[ns(na)] (up, down, total) =   5.00000  0.00000  5.00000
   spin  1
    eigenvalues: 
  1.000  1.000  1.000  1.000  1.000
    eigenvectors:
  1.000  0.000  0.000  0.000  0.000
  0.000  1.000  0.000  0.000  0.000
  0.000  0.000  1.000  0.000  0.000
  0.000  0.000  0.000  1.000  0.000
  0.000  0.000  0.000  0.000  1.000
    occupations:
  1.000  0.000  0.000  0.000  0.000
  0.000  1.000  0.000  0.000  0.000
  0.000  0.000  1.000  0.000  0.000
  0.000  0.000  0.000  1.000  0.000
  0.000  0.000  0.000  0.000  1.000
   spin  2
    eigenvalues: 
  0.000  0.000  0.000  0.000  0.000
    eigenvectors:
  1.000  0.000  0.000  0.000  0.000
  0.000  1.000  0.000  0.000  0.000
  0.000  0.000  1.000  0.000  0.000
  0.000  0.000  0.000  1.000  0.000
  0.000  0.000  0.000  0.000  1.000
    occupations:
  0.000  0.000  0.000  0.000  0.000
  0.000  0.000  0.000  0.000  0.000
  0.000  0.000  0.000  0.000  0.000
  0.000  0.000  0.000  0.000  0.000
  0.000  0.000  0.000  0.000  0.000
atomic mag. moment =     5.000000
atom  109   Tr[ns(na)] (up, down, total) =   5.00000  0.00000  5.00000
   spin  1
    eigenvalues: 
  1.000  1.000  1.000  1.000  1.000
    eigenvectors:
  1.000  0.000  0.000  0.000  0.000
  0.000  1.000  0.000  0.000  0.000
  0.000  0.000  1.000  0.000  0.000
  0.000  0.000  0.000  1.000  0.000
  0.000  0.000  0.000  0.000  1.000
    occupations:
  1.000  0.000  0.000  0.000  0.000
  0.000  1.000  0.000  0.000  0.000
  0.000  0.000  1.000  0.000  0.000
  0.000  0.000  0.000  1.000  0.000
  0.000  0.000  0.000  0.000  1.000
   spin  2
    eigenvalues: 
  0.000  0.000  0.000  0.000  0.000
    eigenvectors:
  1.000  0.000  0.000  0.000  0.000
  0.000  1.000  0.000  0.000  0.000
  0.000  0.000  1.000  0.000  0.000
  0.000  0.000  0.000  1.000  0.000
  0.000  0.000  0.000  0.000  1.000
    occupations:
  0.000  0.000  0.000  0.000  0.000
  0.000  0.000  0.000  0.000  0.000
  0.000  0.000  0.000  0.000  0.000
  0.000  0.000  0.000  0.000  0.000
  0.000  0.000  0.000  0.000  0.000
atomic mag. moment =     5.000000
atom  111   Tr[ns(na)] (up, down, total) =   5.00000  0.00000  5.00000
   spin  1
    eigenvalues: 
  1.000  1.000  1.000  1.000  1.000
    eigenvectors:
  1.000  0.000  0.000  0.000  0.000
  0.000  1.000  0.000  0.000  0.000
  0.000  0.000  1.000  0.000  0.000
  0.000  0.000  0.000  1.000  0.000
  0.000  0.000  0.000  0.000  1.000
    occupations:
  1.000  0.000  0.000  0.000  0.000
  0.000  1.000  0.000  0.000  0.000
  0.000  0.000  1.000  0.000  0.000
  0.000  0.000  0.000  1.000  0.000
  0.000  0.000  0.000  0.000  1.000
   spin  2
    eigenvalues: 
  0.000  0.000  0.000  0.000  0.000
    eigenvectors:
  1.000  0.000  0.000  0.000  0.000
  0.000  1.000  0.000  0.000  0.000
  0.000  0.000  1.000  0.000  0.000
  0.000  0.000  0.000  1.000  0.000
  0.000  0.000  0.000  0.000  1.000
    occupations:
  0.000  0.000  0.000  0.000  0.000
  0.000  0.000  0.000  0.000  0.000
  0.000  0.000  0.000  0.000  0.000
  0.000  0.000  0.000  0.000  0.000
  0.000  0.000  0.000  0.000  0.000
atomic mag. moment =     5.000000
atom  113   Tr[ns(na)] (up, down, total) =   5.00000  0.00000  5.00000
   spin  1
    eigenvalues: 
  1.000  1.000  1.000  1.000  1.000
    eigenvectors:
  1.000  0.000  0.000  0.000  0.000
  0.000  1.000  0.000  0.000  0.000
  0.000  0.000  1.000  0.000  0.000
  0.000  0.000  0.000  1.000  0.000
  0.000  0.000  0.000  0.000  1.000
    occupations:
  1.000  0.000  0.000  0.000  0.000
  0.000  1.000  0.000  0.000  0.000
  0.000  0.000  1.000  0.000  0.000
  0.000  0.000  0.000  1.000  0.000
  0.000  0.000  0.000  0.000  1.000
   spin  2
    eigenvalues: 
  0.000  0.000  0.000  0.000  0.000
    eigenvectors:
  1.000  0.000  0.000  0.000  0.000
  0.000  1.000  0.000  0.000  0.000
  0.000  0.000  1.000  0.000  0.000
  0.000  0.000  0.000  1.000  0.000
  0.000  0.000  0.000  0.000  1.000
    occupations:
  0.000  0.000  0.000  0.000  0.000
  0.000  0.000  0.000  0.000  0.000
  0.000  0.000  0.000  0.000  0.000
  0.000  0.000  0.000  0.000  0.000
  0.000  0.000  0.000  0.000  0.000
atomic mag. moment =     5.000000
atom  115   Tr[ns(na)] (up, down, total) =   5.00000  0.00000  5.00000
   spin  1
    eigenvalues: 
  1.000  1.000  1.000  1.000  1.000
    eigenvectors:
  1.000  0.000  0.000  0.000  0.000
  0.000  1.000  0.000  0.000  0.000
  0.000  0.000  1.000  0.000  0.000
  0.000  0.000  0.000  1.000  0.000
  0.000  0.000  0.000  0.000  1.000
    occupations:
  1.000  0.000  0.000  0.000  0.000
  0.000  1.000  0.000  0.000  0.000
  0.000  0.000  1.000  0.000  0.000
  0.000  0.000  0.000  1.000  0.000
  0.000  0.000  0.000  0.000  1.000
   spin  2
    eigenvalues: 
  0.000  0.000  0.000  0.000  0.000
    eigenvectors:
  1.000  0.000  0.000  0.000  0.000
  0.000  1.000  0.000  0.000  0.000
  0.000  0.000  1.000  0.000  0.000
  0.000  0.000  0.000  1.000  0.000
  0.000  0.000  0.000  0.000  1.000
    occupations:
  0.000  0.000  0.000  0.000  0.000
  0.000  0.000  0.000  0.000  0.000
  0.000  0.000  0.000  0.000  0.000
  0.000  0.000  0.000  0.000  0.000
  0.000  0.000  0.000  0.000  0.000
atomic mag. moment =     5.000000
atom  117   Tr[ns(na)] (up, down, total) =   5.00000  0.00000  5.00000
   spin  1
    eigenvalues: 
  1.000  1.000  1.000  1.000  1.000
    eigenvectors:
  1.000  0.000  0.000  0.000  0.000
  0.000  1.000  0.000  0.000  0.000
  0.000  0.000  1.000  0.000  0.000
  0.000  0.000  0.000  1.000  0.000
  0.000  0.000  0.000  0.000  1.000
    occupations:
  1.000  0.000  0.000  0.000  0.000
  0.000  1.000  0.000  0.000  0.000
  0.000  0.000  1.000  0.000  0.000
  0.000  0.000  0.000  1.000  0.000
  0.000  0.000  0.000  0.000  1.000
   spin  2
    eigenvalues: 
  0.000  0.000  0.000  0.000  0.000
    eigenvectors:
  1.000  0.000  0.000  0.000  0.000
  0.000  1.000  0.000  0.000  0.000
  0.000  0.000  1.000  0.000  0.000
  0.000  0.000  0.000  1.000  0.000
  0.000  0.000  0.000  0.000  1.000
    occupations:
  0.000  0.000  0.000  0.000  0.000
  0.000  0.000  0.000  0.000  0.000
[...]
     8.3189   8.3236   8.3568   8.3586   8.3592   8.3593   8.3601   8.3614
     8.3619   8.3634   8.3648   8.3658   8.3668   8.3686   8.3696   8.3712
     8.3730   8.3743   8.3821   8.3825   8.3856   8.3868   8.3881   8.3895
     8.3930   8.3948   8.4538   8.4550   8.4557   8.4564   8.4578   8.4582
     8.4605   8.4613   8.4990   8.5005   8.5017   8.5025   8.5034   8.5041
     8.5054   8.5059   8.5429   8.5444   8.5460   8.5474   8.5503   8.5515
     8.5524   8.5559   8.5591   8.5618   8.5627   8.5637   8.5667   8.5704
     8.5736   8.5746   8.5766   8.5774   8.5777   8.5786   8.5813   8.5850
     8.7489   8.7504   8.7514   8.7520   8.7553   8.7554   8.7573   8.7601
     8.7873   8.7891   8.7899   8.7912   8.7927   8.7936   8.7943   8.7964
     8.8034   8.8078   8.8101   8.8104   8.8107   8.8135   8.8148   8.8187
     8.8189   8.8208   8.8223   8.8251   9.1625   9.1644   9.1666   9.1683
     9.2289   9.2312   9.2346   9.2370   9.4808   9.4809   9.4869   9.4871
    13.5702  13.5769  14.0343  14.0345  14.0423  14.0425  14.1857  14.1864
    14.1888  14.1896  14.1918  14.1923  14.1950  14.1964  14.2810  14.2861
    14.4734  14.4760  14.4788  14.4819  14.5757  14.5771  14.5784  14.5805
    14.5838  14.5858  14.5874  14.5890  14.6183  14.6205  14.8510  14.8541
    14.8561  14.8564  14.8591  14.8598  14.8605  14.8628  14.8722  14.8738
    14.8757  14.8775  14.9420  14.9437  14.9477  14.9487  15.1165  15.1180
    15.1199  15.1207  15.2253  15.2256  15.2306  15.2329  15.2338  15.2364
    15.3376  15.3393  15.3436  15.3445  15.3481  15.3488  15.3508  15.3585
    15.3953  15.3970  15.3987  15.3992  15.4000  15.4020  15.4034  15.4051
    15.4070  15.4094  15.4103  15.4112  15.4121  15.4139  15.4146  15.4150
    15.4199  15.4208  15.4227  15.4240  15.4251  15.4260  15.4286  15.4327
    15.4414  15.4431  15.4453  15.4471  15.5052  15.5063  15.5084  15.5096
    15.5118  15.5129  15.5158  15.5173  15.5700  15.5718  15.5725  15.5738
    15.5770  15.5777  15.5784  15.5807  15.6195  15.6224  15.7292  15.7310
    15.7328  15.7328  15.7338  15.7357  15.7367  15.7387  15.7566  15.7579
    15.8033  15.8047  15.8069  15.8087  15.8111  15.8118  15.8134  15.8189
    15.8318  15.8325  15.8333  15.8344  15.8359  15.8366  15.8372  15.8374
    15.8384  15.8401  15.8412  15.8421  15.8754  15.8772  15.8778  15.8781
    15.8801  15.8819  15.8825  15.8839  15.8904  15.8921  15.8941  15.8943
    15.8961  15.8963  15.8982  15.9004  15.9028  15.9041  15.9047  15.9053
    15.9071  15.9084  15.9088  15.9106  15.9562  15.9577  15.9584  15.9588
    15.9610  15.9619  15.9627  15.9637  15.9653  15.9662  15.9667  15.9684
    15.9685  15.9694  15.9707  15.9716  16.0123  16.0164  16.0385  16.0400
    16.0418  16.0435  16.0451  16.0457  16.0490  16.0523  16.1086  16.1102
    16.1145  16.1170  16.1178  16.1183  16.1202  16.1205  16.1382  16.1388
    16.1392  16.1395  16.1494  16.1508  16.1519  16.1520  16.1532  16.1536
    16.1547  16.1585  16.1637  16.1650  16.1670  16.1675  16.1697  16.1701
    16.1728  16.1732  16.1889  16.1909  16.1928  16.1946  16.2071  16.2085
    16.2107  16.2119  16.2155  16.2186  16.2191  16.2214  16.2216  16.2254
    16.2268  16.2287  16.2301  16.2305  16.2320  16.2325  16.2331  16.2337
    16.2338  16.2341  16.2397  16.2434  16.2457  16.2469  16.2498  16.2515
    16.2544  16.2557  16.2795  16.2809  16.2830  16.2833  16.2834  16.2838
    16.2848  16.2852  16.2863  16.2873  16.2874  16.2883  16.2887  16.2897
    16.2911  16.2927  16.2955  16.2965  16.2976  16.2996  16.3005  16.3012
    16.3021  16.3053  16.3064  16.3069  16.3082  16.3090  16.3269  16.3290
    16.3314  16.3319  16.3351  16.3357  16.3385  16.3403  16.3915  16.3955
    16.3966  16.3971  16.3978  16.3982  16.3989  16.3996  16.4011  16.4029
    16.4040  16.4069  16.4214  16.4232  16.4275  16.4295  16.7763  16.7768
    16.7784  16.7791  16.7802  16.7819  16.7826  16.7838  16.8513  16.8525
    16.8555  16.8561  16.8581  16.8594  16.8605  16.8636  17.1377  17.1402
    17.1412  17.1419  17.1438  17.1449  17.1459  17.1480  17.8884  17.8888
    17.8902  17.8970  17.8979  17.8991  17.9033  17.9057  17.9696  17.9716
    17.9739  17.9753  17.9770  17.9808  17.9819  17.9839  18.1547  18.1564
    18.1594  18.1619  18.1636  18.1663  18.1674  18.1695  19.1524  19.1563
    19.4747  19.4763  19.4786  19.4801  19.4853  19.4869  19.4888  19.4932
    19.6441  19.6467  19.6484  19.6514  19.6543  19.6570  19.6578  19.6602
    20.1564  20.1592  20.1614  20.1643  20.6259  20.6278  20.6337  20.6343
    20.6364  20.6383  20.6408  20.6409  20.6866  20.6885  20.6952  20.6976
    21.5510  21.5523  21.5553  21.5569  21.5665  21.5699  21.5732  21.5738
    21.5769  21.5773  21.5804  21.5843  21.6846  21.6864  21.6930  21.6959
    21.9651  21.9680  21.9699  21.9747  21.9764  21.9779  21.9781  21.9865
    22.0149  22.0159  22.0172  22.0177  22.0197  22.0202  22.0222  22.0238
    22.3329  22.3369  22.3388  22.3396  22.3410  22.3447  22.3466  22.3520
    22.3531  22.3550  22.3576  22.3663  22.3866  22.3893  22.3917  22.3951
    22.3986  22.4018  22.4047  22.4066  22.4089  22.4162  22.8480  22.8499
    22.8520  22.8546  22.8602  22.8615  22.8628  22.8654  23.5736  23.5758
    23.5768  23.5785  23.5836  23.5857  23.5870  23.5888  23.6786  23.6790
    23.6813  23.6817  23.7287  23.7328  23.7345  23.7371  23.7383  23.7412
    23.7423  23.7457  24.1200  24.1237  24.1253  24.1269  24.1277  24.1284
    24.1310  24.1332  24.6668  24.6686  24.6722  24.6754  24.6777  24.6785
    24.6806  24.6860  24.7648  24.7658  24.7673  24.7708

     the Fermi energy is    12.4717 ev

!    total energy              =  -15569.71424780 Ry
     Harris-Foulkes estimate   =  -15569.71424770 Ry
     estimated scf accuracy    <          3.1E-09 Ry

     The total energy is the sum of the following terms:

     one-electron contribution =   -7158.93952899 Ry
     hartree contribution      =    4254.86100990 Ry
     xc contribution           =   -2160.09599644 Ry
     ewald contribution        =  -10508.45471363 Ry
     Hubbard energy            =       2.91697242 Ry
     smearing contrib. (-TS)   =      -0.00199105 Ry

     total magnetization       =   320.00 Bohr mag/cell
     absolute magnetization    =   320.00 Bohr mag/cell

     convergence has been achieved in  15 iterations

     Forces acting on atoms (Ry/au):


     negative rho (up, down):  0.000E+00 4.294E-02
     atom    1 type  1   force =  -0.15923325E-02  0.11102752E-02  0.81709983E-03
     atom    2 type  2   force =   0.18486072E-02  0.84281670E-03  0.84695181E-03
     atom    3 type  1   force =  -0.44195846E-03  0.38415729E-03 -0.19926118E-02
     atom    4 type  2   force =  -0.25129791E-03  0.24290645E-03 -0.76160355E-03
     atom    5 type  1   force =   0.50932432E-03  0.95691116E-03 -0.15988857E-03
     atom    6 type  2   force =   0.74733347E-03  0.33238834E-03  0.14486909E-02
     atom    7 type  1   force =   0.98587854E-03  0.13145919E-02 -0.36076159E-03
     atom    8 type  2   force =  -0.57992861E-03 -0.13550805E-02  0.67882459E-03
     atom    9 type  1   force =  -0.13299694E-02 -0.65580607E-04  0.13188613E-02
     atom   10 type  2   force =   0.15249690E-03 -0.56776969E-03 -0.23689347E-02
     atom   11 type  1   force =   0.23214703E-02 -0.29368461E-03  0.15956655E-02
     atom   12 type  2   force =   0.57923142E-03  0.10947764E-02  0.55796636E-03
     atom   13 type  1   force =  -0.87603785E-04 -0.21018122E-02 -0.56914965E-03
     atom   14 type  2   force =  -0.56504898E-03 -0.65097609E-03  0.23438163E-03
     atom   15 type  1   force =   0.74659147E-03  0.10679717E-02 -0.95792214E-03
     atom   16 type  2   force =   0.52180342E-03  0.44955836E-03 -0.71255875E-03
     atom   17 type  1   force =  -0.25856587E-03  0.17984461E-02  0.12651274E-02
     atom   18 type  2   force =   0.12988402E-02  0.18979130E-03  0.43317575E-03
     atom   19 type  1   force =  -0.17958170E-03 -0.11378727E-02  0.63116676E-03
     atom   20 type  2   force =   0.39520424E-03  0.48314231E-03 -0.10132431E-02
     atom   21 type  1   force =  -0.52882706E-03 -0.16514178E-02 -0.88492840E-03
     atom   22 type  2   force =  -0.42026438E-03  0.11762064E-02 -0.34755129E-03
     atom   23 type  1   force =  -0.10899552E-02 -0.35047028E-03 -0.43951219E-03
     atom   24 type  2   force =  -0.35212494E-03 -0.92527127E-03 -0.20549632E-03
     atom   25 type  1   force =   0.14020112E-03  0.54921537E-03 -0.28319786E-03
     atom   26 type  2   force =   0.82677561E-03  0.14608409E-02 -0.18609291E-02
     atom   27 type  1   force =  -0.53295447E-03 -0.21784602E-02 -0.23279530E-03
     atom   28 type  2   force =   0.58139402E-03 -0.44953292E-04 -0.73645251E-03
     atom   29 type  1   force =   0.16478932E-02 -0.14404832E-02  0.10265460E-02
     atom   30 type  2   force =  -0.13336595E-02  0.75993574E-03 -0.48607628E-03
     atom   31 type  1   force =   0.12765511E-02  0.40252428E-03  0.89137327E-03
     atom   32 type  2   force =   0.83307802E-04  0.62106324E-03  0.80135622E-03
     atom   33 type  1   force =  -0.17670093E-02  0.66574422E-03 -0.70826639E-03
     atom   34 type  2   force =  -0.31647145E-03 -0.50640212E-03 -0.14202393E-02
     atom   35 type  1   force =  -0.80992171E-03 -0.15461446E-02 -0.96851932E-04
     atom   36 type  2   force =   0.22169579E-03 -0.12289316E-02  0.89329705E-03
     atom   37 type  1   force =  -0.12883112E-03  0.97680594E-03  0.10100398E-03
     atom   38 type  2   force =   0.96623150E-03 -0.10096482E-02 -0.73257209E-03
     atom   39 type  1   force =  -0.11600082E-03 -0.14141631E-02 -0.98959069E-03
     atom   40 type  2   force =   0.12144327E-02  0.89362636E-03  0.77850687E-03
     atom   41 type  1   force =  -0.94988996E-03 -0.55770455E-03  0.16843479E-02
     atom   42 type  2   force =   0.77963792E-03  0.82738246E-03 -0.34082140E-03
     atom   43 type  1   force =  -0.14023350E-02 -0.81794038E-03  0.14485429E-02
     atom   44 type  2   force =  -0.26169489E-03  0.13308385E-02 -0.74241352E-03
     atom   45 type  1   force =   0.51498373E-04  0.10237908E-02 -0.31768177E-03
     atom   46 type  2   force =  -0.40072636E-03 -0.31959953E-03  0.25007735E-03
     atom   47 type  1   force =  -0.94971272E-03 -0.75549910E-03  0.18938045E-03
     atom   48 type  2   force =  -0.73566842E-03 -0.11648707E-02 -0.10399532E-02
     atom   49 type  1   force =   0.18325991E-03 -0.61952312E-03  0.95109006E-03
     atom   50 type  2   force =   0.11301113E-02 -0.13350853E-02  0.11399391E-02
     atom   51 type  1   force =  -0.48122213E-03 -0.58541653E-03 -0.82540014E-04
     atom   52 type  2   force =   0.74875309E-03 -0.86968072E-04 -0.66375593E-03
     atom   53 type  1   force =  -0.72457871E-03 -0.19741870E-03 -0.14036193E-03
     atom   54 type  2   force =  -0.11866358E-02 -0.11280222E-02  0.49434980E-03
     atom   55 type  1   force =   0.46763471E-03  0.30126105E-03  0.10223928E-02
     atom   56 type  2   force =  -0.40442248E-03  0.70750268E-03 -0.64495989E-03
     atom   57 type  1   force =  -0.19232100E-02  0.43307550E-03  0.10558845E-02
     atom   58 type  2   force =  -0.15326829E-03 -0.32451187E-03 -0.36867462E-03
     atom   59 type  1   force =  -0.59368795E-03 -0.19811182E-02  0.10893594E-02
     atom   60 type  2   force =   0.24649324E-03 -0.91219581E-03  0.61319203E-03
     atom   61 type  1   force =  -0.67138831E-03 -0.49464650E-03  0.21498720E-02
     atom   62 type  2   force =  -0.63486162E-03  0.25377855E-03 -0.77636962E-04
     atom   63 type  1   force =  -0.77340984E-03 -0.93901946E-03  0.42736031E-03
     atom   64 type  2   force =  -0.37418691E-03  0.42906301E-03  0.94703236E-03
     atom   65 type  1   force =   0.72165192E-05  0.10812478E-02  0.51603461E-03
     atom   66 type  2   force =  -0.66994122E-03 -0.15483863E-02 -0.53844512E-03
     atom   67 type  1   force =   0.20002097E-02  0.22225877E-02 -0.57669143E-03
     atom   68 type  2   force =   0.10109010E-02  0.13112589E-02  0.24983395E-02
     atom   69 type  1   force =  -0.60192198E-03  0.91845761E-04 -0.96001998E-03
     atom   70 type  2   force =   0.75959167E-03 -0.38014997E-04 -0.39497633E-04
     atom   71 type  1   force =  -0.12334807E-02 -0.11103138E-02  0.11413613E-02
     atom   72 type  2   force =  -0.65594314E-03 -0.94057845E-03  0.75245866E-04
     atom   73 type  1   force =   0.85735579E-03  0.16992341E-02  0.84022771E-04
     atom   74 type  2   force =  -0.33024741E-03 -0.46036275E-03  0.13689459E-02
     atom   75 type  1   force =   0.60440363E-03 -0.11267951E-02 -0.11239070E-02
     atom   76 type  2   force =  -0.16687626E-02 -0.11866592E-02 -0.74560672E-03
     atom   77 type  1   force =   0.14331532E-02  0.36425865E-03  0.51306934E-03
     atom   78 type  2   force =   0.63303302E-04 -0.45297903E-03  0.64590132E-03
     atom   79 type  1   force =   0.98829368E-03  0.51963024E-03  0.47628633E-03
     atom   80 type  2   force =  -0.17316820E-02 -0.16665956E-02 -0.20786225E-03
     atom   81 type  1   force =  -0.13151932E-02 -0.10046415E-03  0.23404596E-03
     atom   82 type  2   force =   0.86466001E-03 -0.10471418E-02 -0.15576990E-03
     atom   83 type  1   force =  -0.76430822E-03  0.88925051E-03 -0.98026748E-03
     atom   84 type  2   force =   0.58278581E-03  0.20143028E-03  0.15736698E-02
     atom   85 type  1   force =  -0.31193520E-04  0.11935092E-02 -0.12100486E-02
     atom   86 type  2   force =   0.62569289E-03 -0.58353758E-04  0.43396253E-03
     atom   87 type  1   force =  -0.84616470E-05  0.15509138E-02  0.36997655E-03
     atom   88 type  2   force =   0.15858670E-02 -0.68624277E-03  0.66314191E-03
     atom   89 type  1   force =  -0.10638704E-02  0.17875244E-02  0.19063432E-02
     atom   90 type  2   force =  -0.95054569E-03  0.25193582E-03 -0.39142942E-03
     atom   91 type  1   force =   0.50502615E-03 -0.13185887E-02 -0.15426064E-02
     atom   92 type  2   force =  -0.17828425E-02 -0.91973884E-03 -0.83673005E-03
     atom   93 type  1   force =   0.16807085E-02  0.16581885E-02  0.17882879E-03
     atom   94 type  2   force =  -0.60616354E-03  0.52498545E-03  0.34939461E-03
     atom   95 type  1   force =   0.62409204E-03 -0.17968130E-02 -0.23753476E-02
     atom   96 type  2   force =   0.36930672E-03 -0.10135474E-02 -0.76633157E-03
     atom   97 type  1   force =  -0.93050004E-03  0.10748629E-02  0.78359467E-03
     atom   98 type  2   force =   0.12925661E-02 -0.33761952E-04  0.77622536E-03
     atom   99 type  1   force =   0.27994020E-03  0.80331195E-03 -0.15033951E-02
     atom  100 type  2   force =  -0.15255308E-02  0.31836590E-03  0.14231723E-02
     atom  101 type  1   force =   0.17351718E-02 -0.18794866E-02 -0.26510831E-02
     atom  102 type  2   force =  -0.11315171E-02 -0.78860699E-03 -0.11434252E-02
     atom  103 type  1   force =  -0.12639191E-03  0.73485161E-03  0.15649286E-02
     atom  104 type  2   force =   0.50147809E-03  0.12292134E-03 -0.13586400E-03
     atom  105 type  1   force =  -0.20964834E-02  0.14713802E-02  0.13934472E-02
     atom  106 type  2   force =   0.20265948E-03  0.43896997E-03 -0.12058984E-02
     atom  107 type  1   force =  -0.60109773E-03 -0.67953514E-03 -0.92724995E-03
     atom  108 type  2   force =  -0.15772737E-02  0.56671284E-03 -0.55738820E-03
     atom  109 type  1   force =   0.12256747E-02 -0.40127644E-03  0.13392172E-02
     atom  110 type  2   force =   0.74152303E-03 -0.41934923E-03 -0.64471995E-03
     atom  111 type  1   force =   0.99385230E-03  0.35784453E-04  0.13180275E-03
     atom  112 type  2   force =   0.18739970E-02  0.10491403E-02 -0.85467735E-03
     atom  113 type  1   force =   0.24972888E-03  0.13360173E-02 -0.23159133E-03
     atom  114 type  2   force =   0.76209661E-03 -0.14108436E-02 -0.78111148E-05
     atom  115 type  1   force =   0.47397017E-03  0.21940453E-02 -0.14022916E-02
     atom  116 type  2   force =   0.47299615E-03  0.10605958E-02  0.47329870E-03
     atom  117 type  1   force =   0.71192078E-03  0.26143700E-03 -0.59638700E-03
     atom  118 type  2   force =  -0.67755312E-04  0.57062657E-03  0.15713457E-02
     atom  119 type  1   force =   0.13307499E-02 -0.10289582E-02 -0.66085584E-03
     atom  120 type  2   force =   0.72346794E-04 -0.97211748E-03  0.22329215E-04
     atom  121 type  1   force =   0.21726253E-03  0.80974887E-03  0.17797670E-02
     atom  122 type  2   force =   0.16220869E-03  0.57168626E-03 -0.13775296E-02
     atom  123 type  1   force =   0.34284128E-03  0.33713879E-03  0.11935234E-02
     atom  124 type  2   force =  -0.95458519E-03  0.31461894E-03  0.97732785E-03
     atom  125 type  1   force =  -0.56237605E-03 -0.94922063E-03 -0.12215106E-02
     atom  126 type  2   force =  -0.69434775E-03  0.62078916E-03 -0.18845626E-03
     atom  127 type  1   force =  -0.47201393E-03  0.17790792E-02 -0.21305906E-02
     atom  128 type  2   force =   0.57943226E-03 -0.17687967E-03 -0.16101476E-02

     Total force =     0.019490     Total SCF correction =     0.000311


     entering subroutine stress ...


     negative rho (up, down):  0.000E+00 4.294E-02
          total   stress  (Ry/bohr**3)                   (kbar)     P=   -0.27
  -0.0000018615  -0.0000000061  -0.0000000029         -0.27     -0.00     -0.00
  -0.0000000061  -0.0000018190  -0.0000000030         -0.00     -0.27     -0.00
  -0.0000000029  -0.0000000030  -0.0000018215         -0.00     -0.00     -0.27


     Writing output data file mno_fm.scf.in.super.444.011.save

     init_run     :   3991.74s CPU   2478.18s WALL (       1 calls)
     electrons    : 162989.29s CPU 109413.45s WALL (       1 calls)
     forces       :   7658.09s CPU   4525.86s WALL (       1 calls)
     stress       :  28547.29s CPU  19529.93s WALL (       1 calls)

     Called by init_run:
     wfcinit      :   3955.10s CPU   2441.14s WALL (       1 calls)
     potinit      :      1.89s CPU      1.96s WALL (       1 calls)

     Called by electrons:
     c_bands      : 150229.98s CPU 100094.88s WALL (      15 calls)
     sum_band     :  12204.30s CPU   8762.94s WALL (      15 calls)
     v_of_rho     :     25.18s CPU     25.22s WALL (      16 calls)
     newd         :    542.84s CPU    543.16s WALL (      16 calls)
     mix_rho      :     12.90s CPU     12.94s WALL (      15 calls)

     Called by c_bands:
     init_us_2    :     98.08s CPU     98.30s WALL (     704 calls)
     cegterg      : 149369.01s CPU  99225.10s WALL (     240 calls)

     Called by *egterg:
     h_psi        :  52107.01s CPU  35096.27s WALL (     826 calls)
     s_psi        :  18264.88s CPU   9855.72s WALL (    1002 calls)
     g_psi        :     23.69s CPU     24.17s WALL (     570 calls)
     cdiaghg      :  42384.30s CPU  32654.21s WALL (     810 calls)

     Called by h_psi:
     add_vuspsi   :  13636.29s CPU   7377.46s WALL (     826 calls)
     vhpsi        :   9173.64s CPU   5226.89s WALL (     826 calls)

     General routines
     calbec       :  51153.77s CPU  30089.38s WALL (   76372 calls)
     fft          :    312.91s CPU    313.10s WALL (     530 calls)
     ffts         :      6.20s CPU      6.18s WALL (     380 calls)
     fftw         :  14510.07s CPU  14543.31s WALL ( 1345620 calls)
     interpolate  :      3.58s CPU      3.61s WALL (      62 calls)
     davcio       :      0.01s CPU      0.63s WALL (      16 calls)

     Parallel routines
     fft_scatter  :   7633.71s CPU   7656.69s WALL ( 1346530 calls)
     Hubbard U routines
     new_ns       :   1177.32s CPU    695.29s WALL (      15 calls)
     vhpsi        :   9173.64s CPU   5226.89s WALL (     826 calls)
     force_hub    :   5725.95s CPU   3362.12s WALL (       1 calls)
     stres_hub    :  20873.80s CPU  12039.89s WALL (       1 calls)

     PWSCF        :     2d    8h27m CPU        1d   13h47m WALL


   This run was terminated on:   6:18:57  24Aug2017            

=------------------------------------------------------------------------------=
   JOB DONE.
=------------------------------------------------------------------------------=
