
     Program PWSCF v.5.1 starts on 16Aug2017 at 18: 8:36 

     This program is part of the open-source Quantum ESPRESSO suite
     for quantum simulation of materials; please cite
         "P. Giannozzi et al., J. Phys.:Condens. Matter 21 395502 (2009);
          URL http://www.quantum-espresso.org", 
     in publications or presentations arising from this work. More details at
     http://www.quantum-espresso.org/quote

     Parallel version (MPI), running on     8 processors
     R & G space division:  proc/nbgrp/npool/nimage =       8
     Reading input from /tmp/mno_afm.in.222.02.12722/mno_afm.in.222.02.t
Warning: card &IONS ignored
Warning: card   ION_DYNAMICS='BFGS', ignored
Warning: card / ignored
Warning: card &CELL ignored
Warning: card  CELL_DYNAMICS = 'BFGS' ignored
Warning: card / ignored

     Current dimensions of program PWSCF are:
     Max number of different atomic species (ntypx) = 10
     Max number of k-points (npk) =  40000
     Max angular momentum in pseudopotentials (lmaxx) =  3
 kfg - two_fermi_energies  F

     Subspace diagonalization in iterative solution of the eigenvalue problem:
     a serial algorithm will be used


     Parallelization info
     --------------------
     sticks:   dense  smooth     PW     G-vecs:    dense   smooth      PW
     Min         242     200     57                 7129     5289     816
     Max         243     201     58                 7131     5300     818
     Sum        1943    1605    459                57043    42351    6537

     Generating pointlists ...
     new r_m :   0.1418 (alat units)  1.6746 (a.u.) for type    1
     new r_m :   0.1412 (alat units)  1.6671 (a.u.) for type    2
     new r_m :   0.1412 (alat units)  1.6671 (a.u.) for type    3


     bravais-lattice index     =            0
     lattice parameter (alat)  =    11.809860670  a.u.
     unit-cell volume          =    1194.2399 (a.u.)^3
     number of atoms/cell      =           16
     number of atomic types    =            3
     number of electrons       =       168.00
     number of Kohn-Sham states=          101
     kinetic-energy cutoff     =      41.0000  Ry
     charge density cutoff     =     200.0000  Ry
     convergence threshold     =      1.0E-08
     mixing beta               =       0.3000
     number of iterations used =            8  local-TF  mixing
     Exchange-correlation      = SLA  PW   PSX  PSC ( 1  4 10  8 0)
     A smooth kinetic-energy cutoff is imposed at      40.0000 Ry
     height of the smooth step-function =             800.0000 Ry
     width of the smooth step-function  =               1.0000 Ry


     celldm(1)=  11.809861  celldm(2)=   0.000000  celldm(3)=   0.000000
     celldm(4)=   0.000000  celldm(5)=   0.000000  celldm(6)=   0.000000

     crystal axes: (cart. coord. in units of alat)
               a(1) = (  -0.012055939014   0.707055391866   0.707055391866 )  
               a(2) = (   0.707055391866  -0.012055939014   0.707055391866 )  
               a(3) = (   0.707055391866   0.707055391866  -0.012055939014 )  

     reciprocal axes: (cart. coord. in units 2 pi/alat)
               b(1) = ( -0.689324  0.701281  0.701281 )  
               b(2) = (  0.701281 -0.689324  0.701281 )  
               b(3) = (  0.701281  0.701281 -0.689324 )  


     PseudoPot. # 1 for Mn read from file:
     /users/kfg/psuedo/gbrv_1.5/mn.pbesol.UPF
     MD5 check sum: 0716d5f563e6e95a34f9080f4c78c109
     Pseudo is Ultrasoft + core correction, Zval = 15.0
     Generated by new atomic code, or converted to UPF format
     Using radial grid of  859 points,  6 beta functions with: 
                l(1) =   0
                l(2) =   0
                l(3) =   1
                l(4) =   1
                l(5) =   2
                l(6) =   2
     Q(r) pseudized with  8 coefficients,  rinner =    0.950   0.950   0.950
                                                       0.950   0.950

     PseudoPot. # 2 for Mn read from file:
     /users/kfg/psuedo/gbrv_1.5/mn.pbesol.UPF
     MD5 check sum: 0716d5f563e6e95a34f9080f4c78c109
     Pseudo is Ultrasoft + core correction, Zval = 15.0
     Generated by new atomic code, or converted to UPF format
     Using radial grid of  859 points,  6 beta functions with: 
                l(1) =   0
                l(2) =   0
                l(3) =   1
                l(4) =   1
                l(5) =   2
                l(6) =   2
     Q(r) pseudized with  8 coefficients,  rinner =    0.950   0.950   0.950
                                                       0.950   0.950

     PseudoPot. # 3 for O  read from file:
     /users/kfg/psuedo/gbrv_1.5/o.pbesol.UPF
     MD5 check sum: 501638753501ef6325af9037351f7734
     Pseudo is Ultrasoft + core correction, Zval =  6.0
     Generated by new atomic code, or converted to UPF format
     Using radial grid of  737 points,  5 beta functions with: 
                l(1) =   0
                l(2) =   0
                l(3) =   1
                l(4) =   1
                l(5) =   2
     Q(r) pseudized with  8 coefficients,  rinner =    0.900   0.900   0.900
                                                       0.900   0.900

     atomic species   valence    mass     pseudopotential
        Mn            15.00    54.90000     Mn( 1.00)
        Fe            15.00    54.90000     Mn( 1.00)
        O              6.00    15.99900     O ( 1.00)

     Starting magnetic structure 
     atomic species   magnetization
        Mn           1.000
        Fe          -1.000
        O            0.000


     Simplified LDA+U calculation (l_max = 2) with parameters (eV):
     atomic species    L          U    alpha       J0     beta
        Mn             2     3.0000   0.0000   0.0000   0.0000
        Fe             2     3.0000   0.0000   0.0000   0.0000



     No symmetry found



   Cartesian axes

     site n.     atom                  positions (alat units)
         1           Mn  tau(   1) = (   -0.00225279404    0.00522531049    0.00249429711  )
         2           O   tau(   2) = (    0.34759549091    0.35846912137    0.34943667254  )
         3           Fe  tau(   3) = (    0.70769571864    0.70861980611    0.70006030862  )
         4           O   tau(   4) = (    1.05010606975    1.04473482556    1.04574994596  )
         5           Mn  tau(   5) = (    1.05834744531    1.05817950255    0.69462699707  )
         6           O   tau(   6) = (    0.69083950931    0.69114518205    1.06424304462  )
         7           Fe  tau(   7) = (    0.35209693009    0.34802215267   -0.00863805009  )
         8           O   tau(   8) = (    0.70273222295    0.71231887622    0.33631545298  )
         9           Mn  tau(   9) = (    0.34415266878    0.70877167281    0.35028422433  )
        10           O   tau(  10) = (    0.69968330408    1.06361998339    0.69011546593  )
        11           Fe  tau(  11) = (    0.35507393780    0.00191349230    0.35126811434  )
        12           O   tau(  12) = (    0.71152737398    0.34211501807    0.69590711226  )
        13           Mn  tau(  13) = (    0.69259652127    1.04724853658    1.05929060068  )
        14           O   tau(  14) = (    1.05644204985    0.69609703438    0.69225101564  )
        15           Fe  tau(  15) = (    0.69500195385    1.05442194481    0.33930677210  )
        16           O   tau(  16) = (    0.34453509685    0.70507636775    0.70648080441  )

     number of k points=    72  gaussian smearing, width (Ry)=  0.0100
                       cart. coord. in units 2pi/alat
        k(    1) = (   0.0000000   0.0000000   0.0000000), wk =   0.0156250
        k(    2) = (   0.1753203   0.1753203  -0.1723310), wk =   0.0312500
        k(    3) = (  -0.3506407  -0.3506407   0.3446619), wk =   0.0156250
        k(    4) = (   0.3506407   0.0029894   0.0029894), wk =   0.0312500
        k(    5) = (  -0.1753203  -0.5229717   0.5199823), wk =   0.0312500
        k(    6) = (   0.0000000  -0.3476513   0.3476513), wk =   0.0312500
        k(    7) = (  -0.7012814  -0.0059787  -0.0059787), wk =   0.0156250
        k(    8) = (   0.1783097   0.1783097   0.1783097), wk =   0.0312500
        k(    9) = (  -0.3476513  -0.3476513   0.6953026), wk =   0.0312500
        k(   10) = (  -0.1723310  -0.1723310   0.5229717), wk =   0.0312500
        k(   11) = (  -0.8736123   0.1693416   0.1693416), wk =   0.0312500
        k(   12) = (  -0.6982920   0.3446619  -0.0029894), wk =   0.0312500
        k(   13) = (  -0.3566194  -0.3566194  -0.3566194), wk =   0.0156250
        k(   14) = (   0.1723310  -0.1753203  -0.1753203), wk =   0.0312500
        k(   15) = (  -0.1753203   0.1723310  -0.1753203), wk =   0.0312500
        k(   16) = (  -0.3446619   0.3506407   0.3506407), wk =   0.0156250
        k(   17) = (   0.3506407  -0.3446619   0.3506407), wk =   0.0156250
        k(   18) = (  -0.0029894  -0.3506407  -0.0029894), wk =   0.0312500
        k(   19) = (  -0.0029894  -0.0029894  -0.3506407), wk =   0.0312500
        k(   20) = (   0.5229717   0.1753203  -0.5199823), wk =   0.0312500
        k(   21) = (  -0.5199823   0.5229717   0.1753203), wk =   0.0312500
        k(   22) = (   0.1753203  -0.5199823   0.5229717), wk =   0.0312500
        k(   23) = (  -0.5229717   0.5199823  -0.1753203), wk =   0.0312500
        k(   24) = (   0.5199823  -0.1753203  -0.5229717), wk =   0.0312500
        k(   25) = (   0.3476513   0.0000000  -0.3476513), wk =   0.0312500
        k(   26) = (  -0.3476513   0.3476513   0.0000000), wk =   0.0312500
        k(   27) = (   0.0059787   0.7012814   0.0059787), wk =   0.0156250
        k(   28) = (   0.0059787   0.0059787   0.7012814), wk =   0.0156250
        k(   29) = (  -0.6953026   0.3476513   0.3476513), wk =   0.0312500
        k(   30) = (   0.3476513  -0.6953026   0.3476513), wk =   0.0312500
        k(   31) = (  -0.5229717   0.1723310   0.1723310), wk =   0.0312500
        k(   32) = (   0.1723310  -0.5229717   0.1723310), wk =   0.0312500
        k(   33) = (  -0.1693416   0.8736123  -0.1693416), wk =   0.0312500
        k(   34) = (  -0.1693416  -0.1693416   0.8736123), wk =   0.0312500
        k(   35) = (  -0.3446619   0.6982920   0.0029894), wk =   0.0312500
        k(   36) = (   0.6982920   0.0029894  -0.3446619), wk =   0.0312500
        k(   37) = (   0.0000000   0.0000000   0.0000000), wk =   0.0156250
        k(   38) = (   0.1753203   0.1753203  -0.1723310), wk =   0.0312500
        k(   39) = (  -0.3506407  -0.3506407   0.3446619), wk =   0.0156250
        k(   40) = (   0.3506407   0.0029894   0.0029894), wk =   0.0312500
        k(   41) = (  -0.1753203  -0.5229717   0.5199823), wk =   0.0312500
        k(   42) = (   0.0000000  -0.3476513   0.3476513), wk =   0.0312500
        k(   43) = (  -0.7012814  -0.0059787  -0.0059787), wk =   0.0156250
        k(   44) = (   0.1783097   0.1783097   0.1783097), wk =   0.0312500
        k(   45) = (  -0.3476513  -0.3476513   0.6953026), wk =   0.0312500
        k(   46) = (  -0.1723310  -0.1723310   0.5229717), wk =   0.0312500
        k(   47) = (  -0.8736123   0.1693416   0.1693416), wk =   0.0312500
        k(   48) = (  -0.6982920   0.3446619  -0.0029894), wk =   0.0312500
        k(   49) = (  -0.3566194  -0.3566194  -0.3566194), wk =   0.0156250
        k(   50) = (   0.1723310  -0.1753203  -0.1753203), wk =   0.0312500
        k(   51) = (  -0.1753203   0.1723310  -0.1753203), wk =   0.0312500
        k(   52) = (  -0.3446619   0.3506407   0.3506407), wk =   0.0156250
        k(   53) = (   0.3506407  -0.3446619   0.3506407), wk =   0.0156250
        k(   54) = (  -0.0029894  -0.3506407  -0.0029894), wk =   0.0312500
        k(   55) = (  -0.0029894  -0.0029894  -0.3506407), wk =   0.0312500
        k(   56) = (   0.5229717   0.1753203  -0.5199823), wk =   0.0312500
        k(   57) = (  -0.5199823   0.5229717   0.1753203), wk =   0.0312500
        k(   58) = (   0.1753203  -0.5199823   0.5229717), wk =   0.0312500
        k(   59) = (  -0.5229717   0.5199823  -0.1753203), wk =   0.0312500
        k(   60) = (   0.5199823  -0.1753203  -0.5229717), wk =   0.0312500
        k(   61) = (   0.3476513   0.0000000  -0.3476513), wk =   0.0312500
        k(   62) = (  -0.3476513   0.3476513   0.0000000), wk =   0.0312500
        k(   63) = (   0.0059787   0.7012814   0.0059787), wk =   0.0156250
        k(   64) = (   0.0059787   0.0059787   0.7012814), wk =   0.0156250
        k(   65) = (  -0.6953026   0.3476513   0.3476513), wk =   0.0312500
        k(   66) = (   0.3476513  -0.6953026   0.3476513), wk =   0.0312500
        k(   67) = (  -0.5229717   0.1723310   0.1723310), wk =   0.0312500
        k(   68) = (   0.1723310  -0.5229717   0.1723310), wk =   0.0312500
        k(   69) = (  -0.1693416   0.8736123  -0.1693416), wk =   0.0312500
        k(   70) = (  -0.1693416  -0.1693416   0.8736123), wk =   0.0312500
        k(   71) = (  -0.3446619   0.6982920   0.0029894), wk =   0.0312500
        k(   72) = (   0.6982920   0.0029894  -0.3446619), wk =   0.0312500

     Dense  grid:    57043 G-vectors     FFT dimensions: (  54,  54,  54)

     Smooth grid:    42351 G-vectors     FFT dimensions: (  50,  50,  50)

     Largest allocated arrays     est. size (Mb)     dimensions
        Kohn-Sham Wavefunctions         1.04 Mb     (     675,  101)
        Atomic Hubbard wavefuncts       0.41 Mb     (     675,   40)
        NL pseudopotentials             2.55 Mb     (     675,  248)
        Each V/rho on FFT grid          0.62 Mb     (   20412,   2)
        Each G-vector array             0.05 Mb     (    7131)
        G-vector shells                 0.02 Mb     (    3247)
     Largest temporary arrays     est. size (Mb)     dimensions
        Auxiliary wavefunctions         4.16 Mb     (     675,  404)
        Each subspace H/S matrix        2.49 Mb     (     404,  404)
        Each <psi_i|beta_j> matrix      0.38 Mb     (     248,  101)
        Arrays for rho mixing           2.49 Mb     (   20412,    8)

     Check: negative/imaginary core charge=   -0.000061    0.000000

     Initial potential from superposition of free atoms

     starting charge  163.99935, renormalised to  168.00000
     Number of +U iterations with fixed ns =  0
     Starting occupations:
 --- enter write_ns ---
 LDA+U parameters:
U( 1)     =  3.00000000
alpha( 1) =  0.00000000
U( 2)     =  3.00000000
alpha( 2) =  0.00000000
atom    1   Tr[ns(na)] (up, down, total) =   5.00000  0.00000  5.00000
   spin  1
    eigenvalues: 
  1.000  1.000  1.000  1.000  1.000
    eigenvectors:
  1.000  0.000  0.000  0.000  0.000
  0.000  1.000  0.000  0.000  0.000
  0.000  0.000  1.000  0.000  0.000
  0.000  0.000  0.000  1.000  0.000
  0.000  0.000  0.000  0.000  1.000
    occupations:
  1.000  0.000  0.000  0.000  0.000
  0.000  1.000  0.000  0.000  0.000
  0.000  0.000  1.000  0.000  0.000
  0.000  0.000  0.000  1.000  0.000
  0.000  0.000  0.000  0.000  1.000
   spin  2
    eigenvalues: 
  0.000  0.000  0.000  0.000  0.000
    eigenvectors:
  1.000  0.000  0.000  0.000  0.000
  0.000  1.000  0.000  0.000  0.000
  0.000  0.000  1.000  0.000  0.000
  0.000  0.000  0.000  1.000  0.000
  0.000  0.000  0.000  0.000  1.000
    occupations:
  0.000  0.000  0.000  0.000  0.000
  0.000  0.000  0.000  0.000  0.000
  0.000  0.000  0.000  0.000  0.000
  0.000  0.000  0.000  0.000  0.000
  0.000  0.000  0.000  0.000  0.000
atomic mag. moment =     5.000000
atom    3   Tr[ns(na)] (up, down, total) =   0.00000  5.00000  5.00000
   spin  1
    eigenvalues: 
  0.000  0.000  0.000  0.000  0.000
    eigenvectors:
  1.000  0.000  0.000  0.000  0.000
  0.000  1.000  0.000  0.000  0.000
  0.000  0.000  1.000  0.000  0.000
  0.000  0.000  0.000  1.000  0.000
  0.000  0.000  0.000  0.000  1.000
    occupations:
  0.000  0.000  0.000  0.000  0.000
  0.000  0.000  0.000  0.000  0.000
  0.000  0.000  0.000  0.000  0.000
  0.000  0.000  0.000  0.000  0.000
  0.000  0.000  0.000  0.000  0.000
   spin  2
    eigenvalues: 
  1.000  1.000  1.000  1.000  1.000
    eigenvectors:
  1.000  0.000  0.000  0.000  0.000
  0.000  1.000  0.000  0.000  0.000
  0.000  0.000  1.000  0.000  0.000
  0.000  0.000  0.000  1.000  0.000
  0.000  0.000  0.000  0.000  1.000
    occupations:
  1.000  0.000  0.000  0.000  0.000
  0.000  1.000  0.000  0.000  0.000
  0.000  0.000  1.000  0.000  0.000
  0.000  0.000  0.000  1.000  0.000
  0.000  0.000  0.000  0.000  1.000
atomic mag. moment =    -5.000000
atom    5   Tr[ns(na)] (up, down, total) =   5.00000  0.00000  5.00000
   spin  1
    eigenvalues: 
  1.000  1.000  1.000  1.000  1.000
    eigenvectors:
  1.000  0.000  0.000  0.000  0.000
  0.000  1.000  0.000  0.000  0.000
  0.000  0.000  1.000  0.000  0.000
  0.000  0.000  0.000  1.000  0.000
  0.000  0.000  0.000  0.000  1.000
    occupations:
  1.000  0.000  0.000  0.000  0.000
  0.000  1.000  0.000  0.000  0.000
  0.000  0.000  1.000  0.000  0.000
  0.000  0.000  0.000  1.000  0.000
  0.000  0.000  0.000  0.000  1.000
   spin  2
    eigenvalues: 
  0.000  0.000  0.000  0.000  0.000
    eigenvectors:
  1.000  0.000  0.000  0.000  0.000
  0.000  1.000  0.000  0.000  0.000
  0.000  0.000  1.000  0.000  0.000
  0.000  0.000  0.000  1.000  0.000
  0.000  0.000  0.000  0.000  1.000
    occupations:
  0.000  0.000  0.000  0.000  0.000
  0.000  0.000  0.000  0.000  0.000
  0.000  0.000  0.000  0.000  0.000
  0.000  0.000  0.000  0.000  0.000
  0.000  0.000  0.000  0.000  0.000
atomic mag. moment =     5.000000
atom    7   Tr[ns(na)] (up, down, total) =   0.00000  5.00000  5.00000
   spin  1
    eigenvalues: 
  0.000  0.000  0.000  0.000  0.000
    eigenvectors:
  1.000  0.000  0.000  0.000  0.000
  0.000  1.000  0.000  0.000  0.000
  0.000  0.000  1.000  0.000  0.000
  0.000  0.000  0.000  1.000  0.000
  0.000  0.000  0.000  0.000  1.000
    occupations:
  0.000  0.000  0.000  0.000  0.000
  0.000  0.000  0.000  0.000  0.000
  0.000  0.000  0.000  0.000  0.000
  0.000  0.000  0.000  0.000  0.000
  0.000  0.000  0.000  0.000  0.000
   spin  2
    eigenvalues: 
  1.000  1.000  1.000  1.000  1.000
    eigenvectors:
  1.000  0.000  0.000  0.000  0.000
  0.000  1.000  0.000  0.000  0.000
  0.000  0.000  1.000  0.000  0.000
  0.000  0.000  0.000  1.000  0.000
  0.000  0.000  0.000  0.000  1.000
    occupations:
  1.000  0.000  0.000  0.000  0.000
  0.000  1.000  0.000  0.000  0.000
  0.000  0.000  1.000  0.000  0.000
  0.000  0.000  0.000  1.000  0.000
  0.000  0.000  0.000  0.000  1.000
atomic mag. moment =    -5.000000
atom    9   Tr[ns(na)] (up, down, total) =   5.00000  0.00000  5.00000
   spin  1
    eigenvalues: 
  1.000  1.000  1.000  1.000  1.000
    eigenvectors:
  1.000  0.000  0.000  0.000  0.000
  0.000  1.000  0.000  0.000  0.000
  0.000  0.000  1.000  0.000  0.000
  0.000  0.000  0.000  1.000  0.000
  0.000  0.000  0.000  0.000  1.000
    occupations:
  1.000  0.000  0.000  0.000  0.000
  0.000  1.000  0.000  0.000  0.000
  0.000  0.000  1.000  0.000  0.000
  0.000  0.000  0.000  1.000  0.000
  0.000  0.000  0.000  0.000  1.000
   spin  2
    eigenvalues: 
  0.000  0.000  0.000  0.000  0.000
    eigenvectors:
  1.000  0.000  0.000  0.000  0.000
  0.000  1.000  0.000  0.000  0.000
  0.000  0.000  1.000  0.000  0.000
  0.000  0.000  0.000  1.000  0.000
  0.000  0.000  0.000  0.000  1.000
    occupations:
  0.000  0.000  0.000  0.000  0.000
  0.000  0.000  0.000  0.000  0.000
  0.000  0.000  0.000  0.000  0.000
  0.000  0.000  0.000  0.000  0.000
  0.000  0.000  0.000  0.000  0.000
atomic mag. moment =     5.000000
atom   11   Tr[ns(na)] (up, down, total) =   0.00000  5.00000  5.00000
   spin  1
    eigenvalues: 
  0.000  0.000  0.000  0.000  0.000
    eigenvectors:
  1.000  0.000  0.000  0.000  0.000
  0.000  1.000  0.000  0.000  0.000
  0.000  0.000  1.000  0.000  0.000
  0.000  0.000  0.000  1.000  0.000
  0.000  0.000  0.000  0.000  1.000
    occupations:
  0.000  0.000  0.000  0.000  0.000
  0.000  0.000  0.000  0.000  0.000
  0.000  0.000  0.000  0.000  0.000
  0.000  0.000  0.000  0.000  0.000
  0.000  0.000  0.000  0.000  0.000
   spin  2
    eigenvalues: 
  1.000  1.000  1.000  1.000  1.000
    eigenvectors:
  1.000  0.000  0.000  0.000  0.000
  0.000  1.000  0.000  0.000  0.000
  0.000  0.000  1.000  0.000  0.000
  0.000  0.000  0.000  1.000  0.000
  0.000  0.000  0.000  0.000  1.000
    occupations:
  1.000  0.000  0.000  0.000  0.000
  0.000  1.000  0.000  0.000  0.000
  0.000  0.000  1.000  0.000  0.000
  0.000  0.000  0.000  1.000  0.000
  0.000  0.000  0.000  0.000  1.000
atomic mag. moment =    -5.000000
atom   13   Tr[ns(na)] (up, down, total) =   5.00000  0.00000  5.00000
   spin  1
    eigenvalues: 
  1.000  1.000  1.000  1.000  1.000
    eigenvectors:
  1.000  0.000  0.000  0.000  0.000
  0.000  1.000  0.000  0.000  0.000
  0.000  0.000  1.000  0.000  0.000
  0.000  0.000  0.000  1.000  0.000
  0.000  0.000  0.000  0.000  1.000
    occupations:
  1.000  0.000  0.000  0.000  0.000
  0.000  1.000  0.000  0.000  0.000
  0.000  0.000  1.000  0.000  0.000
  0.000  0.000  0.000  1.000  0.000
  0.000  0.000  0.000  0.000  1.000
   spin  2
    eigenvalues: 
  0.000  0.000  0.000  0.000  0.000
    eigenvectors:
  1.000  0.000  0.000  0.000  0.000
  0.000  1.000  0.000  0.000  0.000
  0.000  0.000  1.000  0.000  0.000
  0.000  0.000  0.000  1.000  0.000
  0.000  0.000  0.000  0.000  1.000
    occupations:
  0.000  0.000  0.000  0.000  0.000
  0.000  0.000  0.000  0.000  0.000
  0.000  0.000  0.000  0.000  0.000
  0.000  0.000  0.000  0.000  0.000
  0.000  0.000  0.000  0.000  0.000
atomic mag. moment =     5.000000
atom   15   Tr[ns(na)] (up, down, total) =   0.00000  5.00000  5.00000
   spin  1
    eigenvalues: 
  0.000  0.000  0.000  0.000  0.000
    eigenvectors:
  1.000  0.000  0.000  0.000  0.000
  0.000  1.000  0.000  0.000  0.000
  0.000  0.000  1.000  0.000  0.000
  0.000  0.000  0.000  1.000  0.000
  0.000  0.000  0.000  0.000  1.000
    occupations:
  0.000  0.000  0.000  0.000  0.000
  0.000  0.000  0.000  0.000  0.000
  0.000  0.000  0.000  0.000  0.000
  0.000  0.000  0.000  0.000  0.000
  0.000  0.000  0.000  0.000  0.000
   spin  2
    eigenvalues: 
  1.000  1.000  1.000  1.000  1.000
    eigenvectors:
  1.000  0.000  0.000  0.000  0.000
  0.000  1.000  0.000  0.000  0.000
  0.000  0.000  1.000  0.000  0.000
  0.000  0.000  0.000  1.000  0.000
  0.000  0.000  0.000  0.000  1.000
    occupations:
  1.000  0.000  0.000  0.000  0.000
  0.000  1.000  0.000  0.000  0.000
  0.000  0.000  1.000  0.000  0.000
  0.000  0.000  0.000  1.000  0.000
  0.000  0.000  0.000  0.000  1.000
atomic mag. moment =    -5.000000
N of occupied +U levels =   40.000000
 --- exit write_ns ---
 Atomic wfc used for LDA+U Projector are NOT orthogonalized
     Starting wfc are  136 randomized atomic wfcs

     total cpu time spent up to now is       55.9 secs

     per-process dynamical memory:   133.8 Mb

     Self-consistent Calculation

     iteration #  1     ecut=    41.00 Ry     beta=0.30
     Davidson diagonalization with overlap
     ethr =  1.00E-02,  avg # of iterations =  4.4
 --- enter write_ns ---
 LDA+U parameters:
U( 1)     =  3.00000000
alpha( 1) =  0.00000000
U( 2)     =  3.00000000
alpha( 2) =  0.00000000
atom    1   Tr[ns(na)] (up, down, total) =   4.99363  0.21866  5.21229
   spin  1
    eigenvalues: 
  0.998  0.998  0.999  0.999  0.999
    eigenvectors:
  0.001  0.003  0.002  0.994  0.000
  0.115  0.514  0.370  0.000  0.001
  0.137  0.482  0.375  0.006  0.000
  0.001  0.000  0.000  0.000  0.999
  0.747  0.000  0.253  0.000  0.000
    occupations:
  0.999  0.000 -0.000 -0.000 -0.000
  0.000  0.998  0.000 -0.000 -0.000
 -0.000  0.000  0.998 -0.000 -0.000
 -0.000 -0.000 -0.000  0.999 -0.000
 -0.000 -0.000 -0.000 -0.000  0.998
   spin  2
    eigenvalues: 
  0.026  0.026  0.027  0.067  0.072
    eigenvectors:
  0.000  0.000  0.001  0.079  0.920
  0.089  0.870  0.040  0.000  0.000
  0.006  0.054  0.940  0.000  0.001
  0.000  0.000  0.000  0.921  0.079
  0.905  0.076  0.019  0.000  0.000
    occupations:
  0.072 -0.000 -0.001  0.001 -0.001
 -0.000  0.026  0.000 -0.001 -0.000
 -0.001  0.000  0.027  0.000 -0.000
  0.001 -0.001  0.000  0.068 -0.000
 -0.001 -0.000 -0.000 -0.000  0.026
atomic mag. moment =     4.774977
atom    3   Tr[ns(na)] (up, down, total) =   0.19737  4.99426  5.19163
   spin  1
    eigenvalues: 
  0.023  0.024  0.025  0.060  0.065
    eigenvectors:
  0.000  0.000  0.000  0.911  0.088
  0.019  0.965  0.015  0.000  0.000
  0.980  0.019  0.001  0.000  0.000
  0.000  0.000  0.000  0.088  0.912
  0.000  0.016  0.984  0.000  0.000
    occupations:
  0.061 -0.000  0.001 -0.001  0.000
 -0.000  0.024  0.000  0.000 -0.000
  0.001  0.000  0.023  0.000 -0.000
 -0.001  0.000  0.000  0.064 -0.000
  0.000 -0.000 -0.000 -0.000  0.025
   spin  2
    eigenvalues: 
  0.998  0.998  0.998  0.999  1.000
    eigenvectors:
  0.005  0.002  0.010  0.287  0.695
  0.003  0.948  0.044  0.004  0.001
  0.945  0.000  0.046  0.005  0.004
  0.000  0.000  0.010  0.690  0.299
  0.047  0.050  0.890  0.013  0.000
    occupations:
  1.000  0.000  0.000  0.000 -0.000
  0.000  0.998  0.000 -0.000 -0.000
  0.000  0.000  0.998 -0.000 -0.000
  0.000 -0.000 -0.000  1.000  0.000
 -0.000 -0.000 -0.000  0.000  0.998
atomic mag. moment =    -4.796894
atom    5   Tr[ns(na)] (up, down, total) =   4.99429  0.20551  5.19980
   spin  1
    eigenvalues: 
  0.998  0.998  0.998  1.000  1.000
    eigenvectors:
  0.000  0.002  0.001  0.993  0.004
  0.338  0.367  0.293  0.002  0.000
  0.003  0.483  0.513  0.000  0.001
  0.000  0.000  0.002  0.004  0.993
  0.658  0.148  0.192  0.000  0.002
    occupations:
  1.000 -0.000  0.000 -0.000  0.000
 -0.000  0.998  0.000  0.000 -0.000
  0.000  0.000  0.998  0.000 -0.000
 -0.000  0.000  0.000  1.000 -0.000
  0.000 -0.000 -0.000 -0.000  0.998
   spin  2
    eigenvalues: 
  0.024  0.025  0.025  0.064  0.067
    eigenvectors:
  0.000  0.000  0.001  0.027  0.973
  0.010  0.843  0.147  0.000  0.000
  0.009  0.153  0.837  0.000  0.001
  0.000  0.000  0.000  0.973  0.027
  0.981  0.003  0.016  0.000  0.000
    occupations:
  0.067 -0.000  0.001  0.000 -0.000
 -0.000  0.025  0.000 -0.000 -0.000
  0.001  0.000  0.025  0.001 -0.000
  0.000 -0.000  0.001  0.064 -0.000
 -0.000 -0.000 -0.000 -0.000  0.024
atomic mag. moment =     4.788778
atom    7   Tr[ns(na)] (up, down, total) =   0.20978  4.99406  5.20383
   spin  1
    eigenvalues: 
  0.025  0.025  0.026  0.065  0.068
    eigenvectors:
  0.001  0.000  0.000  0.977  0.021
  0.114  0.851  0.035  0.000  0.000
  0.864  0.087  0.047  0.001  0.000
  0.000  0.000  0.000  0.021  0.978
  0.021  0.061  0.917  0.000  0.000
    occupations:
  0.065 -0.000 -0.001 -0.000 -0.001
 -0.000  0.025  0.000 -0.000 -0.000
 -0.001  0.000  0.025 -0.000 -0.000
 -0.000 -0.000 -0.000  0.068  0.000
 -0.001 -0.000 -0.000  0.000  0.026
   spin  2
    eigenvalues: 
  0.998  0.998  0.998  0.999  1.000
    eigenvectors:
  0.001  0.001  0.000  0.064  0.934
  0.356  0.241  0.402  0.000  0.000
  0.640  0.109  0.249  0.000  0.001
  0.001  0.002  0.003  0.929  0.065
  0.001  0.646  0.346  0.006  0.000
    occupations:
  1.000  0.000 -0.000  0.000 -0.000
  0.000  0.998  0.000  0.000 -0.000
 -0.000  0.000  0.998 -0.000 -0.000
  0.000  0.000 -0.000  0.999  0.000
 -0.000 -0.000 -0.000  0.000  0.998
atomic mag. moment =    -4.784276
atom    9   Tr[ns(na)] (up, down, total) =   4.99384  0.20836  5.20220
   spin  1
    eigenvalues: 
  0.998  0.998  0.998  0.999  1.000
    eigenvectors:
  0.006  0.001  0.001  0.291  0.701
  0.823  0.015  0.129  0.032  0.001
  0.030  0.545  0.418  0.007  0.000
  0.027  0.008  0.003  0.664  0.298
  0.115  0.430  0.448  0.006  0.001
    occupations:
  1.000  0.000  0.000 -0.000  0.000
  0.000  0.998  0.000  0.000 -0.000
  0.000  0.000  0.998  0.000 -0.000
 -0.000  0.000  0.000  0.999  0.000
  0.000 -0.000 -0.000  0.000  0.998
   spin  2
    eigenvalues: 
  0.024  0.026  0.026  0.062  0.070
    eigenvectors:
  0.000  0.001  0.000  0.772  0.226
  0.983  0.001  0.016  0.001  0.000
  0.015  0.339  0.646  0.000  0.000
  0.000  0.000  0.000  0.226  0.774
  0.002  0.658  0.339  0.001  0.000
    occupations:
  0.064 -0.001 -0.001  0.003 -0.001
 -0.001  0.024  0.000  0.001 -0.000
 -0.001  0.000  0.026 -0.000 -0.000
  0.003  0.001 -0.000  0.068  0.001
 -0.001 -0.000 -0.000  0.001  0.026
atomic mag. moment =     4.785478
atom   11   Tr[ns(na)] (up, down, total) =   0.20812  4.99379  5.20192
   spin  1
    eigenvalues: 
  0.025  0.025  0.026  0.063  0.070
    eigenvectors:
  0.000  0.000  0.000  0.213  0.787
  0.003  0.015  0.981  0.001  0.000
  0.520  0.477  0.002  0.000  0.000
  0.000  0.001  0.001  0.786  0.212
  0.477  0.507  0.016  0.000  0.000
    occupations:
  0.068  0.000  0.000 -0.003  0.000
  0.000  0.026  0.000 -0.001 -0.000
  0.000  0.000  0.025  0.001 -0.000
 -0.003 -0.001  0.001  0.064 -0.001
  0.000 -0.000 -0.000 -0.001  0.025
   spin  2
    eigenvalues: 
  0.998  0.998  0.998  0.999  0.999
    eigenvectors:
  0.004  0.001  0.000  0.528  0.467
  0.038  0.195  0.765  0.001  0.001
  0.154  0.728  0.117  0.000  0.000
  0.006  0.002  0.003  0.458  0.531
  0.797  0.074  0.115  0.014  0.001
    occupations:
  0.999  0.000 -0.000 -0.000  0.000
  0.000  0.998  0.000 -0.000 -0.000
 -0.000  0.000  0.998 -0.000 -0.000
 -0.000 -0.000 -0.000  0.999  0.000
  0.000 -0.000 -0.000  0.000  0.998
atomic mag. moment =    -4.785669
atom   13   Tr[ns(na)] (up, down, total) =   4.99391  0.20146  5.19537
   spin  1
    eigenvalues: 
  0.998  0.998  0.998  0.999  1.000
    eigenvectors:
  0.003  0.000  0.001  0.987  0.009
  0.082  0.151  0.767  0.001  0.000
  0.177  0.755  0.060  0.002  0.006
  0.002  0.004  0.000  0.009  0.984
  0.736  0.091  0.172  0.001  0.000
    occupations:
  0.999  0.000  0.000 -0.000  0.000
  0.000  0.998  0.000 -0.000 -0.000
  0.000  0.000  0.998 -0.000 -0.000
 -0.000 -0.000 -0.000  1.000 -0.000
  0.000 -0.000 -0.000 -0.000  0.998
   spin  2
    eigenvalues: 
  0.024  0.025  0.025  0.061  0.066
    eigenvectors:
  0.000  0.000  0.001  0.142  0.857
  0.000  0.030  0.969  0.000  0.000
  0.120  0.856  0.024  0.000  0.000
  0.001  0.000  0.000  0.857  0.142
  0.878  0.115  0.006  0.001  0.000
    occupations:
  0.066 -0.001 -0.000 -0.002 -0.000
 -0.001  0.025  0.000 -0.000 -0.000
 -0.000  0.000  0.025 -0.000 -0.000
 -0.002 -0.000 -0.000  0.062 -0.001
 -0.000 -0.000 -0.000 -0.001  0.024
atomic mag. moment =     4.792453
atom   15   Tr[ns(na)] (up, down, total) =   0.21652  4.99354  5.21007
   spin  1
    eigenvalues: 
  0.025  0.026  0.027  0.066  0.072
    eigenvectors:
  0.000  0.000  0.000  0.793  0.207
  0.951  0.001  0.047  0.000  0.000
  0.020  0.729  0.250  0.001  0.000
  0.000  0.002  0.000  0.206  0.792
  0.028  0.267  0.703  0.001  0.000
    occupations:
  0.067  0.000 -0.001  0.002 -0.001
  0.000  0.025  0.000 -0.001 -0.000
 -0.001  0.000  0.027  0.001 -0.000
  0.002 -0.001  0.001  0.070  0.001
 -0.001 -0.000 -0.000  0.001  0.027
   spin  2
    eigenvalues: 
  0.998  0.998  0.998  0.999  0.999
    eigenvectors:
  0.005  0.000  0.011  0.296  0.688
  0.805  0.007  0.175  0.007  0.006
  0.087  0.700  0.212  0.001  0.001
  0.002  0.001  0.001  0.697  0.300
  0.101  0.293  0.602  0.000  0.004
    occupations:
  0.999  0.000  0.000 -0.000 -0.000
  0.000  0.998  0.000  0.000 -0.000
  0.000  0.000  0.998 -0.000 -0.000
 -0.000  0.000 -0.000  0.999  0.000
 -0.000 -0.000 -0.000  0.000  0.998
atomic mag. moment =    -4.777019
N of occupied +U levels =   41.617119
 --- exit write_ns ---

     negative rho (up, down):  1.074E-04 3.967E-04

     Magnetic moment per site:
     atom:    1    charge:   12.6591    magn:   10.1120    constr:    0.0000
     atom:    2    charge:    5.5680    magn:    0.0032    constr:    0.0000
     atom:    3    charge:   12.6275    magn:  -10.0930    constr:    0.0000
     atom:    4    charge:    5.5693    magn:    0.0106    constr:    0.0000
     atom:    5    charge:   12.6521    magn:   10.1102    constr:    0.0000
     atom:    6    charge:    5.5701    magn:    0.0004    constr:    0.0000
     atom:    7    charge:   12.6338    magn:  -10.0950    constr:    0.0000
     atom:    8    charge:    5.5700    magn:   -0.0054    constr:    0.0000
     atom:    9    charge:   12.6536    magn:   10.1103    constr:    0.0000
     atom:   10    charge:    5.5609    magn:   -0.0090    constr:    0.0000
     atom:   11    charge:   12.6327    magn:  -10.0942    constr:    0.0000
     atom:   12    charge:    5.5783    magn:    0.0124    constr:    0.0000
     atom:   13    charge:   12.6502    magn:   10.1087    constr:    0.0000
     atom:   14    charge:    5.5644    magn:   -0.0086    constr:    0.0000
     atom:   15    charge:   12.6373    magn:  -10.0957    constr:    0.0000
     atom:   16    charge:    5.5723    magn:   -0.0010    constr:    0.0000

     total cpu time spent up to now is      211.8 secs

     total energy              =   -1937.89698793 Ry
     Harris-Foulkes estimate   =   -1921.77511377 Ry
     estimated scf accuracy    <      25.38200635 Ry

     total magnetization       =    -0.00 Bohr mag/cell
     absolute magnetization    =    40.64 Bohr mag/cell

     iteration #  2     ecut=    41.00 Ry     beta=0.30
     Davidson diagonalization with overlap
     ethr =  1.00E-02,  avg # of iterations =  1.0

     negative rho (up, down):  5.707E-04 1.528E-03

     Magnetic moment per site:
     atom:    1    charge:   12.5476    magn:    4.4280    constr:    0.0000
     atom:    2    charge:    5.7891    magn:   -0.0077    constr:    0.0000
     atom:    3    charge:   12.5200    magn:   -4.4103    constr:    0.0000
     atom:    4    charge:    5.7906    magn:   -0.0086    constr:    0.0000
     atom:    5    charge:   12.5425    magn:    4.4237    constr:    0.0000
     atom:    6    charge:    5.7913    magn:    0.0031    constr:    0.0000
     atom:    7    charge:   12.5247    magn:   -4.4155    constr:    0.0000
     atom:    8    charge:    5.7918    magn:    0.0019    constr:    0.0000
     atom:    9    charge:   12.5436    magn:    4.4240    constr:    0.0000
     atom:   10    charge:    5.7813    magn:    0.0002    constr:    0.0000
     atom:   11    charge:   12.5237    magn:   -4.4138    constr:    0.0000
     atom:   12    charge:    5.8006    magn:   -0.0010    constr:    0.0000
     atom:   13    charge:   12.5412    magn:    4.4201    constr:    0.0000
     atom:   14    charge:    5.7851    magn:    0.0073    constr:    0.0000
     atom:   15    charge:   12.5272    magn:   -4.4170    constr:    0.0000
     atom:   16    charge:    5.7937    magn:    0.0056    constr:    0.0000

     total cpu time spent up to now is      308.5 secs

     total energy              =   -1945.58051492 Ry
     Harris-Foulkes estimate   =   -1938.16642352 Ry
     estimated scf accuracy    <      12.61658481 Ry

     total magnetization       =     0.00 Bohr mag/cell
     absolute magnetization    =    40.21 Bohr mag/cell

     iteration #  3     ecut=    41.00 Ry     beta=0.30
     Davidson diagonalization with overlap
     ethr =  7.51E-03,  avg # of iterations =  3.9

     negative rho (up, down):  6.053E-04 1.606E-03

     Magnetic moment per site:
     atom:    1    charge:   12.4732    magn:    4.2067    constr:    0.0000
     atom:    2    charge:    5.7508    magn:   -0.0081    constr:    0.0000
     atom:    3    charge:   12.4419    magn:   -4.1972    constr:    0.0000
     atom:    4    charge:    5.7527    magn:   -0.0055    constr:    0.0000
     atom:    5    charge:   12.4654    magn:    4.2088    constr:    0.0000
     atom:    6    charge:    5.7529    magn:    0.0045    constr:    0.0000
     atom:    7    charge:   12.4485    magn:   -4.1986    constr:    0.0000
     atom:    8    charge:    5.7534    magn:   -0.0008    constr:    0.0000
     atom:    9    charge:   12.4671    magn:    4.2075    constr:    0.0000
     atom:   10    charge:    5.7425    magn:   -0.0051    constr:    0.0000
     atom:   11    charge:   12.4474    magn:   -4.1969    constr:    0.0000
     atom:   12    charge:    5.7629    magn:    0.0045    constr:    0.0000
     atom:   13    charge:   12.4636    magn:    4.2048    constr:    0.0000
     atom:   14    charge:    5.7469    magn:    0.0055    constr:    0.0000
     atom:   15    charge:   12.4526    magn:   -4.1956    constr:    0.0000
     atom:   16    charge:    5.7559    magn:    0.0045    constr:    0.0000

     total cpu time spent up to now is      461.2 secs

     total energy              =   -1946.14511361 Ry
     Harris-Foulkes estimate   =   -1946.28938777 Ry
     estimated scf accuracy    <       0.41389927 Ry

     total magnetization       =    -0.00 Bohr mag/cell
     absolute magnetization    =    37.91 Bohr mag/cell

     iteration #  4     ecut=    41.00 Ry     beta=0.30
     Davidson diagonalization with overlap
     ethr =  2.46E-04,  avg # of iterations =  6.9

     negative rho (up, down):  6.322E-04 1.641E-03

     Magnetic moment per site:
     atom:    1    charge:   12.4673    magn:    4.0963    constr:    0.0000
     atom:    2    charge:    5.7623    magn:   -0.0079    constr:    0.0000
     atom:    3    charge:   12.4359    magn:   -4.0876    constr:    0.0000
     atom:    4    charge:    5.7641    magn:   -0.0049    constr:    0.0000
     atom:    5    charge:   12.4594    magn:    4.0986    constr:    0.0000
     atom:    6    charge:    5.7644    magn:    0.0046    constr:    0.0000
     atom:    7    charge:   12.4427    magn:   -4.0885    constr:    0.0000
     atom:    8    charge:    5.7649    magn:   -0.0010    constr:    0.0000
     atom:    9    charge:   12.4611    magn:    4.0973    constr:    0.0000
     atom:   10    charge:    5.7541    magn:   -0.0056    constr:    0.0000
     atom:   11    charge:   12.4415    magn:   -4.0869    constr:    0.0000
     atom:   12    charge:    5.7743    magn:    0.0050    constr:    0.0000
     atom:   13    charge:   12.4576    magn:    4.0949    constr:    0.0000
     atom:   14    charge:    5.7584    magn:    0.0051    constr:    0.0000
     atom:   15    charge:   12.4467    magn:   -4.0855    constr:    0.0000
     atom:   16    charge:    5.7673    magn:    0.0044    constr:    0.0000

     total cpu time spent up to now is      718.6 secs

     total energy              =   -1946.25121142 Ry
     Harris-Foulkes estimate   =   -1946.25889534 Ry
     estimated scf accuracy    <       0.03236845 Ry

     total magnetization       =    -0.00 Bohr mag/cell
     absolute magnetization    =    37.72 Bohr mag/cell

     iteration #  5     ecut=    41.00 Ry     beta=0.30
     Davidson diagonalization with overlap
     ethr =  1.93E-05,  avg # of iterations =  3.7

     negative rho (up, down):  6.560E-04 1.658E-03

     Magnetic moment per site:
     atom:    1    charge:   12.4420    magn:    4.1368    constr:    0.0000
     atom:    2    charge:    5.7658    magn:   -0.0061    constr:    0.0000
     atom:    3    charge:   12.4092    magn:   -4.1314    constr:    0.0000
     atom:    4    charge:    5.7677    magn:   -0.0008    constr:    0.0000
     atom:    5    charge:   12.4332    magn:    4.1410    constr:    0.0000
     atom:    6    charge:    5.7679    magn:    0.0053    constr:    0.0000
     atom:    7    charge:   12.4168    magn:   -4.1307    constr:    0.0000
     atom:    8    charge:    5.7686    magn:   -0.0028    constr:    0.0000
     atom:    9    charge:   12.4351    magn:    4.1395    constr:    0.0000
     atom:   10    charge:    5.7577    magn:   -0.0090    constr:    0.0000
     atom:   11    charge:   12.4155    magn:   -4.1295    constr:    0.0000
     atom:   12    charge:    5.7778    magn:    0.0091    constr:    0.0000
     atom:   13    charge:   12.4312    magn:    4.1376    constr:    0.0000
     atom:   14    charge:    5.7619    magn:    0.0022    constr:    0.0000
     atom:   15    charge:   12.4213    magn:   -4.1269    constr:    0.0000
     atom:   16    charge:    5.7708    magn:    0.0032    constr:    0.0000

     total cpu time spent up to now is      869.2 secs

     total energy              =   -1946.25393299 Ry
     Harris-Foulkes estimate   =   -1946.25422772 Ry
     estimated scf accuracy    <       0.00841268 Ry

     total magnetization       =    -0.00 Bohr mag/cell
     absolute magnetization    =    37.61 Bohr mag/cell

     iteration #  6     ecut=    41.00 Ry     beta=0.30
     Davidson diagonalization with overlap
     ethr =  5.01E-06,  avg # of iterations =  4.8

     negative rho (up, down):  6.466E-04 1.650E-03

     Magnetic moment per site:
     atom:    1    charge:   12.4381    magn:    4.1443    constr:    0.0000
     atom:    2    charge:    5.7656    magn:   -0.0057    constr:    0.0000
     atom:    3    charge:   12.4048    magn:   -4.1394    constr:    0.0000
     atom:    4    charge:    5.7676    magn:    0.0002    constr:    0.0000
     atom:    5    charge:   12.4290    magn:    4.1487    constr:    0.0000
     atom:    6    charge:    5.7678    magn:    0.0054    constr:    0.0000
     atom:    7    charge:   12.4128    magn:   -4.1383    constr:    0.0000
     atom:    8    charge:    5.7684    magn:   -0.0034    constr:    0.0000
     atom:    9    charge:   12.4310    magn:    4.1471    constr:    0.0000
     atom:   10    charge:    5.7575    magn:   -0.0099    constr:    0.0000
     atom:   11    charge:   12.4114    magn:   -4.1372    constr:    0.0000
     atom:   12    charge:    5.7777    magn:    0.0100    constr:    0.0000
     atom:   13    charge:   12.4269    magn:    4.1455    constr:    0.0000
     atom:   14    charge:    5.7618    magn:    0.0014    constr:    0.0000
     atom:   15    charge:   12.4174    magn:   -4.1344    constr:    0.0000
     atom:   16    charge:    5.7706    magn:    0.0028    constr:    0.0000

     total cpu time spent up to now is     1067.5 secs

     total energy              =   -1946.25547898 Ry
     Harris-Foulkes estimate   =   -1946.25548145 Ry
     estimated scf accuracy    <       0.00043877 Ry

     total magnetization       =    -0.00 Bohr mag/cell
     absolute magnetization    =    37.52 Bohr mag/cell

     iteration #  7     ecut=    41.00 Ry     beta=0.30
     Davidson diagonalization with overlap
     ethr =  2.61E-07,  avg # of iterations =  1.4

     negative rho (up, down):  6.321E-04 1.640E-03

     Magnetic moment per site:
     atom:    1    charge:   12.4366    magn:    4.1334    constr:    0.0000
     atom:    2    charge:    5.7653    magn:   -0.0055    constr:    0.0000
     atom:    3    charge:   12.4030    magn:   -4.1286    constr:    0.0000
     atom:    4    charge:    5.7673    magn:    0.0006    constr:    0.0000
     atom:    5    charge:   12.4273    magn:    4.1377    constr:    0.0000
     atom:    6    charge:    5.7675    magn:    0.0054    constr:    0.0000
     atom:    7    charge:   12.4112    magn:   -4.1273    constr:    0.0000
     atom:    8    charge:    5.7682    magn:   -0.0037    constr:    0.0000
     atom:    9    charge:   12.4294    magn:    4.1361    constr:    0.0000
     atom:   10    charge:    5.7572    magn:   -0.0104    constr:    0.0000
     atom:   11    charge:   12.4098    magn:   -4.1263    constr:    0.0000
     atom:   12    charge:    5.7775    magn:    0.0104    constr:    0.0000
     atom:   13    charge:   12.4251    magn:    4.1347    constr:    0.0000
     atom:   14    charge:    5.7615    magn:    0.0010    constr:    0.0000
     atom:   15    charge:   12.4159    magn:   -4.1235    constr:    0.0000
     atom:   16    charge:    5.7704    magn:    0.0026    constr:    0.0000

     total cpu time spent up to now is     1170.8 secs

     total energy              =   -1946.25551251 Ry
     Harris-Foulkes estimate   =   -1946.25550588 Ry
     estimated scf accuracy    <       0.00009617 Ry

     total magnetization       =    -0.00 Bohr mag/cell
     absolute magnetization    =    37.51 Bohr mag/cell

     iteration #  8     ecut=    41.00 Ry     beta=0.30
     Davidson diagonalization with overlap
     ethr =  5.72E-08,  avg # of iterations =  3.1

     negative rho (up, down):  6.185E-04 1.630E-03

     Magnetic moment per site:
     atom:    1    charge:   12.4369    magn:    4.1326    constr:    0.0000
     atom:    2    charge:    5.7649    magn:   -0.0053    constr:    0.0000
     atom:    3    charge:   12.4031    magn:   -4.1278    constr:    0.0000
     atom:    4    charge:    5.7669    magn:    0.0008    constr:    0.0000
     atom:    5    charge:   12.4275    magn:    4.1368    constr:    0.0000
     atom:    6    charge:    5.7671    magn:    0.0054    constr:    0.0000
     atom:    7    charge:   12.4114    magn:   -4.1264    constr:    0.0000
     atom:    8    charge:    5.7677    magn:   -0.0038    constr:    0.0000
     atom:    9    charge:   12.4296    magn:    4.1352    constr:    0.0000
     atom:   10    charge:    5.7567    magn:   -0.0105    constr:    0.0000
     atom:   11    charge:   12.4101    magn:   -4.1254    constr:    0.0000
     atom:   12    charge:    5.7771    magn:    0.0106    constr:    0.0000
     atom:   13    charge:   12.4253    magn:    4.1338    constr:    0.0000
     atom:   14    charge:    5.7610    magn:    0.0009    constr:    0.0000
     atom:   15    charge:   12.4162    magn:   -4.1226    constr:    0.0000
     atom:   16    charge:    5.7700    magn:    0.0024    constr:    0.0000

     total cpu time spent up to now is     1320.5 secs

     total energy              =   -1946.25552751 Ry
     Harris-Foulkes estimate   =   -1946.25552837 Ry
     estimated scf accuracy    <       0.00000785 Ry

     total magnetization       =    -0.00 Bohr mag/cell
     absolute magnetization    =    37.50 Bohr mag/cell

     iteration #  9     ecut=    41.00 Ry     beta=0.30
     Davidson diagonalization with overlap
     ethr =  4.68E-09,  avg # of iterations =  3.0

     negative rho (up, down):  6.073E-04 1.621E-03

     Magnetic moment per site:
     atom:    1    charge:   12.4369    magn:    4.1327    constr:    0.0000
     atom:    2    charge:    5.7647    magn:   -0.0052    constr:    0.0000
     atom:    3    charge:   12.4029    magn:   -4.1280    constr:    0.0000
     atom:    4    charge:    5.7667    magn:    0.0011    constr:    0.0000
     atom:    5    charge:   12.4274    magn:    4.1369    constr:    0.0000
     atom:    6    charge:    5.7669    magn:    0.0054    constr:    0.0000
     atom:    7    charge:   12.4113    magn:   -4.1265    constr:    0.0000
     atom:    8    charge:    5.7676    magn:   -0.0040    constr:    0.0000
     atom:    9    charge:   12.4295    magn:    4.1353    constr:    0.0000
     atom:   10    charge:    5.7566    magn:   -0.0108    constr:    0.0000
     atom:   11    charge:   12.4100    magn:   -4.1255    constr:    0.0000
     atom:   12    charge:    5.7769    magn:    0.0108    constr:    0.0000
     atom:   13    charge:   12.4251    magn:    4.1340    constr:    0.0000
     atom:   14    charge:    5.7609    magn:    0.0006    constr:    0.0000
     atom:   15    charge:   12.4162    magn:   -4.1227    constr:    0.0000
     atom:   16    charge:    5.7698    magn:    0.0023    constr:    0.0000

     total cpu time spent up to now is     1484.5 secs

     total energy              =   -1946.25552962 Ry
     Harris-Foulkes estimate   =   -1946.25552988 Ry
     estimated scf accuracy    <       0.00000277 Ry

     total magnetization       =    -0.00 Bohr mag/cell
     absolute magnetization    =    37.50 Bohr mag/cell

     iteration # 10     ecut=    41.00 Ry     beta=0.30
     Davidson diagonalization with overlap
     ethr =  1.65E-09,  avg # of iterations =  2.2

     negative rho (up, down):  6.086E-04 1.622E-03

     Magnetic moment per site:
     atom:    1    charge:   12.4369    magn:    4.1329    constr:    0.0000
     atom:    2    charge:    5.7647    magn:   -0.0052    constr:    0.0000
     atom:    3    charge:   12.4029    magn:   -4.1281    constr:    0.0000
     atom:    4    charge:    5.7667    magn:    0.0011    constr:    0.0000
     atom:    5    charge:   12.4274    magn:    4.1370    constr:    0.0000
     atom:    6    charge:    5.7669    magn:    0.0054    constr:    0.0000
     atom:    7    charge:   12.4113    magn:   -4.1266    constr:    0.0000
     atom:    8    charge:    5.7676    magn:   -0.0040    constr:    0.0000
     atom:    9    charge:   12.4295    magn:    4.1355    constr:    0.0000
     atom:   10    charge:    5.7566    magn:   -0.0108    constr:    0.0000
     atom:   11    charge:   12.4100    magn:   -4.1256    constr:    0.0000
     atom:   12    charge:    5.7769    magn:    0.0108    constr:    0.0000
     atom:   13    charge:   12.4251    magn:    4.1342    constr:    0.0000
     atom:   14    charge:    5.7609    magn:    0.0006    constr:    0.0000
     atom:   15    charge:   12.4162    magn:   -4.1228    constr:    0.0000
     atom:   16    charge:    5.7698    magn:    0.0022    constr:    0.0000

     total cpu time spent up to now is     1620.1 secs

     total energy              =   -1946.25553033 Ry
     Harris-Foulkes estimate   =   -1946.25553010 Ry
     estimated scf accuracy    <       0.00000008 Ry

     total magnetization       =    -0.00 Bohr mag/cell
     absolute magnetization    =    37.50 Bohr mag/cell

     iteration # 11     ecut=    41.00 Ry     beta=0.30
     Davidson diagonalization with overlap
     ethr =  4.97E-11,  avg # of iterations =  2.6

     negative rho (up, down):  6.104E-04 1.623E-03

     Magnetic moment per site:
     atom:    1    charge:   12.4369    magn:    4.1329    constr:    0.0000
     atom:    2    charge:    5.7647    magn:   -0.0051    constr:    0.0000
     atom:    3    charge:   12.4029    magn:   -4.1280    constr:    0.0000
     atom:    4    charge:    5.7667    magn:    0.0012    constr:    0.0000
     atom:    5    charge:   12.4273    magn:    4.1370    constr:    0.0000
     atom:    6    charge:    5.7669    magn:    0.0054    constr:    0.0000
     atom:    7    charge:   12.4113    magn:   -4.1266    constr:    0.0000
     atom:    8    charge:    5.7676    magn:   -0.0040    constr:    0.0000
     atom:    9    charge:   12.4295    magn:    4.1355    constr:    0.0000
     atom:   10    charge:    5.7566    magn:   -0.0108    constr:    0.0000
     atom:   11    charge:   12.4099    magn:   -4.1256    constr:    0.0000
     atom:   12    charge:    5.7769    magn:    0.0108    constr:    0.0000
     atom:   13    charge:   12.4251    magn:    4.1341    constr:    0.0000
     atom:   14    charge:    5.7609    magn:    0.0006    constr:    0.0000
     atom:   15    charge:   12.4162    magn:   -4.1228    constr:    0.0000
     atom:   16    charge:    5.7698    magn:    0.0022    constr:    0.0000

     total cpu time spent up to now is     1757.0 secs

     total energy              =   -1946.25553043 Ry
     Harris-Foulkes estimate   =   -1946.25553034 Ry
     estimated scf accuracy    <       0.00000005 Ry

     total magnetization       =    -0.00 Bohr mag/cell
     absolute magnetization    =    37.50 Bohr mag/cell

     iteration # 12     ecut=    41.00 Ry     beta=0.30
     Davidson diagonalization with overlap
     ethr =  3.19E-11,  avg # of iterations =  3.0

     negative rho (up, down):  6.097E-04 1.623E-03

     Magnetic moment per site:
     atom:    1    charge:   12.4369    magn:    4.1329    constr:    0.0000
     atom:    2    charge:    5.7647    magn:   -0.0051    constr:    0.0000
     atom:    3    charge:   12.4029    magn:   -4.1280    constr:    0.0000
     atom:    4    charge:    5.7667    magn:    0.0012    constr:    0.0000
     atom:    5    charge:   12.4274    magn:    4.1370    constr:    0.0000
     atom:    6    charge:    5.7669    magn:    0.0054    constr:    0.0000
     atom:    7    charge:   12.4113    magn:   -4.1266    constr:    0.0000
     atom:    8    charge:    5.7676    magn:   -0.0040    constr:    0.0000
     atom:    9    charge:   12.4295    magn:    4.1355    constr:    0.0000
     atom:   10    charge:    5.7566    magn:   -0.0108    constr:    0.0000
     atom:   11    charge:   12.4100    magn:   -4.1256    constr:    0.0000
     atom:   12    charge:    5.7769    magn:    0.0108    constr:    0.0000
     atom:   13    charge:   12.4251    magn:    4.1341    constr:    0.0000
     atom:   14    charge:    5.7609    magn:    0.0006    constr:    0.0000
     atom:   15    charge:   12.4162    magn:   -4.1228    constr:    0.0000
     atom:   16    charge:    5.7698    magn:    0.0022    constr:    0.0000

     total cpu time spent up to now is     1905.8 secs

     End of self-consistent calculation
 --- enter write_ns ---
 LDA+U parameters:
U( 1)     =  3.00000000
alpha( 1) =  0.00000000
U( 2)     =  3.00000000
alpha( 2) =  0.00000000
atom    1   Tr[ns(na)] (up, down, total) =   4.98001  0.53374  5.51375
   spin  1
    eigenvalues: 
  0.994  0.995  0.997  0.997  0.997
    eigenvectors:
  0.887  0.036  0.026  0.009  0.041
  0.027  0.040  0.084  0.042  0.807
  0.010  0.110  0.008  0.789  0.083
  0.040  0.814  0.003  0.125  0.019
  0.037  0.000  0.879  0.035  0.050
    occupations:
  0.995 -0.000 -0.000 -0.000 -0.000
 -0.000  0.997  0.000 -0.000 -0.000
 -0.000  0.000  0.997  0.000 -0.000
 -0.000 -0.000  0.000  0.996 -0.000
 -0.000 -0.000 -0.000 -0.000  0.997
   spin  2
    eigenvalues: 
  0.059  0.061  0.064  0.169  0.181
    eigenvectors:
  0.000  0.000  0.000  0.079  0.920
  0.111  0.871  0.018  0.000  0.000
  0.017  0.009  0.973  0.001  0.000
  0.000  0.000  0.001  0.920  0.079
  0.872  0.119  0.008  0.000  0.000
    occupations:
  0.180  0.001 -0.001  0.003  0.003
  0.001  0.061 -0.000  0.002  0.000
 -0.001 -0.000  0.064 -0.003  0.000
  0.003  0.002 -0.003  0.170 -0.000
  0.003  0.000  0.000 -0.000  0.060
atomic mag. moment =     4.446266
atom    3   Tr[ns(na)] (up, down, total) =   0.50880  4.98475  5.49355
   spin  1
    eigenvalues: 
  0.056  0.058  0.060  0.161  0.173
    eigenvectors:
  0.001  0.000  0.003  0.914  0.082
  0.078  0.863  0.057  0.001  0.001
  0.876  0.101  0.021  0.001  0.001
  0.000  0.002  0.000  0.083  0.915
  0.045  0.034  0.919  0.002  0.000
    occupations:
  0.162  0.002  0.004 -0.003  0.004
  0.002  0.059 -0.001  0.004  0.001
  0.004 -0.001  0.057 -0.003  0.001
 -0.003  0.004 -0.003  0.172  0.000
  0.004  0.001  0.001  0.000  0.060
   spin  2
    eigenvalues: 
  0.996  0.997  0.997  0.997  0.998
    eigenvectors:
  0.150  0.023  0.138  0.046  0.643
  0.225  0.018  0.392  0.328  0.036
  0.001  0.695  0.068  0.205  0.031
  0.428  0.182  0.027  0.273  0.089
  0.196  0.082  0.374  0.147  0.201
    occupations:
  0.997  0.000  0.000  0.000 -0.000
  0.000  0.997 -0.000 -0.000  0.000
  0.000 -0.000  0.997  0.000  0.000
  0.000 -0.000  0.000  0.997  0.000
 -0.000  0.000  0.000  0.000  0.997
atomic mag. moment =    -4.475947
atom    5   Tr[ns(na)] (up, down, total) =   4.98329  0.51722  5.50050
   spin  1
    eigenvalues: 
  0.996  0.996  0.997  0.997  0.997
    eigenvectors:
  0.751  0.005  0.000  0.239  0.005
  0.098  0.020  0.343  0.356  0.183
  0.043  0.330  0.028  0.127  0.471
  0.016  0.631  0.016  0.001  0.335
  0.092  0.013  0.613  0.277  0.006
    occupations:
  0.996 -0.000 -0.000 -0.000 -0.000
 -0.000  0.997 -0.000 -0.000  0.000
 -0.000 -0.000  0.997  0.000  0.000
 -0.000 -0.000  0.000  0.997 -0.000
 -0.000  0.000  0.000 -0.000  0.997
   spin  2
    eigenvalues: 
  0.057  0.060  0.060  0.166  0.174
    eigenvectors:
  0.000  0.002  0.001  0.034  0.962
  0.091  0.544  0.364  0.001  0.000
  0.071  0.293  0.633  0.001  0.002
  0.000  0.000  0.001  0.964  0.034
  0.838  0.160  0.001  0.000  0.001
    occupations:
  0.173  0.002  0.005  0.001  0.004
  0.002  0.060 -0.000  0.003  0.001
  0.005 -0.000  0.060 -0.002  0.001
  0.001  0.003 -0.002  0.167 -0.001
  0.004  0.001  0.001 -0.001  0.058
atomic mag. moment =     4.466069
atom    7   Tr[ns(na)] (up, down, total) =   0.52283  4.98229  5.50513
   spin  1
    eigenvalues: 
  0.058  0.060  0.061  0.168  0.175
    eigenvectors:
  0.000  0.000  0.001  0.970  0.029
  0.354  0.597  0.048  0.000  0.000
  0.612  0.383  0.004  0.000  0.001
  0.000  0.002  0.000  0.028  0.970
  0.033  0.019  0.947  0.001  0.000
    occupations:
  0.168  0.002 -0.002 -0.001  0.003
  0.002  0.060 -0.001  0.003  0.001
 -0.002 -0.001  0.059 -0.004  0.000
 -0.001  0.003 -0.004  0.175  0.001
  0.003  0.001  0.000  0.001  0.061
   spin  2
    eigenvalues: 
  0.996  0.996  0.997  0.997  0.997
    eigenvectors:
  0.078  0.692  0.003  0.041  0.187
  0.065  0.065  0.188  0.682  0.000
  0.055  0.001  0.694  0.124  0.126
  0.782  0.061  0.004  0.145  0.008
  0.020  0.181  0.112  0.008  0.679
    occupations:
  0.996 -0.000 -0.000  0.000 -0.000
 -0.000  0.997  0.000 -0.000 -0.000
 -0.000  0.000  0.997  0.000  0.000
  0.000 -0.000  0.000  0.996  0.000
 -0.000 -0.000  0.000  0.000  0.997
atomic mag. moment =    -4.459462
atom    9   Tr[ns(na)] (up, down, total) =   4.98237  0.52116  5.50352
   spin  1
    eigenvalues: 
  0.995  0.996  0.997  0.997  0.997
    eigenvectors:
  0.231  0.475  0.000  0.003  0.291
  0.008  0.004  0.979  0.009  0.000
  0.056  0.300  0.014  0.448  0.182
  0.688  0.086  0.004  0.111  0.110
  0.017  0.135  0.004  0.429  0.416
    occupations:
  0.996 -0.000 -0.000 -0.001 -0.000
 -0.000  0.997  0.000 -0.000  0.000
 -0.000  0.000  0.997  0.000  0.000
 -0.001 -0.000  0.000  0.996 -0.000
 -0.000  0.000  0.000 -0.000  0.997
   spin  2
    eigenvalues: 
  0.056  0.061  0.062  0.163  0.180
    eigenvectors:
  0.000  0.000  0.000  0.776  0.224
  0.966  0.029  0.003  0.000  0.001
  0.011  0.599  0.389  0.001  0.001
  0.001  0.002  0.000  0.223  0.774
  0.022  0.370  0.607  0.000  0.001
    occupations:
  0.166 -0.000  0.001  0.007  0.002
 -0.000  0.057 -0.001  0.005  0.001
  0.001 -0.001  0.061 -0.004  0.000
  0.007  0.005 -0.004  0.176  0.002
  0.002  0.001  0.000  0.002  0.061
atomic mag. moment =     4.461209
atom   11   Tr[ns(na)] (up, down, total) =   0.52152  4.98235  5.50387
   spin  1
    eigenvalues: 
  0.058  0.059  0.062  0.163  0.179
    eigenvectors:
  0.000  0.002  0.001  0.217  0.779
  0.035  0.001  0.963  0.001  0.001
  0.485  0.490  0.024  0.000  0.001
  0.000  0.001  0.000  0.782  0.217
  0.480  0.506  0.012  0.000  0.002
    occupations:
  0.175  0.003  0.003 -0.007  0.005
  0.003  0.062 -0.001  0.001  0.001
  0.003 -0.001  0.059 -0.002  0.001
 -0.007  0.001 -0.002  0.166 -0.003
  0.005  0.001  0.001 -0.003  0.059
   spin  2
    eigenvalues: 
  0.995  0.996  0.997  0.997  0.997
    eigenvectors:
  0.610  0.251  0.001  0.125  0.013
  0.000  0.144  0.032  0.075  0.749
  0.049  0.028  0.158  0.697  0.068
  0.197  0.447  0.193  0.005  0.158
  0.145  0.130  0.617  0.097  0.012
    occupations:
  0.996 -0.000 -0.000  0.000 -0.000
 -0.000  0.997 -0.000 -0.000  0.000
 -0.000 -0.000  0.997  0.000  0.000
  0.000 -0.000  0.000  0.996  0.000
 -0.000  0.000  0.000  0.000  0.996
atomic mag. moment =    -4.460830
atom   13   Tr[ns(na)] (up, down, total) =   4.98365  0.51517  5.49882
   spin  1
    eigenvalues: 
  0.996  0.997  0.997  0.997  0.997
    eigenvectors:
  0.893  0.003  0.029  0.055  0.021
  0.005  0.180  0.244  0.087  0.484
  0.022  0.430  0.359  0.163  0.026
  0.014  0.023  0.349  0.164  0.450
  0.067  0.365  0.020  0.531  0.018
    occupations:
  0.996 -0.000 -0.000  0.000 -0.000
 -0.000  0.997 -0.000 -0.000  0.000
 -0.000 -0.000  0.997  0.000  0.000
  0.000 -0.000  0.000  0.997  0.000
 -0.000  0.000  0.000  0.000  0.997
   spin  2
    eigenvalues: 
  0.058  0.059  0.061  0.163  0.175
    eigenvectors:
  0.001  0.000  0.000  0.134  0.865
  0.044  0.014  0.941  0.001  0.000
  0.129  0.835  0.035  0.001  0.001
  0.000  0.002  0.001  0.864  0.132
  0.826  0.149  0.022  0.000  0.002
    occupations:
  0.173 -0.000  0.001 -0.004  0.004
 -0.000  0.061 -0.001  0.004  0.000
  0.001 -0.001  0.059 -0.004  0.001
 -0.004  0.004 -0.004  0.164 -0.003
  0.004  0.000  0.001 -0.003  0.058
atomic mag. moment =     4.468474
atom   15   Tr[ns(na)] (up, down, total) =   0.53243  4.98028  5.51271
   spin  1
    eigenvalues: 
  0.059  0.062  0.063  0.168  0.180
    eigenvectors:
  0.000  0.000  0.001  0.798  0.201
  0.970  0.028  0.001  0.000  0.001
  0.014  0.310  0.676  0.000  0.000
  0.000  0.001  0.000  0.201  0.798
  0.015  0.660  0.323  0.000  0.001
    occupations:
  0.170  0.002  0.001  0.005  0.003
  0.002  0.059 -0.000  0.002  0.000
  0.001 -0.000  0.063 -0.001  0.000
  0.005  0.002 -0.001  0.178  0.003
  0.003  0.000  0.000  0.003  0.062
   spin  2
    eigenvalues: 
  0.994  0.996  0.996  0.997  0.997
    eigenvectors:
  0.231  0.634  0.001  0.002  0.132
  0.020  0.038  0.804  0.027  0.112
  0.025  0.018  0.080  0.850  0.026
  0.697  0.212  0.019  0.053  0.018
  0.026  0.098  0.096  0.068  0.711
    occupations:
  0.996  0.000  0.000 -0.000 -0.001
  0.000  0.996 -0.000 -0.000 -0.000
  0.000 -0.000  0.997  0.000 -0.000
 -0.000 -0.000  0.000  0.995 -0.000
 -0.001 -0.000 -0.000 -0.000  0.997
atomic mag. moment =    -4.447857
N of occupied +U levels =   44.031860
 --- exit write_ns ---

 ------ SPIN UP ------------


          k = 0.0000 0.0000 0.0000 (  5263 PWs)   bands (ev):

   -68.6523 -68.5821 -68.5448 -68.4046 -63.5724 -63.4337 -63.4043 -63.3209
   -37.5515 -37.5182 -37.5118 -37.4763 -37.4532 -37.4456 -37.4387 -37.4180
   -37.3900 -37.2974 -37.2784 -37.2669 -32.5869 -32.5557 -32.5419 -32.4586
   -32.4188 -32.4103 -32.4069 -32.3880 -32.3809 -32.3284 -32.3134 -32.2939
    -6.6273  -5.8178  -5.7552  -5.7399  -5.6146  -5.6032  -5.5649  -5.5156
     4.9536   4.9628   4.9830   5.0206   6.4880   6.4899   6.4998   6.7345
     6.7495   6.8414   6.8734   6.9052   6.9887   7.0326   7.0497   8.2174
     8.2453   8.3242   8.5697   8.6060   8.6662   8.6785   8.7271   8.8041
     8.8225   8.8339   9.2626   9.3068   9.3181   9.3263   9.6810   9.7112
     9.7246   9.7653   9.7825   9.8868  11.0396  11.1085  11.2440  11.3629
    11.4592  11.5183  11.5616  11.6475  13.1177  15.0820  15.1037  15.1131
    15.7323  15.7576  15.7622  16.3683  16.4039  16.4301  16.4727  16.4927
    16.5222  16.5665  16.6033  16.7073  16.7165

          k = 0.1753 0.1753-0.1723 (  5270 PWs)   bands (ev):

   -68.6520 -68.5819 -68.5445 -68.4043 -63.5725 -63.4338 -63.4044 -63.3211
   -37.5514 -37.5176 -37.5107 -37.4762 -37.4524 -37.4458 -37.4393 -37.4183
   -37.3916 -37.2976 -37.2787 -37.2679 -32.5868 -32.5545 -32.5409 -32.4577
   -32.4157 -32.4113 -32.4070 -32.3873 -32.3839 -32.3288 -32.3156 -32.2942
    -6.4975  -5.8409  -5.7805  -5.7356  -5.7034  -5.6175  -5.5762  -5.5276
     5.2336   5.2498   5.3013   5.4116   6.3417   6.3559   6.4077   6.6724
     6.7984   6.8381   6.8711   6.9807   7.0111   7.2088   7.2338   7.5859
     7.6455   8.1014   8.1350   8.3051   8.4287   8.5466   8.5891   8.8604
     9.0345   9.0848   9.1025   9.2754   9.4293   9.4430   9.5211   9.6481
     9.6773   9.7344   9.7520   9.8095  11.1677  11.2400  11.2716  11.3483
    11.4645  11.4998  11.5413  11.6950  14.0600  15.0636  15.2558  15.2734
    15.4849  15.7947  15.8477  16.0662  16.1199  16.2050  16.3322  16.3689
    16.3952  16.4401  16.5218  16.5442  16.6330

          k =-0.3506-0.3506 0.3447 (  5310 PWs)   bands (ev):

   -68.6517 -68.5816 -68.5442 -68.4040 -63.5726 -63.4339 -63.4045 -63.3212
   -37.5512 -37.5171 -37.5094 -37.4761 -37.4523 -37.4447 -37.4405 -37.4186
   -37.3931 -37.2977 -37.2790 -37.2689 -32.5867 -32.5533 -32.5397 -32.4568
   -32.4127 -32.4107 -32.4072 -32.3908 -32.3840 -32.3293 -32.3178 -32.2945
    -6.2174  -6.1028  -5.8095  -5.7361  -5.7018  -5.6230  -5.5950  -5.5332
     5.7805   5.8187   5.8987   5.9864   6.0260   6.0723   6.4058   6.4806
     6.7778   6.8042   6.9123   6.9275   6.9700   7.0313   7.0703   7.0819
     7.4898   7.5247   8.0792   8.1045   8.2961   8.3323   8.4950   8.5853
     8.9027   9.0145   9.2492   9.3375   9.5142   9.5266   9.6036   9.6460
     9.6599   9.7221   9.7475   9.7949  11.0986  11.1831  11.3138  11.4324
    11.5309  11.5579  11.5809  11.7511  15.0356  15.1024  15.5900  15.6120
    15.6398  15.6912  15.7263  15.7754  16.0294  16.0631  16.1622  16.2008
    16.3072  16.3706  16.4083  16.4423  16.4466

          k = 0.3506 0.0030 0.0030 (  5287 PWs)   bands (ev):

   -68.6523 -68.5821 -68.5447 -68.4046 -63.5722 -63.4335 -63.4040 -63.3207
   -37.5512 -37.5168 -37.5107 -37.4761 -37.4528 -37.4467 -37.4389 -37.4184
   -37.3903 -37.2976 -37.2792 -37.2673 -32.5871 -32.5552 -32.5400 -32.4586
   -32.4187 -32.4105 -32.4073 -32.3871 -32.3812 -32.3293 -32.3157 -32.2950
    -6.4599  -5.8843  -5.7657  -5.7395  -5.6598  -5.6384  -5.6006  -5.5425
     5.3179   5.3494   5.3622   5.3995   6.2018   6.5162   6.5222   6.7145
     6.7955   6.8281   6.8474   6.9226   7.0877   7.1059   7.2346   7.5924
     7.6032   8.0519   8.1777   8.2122   8.3648   8.4379   8.5043   8.7496
     8.9133   9.0952   9.1433   9.1903   9.4319   9.4706   9.5369   9.7250
     9.7603   9.8593   9.8805  10.0384  11.0362  11.0808  11.1600  11.2089
    11.3486  11.4076  11.5144  11.6263  14.2998  15.1508  15.1820  15.2030
    15.5886  15.6666  15.8333  15.9816  16.1671  16.1698  16.3151  16.3507
    16.3695  16.4064  16.4707  16.5654  16.5773

          k =-0.1753-0.5230 0.5200 (  5293 PWs)   bands (ev):

   -68.6520 -68.5819 -68.5445 -68.4043 -63.5723 -63.4336 -63.4042 -63.3208
   -37.5510 -37.5163 -37.5095 -37.4760 -37.4524 -37.4467 -37.4395 -37.4185
   -37.3919 -37.2977 -37.2795 -37.2683 -32.5870 -32.5541 -32.5388 -32.4577
   -32.4155 -32.4115 -32.4075 -32.3864 -32.3841 -32.3297 -32.3180 -32.2953
    -6.2231  -5.9800  -5.9081  -5.7458  -5.7011  -5.6461  -5.5898  -5.5332
     5.7053   5.7635   5.7970   6.0573   6.2149   6.2733   6.4370   6.5752
     6.6215   6.6950   6.8991   6.9573   6.9949   7.1424   7.2162   7.4020
     7.4214   7.6032   7.6981   7.8358   7.9071   8.1775   8.6989   8.8437
     8.9676   9.0016   9.1010   9.2310   9.5772   9.6169   9.6923   9.7480
     9.8295   9.8634   9.9691   9.9988  10.8231  10.9931  11.0838  11.1707
    11.2651  11.4065  11.4850  11.6770  15.1791  15.2653  15.3840  15.4930
    15.5970  15.6423  15.7558  15.8562  15.9511  16.1000  16.1106  16.1460
    16.1830  16.3847  16.4121  16.4498  16.5190

          k = 0.0000-0.3477 0.3477 (  5294 PWs)   bands (ev):

   -68.6517 -68.5816 -68.5442 -68.4040 -63.5726 -63.4339 -63.4045 -63.3212
   -37.5512 -37.5168 -37.5104 -37.4760 -37.4511 -37.4447 -37.4395 -37.4197
   -37.3938 -37.2976 -37.2796 -37.2683 -32.5870 -32.5533 -32.5397 -32.4562
   -32.4116 -32.4103 -32.4070 -32.3915 -32.3863 -32.3296 -32.3159 -32.2952
    -6.3107  -5.9100  -5.8823  -5.7351  -5.7148  -5.6563  -5.5757  -5.5307
     5.6068   5.6739   5.7657   5.7860   6.2274   6.2414   6.4114   6.6029
     6.6874   6.8746   6.9244   6.9790   7.0068   7.2030   7.2363   7.2950
     7.4498   7.5194   7.5741   7.8925   8.1648   8.5458   8.5676   8.8105
     9.0010   9.0741   9.0888   9.2349   9.5567   9.5733   9.6710   9.7135
     9.7419   9.7895   9.8223  10.0401  10.9544  11.0707  11.1433  11.2707
    11.3156  11.4656  11.5622  11.7208  15.1002  15.3314  15.3472  15.4809
    15.5849  15.6906  15.7699  15.8031  16.0610  16.0656  16.1237  16.1659
    16.2289  16.3184  16.3931  16.4046  16.4875

          k =-0.7013-0.0060-0.0060 (  5286 PWs)   bands (ev):

   -68.6523 -68.5821 -68.5447 -68.4046 -63.5720 -63.4332 -63.4038 -63.3205
   -37.5509 -37.5155 -37.5096 -37.4760 -37.4526 -37.4479 -37.4389 -37.4187
   -37.3906 -37.2977 -37.2800 -37.2677 -32.5873 -32.5548 -32.5379 -32.4587
   -32.4190 -32.4105 -32.4075 -32.3859 -32.3815 -32.3302 -32.3181 -32.2961
    -6.1321  -6.0993  -5.7846  -5.7493  -5.7288  -5.7026  -5.5938  -5.5450
     5.7240   5.7395   5.8073   5.8474   6.4157   6.4808   6.5892   6.6359
     6.7953   6.8189   6.9275   6.9708   6.9866   7.0556   7.1654   7.2208
     7.2296   7.2361   7.7058   7.7246   8.2120   8.2419   8.6796   8.6922
     8.9363   8.9771   9.2795   9.3206   9.5351   9.5935   9.7736   9.8017
    10.0396  10.0577  10.2763  10.3126  10.4167  10.4589  10.8103  10.8989
    11.1413  11.2471  11.4617  11.5979  15.2055  15.2119  15.3983  15.4024
    15.6071  15.6434  15.6977  15.7815  15.9666  15.9884  16.1123  16.1153
    16.1937  16.2201  16.4854  16.4920  16.6131

          k = 0.1783 0.1783 0.1783 (  5320 PWs)   bands (ev):

   -68.6531 -68.5830 -68.5456 -68.4054 -63.5714 -63.4326 -63.4032 -63.3199
   -37.5510 -37.5179 -37.5115 -37.4758 -37.4528 -37.4453 -37.4383 -37.4179
   -37.3898 -37.2970 -37.2782 -37.2666 -32.5877 -32.5561 -32.5424 -32.4593
   -32.4196 -32.4106 -32.4076 -32.3884 -32.3811 -32.3290 -32.3137 -32.2943
    -6.4903  -5.8556  -5.8006  -5.7939  -5.7095  -5.5622  -5.5613  -5.5091
     5.1782   5.2101   5.2342   5.4498   6.3744   6.3981   6.4077   6.8061
     6.8105   6.8450   6.8843   6.9051   6.9486   7.0052   7.0311   8.0258
     8.0952   8.1426   8.5359   8.5569   8.5706   8.6279   8.6651   8.6871
     8.7370   8.7628   8.7775   9.2558   9.2927   9.3128   9.3751   9.3877
     9.5773   9.8229   9.8387   9.8620  11.2462  11.3009  11.3309  11.3770
    11.4641  11.5108  11.5743  11.6704  14.0845  14.9263  14.9517  14.9649
    15.4550  15.6971  15.7216  16.3046  16.3349  16.3693  16.4404  16.4671
    16.4803  16.5093  16.5204  16.5676  16.6427

          k =-0.3477-0.3477 0.6953 (  5292 PWs)   bands (ev):

   -68.6528 -68.5827 -68.5453 -68.4051 -63.5715 -63.4328 -63.4034 -63.3200
   -37.5508 -37.5173 -37.5104 -37.4757 -37.4521 -37.4454 -37.4390 -37.4181
   -37.3914 -37.2971 -37.2785 -37.2677 -32.5876 -32.5549 -32.5413 -32.4584
   -32.4165 -32.4116 -32.4077 -32.3878 -32.3841 -32.3294 -32.3159 -32.2947
    -6.3004  -5.9076  -5.8571  -5.8141  -5.7944  -5.5883  -5.5530  -5.5043
     5.5554   5.5668   5.7650   5.8447   6.1520   6.1639   6.4317   6.6277
     6.6718   6.7209   6.7741   6.9658   6.9884   7.2981   7.3456   7.6491
     7.7178   7.8451   7.9357   8.1490   8.1789   8.2925   8.3497   8.4857
     8.8152   8.9933   9.0827   9.1653   9.3593   9.4233   9.4966   9.5383
     9.8229   9.8990   9.9426  10.1131  11.0620  11.1496  11.1963  11.2694
    11.3425  11.4961  11.6011  11.6534  14.9133  15.0142  15.1611  15.1881
    15.3469  15.7185  15.8187  16.1053  16.1468  16.2600  16.3173  16.3351
    16.3492  16.3911  16.4216  16.4533  16.5333

          k =-0.1723-0.1723 0.5230 (  5304 PWs)   bands (ev):

   -68.6520 -68.5818 -68.5445 -68.4043 -63.5723 -63.4335 -63.4042 -63.3208
   -37.5511 -37.5170 -37.5094 -37.4760 -37.4522 -37.4444 -37.4404 -37.4186
   -37.3931 -37.2977 -37.2789 -37.2688 -32.5872 -32.5533 -32.5399 -32.4568
   -32.4129 -32.4112 -32.4076 -32.3906 -32.3841 -32.3298 -32.3176 -32.2947
    -6.2258  -5.9814  -5.8466  -5.7979  -5.7437  -5.6164  -5.5852  -5.5302
     5.7633   5.7840   5.8104   5.9255   6.2350   6.2846   6.3304   6.6375
     6.7828   6.8115   6.8773   6.9702   7.0034   7.0568   7.0915   7.2066
     7.3397   7.3958   8.0351   8.0701   8.1266   8.1956   8.5194   8.5860
     8.9182   8.9821   9.2814   9.3852   9.5132   9.5551   9.6592   9.7770
     9.8043   9.8557   9.8896   9.9371  11.0014  11.0581  11.1551  11.2171
    11.2695  11.3639  11.4747  11.4955  15.0735  15.2966  15.5063  15.5655
    15.5937  15.6437  15.7105  15.7779  15.9652  16.0404  16.1014  16.1462
    16.2292  16.3078  16.4588  16.5307  16.5779

          k =-0.8736 0.1693 0.1693 (  5303 PWs)   bands (ev):

   -68.6531 -68.5829 -68.5456 -68.4054 -63.5712 -63.4324 -63.4030 -63.3197
   -37.5507 -37.5165 -37.5104 -37.4756 -37.4525 -37.4464 -37.4385 -37.4182
   -37.3901 -37.2971 -37.2789 -37.2670 -32.5879 -32.5557 -32.5404 -32.4593
   -32.4195 -32.4109 -32.4080 -32.3875 -32.3814 -32.3299 -32.3160 -32.2955
    -6.2066  -5.9606  -5.9311  -5.8074  -5.7795  -5.5809  -5.5601  -5.5042
     5.6591   5.6997   5.7164   6.0598   6.1036   6.3330   6.3559   6.5578
     6.6340   6.6595   6.8953   6.9363   7.0658   7.2106   7.2403   7.6900
     7.7179   7.8088   7.8259   7.9258   8.1762   8.3573   8.3819   8.4219
     8.7328   8.8631   9.1203   9.1569   9.4385   9.4720   9.5007   9.5576
     9.9169   9.9450  10.0766  10.0982  10.9172  11.0489  11.1050  11.2083
    11.2836  11.4282  11.5208  11.6519  14.9931  15.0884  15.1185  15.1455
    15.4602  15.6480  15.8078  15.9596  16.1805  16.2024  16.2892  16.3145
    16.3403  16.3805  16.4753  16.5188  16.5399

          k =-0.6983 0.3447-0.0030 (  5306 PWs)   bands (ev):

   -68.6523 -68.5821 -68.5447 -68.4046 -63.5720 -63.4332 -63.4038 -63.3205
   -37.5509 -37.5162 -37.5094 -37.4760 -37.4522 -37.4464 -37.4394 -37.4185
   -37.3919 -37.2977 -37.2794 -37.2681 -32.5875 -32.5540 -32.5390 -32.4577
   -32.4160 -32.4117 -32.4079 -32.3862 -32.3843 -32.3302 -32.3178 -32.2955
    -6.0678  -5.9937  -5.9646  -5.8889  -5.7153  -5.6048  -5.5870  -5.5164
     5.9339   5.9559   6.0263   6.0447   6.0972   6.2567   6.3040   6.4162
     6.5900   6.8203   6.8572   7.0035   7.0213   7.0657   7.2526   7.3632
     7.5605   7.5950   7.7224   7.7416   7.7902   8.2333   8.2897   8.7147
     8.9054   9.0321   9.0874   9.2411   9.5687   9.6400   9.7070   9.7567
     9.9205  10.0642  10.1161  10.2590  10.6041  10.8132  10.8827  11.1173
    11.2109  11.3271  11.5331  11.5937  15.2939  15.3259  15.4360  15.5384
    15.5651  15.6359  15.7930  15.8443  15.9129  15.9418  16.0827  16.1238
    16.1683  16.3647  16.3990  16.4121  16.5142

          k =-0.3566-0.3566-0.3566 (  5300 PWs)   bands (ev):

   -68.6539 -68.5838 -68.5464 -68.4062 -63.5704 -63.4316 -63.4022 -63.3189
   -37.5505 -37.5176 -37.5112 -37.4752 -37.4525 -37.4449 -37.4380 -37.4177
   -37.3896 -37.2965 -37.2779 -37.2664 -32.5885 -32.5566 -32.5429 -32.4600
   -32.4203 -32.4109 -32.4083 -32.3889 -32.3813 -32.3297 -32.3140 -32.2948
    -6.1905  -6.0831  -5.8637  -5.8319  -5.8048  -5.5360  -5.5275  -5.4878
     5.5090   5.5284   5.5825   6.1717   6.4191   6.4728   6.4943   6.5537
     6.5784   6.6079   6.8369   6.8651   6.9103   6.9236   6.9573   7.5980
     7.9524   7.9886   8.0579   8.4890   8.5268   8.5375   8.6338   8.6720
     8.7093   8.7261   8.7437   9.0539   9.0755   9.2710   9.3169   9.3268
     9.5014   9.8770   9.8869   9.9168  11.2158  11.2454  11.2606  11.4155
    11.5688  11.6694  11.7461  11.8251  14.8082  14.8379  14.8483  14.9928
    15.5314  15.6553  15.6800  16.2418  16.2488  16.2793  16.3315  16.3740
    16.4369  16.4579  16.4920  16.4978  16.5444

          k = 0.1723-0.1753-0.1753 (  5270 PWs)   bands (ev):

   -68.6520 -68.5819 -68.5445 -68.4043 -63.5725 -63.4338 -63.4044 -63.3211
   -37.5513 -37.5170 -37.5108 -37.4764 -37.4530 -37.4468 -37.4391 -37.4183
   -37.3904 -37.2979 -37.2791 -37.2674 -32.5870 -32.5550 -32.5398 -32.4585
   -32.4184 -32.4104 -32.4072 -32.3868 -32.3811 -32.3289 -32.3154 -32.2951
    -6.4967  -5.8557  -5.7717  -5.7442  -5.6893  -5.6087  -5.5833  -5.5296
     5.2398   5.2471   5.3042   5.4081   6.3454   6.3466   6.4100   6.6792
     6.8218   6.8510   6.8620   6.9381   6.9882   7.2149   7.2427   7.6041
     7.6371   8.1084   8.1543   8.3424   8.4491   8.5294   8.5615   8.8904
     9.0091   9.0383   9.0946   9.2745   9.4185   9.4638   9.5020   9.6534
     9.6730   9.7330   9.7462   9.8137  11.1708  11.2472  11.2954  11.3288
    11.4724  11.5378  11.5873  11.6290  14.0610  15.0409  15.2679  15.2840
    15.4696  15.8109  15.8591  16.0699  16.1099  16.1980  16.3599  16.3736
    16.4064  16.4255  16.4877  16.5514  16.6158

          k =-0.1753 0.1723-0.1753 (  5270 PWs)   bands (ev):

   -68.6520 -68.5818 -68.5445 -68.4043 -63.5725 -63.4338 -63.4044 -63.3211
   -37.5514 -37.5174 -37.5114 -37.4761 -37.4515 -37.4452 -37.4386 -37.4193
   -37.3922 -37.2975 -37.2793 -37.2673 -32.5871 -32.5545 -32.5408 -32.4571
   -32.4161 -32.4092 -32.4071 -32.3893 -32.3847 -32.3292 -32.3137 -32.2949
    -6.4970  -5.8501  -5.7755  -5.7414  -5.6925  -5.6119  -5.5793  -5.5314
     5.2186   5.2686   5.3010   5.4087   6.3413   6.3515   6.4111   6.6729
     6.7916   6.8499   6.8681   6.9570   7.0223   7.2047   7.2416   7.5703
     7.6698   8.0885   8.1421   8.3270   8.4359   8.5356   8.5928   8.8745
     8.9853   9.0833   9.1183   9.2756   9.4072   9.4621   9.4980   9.6555
     9.6757   9.7436   9.7668   9.8056  11.1788  11.2447  11.2806  11.3268
    11.4265  11.5017  11.6030  11.6753  14.0600  15.0522  15.2490  15.2870
    15.4880  15.7978  15.8525  16.0722  16.1164  16.1963  16.3333  16.3628
    16.3862  16.4509  16.5102  16.5710  16.6319

          k =-0.3447 0.3506 0.3506 (  5310 PWs)   bands (ev):

   -68.6517 -68.5816 -68.5442 -68.4040 -63.5726 -63.4339 -63.4045 -63.3212
   -37.5511 -37.5158 -37.5097 -37.4765 -37.4528 -37.4481 -37.4393 -37.4186
   -37.3907 -37.2985 -37.2798 -37.2678 -32.5872 -32.5542 -32.5376 -32.4583
   -32.4185 -32.4102 -32.4074 -32.3855 -32.3813 -32.3295 -32.3176 -32.2963
    -6.1826  -6.1498  -5.7984  -5.7577  -5.6649  -5.6385  -5.5900  -5.5373
     5.8160   5.8440   5.9187   5.9686   6.0110   6.0152   6.4233   6.4345
     6.7888   6.8168   6.8876   6.9187   6.9756   7.0543   7.0752   7.0958
     7.5088   7.5327   8.1205   8.1476   8.2609   8.2666   8.5362   8.5415
     8.9642   8.9837   9.2339   9.2778   9.5232   9.5605   9.5827   9.6208
     9.6340   9.7388   9.7567   9.7747  11.1546  11.1798  11.3597  11.4027
    11.4928  11.5984  11.6628  11.6793  15.0421  15.0713  15.6132  15.6367
    15.6580  15.6844  15.7109  15.7257  16.0879  16.1130  16.1463  16.1555
    16.3213  16.3552  16.4168  16.4189  16.4386

          k = 0.3506-0.3447 0.3506 (  5310 PWs)   bands (ev):

   -68.6517 -68.5816 -68.5442 -68.4040 -63.5726 -63.4338 -63.4045 -63.3212
   -37.5513 -37.5167 -37.5111 -37.4759 -37.4499 -37.4447 -37.4385 -37.4208
   -37.3945 -37.2975 -37.2802 -37.2677 -32.5872 -32.5534 -32.5396 -32.4556
   -32.4121 -32.4084 -32.4066 -32.3923 -32.3884 -32.3302 -32.3140 -32.2959
    -6.2027  -6.1246  -5.8012  -5.7541  -5.6620  -5.6521  -5.5802  -5.5420
     5.7773   5.8407   5.9205   5.9598   6.0240   6.0517   6.3975   6.4879
     6.7646   6.8186   6.8711   6.9068   6.9898   7.0378   7.0761   7.1145
     7.4811   7.5524   8.1005   8.1205   8.2454   8.3326   8.5385   8.5436
     8.9114   9.0081   9.2016   9.3807   9.4963   9.5476   9.5966   9.6216
     9.6392   9.7404   9.7680   9.7972  11.1487  11.1730  11.2756  11.4164
    11.5182  11.5587  11.6439  11.7323  15.0144  15.1207  15.5598  15.6028
    15.6496  15.6933  15.7585  15.7995  16.0031  16.0418  16.1975  16.2313
    16.2878  16.3317  16.4056  16.4584  16.4839

          k =-0.0030-0.3506-0.0030 (  5287 PWs)   bands (ev):

   -68.6523 -68.5821 -68.5448 -68.4046 -63.5722 -63.4334 -63.4041 -63.3207
   -37.5511 -37.5174 -37.5114 -37.4759 -37.4515 -37.4452 -37.4385 -37.4192
   -37.3920 -37.2974 -37.2791 -37.2673 -32.5873 -32.5548 -32.5408 -32.4576
   -32.4160 -32.4093 -32.4073 -32.3896 -32.3848 -32.3291 -32.3139 -32.2953
    -6.4583  -5.8818  -5.7823  -5.7267  -5.6613  -5.6410  -5.5974  -5.5419
     5.3146   5.3320   5.3845   5.4071   6.1878   6.5020   6.5248   6.7167
     6.7644   6.8369   6.8782   6.9437   7.0240   7.1240   7.2621   7.5591
     7.6393   8.0514   8.1758   8.2421   8.3612   8.4291   8.4939   8.7253
     8.8924   9.0679   9.1505   9.2408   9.4167   9.4841   9.5409   9.7278
     9.7846   9.8451   9.8956  10.0616  10.9910  11.1082  11.1909  11.2385
    11.2858  11.4276  11.4786  11.5976  14.3392  15.1549  15.1731  15.2066
    15.6060  15.6689  15.8135  16.0075  16.1372  16.1876  16.2914  16.3008
    16.3790  16.4055  16.4621  16.4926  16.6327

          k =-0.0030-0.0030-0.3506 (  5287 PWs)   bands (ev):

   -68.6523 -68.5821 -68.5448 -68.4046 -63.5722 -63.4334 -63.4040 -63.3207
   -37.5513 -37.5175 -37.5106 -37.4761 -37.4522 -37.4456 -37.4392 -37.4182
   -37.3916 -37.2976 -37.2786 -37.2677 -32.5873 -32.5544 -32.5410 -32.4577
   -32.4162 -32.4114 -32.4074 -32.3872 -32.3841 -32.3293 -32.3154 -32.2944
    -6.4578  -5.8830  -5.7853  -5.7303  -5.6474  -5.6360  -5.6077  -5.5431
     5.3192   5.3447   5.3685   5.4067   6.1828   6.4957   6.5224   6.7222
     6.7877   6.8353   6.8647   6.9476   7.0278   7.0948   7.2684   7.5880
     7.6149   8.0566   8.1975   8.2413   8.3847   8.4172   8.4597   8.7085
     8.9058   9.0974   9.1553   9.2197   9.4298   9.4693   9.5498   9.7342
[...]
     5.7321   5.7742   5.8145   6.0699   6.1772   6.2636   6.4080   6.5694
     6.6461   6.6876   6.9243   6.9944   7.0105   7.1449   7.2079   7.3674
     7.4066   7.6030   7.6746   7.8229   7.8853   8.2222   8.6636   8.8129
     8.9299   8.9733   9.1357   9.2625   9.5909   9.6210   9.6935   9.7671
     9.7997   9.8636   9.9701  10.0033  10.8396  11.0464  11.1206  11.1768
    11.2051  11.3491  11.4645  11.6345  15.2382  15.2598  15.4137  15.5012
    15.5854  15.6526  15.7691  15.8187  15.9781  16.0373  16.0982  16.1576
    16.1832  16.3979  16.4142  16.4884  16.5192

          k =-0.5230 0.5200-0.1753 (  5293 PWs)   bands (ev):

   -68.6921 -68.5507 -68.5226 -68.4345 -63.5357 -63.4619 -63.4264 -63.2891
   -37.5917 -37.5579 -37.5433 -37.4558 -37.4147 -37.4118 -37.4093 -37.3938
   -37.3858 -37.3273 -37.3120 -37.2936 -32.5507 -32.5167 -32.5105 -32.4697
   -32.4486 -32.4430 -32.4356 -32.4188 -32.3903 -32.2977 -32.2817 -32.2711
    -6.2133  -5.9779  -5.9139  -5.7105  -5.6850  -5.6502  -5.6231  -5.5497
     5.7148   5.7773   5.8080   6.0751   6.1907   6.2734   6.4176   6.5790
     6.6269   6.6987   6.8937   6.9759   6.9924   7.1296   7.2269   7.3974
     7.4301   7.6125   7.6822   7.8302   7.8788   8.2129   8.6558   8.8250
     8.9497   9.0126   9.0753   9.2559   9.5884   9.6330   9.6819   9.7374
     9.7862   9.8711   9.9585  10.0172  10.7991  10.9991  11.1096  11.1984
    11.2725  11.3497  11.4989  11.6440  15.1920  15.2464  15.3835  15.4960
    15.6037  15.6570  15.7556  15.8767  15.9435  16.0807  16.1026  16.1508
    16.2082  16.3980  16.4174  16.4608  16.5349

          k = 0.5200-0.1753-0.5230 (  5293 PWs)   bands (ev):

   -68.6921 -68.5507 -68.5225 -68.4345 -63.5357 -63.4619 -63.4264 -63.2891
   -37.5917 -37.5580 -37.5430 -37.4558 -37.4169 -37.4126 -37.4094 -37.3902
   -37.3862 -37.3276 -37.3118 -37.2940 -32.5510 -32.5154 -32.5107 -32.4701
   -32.4496 -32.4443 -32.4351 -32.4190 -32.3886 -32.2979 -32.2824 -32.2706
    -6.2095  -5.9984  -5.8829  -5.7206  -5.7031  -5.6548  -5.5950  -5.5593
     5.7204   5.7661   5.8094   6.0695   6.1997   6.2653   6.4260   6.6068
     6.6165   6.6868   6.9018   6.9763   6.9969   7.1567   7.2138   7.3844
     7.4066   7.5938   7.6666   7.8333   7.9095   8.1780   8.6898   8.8158
     8.9603   9.0045   9.0843   9.2559   9.5778   9.6140   9.6870   9.7693
     9.8190   9.8992   9.9127  10.0289  10.7851  10.9903  11.0774  11.2350
    11.3030  11.3861  11.4731  11.5813  15.2067  15.2641  15.3881  15.5082
    15.5917  15.6526  15.7442  15.8597  15.9293  16.0676  16.1173  16.1578
    16.1894  16.3895  16.4166  16.5171  16.5564

          k = 0.3477 0.0000-0.3477 (  5294 PWs)   bands (ev):

   -68.6918 -68.5504 -68.5223 -68.4342 -63.5360 -63.4622 -63.4267 -63.2895
   -37.5919 -37.5579 -37.5431 -37.4561 -37.4170 -37.4128 -37.4108 -37.3897
   -37.3850 -37.3276 -37.3132 -37.2934 -32.5509 -32.5151 -32.5095 -32.4702
   -32.4509 -32.4453 -32.4356 -32.4167 -32.3879 -32.2981 -32.2816 -32.2709
    -6.3068  -5.8967  -5.8736  -5.7341  -5.7111  -5.6500  -5.5838  -5.5562
     5.6212   5.6761   5.7784   5.7898   6.2315   6.2384   6.4059   6.6161
     6.6924   6.8679   6.9254   6.9525   7.0328   7.1898   7.2507   7.2773
     7.4723   7.5049   7.5843   7.8884   8.1438   8.5039   8.5817   8.7795
     9.0081   9.0381   9.1138   9.2385   9.5601   9.5797   9.6300   9.6962
     9.7626   9.7878   9.8358  10.0102  10.9498  11.0011  11.2204  11.2828
    11.4170  11.4596  11.5411  11.6258  15.0824  15.3223  15.3609  15.4688
    15.6077  15.6788  15.7565  15.8203  16.0629  16.0882  16.1071  16.1712
    16.2312  16.3760  16.4045  16.4324  16.5027

          k =-0.3477 0.3477 0.0000 (  5294 PWs)   bands (ev):

   -68.6918 -68.5504 -68.5223 -68.4342 -63.5360 -63.4622 -63.4267 -63.2895
   -37.5919 -37.5581 -37.5431 -37.4562 -37.4168 -37.4127 -37.4095 -37.3904
   -37.3862 -37.3276 -37.3119 -37.2942 -32.5505 -32.5152 -32.5108 -32.4697
   -32.4497 -32.4443 -32.4350 -32.4188 -32.3883 -32.2978 -32.2820 -32.2705
    -6.3045  -5.9227  -5.8559  -5.7315  -5.6770  -5.6705  -5.6047  -5.5454
     5.6173   5.6804   5.7757   5.7894   6.2235   6.2342   6.4072   6.6076
     6.7041   6.8817   6.9072   6.9854   7.0220   7.2179   7.2252   7.2851
     7.4242   7.5310   7.5616   7.8898   8.1532   8.5259   8.5698   8.7960
     9.0035   9.0383   9.1051   9.2466   9.5699   9.5886   9.6623   9.6844
     9.7421   9.7664   9.8374  10.0376  10.8973  11.0825  11.1827  11.2814
    11.3371  11.4457  11.5630  11.6752  15.0926  15.3270  15.3580  15.4763
    15.6001  15.6840  15.7593  15.8168  16.0425  16.0899  16.1394  16.1682
    16.2207  16.3544  16.4053  16.4227  16.4879

          k = 0.0060 0.7013 0.0060 (  5286 PWs)   bands (ev):

   -68.6924 -68.5510 -68.5228 -68.4347 -63.5354 -63.4615 -63.4261 -63.2888
   -37.5916 -37.5578 -37.5433 -37.4551 -37.4149 -37.4118 -37.4079 -37.3939
   -37.3872 -37.3277 -37.3104 -37.2941 -32.5512 -32.5178 -32.5104 -32.4699
   -32.4464 -32.4430 -32.4342 -32.4215 -32.3916 -32.2976 -32.2828 -32.2703
    -6.1156  -6.0977  -5.7733  -5.7353  -5.7319  -5.7096  -5.5986  -5.5702
     5.7330   5.7548   5.7922   5.8708   6.4463   6.4742   6.5454   6.6492
     6.7796   6.8061   6.9508   7.0032   7.0126   7.0785   7.1234   7.1711
     7.2088   7.2569   7.6739   7.7853   8.1660   8.2355   8.6058   8.7342
     8.8829   9.0155   9.2291   9.4031   9.5065   9.5929   9.7268   9.9129
     9.9952  10.0965  10.2180  10.3235  10.3510  10.5856  10.7182  11.0260
    11.1081  11.2299  11.4674  11.4850  15.1709  15.2551  15.4246  15.4600
    15.5469  15.6384  15.7525  15.8106  15.8737  16.0266  16.0564  16.1183
    16.1993  16.2555  16.4332  16.5543  16.6957

          k = 0.0060 0.0060 0.7013 (  5286 PWs)   bands (ev):

   -68.6923 -68.5510 -68.5228 -68.4347 -63.5354 -63.4616 -63.4261 -63.2888
   -37.5914 -37.5578 -37.5433 -37.4557 -37.4144 -37.4123 -37.4103 -37.3933
   -37.3843 -37.3270 -37.3134 -37.2926 -32.5513 -32.5171 -32.5091 -32.4702
   -32.4512 -32.4430 -32.4370 -32.4168 -32.3898 -32.2979 -32.2814 -32.2719
    -6.1321  -6.0806  -5.7940  -5.7370  -5.7277  -5.6791  -5.6118  -5.5695
     5.7295   5.7493   5.8233   5.8485   6.4449   6.5012   6.5709   6.5741
     6.8006   6.8210   6.9537   6.9839   6.9984   7.0617   7.1496   7.1794
     7.2172   7.2512   7.6661   7.7638   8.2127   8.2571   8.6330   8.7361
     8.8818   8.9448   9.2440   9.3777   9.5251   9.5979   9.7460   9.8543
     9.9951  10.0776  10.2551  10.3363  10.3442  10.5363  10.7680  10.9296
    11.1523  11.2301  11.4560  11.5565  15.1843  15.2360  15.3831  15.4506
    15.5652  15.6318  15.7584  15.7969  15.9080  16.0356  16.0625  16.1584
    16.1786  16.2350  16.4409  16.5427  16.6697

          k =-0.6953 0.3477 0.3477 (  5292 PWs)   bands (ev):

   -68.6929 -68.5515 -68.5233 -68.4353 -63.5349 -63.4611 -63.4256 -63.2883
   -37.5915 -37.5581 -37.5432 -37.4563 -37.4185 -37.4125 -37.4098 -37.3879
   -37.3842 -37.3270 -37.3114 -37.2929 -32.5515 -32.5173 -32.5124 -32.4706
   -32.4538 -32.4447 -32.4354 -32.4173 -32.3859 -32.2978 -32.2816 -32.2706
    -6.2934  -5.9138  -5.8543  -5.7960  -5.7742  -5.6144  -5.5447  -5.5248
     5.5599   5.5776   5.7741   5.8531   6.1471   6.1541   6.4315   6.6328
     6.6853   6.7007   6.7861   6.9823   6.9973   7.3179   7.3418   7.6443
     7.6732   7.8463   7.9177   8.1144   8.1574   8.2972   8.3647   8.5007
     8.8062   8.9611   9.1151   9.1421   9.3554   9.4221   9.4864   9.5477
     9.8231   9.8894   9.9448  10.1291  11.0718  11.1354  11.2083  11.2770
    11.3269  11.4483  11.5856  11.6669  14.9208  15.0073  15.1701  15.1754
    15.3486  15.7271  15.8194  16.1065  16.1370  16.2551  16.3134  16.3504
    16.3718  16.3893  16.4114  16.4708  16.5441

          k = 0.3477-0.6953 0.3477 (  5292 PWs)   bands (ev):

   -68.6929 -68.5515 -68.5234 -68.4353 -63.5349 -63.4611 -63.4256 -63.2883
   -37.5916 -37.5580 -37.5435 -37.4559 -37.4165 -37.4124 -37.4087 -37.3906
   -37.3857 -37.3269 -37.3102 -37.2932 -32.5512 -32.5192 -32.5126 -32.4700
   -32.4514 -32.4428 -32.4350 -32.4190 -32.3882 -32.2975 -32.2817 -32.2703
    -6.2930  -5.9165  -5.8578  -5.7988  -5.7701  -5.6088  -5.5470  -5.5236
     5.5485   5.5921   5.7748   5.8544   6.1281   6.1703   6.4054   6.6272
     6.6938   6.7451   6.7743   6.9348   6.9988   7.2954   7.3661   7.6281
     7.7260   7.8425   7.9747   8.1189   8.1448   8.2955   8.3564   8.4617
     8.8244   8.9986   9.0394   9.1874   9.3184   9.4139   9.4901   9.5720
     9.8448   9.8878   9.9532  10.0999  11.0247  11.0968  11.1825  11.2791
    11.3687  11.5096  11.5770  11.6770  14.9026  15.0386  15.1659  15.2020
    15.3516  15.7142  15.8299  16.1221  16.1305  16.2281  16.3123  16.3482
    16.3648  16.3900  16.4383  16.4592  16.5117

          k =-0.5230 0.1723 0.1723 (  5304 PWs)   bands (ev):

   -68.6921 -68.5507 -68.5225 -68.4345 -63.5357 -63.4619 -63.4264 -63.2891
   -37.5917 -37.5580 -37.5427 -37.4564 -37.4186 -37.4128 -37.4104 -37.3874
   -37.3848 -37.3274 -37.3131 -37.2939 -32.5509 -32.5137 -32.5104 -32.4707
   -32.4526 -32.4465 -32.4354 -32.4169 -32.3860 -32.2987 -32.2819 -32.2708
    -6.2148  -5.9885  -5.8481  -5.7634  -5.7330  -5.6348  -5.5937  -5.5473
     5.7704   5.7985   5.8261   5.9249   6.2478   6.2590   6.3328   6.6404
     6.7925   6.8073   6.8770   6.9794   7.0169   7.0489   7.1029   7.1956
     7.3419   7.3582   8.0480   8.0762   8.1006   8.1848   8.5045   8.5662
     8.9159   8.9528   9.3215   9.3600   9.5384   9.5538   9.6562   9.7668
     9.8044   9.8468   9.8974   9.9456  11.0021  11.0938  11.1406  11.1763
    11.2234  11.3770  11.4148  11.5471  15.0741  15.2944  15.5128  15.5700
    15.6326  15.6448  15.7001  15.7244  16.0002  16.0608  16.1038  16.1379
    16.2559  16.2811  16.4863  16.5178  16.5782

          k = 0.1723-0.5230 0.1723 (  5304 PWs)   bands (ev):

   -68.6921 -68.5507 -68.5226 -68.4345 -63.5357 -63.4619 -63.4264 -63.2891
   -37.5918 -37.5579 -37.5433 -37.4555 -37.4150 -37.4117 -37.4081 -37.3941
   -37.3873 -37.3276 -37.3106 -37.2943 -32.5507 -32.5175 -32.5106 -32.4696
   -32.4463 -32.4430 -32.4342 -32.4212 -32.3912 -32.2975 -32.2824 -32.2703
    -6.2191  -5.9827  -5.8516  -5.7611  -5.7340  -5.6373  -5.5950  -5.5429
     5.7567   5.7878   5.8340   5.9287   6.2358   6.2770   6.3301   6.6439
     6.7865   6.8315   6.8700   6.9611   7.0023   7.0723   7.0944   7.2111
     7.3299   7.3980   8.0031   8.0615   8.0994   8.2061   8.5125   8.5995
     8.9062   9.0041   9.2326   9.4041   9.4959   9.5498   9.6223   9.7916
     9.8220   9.8552   9.8965   9.9136  10.9548  11.0257  11.1637  11.2166
    11.3303  11.3885  11.4436  11.5041  15.0521  15.2889  15.4863  15.5641
    15.5896  15.6352  15.7511  15.7962  15.9204  16.0391  16.1080  16.1977
    16.2416  16.3476  16.4494  16.5601  16.5940

          k =-0.1693 0.8736-0.1693 (  5303 PWs)   bands (ev):

   -68.6932 -68.5518 -68.5236 -68.4355 -63.5346 -63.4607 -63.4252 -63.2880
   -37.5914 -37.5579 -37.5435 -37.4556 -37.4166 -37.4123 -37.4085 -37.3904
   -37.3857 -37.3270 -37.3101 -37.2930 -32.5517 -32.5194 -32.5124 -32.4704
   -32.4514 -32.4429 -32.4350 -32.4193 -32.3885 -32.2975 -32.2820 -32.2703
    -6.1981  -5.9530  -5.9247  -5.8035  -5.7762  -5.5935  -5.5530  -5.5248
     5.6651   5.6995   5.7479   6.0519   6.1037   6.3211   6.3683   6.5696
     6.6064   6.6467   6.9036   6.9736   7.0986   7.1481   7.2722   7.6699
     7.7062   7.8267   7.8597   7.9044   8.1561   8.3157   8.3650   8.3842
     8.7330   8.8742   9.0796   9.2193   9.4111   9.4278   9.5133   9.6234
     9.9050   9.9769  10.0098  10.1276  10.8942  11.0272  11.1356  11.2504
    11.3287  11.4343  11.4717  11.5622  15.0094  15.0814  15.1278  15.1573
    15.4568  15.6622  15.7993  15.9812  16.1611  16.1941  16.2792  16.2982
    16.3710  16.3852  16.4564  16.5470  16.6037

          k =-0.1693-0.1693 0.8736 (  5303 PWs)   bands (ev):

   -68.6932 -68.5518 -68.5236 -68.4355 -63.5346 -63.4608 -63.4252 -63.2880
   -37.5913 -37.5579 -37.5435 -37.4558 -37.4164 -37.4123 -37.4098 -37.3900
   -37.3844 -37.3267 -37.3115 -37.2922 -32.5518 -32.5189 -32.5120 -32.4705
   -32.4527 -32.4441 -32.4359 -32.4171 -32.3878 -32.2977 -32.2813 -32.2711
    -6.1990  -5.9705  -5.8911  -5.8239  -5.7769  -5.5758  -5.5563  -5.5333
     5.6689   5.7035   5.7361   6.0565   6.1021   6.3305   6.3629   6.5565
     6.6247   6.6549   6.8947   6.9591   7.0808   7.1767   7.2620   7.6747
     7.7275   7.7868   7.8503   7.9159   8.1467   8.3379   8.3706   8.4298
     8.7065   8.8683   9.0984   9.2083   9.4043   9.4323   9.5243   9.5772
     9.9005   9.9528  10.0457  10.1282  10.8865  11.0483  11.1484  11.1945
    11.2950  11.4229  11.5063  11.6134  15.0035  15.0972  15.1220  15.1448
    15.4556  15.6562  15.8060  15.9613  16.1775  16.2079  16.2765  16.3208
    16.3507  16.3872  16.4566  16.5445  16.5858

          k =-0.3447 0.6983 0.0030 (  5306 PWs)   bands (ev):

   -68.6924 -68.5510 -68.5228 -68.4347 -63.5354 -63.4615 -63.4261 -63.2888
   -37.5915 -37.5578 -37.5433 -37.4554 -37.4147 -37.4120 -37.4092 -37.3936
   -37.3858 -37.3273 -37.3119 -37.2934 -32.5512 -32.5168 -32.5105 -32.4700
   -32.4488 -32.4429 -32.4356 -32.4191 -32.3907 -32.2977 -32.2821 -32.2711
    -6.0479  -5.9939  -5.9608  -5.8987  -5.6975  -5.6062  -5.5880  -5.5415
     5.9660   5.9785   6.0141   6.0342   6.0880   6.2763   6.2811   6.4236
     6.5988   6.8309   6.8460   7.0005   7.0287   7.0571   7.2586   7.3489
     7.5438   7.6044   7.7180   7.7485   7.7982   8.2403   8.2537   8.6980
     8.9154   9.0308   9.0572   9.2518   9.5895   9.6425   9.6990   9.7487
     9.9093  10.0636  10.1110  10.2663  10.5401  10.7866  10.8567  11.1317
    11.2668  11.4291  11.4635  11.5466  15.3047  15.3146  15.4272  15.5473
    15.5840  15.6317  15.8032  15.8483  15.8967  15.9415  16.0748  16.1598
    16.1663  16.3577  16.4099  16.4252  16.5203

          k = 0.6983 0.0030-0.3447 (  5306 PWs)   bands (ev):

   -68.6924 -68.5510 -68.5228 -68.4347 -63.5354 -63.4616 -63.4261 -63.2888
   -37.5916 -37.5578 -37.5429 -37.4557 -37.4165 -37.4125 -37.4094 -37.3900
   -37.3862 -37.3274 -37.3117 -37.2941 -32.5511 -32.5155 -32.5110 -32.4704
   -32.4499 -32.4444 -32.4353 -32.4190 -32.3887 -32.2984 -32.2823 -32.2706
    -6.0470  -6.0007  -5.9421  -5.9045  -5.6916  -5.6385  -5.5686  -5.5419
     5.9530   5.9975   6.0117   6.0351   6.1125   6.2591   6.2874   6.4338
     6.5841   6.8115   6.8424   7.0278   7.0427   7.0676   7.2488   7.3832
     7.5148   7.5889   7.6830   7.7338   7.7707   8.2246   8.2865   8.7051
     8.8983   9.0247   9.0950   9.2597   9.5732   9.6324   9.7069   9.7536
     9.9180  10.0616  10.1074  10.2622  10.6033  10.8087  10.9223  11.1685
    11.1768  11.3445  11.4933  11.5220  15.3066  15.3294  15.4230  15.5551
    15.5850  15.6028  15.8035  15.8454  15.8817  15.9374  16.0694  16.1378
    16.1725  16.3927  16.4080  16.4576  16.5160

     the Fermi energy is    12.5051 ev

!    total energy              =   -1946.25553054 Ry
     Harris-Foulkes estimate   =   -1946.25553044 Ry
     estimated scf accuracy    <          9.9E-09 Ry

     The total energy is the sum of the following terms:

     one-electron contribution =    -881.39399795 Ry
     hartree contribution      =     527.15982842 Ry
     xc contribution           =    -270.06934376 Ry
     ewald contribution        =   -1322.36637082 Ry
     Hubbard energy            =       0.41435358 Ry
     smearing contrib. (-TS)   =      -0.00000000 Ry

     total magnetization       =    -0.00 Bohr mag/cell
     absolute magnetization    =    37.50 Bohr mag/cell

     convergence has been achieved in  12 iterations

     Forces acting on atoms (Ry/au):


     negative rho (up, down):  6.097E-04 1.623E-03
     atom    1 type  1   force =  -0.15437066E-02 -0.17380675E-01 -0.52296266E-03
     atom    2 type  3   force =   0.77301241E-02 -0.52500708E-02 -0.38383996E-04
     atom    3 type  2   force =  -0.31658993E-02 -0.67690182E-02  0.14866879E-03
     atom    4 type  3   force =  -0.59460012E-02  0.63915180E-02  0.89303649E-03
     atom    5 type  1   force =  -0.95323947E-02  0.18869925E-04  0.95150628E-04
     atom    6 type  3   force =   0.67632200E-02  0.99782981E-02 -0.15239328E-01
     atom    7 type  2   force =   0.67521104E-02  0.13832441E-01  0.54643815E-03
     atom    8 type  3   force =   0.23546798E-02 -0.15141706E-01  0.13544053E-01
     atom    9 type  1   force =   0.20692419E-02 -0.75801798E-02 -0.65151961E-02
     atom   10 type  3   force =  -0.22508948E-02 -0.11533069E-01  0.14746289E-01
     atom   11 type  2   force =  -0.51389475E-02 -0.11401985E-01  0.33073263E-02
     atom   12 type  3   force =  -0.10337693E-01  0.12857063E-01  0.40632290E-02
     atom   13 type  1   force =   0.22288119E-02  0.13903481E-01 -0.17051244E-01
     atom   14 type  3   force =  -0.51394799E-02  0.50797144E-02  0.40035144E-02
     atom   15 type  2   force =   0.44541510E-02  0.14647463E-01 -0.32812574E-04
     atom   16 type  3   force =   0.10702678E-01 -0.16521451E-02 -0.19477796E-02

     Total force =     0.058969     Total SCF correction =     0.000485


     entering subroutine stress ...


     negative rho (up, down):  6.097E-04 1.623E-03
          total   stress  (Ry/bohr**3)                   (kbar)     P=    3.60
   0.0000126169  -0.0000014568   0.0000005187          1.86     -0.21      0.08
  -0.0000014568   0.0000300575  -0.0000000263         -0.21      4.42     -0.00
   0.0000005187  -0.0000000263   0.0000306741          0.08     -0.00      4.51


     Writing output data file mno_afm.in.222.022.save

     init_run     :     61.73s CPU     55.63s WALL (       1 calls)
     electrons    :   1964.27s CPU   1849.89s WALL (       1 calls)
     forces       :    122.16s CPU    121.46s WALL (       1 calls)
     stress       :    415.68s CPU    427.88s WALL (       1 calls)

     Called by init_run:
     wfcinit      :     59.64s CPU     53.53s WALL (       1 calls)
     potinit      :      0.49s CPU      0.50s WALL (       1 calls)

     Called by electrons:
     c_bands      :   1781.11s CPU   1677.79s WALL (      12 calls)
     sum_band     :    175.53s CPU    164.43s WALL (      12 calls)
     v_of_rho     :      1.72s CPU      1.72s WALL (      13 calls)
     newd         :      5.38s CPU      5.39s WALL (      13 calls)
     mix_rho      :      0.86s CPU      0.87s WALL (      12 calls)

     Called by c_bands:
     init_us_2    :      9.56s CPU      9.71s WALL (    2736 calls)
     cegterg      :   1750.30s CPU   1645.91s WALL (     864 calls)

     Called by *egterg:
     h_psi        :    824.07s CPU    778.95s WALL (    3823 calls)
     s_psi        :    126.50s CPU     86.67s WALL (    4615 calls)
     g_psi        :      1.28s CPU      1.24s WALL (    2887 calls)
     cdiaghg      :    498.10s CPU    521.33s WALL (    3751 calls)

     Called by h_psi:
     add_vuspsi   :     94.11s CPU     66.82s WALL (    3823 calls)
     vhpsi        :     79.67s CPU     83.18s WALL (    3823 calls)

     General routines
     calbec       :    658.43s CPU    642.33s WALL (   53150 calls)
     fft          :      1.29s CPU      1.31s WALL (     437 calls)
     ffts         :      0.50s CPU      0.48s WALL (     303 calls)
     fftw         :    586.31s CPU    588.88s WALL (  530002 calls)
     interpolate  :      0.22s CPU      0.21s WALL (      50 calls)
     davcio       :      0.01s CPU      0.03s WALL (      72 calls)

     Parallel routines
     fft_scatter  :    215.20s CPU    216.18s WALL (  530742 calls)
     Hubbard U routines
     new_ns       :     14.56s CPU     14.01s WALL (      12 calls)
     vhpsi        :     79.67s CPU     83.18s WALL (    3823 calls)
     force_hub    :    105.20s CPU    108.34s WALL (       1 calls)
     stres_hub    :    368.40s CPU    381.52s WALL (       1 calls)

     PWSCF        : 42m48.80s CPU    41m 0.74s WALL


   This run was terminated on:  18:49:37  16Aug2017            

=------------------------------------------------------------------------------=
   JOB DONE.
=------------------------------------------------------------------------------=
