
     Program PWSCF v.5.1 starts on 24Aug2017 at  3:31: 9 

     This program is part of the open-source Quantum ESPRESSO suite
     for quantum simulation of materials; please cite
         "P. Giannozzi et al., J. Phys.:Condens. Matter 21 395502 (2009);
          URL http://www.quantum-espresso.org", 
     in publications or presentations arising from this work. More details at
     http://www.quantum-espresso.org/quote

     Parallel version (MPI), running on     8 processors
     R & G space division:  proc/nbgrp/npool/nimage =       8
     Reading input from /tmp/mno_fm.scf.in.k.7.01.10086/mno_fm.scf.in.k.7.01.t
Warning: card &IONS ignored
Warning: card   ION_DYNAMICS='BFGS', ignored
Warning: card / ignored
Warning: card &CELL ignored
Warning: card  CELL_DYNAMICS = 'BFGS' ignored
Warning: card / ignored

     Current dimensions of program PWSCF are:
     Max number of different atomic species (ntypx) = 10
     Max number of k-points (npk) =  40000
     Max angular momentum in pseudopotentials (lmaxx) =  3
 kfg - two_fermi_energies  T

     Subspace diagonalization in iterative solution of the eigenvalue problem:
     a serial algorithm will be used

     warning: symmetry operation #  2 not compatible with FFT grid. 
  -1   1   0
   0   1   0
   0   0  -1
     warning: symmetry operation #  3 not compatible with FFT grid. 
   1  -1  -1
   0  -1   0
   0   0  -1
     warning: symmetry operation #  4 not compatible with FFT grid. 
  -1   0   1
   0  -1   0
   0   0   1
     warning: symmetry operation #  5 not compatible with FFT grid. 
  -1   1   1
   0   0   1
   0   1   0
     warning: symmetry operation #  7 not compatible with FFT grid. 
   1  -1   0
   0   0   1
   0  -1   0
     warning: symmetry operation #  8 not compatible with FFT grid. 
   1   0  -1
   0   0  -1
   0   1   0
     warning: symmetry operation # 10 not compatible with FFT grid. 
   1  -1   0
   0  -1   0
   0   0   1
     warning: symmetry operation # 11 not compatible with FFT grid. 
  -1   1   1
   0   1   0
   0   0   1
     warning: symmetry operation # 12 not compatible with FFT grid. 
   1   0  -1
   0   1   0
   0   0  -1
     warning: symmetry operation # 13 not compatible with FFT grid. 
   1  -1  -1
   0   0  -1
   0  -1   0
     warning: symmetry operation # 15 not compatible with FFT grid. 
  -1   1   0
   0   0  -1
   0   1   0
     warning: symmetry operation # 16 not compatible with FFT grid. 
  -1   0   1
   0   0   1
   0  -1   0

     Parallelization info
     --------------------
     sticks:   dense  smooth     PW     G-vecs:    dense   smooth      PW
     Min         160     131     41                 3639     2692     488
     Max         161     132     42                 3641     2699     491
     Sum        1285    1051    329                29119    21563    3907

     Generating pointlists ...
     new r_m :   0.1664 (alat units)  1.7286 (a.u.) for type    1
     new r_m :   0.1664 (alat units)  1.7286 (a.u.) for type    2


     bravais-lattice index     =            0
     lattice parameter (alat)  =    10.388967996  a.u.
     unit-cell volume          =     610.3520 (a.u.)^3
     number of atoms/cell      =            8
     number of atomic types    =            2
     number of electrons       =        84.00 (up:  52.00, down:  32.00)
     number of Kohn-Sham states=           62
     kinetic-energy cutoff     =      41.0000  Ry
     charge density cutoff     =     200.0000  Ry
     convergence threshold     =      1.0E-08
     mixing beta               =       0.3000
     number of iterations used =            8  local-TF  mixing
     Exchange-correlation      = SLA  PW   PSX  PSC ( 1  4 10  8 0)
     A smooth kinetic-energy cutoff is imposed at      40.0000 Ry
     height of the smooth step-function =             800.0000 Ry
     width of the smooth step-function  =               1.0000 Ry


     celldm(1)=  10.388968  celldm(2)=   0.000000  celldm(3)=   0.000000
     celldm(4)=   0.000000  celldm(5)=   0.000000  celldm(6)=   0.000000

     crystal axes: (cart. coord. in units of alat)
               a(1) = (   0.408248290464   0.816496580928   0.408248290464 )  
               a(2) = (   0.000000000000   0.000000000000   0.816496580928 )  
               a(3) = (   0.816496580928   0.000000000000   0.000000000000 )  

     reciprocal axes: (cart. coord. in units 2 pi/alat)
               b(1) = (  0.000000  1.224745  0.000000 )  
               b(2) = (  0.000000 -0.612372  1.224745 )  
               b(3) = (  1.224745 -0.612372  0.000000 )  


     PseudoPot. # 1 for Mn read from file:
     /users/kfg/psuedo/gbrv_1.5/mn.pbesol.UPF
     MD5 check sum: 0716d5f563e6e95a34f9080f4c78c109
     Pseudo is Ultrasoft + core correction, Zval = 15.0
     Generated by new atomic code, or converted to UPF format
     Using radial grid of  859 points,  6 beta functions with: 
                l(1) =   0
                l(2) =   0
                l(3) =   1
                l(4) =   1
                l(5) =   2
                l(6) =   2
     Q(r) pseudized with  8 coefficients,  rinner =    0.950   0.950   0.950
                                                       0.950   0.950

     PseudoPot. # 2 for O  read from file:
     /users/kfg/psuedo/gbrv_1.5/o.pbesol.UPF
     MD5 check sum: 501638753501ef6325af9037351f7734
     Pseudo is Ultrasoft + core correction, Zval =  6.0
     Generated by new atomic code, or converted to UPF format
     Using radial grid of  737 points,  5 beta functions with: 
                l(1) =   0
                l(2) =   0
                l(3) =   1
                l(4) =   1
                l(5) =   2
     Q(r) pseudized with  8 coefficients,  rinner =    0.900   0.900   0.900
                                                       0.900   0.900

     atomic species   valence    mass     pseudopotential
        Mn            15.00    54.90000     Mn( 1.00)
        O              6.00    15.99900     O ( 1.00)

     Starting magnetic structure 
     atomic species   magnetization
        Mn           1.000
        O            0.000


     Simplified LDA+U calculation (l_max = 2) with parameters (eV):
     atomic species    L          U    alpha       J0     beta
        Mn             2     3.0000   0.0000   0.0000   0.0000



     No symmetry found



   Cartesian axes

     site n.     atom                  positions (alat units)
         1           Mn  tau(   1) = (    0.00464669349   -0.00219587471   -0.00476131320  )
         2           O   tau(   2) = (    0.41096168743    0.40512359198    0.40997617807  )
         3           Mn  tau(   3) = (    0.81859631323    0.40760647364    0.41007629239  )
         4           O   tau(   4) = (    0.00439174903    0.00362800881    0.40378541099  )
         5           Mn  tau(   5) = (    0.40800973823   -0.00215469005    0.41223215587  )
         6           O   tau(   6) = (    0.81603967337    0.40514110346    0.81343426063  )
         7           Mn  tau(   7) = (    0.41251447399    0.41080537150    0.82124994020  )
         8           O   tau(   8) = (    0.41295374024   -0.00258292736    0.00272655239  )

     number of k points=   562  gaussian smearing, width (Ry)=  0.0100

     Number of k-points >= 100: set verbosity='high' to print them.

     Dense  grid:    29119 G-vectors     FFT dimensions: (  48,  40,  40)

     Smooth grid:    21563 G-vectors     FFT dimensions: (  45,  36,  36)

     Largest allocated arrays     est. size (Mb)     dimensions
        Kohn-Sham Wavefunctions         0.35 Mb     (     367,   62)
        Atomic Hubbard wavefuncts       0.11 Mb     (     367,   20)
        NL pseudopotentials             0.69 Mb     (     367,  124)
        Each V/rho on FFT grid          0.29 Mb     (    9600,   2)
        Each G-vector array             0.03 Mb     (    3641)
        G-vector shells                 0.00 Mb     (     477)
     Largest temporary arrays     est. size (Mb)     dimensions
        Auxiliary wavefunctions         1.39 Mb     (     367,  248)
        Each subspace H/S matrix        0.94 Mb     (     248,  248)
        Each <psi_i|beta_j> matrix      0.12 Mb     (     124,   62)
        Arrays for rho mixing           1.17 Mb     (    9600,    8)

     Check: negative/imaginary core charge=   -0.000058    0.000000

     Initial potential from superposition of free atoms

     starting charge   81.99968, renormalised to   84.00000
     Number of +U iterations with fixed ns =  0
     Starting occupations:
 --- enter write_ns ---
 LDA+U parameters:
U( 1)     =  3.00000000
alpha( 1) =  0.00000000
atom    1   Tr[ns(na)] (up, down, total) =   5.00000  0.00000  5.00000
   spin  1
    eigenvalues: 
  1.000  1.000  1.000  1.000  1.000
    eigenvectors:
  1.000  0.000  0.000  0.000  0.000
  0.000  1.000  0.000  0.000  0.000
  0.000  0.000  1.000  0.000  0.000
  0.000  0.000  0.000  1.000  0.000
  0.000  0.000  0.000  0.000  1.000
    occupations:
  1.000  0.000  0.000  0.000  0.000
  0.000  1.000  0.000  0.000  0.000
  0.000  0.000  1.000  0.000  0.000
  0.000  0.000  0.000  1.000  0.000
  0.000  0.000  0.000  0.000  1.000
   spin  2
    eigenvalues: 
  0.000  0.000  0.000  0.000  0.000
    eigenvectors:
  1.000  0.000  0.000  0.000  0.000
  0.000  1.000  0.000  0.000  0.000
  0.000  0.000  1.000  0.000  0.000
  0.000  0.000  0.000  1.000  0.000
  0.000  0.000  0.000  0.000  1.000
    occupations:
  0.000  0.000  0.000  0.000  0.000
  0.000  0.000  0.000  0.000  0.000
  0.000  0.000  0.000  0.000  0.000
  0.000  0.000  0.000  0.000  0.000
  0.000  0.000  0.000  0.000  0.000
atomic mag. moment =     5.000000
atom    3   Tr[ns(na)] (up, down, total) =   5.00000  0.00000  5.00000
   spin  1
    eigenvalues: 
  1.000  1.000  1.000  1.000  1.000
    eigenvectors:
  1.000  0.000  0.000  0.000  0.000
  0.000  1.000  0.000  0.000  0.000
  0.000  0.000  1.000  0.000  0.000
  0.000  0.000  0.000  1.000  0.000
  0.000  0.000  0.000  0.000  1.000
    occupations:
  1.000  0.000  0.000  0.000  0.000
  0.000  1.000  0.000  0.000  0.000
  0.000  0.000  1.000  0.000  0.000
  0.000  0.000  0.000  1.000  0.000
  0.000  0.000  0.000  0.000  1.000
   spin  2
    eigenvalues: 
  0.000  0.000  0.000  0.000  0.000
    eigenvectors:
  1.000  0.000  0.000  0.000  0.000
  0.000  1.000  0.000  0.000  0.000
  0.000  0.000  1.000  0.000  0.000
  0.000  0.000  0.000  1.000  0.000
  0.000  0.000  0.000  0.000  1.000
    occupations:
  0.000  0.000  0.000  0.000  0.000
  0.000  0.000  0.000  0.000  0.000
  0.000  0.000  0.000  0.000  0.000
  0.000  0.000  0.000  0.000  0.000
  0.000  0.000  0.000  0.000  0.000
atomic mag. moment =     5.000000
atom    5   Tr[ns(na)] (up, down, total) =   5.00000  0.00000  5.00000
   spin  1
    eigenvalues: 
  1.000  1.000  1.000  1.000  1.000
    eigenvectors:
  1.000  0.000  0.000  0.000  0.000
  0.000  1.000  0.000  0.000  0.000
  0.000  0.000  1.000  0.000  0.000
  0.000  0.000  0.000  1.000  0.000
  0.000  0.000  0.000  0.000  1.000
    occupations:
  1.000  0.000  0.000  0.000  0.000
  0.000  1.000  0.000  0.000  0.000
  0.000  0.000  1.000  0.000  0.000
  0.000  0.000  0.000  1.000  0.000
  0.000  0.000  0.000  0.000  1.000
   spin  2
    eigenvalues: 
  0.000  0.000  0.000  0.000  0.000
    eigenvectors:
  1.000  0.000  0.000  0.000  0.000
  0.000  1.000  0.000  0.000  0.000
  0.000  0.000  1.000  0.000  0.000
  0.000  0.000  0.000  1.000  0.000
  0.000  0.000  0.000  0.000  1.000
    occupations:
  0.000  0.000  0.000  0.000  0.000
  0.000  0.000  0.000  0.000  0.000
  0.000  0.000  0.000  0.000  0.000
  0.000  0.000  0.000  0.000  0.000
  0.000  0.000  0.000  0.000  0.000
atomic mag. moment =     5.000000
atom    7   Tr[ns(na)] (up, down, total) =   5.00000  0.00000  5.00000
   spin  1
    eigenvalues: 
  1.000  1.000  1.000  1.000  1.000
    eigenvectors:
  1.000  0.000  0.000  0.000  0.000
  0.000  1.000  0.000  0.000  0.000
  0.000  0.000  1.000  0.000  0.000
  0.000  0.000  0.000  1.000  0.000
  0.000  0.000  0.000  0.000  1.000
    occupations:
  1.000  0.000  0.000  0.000  0.000
  0.000  1.000  0.000  0.000  0.000
  0.000  0.000  1.000  0.000  0.000
  0.000  0.000  0.000  1.000  0.000
  0.000  0.000  0.000  0.000  1.000
   spin  2
    eigenvalues: 
  0.000  0.000  0.000  0.000  0.000
    eigenvectors:
  1.000  0.000  0.000  0.000  0.000
  0.000  1.000  0.000  0.000  0.000
  0.000  0.000  1.000  0.000  0.000
  0.000  0.000  0.000  1.000  0.000
  0.000  0.000  0.000  0.000  1.000
    occupations:
  0.000  0.000  0.000  0.000  0.000
  0.000  0.000  0.000  0.000  0.000
  0.000  0.000  0.000  0.000  0.000
  0.000  0.000  0.000  0.000  0.000
  0.000  0.000  0.000  0.000  0.000
atomic mag. moment =     5.000000
N of occupied +U levels =   20.000000
 --- exit write_ns ---
 Atomic wfc used for LDA+U Projector are NOT orthogonalized
     Starting wfc are   68 randomized atomic wfcs

     total cpu time spent up to now is      135.2 secs

     Self-consistent Calculation

     iteration #  1     ecut=    41.00 Ry     beta=0.30
     Davidson diagonalization with overlap
     ethr =  1.00E-02,  avg # of iterations =  3.3
 --- enter write_ns ---
 LDA+U parameters:
U( 1)     =  3.00000000
alpha( 1) =  0.00000000
atom    1   Tr[ns(na)] (up, down, total) =   4.98818  0.19318  5.18136
   spin  1
    eigenvalues: 
  0.997  0.997  0.998  0.998  0.998
    eigenvectors:
  0.672  0.327  0.000  0.000  0.000
  0.000  0.000  0.249  0.604  0.147
  0.000  0.000  0.698  0.301  0.001
  0.327  0.673  0.000  0.000  0.000
  0.000  0.000  0.053  0.095  0.852
    occupations:
  0.997  0.000  0.000  0.000 -0.000
  0.000  0.998  0.000 -0.000  0.000
  0.000  0.000  0.998 -0.000 -0.000
  0.000 -0.000 -0.000  0.997 -0.000
 -0.000  0.000 -0.000 -0.000  0.998
   spin  2
    eigenvalues: 
  0.021  0.021  0.021  0.066  0.066
    eigenvectors:
  0.000  0.000  0.000  0.998  0.002
  0.434  0.004  0.562  0.000  0.000
  0.314  0.499  0.186  0.000  0.000
  0.000  0.000  0.000  0.002  0.998
  0.252  0.496  0.252  0.000  0.000
    occupations:
  0.066  0.000 -0.000 -0.000  0.000
  0.000  0.021 -0.000  0.000  0.000
 -0.000 -0.000  0.021 -0.000  0.000
 -0.000  0.000 -0.000  0.066  0.000
  0.000  0.000  0.000  0.000  0.021
atomic mag. moment =     4.795005
atom    3   Tr[ns(na)] (up, down, total) =   4.98794  0.19642  5.18436
   spin  1
    eigenvalues: 
  0.997  0.997  0.998  0.998  0.998
    eigenvectors:
  0.410  0.588  0.000  0.002  0.000
  0.000  0.000  0.690  0.025  0.285
  0.001  0.000  0.078  0.898  0.022
  0.588  0.411  0.000  0.000  0.000
  0.000  0.000  0.233  0.074  0.693
    occupations:
  0.997 -0.000 -0.000 -0.000 -0.000
 -0.000  0.998  0.000 -0.000 -0.000
 -0.000  0.000  0.998 -0.000  0.000
 -0.000 -0.000 -0.000  0.997  0.000
 -0.000 -0.000  0.000  0.000  0.998
   spin  2
    eigenvalues: 
  0.021  0.021  0.021  0.066  0.068
    eigenvectors:
  0.000  0.000  0.000  0.735  0.265
  0.993  0.005  0.002  0.000  0.000
  0.000  0.109  0.890  0.000  0.000
  0.000  0.000  0.000  0.265  0.735
  0.006  0.886  0.108  0.000  0.000
    occupations:
  0.066  0.000  0.000  0.001  0.000
  0.000  0.021 -0.000  0.000 -0.000
  0.000 -0.000  0.021  0.000  0.000
  0.001  0.000  0.000  0.067  0.000
  0.000 -0.000  0.000  0.000  0.021
atomic mag. moment =     4.791524
atom    5   Tr[ns(na)] (up, down, total) =   4.98817  0.19329  5.18146
   spin  1
    eigenvalues: 
  0.997  0.997  0.998  0.998  0.998
    eigenvectors:
  0.861  0.139  0.000  0.000  0.000
  0.001  0.000  0.494  0.402  0.104
  0.000  0.000  0.019  0.105  0.877
  0.138  0.861  0.001  0.000  0.000
  0.000  0.001  0.486  0.493  0.020
    occupations:
  0.997 -0.000 -0.000  0.000 -0.000
 -0.000  0.998 -0.000  0.000 -0.000
 -0.000 -0.000  0.998 -0.000 -0.000
  0.000  0.000 -0.000  0.997  0.000
 -0.000 -0.000 -0.000  0.000  0.998
   spin  2
    eigenvalues: 
  0.021  0.021  0.021  0.066  0.066
    eigenvectors:
  0.000  0.000  0.000  0.302  0.698
  0.000  0.264  0.735  0.000  0.000
  0.257  0.542  0.201  0.000  0.000
  0.000  0.000  0.000  0.698  0.302
  0.743  0.193  0.064  0.000  0.000
    occupations:
  0.066  0.000  0.000  0.000 -0.000
  0.000  0.021  0.000 -0.000 -0.000
  0.000  0.000  0.021  0.000 -0.000
  0.000 -0.000  0.000  0.066 -0.000
 -0.000 -0.000 -0.000 -0.000  0.021
atomic mag. moment =     4.794878
atom    7   Tr[ns(na)] (up, down, total) =   4.98825  0.19052  5.17877
   spin  1
    eigenvalues: 
  0.997  0.997  0.998  0.998  0.998
    eigenvectors:
  0.751  0.249  0.000  0.000  0.000
  0.000  0.000  0.231  0.042  0.726
  0.000  0.000  0.342  0.637  0.020
  0.249  0.750  0.002  0.000  0.000
  0.000  0.001  0.424  0.321  0.254
    occupations:
  0.997  0.000 -0.000  0.000  0.000
  0.000  0.998 -0.000 -0.000  0.000
 -0.000 -0.000  0.998 -0.000  0.000
  0.000 -0.000 -0.000  0.997  0.000
  0.000  0.000  0.000  0.000  0.998
   spin  2
    eigenvalues: 
  0.020  0.020  0.021  0.064  0.066
    eigenvectors:
  0.000  0.000  0.000  0.250  0.750
  0.001  0.002  0.997  0.000  0.000
  0.238  0.761  0.000  0.000  0.000
  0.000  0.000  0.000  0.750  0.250
  0.760  0.237  0.003  0.000  0.000
    occupations:
  0.065 -0.000 -0.000 -0.001  0.000
 -0.000  0.021  0.000  0.000  0.000
 -0.000  0.000  0.020 -0.000  0.000
 -0.001  0.000 -0.000  0.064 -0.000
  0.000  0.000  0.000 -0.000  0.020
atomic mag. moment =     4.797735
N of occupied +U levels =   20.725947
 --- exit write_ns ---

     negative rho (up, down):  0.000E+00 6.109E-04

     Magnetic moment per site:
     atom:    1    charge:   12.7857    magn:   10.2474    constr:    0.0000
     atom:    2    charge:    5.7000    magn:    0.1870    constr:    0.0000
     atom:    3    charge:   12.7879    magn:   10.2480    constr:    0.0000
     atom:    4    charge:    5.7021    magn:    0.1887    constr:    0.0000
     atom:    5    charge:   12.7861    magn:   10.2475    constr:    0.0000
     atom:    6    charge:    5.7006    magn:    0.1872    constr:    0.0000
     atom:    7    charge:   12.7847    magn:   10.2472    constr:    0.0000
     atom:    8    charge:    5.6974    magn:    0.1851    constr:    0.0000

     total cpu time spent up to now is      653.8 secs

     total energy              =    -968.91383970 Ry
     Harris-Foulkes estimate   =    -960.50812326 Ry
     estimated scf accuracy    <      12.82404276 Ry

     total magnetization       =    20.00 Bohr mag/cell
     absolute magnetization    =    20.90 Bohr mag/cell

     iteration #  2     ecut=    41.00 Ry     beta=0.30
     Davidson diagonalization with overlap
     ethr =  1.00E-02,  avg # of iterations =  1.1

     negative rho (up, down):  0.000E+00 2.339E-03

     Magnetic moment per site:
     atom:    1    charge:   12.6702    magn:    4.5462    constr:    0.0000
     atom:    2    charge:    5.9235    magn:   -0.0488    constr:    0.0000
     atom:    3    charge:   12.6719    magn:    4.5468    constr:    0.0000
     atom:    4    charge:    5.9259    magn:   -0.0479    constr:    0.0000
     atom:    5    charge:   12.6706    magn:    4.5462    constr:    0.0000
     atom:    6    charge:    5.9242    magn:   -0.0486    constr:    0.0000
     atom:    7    charge:   12.6696    magn:    4.5457    constr:    0.0000
     atom:    8    charge:    5.9207    magn:   -0.0497    constr:    0.0000

     total cpu time spent up to now is      945.1 secs

     total energy              =    -972.81968465 Ry
     Harris-Foulkes estimate   =    -969.04542362 Ry
     estimated scf accuracy    <       6.32759212 Ry

     total magnetization       =    20.00 Bohr mag/cell
     absolute magnetization    =    20.61 Bohr mag/cell

     iteration #  3     ecut=    41.00 Ry     beta=0.30
     Davidson diagonalization with overlap
     ethr =  7.53E-03,  avg # of iterations =  2.0

     negative rho (up, down):  0.000E+00 2.579E-03

     Magnetic moment per site:
     atom:    1    charge:   12.6033    magn:    4.2862    constr:    0.0000
     atom:    2    charge:    5.9050    magn:    0.0631    constr:    0.0000
     atom:    3    charge:   12.6057    magn:    4.2854    constr:    0.0000
     atom:    4    charge:    5.9074    magn:    0.0643    constr:    0.0000
     atom:    5    charge:   12.6037    magn:    4.2861    constr:    0.0000
     atom:    6    charge:    5.9057    magn:    0.0633    constr:    0.0000
     atom:    7    charge:   12.6021    magn:    4.2867    constr:    0.0000
     atom:    8    charge:    5.9020    magn:    0.0621    constr:    0.0000

     total cpu time spent up to now is     1325.7 secs

     total energy              =    -973.07685496 Ry
     Harris-Foulkes estimate   =    -973.12744888 Ry
     estimated scf accuracy    <       0.18361876 Ry

     total magnetization       =    20.00 Bohr mag/cell
     absolute magnetization    =    20.00 Bohr mag/cell

     iteration #  4     ecut=    41.00 Ry     beta=0.30
     Davidson diagonalization with overlap
     ethr =  2.19E-04,  avg # of iterations =  2.3

     negative rho (up, down):  0.000E+00 2.641E-03

     Magnetic moment per site:
     atom:    1    charge:   12.5902    magn:    4.2018    constr:    0.0000
     atom:    2    charge:    5.9134    magn:    0.0812    constr:    0.0000
     atom:    3    charge:   12.5928    magn:    4.2009    constr:    0.0000
     atom:    4    charge:    5.9157    magn:    0.0824    constr:    0.0000
     atom:    5    charge:   12.5907    magn:    4.2018    constr:    0.0000
     atom:    6    charge:    5.9141    magn:    0.0813    constr:    0.0000
     atom:    7    charge:   12.5890    magn:    4.2025    constr:    0.0000
     atom:    8    charge:    5.9103    magn:    0.0801    constr:    0.0000

     total cpu time spent up to now is     1752.9 secs

     total energy              =    -973.10384121 Ry
     Harris-Foulkes estimate   =    -973.10572831 Ry
     estimated scf accuracy    <       0.01384257 Ry

     total magnetization       =    20.00 Bohr mag/cell
     absolute magnetization    =    20.00 Bohr mag/cell

     iteration #  5     ecut=    41.00 Ry     beta=0.30
     Davidson diagonalization with overlap
     ethr =  1.65E-05,  avg # of iterations =  2.4

     negative rho (up, down):  0.000E+00 2.717E-03

     Magnetic moment per site:
     atom:    1    charge:   12.5559    magn:    4.2702    constr:    0.0000
     atom:    2    charge:    5.9214    magn:    0.1571    constr:    0.0000
     atom:    3    charge:   12.5590    magn:    4.2686    constr:    0.0000
     atom:    4    charge:    5.9237    magn:    0.1585    constr:    0.0000
     atom:    5    charge:   12.5563    magn:    4.2700    constr:    0.0000
     atom:    6    charge:    5.9221    magn:    0.1573    constr:    0.0000
     atom:    7    charge:   12.5542    magn:    4.2714    constr:    0.0000
     atom:    8    charge:    5.9184    magn:    0.1560    constr:    0.0000

     total cpu time spent up to now is     2139.3 secs

     total energy              =    -973.10427594 Ry
     Harris-Foulkes estimate   =    -973.10455218 Ry
     estimated scf accuracy    <       0.00620181 Ry

     total magnetization       =    20.00 Bohr mag/cell
     absolute magnetization    =    20.00 Bohr mag/cell
 kfg - setting two_fermi_energies to FALSE

     iteration #  6     ecut=    41.00 Ry     beta=0.30
     Davidson diagonalization with overlap
     ethr =  7.38E-06,  avg # of iterations =  2.0

     negative rho (up, down):  0.000E+00 2.715E-03

     Magnetic moment per site:
     atom:    1    charge:   12.5497    magn:    4.2701    constr:    0.0000
     atom:    2    charge:    5.9225    magn:    0.1723    constr:    0.0000
     atom:    3    charge:   12.5530    magn:    4.2685    constr:    0.0000
     atom:    4    charge:    5.9248    magn:    0.1736    constr:    0.0000
     atom:    5    charge:   12.5502    magn:    4.2700    constr:    0.0000
     atom:    6    charge:    5.9232    magn:    0.1724    constr:    0.0000
     atom:    7    charge:   12.5478    magn:    4.2715    constr:    0.0000
     atom:    8    charge:    5.9194    magn:    0.1712    constr:    0.0000

     total cpu time spent up to now is     2506.7 secs

     total energy              =    -973.10565195 Ry
     Harris-Foulkes estimate   =    -973.10558788 Ry
     estimated scf accuracy    <       0.00024745 Ry

     total magnetization       =    20.00 Bohr mag/cell
     absolute magnetization    =    20.00 Bohr mag/cell

     iteration #  7     ecut=    41.00 Ry     beta=0.30
     Davidson diagonalization with overlap
     ethr =  2.95E-07,  avg # of iterations =  2.2

     negative rho (up, down):  0.000E+00 2.699E-03

     Magnetic moment per site:
     atom:    1    charge:   12.5493    magn:    4.2607    constr:    0.0000
     atom:    2    charge:    5.9221    magn:    0.1749    constr:    0.0000
     atom:    3    charge:   12.5527    magn:    4.2590    constr:    0.0000
     atom:    4    charge:    5.9245    magn:    0.1762    constr:    0.0000
     atom:    5    charge:   12.5498    magn:    4.2606    constr:    0.0000
     atom:    6    charge:    5.9228    magn:    0.1750    constr:    0.0000
     atom:    7    charge:   12.5474    magn:    4.2620    constr:    0.0000
     atom:    8    charge:    5.9190    magn:    0.1738    constr:    0.0000

     total cpu time spent up to now is     2875.9 secs

     total energy              =    -973.10571991 Ry
     Harris-Foulkes estimate   =    -973.10570862 Ry
     estimated scf accuracy    <       0.00005341 Ry

     total magnetization       =    20.00 Bohr mag/cell
     absolute magnetization    =    20.00 Bohr mag/cell

     iteration #  8     ecut=    41.00 Ry     beta=0.30
     Davidson diagonalization with overlap
     ethr =  6.36E-08,  avg # of iterations =  1.6

     negative rho (up, down):  0.000E+00 2.673E-03

     Magnetic moment per site:
     atom:    1    charge:   12.5503    magn:    4.2593    constr:    0.0000
     atom:    2    charge:    5.9215    magn:    0.1773    constr:    0.0000
     atom:    3    charge:   12.5538    magn:    4.2577    constr:    0.0000
     atom:    4    charge:    5.9239    magn:    0.1786    constr:    0.0000
     atom:    5    charge:   12.5508    magn:    4.2592    constr:    0.0000
     atom:    6    charge:    5.9222    magn:    0.1774    constr:    0.0000
     atom:    7    charge:   12.5483    magn:    4.2606    constr:    0.0000
     atom:    8    charge:    5.9185    magn:    0.1763    constr:    0.0000

     total cpu time spent up to now is     3201.0 secs

     total energy              =    -973.10573076 Ry
     Harris-Foulkes estimate   =    -973.10572896 Ry
     estimated scf accuracy    <       0.00000608 Ry

     total magnetization       =    20.00 Bohr mag/cell
     absolute magnetization    =    20.00 Bohr mag/cell

     iteration #  9     ecut=    41.00 Ry     beta=0.30
     Davidson diagonalization with overlap
     ethr =  7.23E-09,  avg # of iterations =  2.0

     negative rho (up, down):  0.000E+00 2.670E-03

     Magnetic moment per site:
     atom:    1    charge:   12.5502    magn:    4.2592    constr:    0.0000
     atom:    2    charge:    5.9214    magn:    0.1784    constr:    0.0000
     atom:    3    charge:   12.5537    magn:    4.2576    constr:    0.0000
     atom:    4    charge:    5.9238    magn:    0.1797    constr:    0.0000
     atom:    5    charge:   12.5507    magn:    4.2591    constr:    0.0000
     atom:    6    charge:    5.9222    magn:    0.1786    constr:    0.0000
     atom:    7    charge:   12.5482    magn:    4.2605    constr:    0.0000
     atom:    8    charge:    5.9184    magn:    0.1774    constr:    0.0000

     total cpu time spent up to now is     3559.0 secs

     total energy              =    -973.10573250 Ry
     Harris-Foulkes estimate   =    -973.10573251 Ry
     estimated scf accuracy    <       0.00000126 Ry

     total magnetization       =    20.00 Bohr mag/cell
     absolute magnetization    =    20.00 Bohr mag/cell

     iteration # 10     ecut=    41.00 Ry     beta=0.30
     Davidson diagonalization with overlap
     ethr =  1.50E-09,  avg # of iterations =  2.0

     negative rho (up, down):  0.000E+00 2.673E-03

     Magnetic moment per site:
     atom:    1    charge:   12.5503    magn:    4.2591    constr:    0.0000
     atom:    2    charge:    5.9214    magn:    0.1786    constr:    0.0000
     atom:    3    charge:   12.5538    magn:    4.2575    constr:    0.0000
     atom:    4    charge:    5.9238    magn:    0.1799    constr:    0.0000
     atom:    5    charge:   12.5508    magn:    4.2590    constr:    0.0000
     atom:    6    charge:    5.9221    magn:    0.1788    constr:    0.0000
     atom:    7    charge:   12.5482    magn:    4.2604    constr:    0.0000
     atom:    8    charge:    5.9184    magn:    0.1776    constr:    0.0000

     total cpu time spent up to now is     3917.0 secs

     total energy              =    -973.10573291 Ry
     Harris-Foulkes estimate   =    -973.10573280 Ry
     estimated scf accuracy    <       0.00000005 Ry

     total magnetization       =    20.00 Bohr mag/cell
     absolute magnetization    =    20.00 Bohr mag/cell

     iteration # 11     ecut=    41.00 Ry     beta=0.30
     Davidson diagonalization with overlap
     ethr =  5.38E-11,  avg # of iterations =  2.0

     negative rho (up, down):  0.000E+00 2.672E-03

     Magnetic moment per site:
     atom:    1    charge:   12.5503    magn:    4.2592    constr:    0.0000
     atom:    2    charge:    5.9214    magn:    0.1786    constr:    0.0000
     atom:    3    charge:   12.5539    magn:    4.2575    constr:    0.0000
     atom:    4    charge:    5.9237    magn:    0.1799    constr:    0.0000
     atom:    5    charge:   12.5508    magn:    4.2590    constr:    0.0000
     atom:    6    charge:    5.9221    magn:    0.1788    constr:    0.0000
     atom:    7    charge:   12.5482    magn:    4.2605    constr:    0.0000
     atom:    8    charge:    5.9184    magn:    0.1776    constr:    0.0000

     total cpu time spent up to now is     4255.3 secs

     End of self-consistent calculation
 --- enter write_ns ---
 LDA+U parameters:
U( 1)     =  3.00000000
alpha( 1) =  0.00000000
atom    1   Tr[ns(na)] (up, down, total) =   4.99194  0.45948  5.45142
   spin  1
    eigenvalues: 
  0.997  0.997  0.999  0.999  0.999
    eigenvectors:
  0.586  0.414  0.000  0.000  0.000
  0.000  0.000  0.221  0.603  0.176
  0.000  0.000  0.710  0.287  0.002
  0.414  0.586  0.000  0.000  0.000
  0.000  0.000  0.069  0.109  0.822
    occupations:
  0.997  0.000  0.000  0.000 -0.000
  0.000  0.999  0.000 -0.000  0.000
  0.000  0.000  0.999  0.000 -0.000
  0.000 -0.000  0.000  0.997 -0.000
 -0.000  0.000 -0.000 -0.000  0.999
   spin  2
    eigenvalues: 
  0.052  0.052  0.052  0.152  0.152
    eigenvectors:
  0.000  0.000  0.000  0.946  0.054
  0.268  0.420  0.312  0.000  0.000
  0.713  0.244  0.043  0.000  0.000
  0.000  0.000  0.000  0.054  0.946
  0.020  0.336  0.644  0.000  0.000
    occupations:
  0.152  0.000 -0.000 -0.000  0.000
  0.000  0.052 -0.000  0.000  0.000
 -0.000 -0.000  0.052 -0.000  0.000
 -0.000  0.000 -0.000  0.152  0.000
  0.000  0.000  0.000  0.000  0.052
atomic mag. moment =     4.532463
atom    3   Tr[ns(na)] (up, down, total) =   4.99133  0.46435  5.45568
   spin  1
    eigenvalues: 
  0.997  0.997  0.999  0.999  0.999
    eigenvectors:
  0.461  0.538  0.000  0.001  0.000
  0.000  0.000  0.616  0.022  0.362
  0.001  0.000  0.087  0.889  0.023
  0.538  0.462  0.000  0.000  0.000
  0.000  0.000  0.298  0.088  0.614
    occupations:
  0.997 -0.000 -0.000 -0.000 -0.000
 -0.000  0.999  0.000 -0.000 -0.000
 -0.000  0.000  0.999 -0.000  0.000
 -0.000 -0.000 -0.000  0.997  0.000
 -0.000 -0.000  0.000  0.000  0.999
   spin  2
    eigenvalues: 
  0.052  0.053  0.053  0.152  0.155
    eigenvectors:
  0.000  0.000  0.000  0.731  0.269
  0.997  0.001  0.002  0.000  0.000
  0.003  0.025  0.973  0.000  0.000
  0.000  0.000  0.000  0.269  0.731
  0.001  0.974  0.025  0.000  0.000
    occupations:
  0.153  0.000  0.000  0.002  0.000
  0.000  0.052 -0.000  0.000  0.000
  0.000 -0.000  0.053  0.001  0.000
  0.002  0.000  0.001  0.154  0.000
  0.000  0.000  0.000  0.000  0.053
atomic mag. moment =     4.526976
atom    5   Tr[ns(na)] (up, down, total) =   4.99192  0.45981  5.45173
   spin  1
    eigenvalues: 
  0.997  0.997  0.999  0.999  0.999
    eigenvectors:
  0.896  0.104  0.000  0.000  0.000
  0.000  0.000  0.482  0.378  0.140
  0.000  0.000  0.010  0.188  0.802
  0.103  0.896  0.001  0.000  0.000
  0.000  0.000  0.507  0.435  0.058
    occupations:
  0.997 -0.000 -0.000  0.000 -0.000
 -0.000  0.999 -0.000  0.000 -0.000
 -0.000 -0.000  0.999 -0.000 -0.000
  0.000  0.000 -0.000  0.997  0.000
 -0.000 -0.000 -0.000  0.000  0.999
   spin  2
    eigenvalues: 
  0.052  0.052  0.052  0.152  0.152
    eigenvectors:
  0.000  0.000  0.000  0.061  0.939
  0.021  0.299  0.680  0.000  0.000
  0.061  0.619  0.320  0.000  0.000
  0.000  0.000  0.000  0.939  0.061
  0.918  0.082  0.000  0.000  0.000
    occupations:
  0.152  0.000  0.000  0.000 -0.000
  0.000  0.052  0.000 -0.000  0.000
  0.000  0.000  0.052  0.000 -0.000
  0.000 -0.000  0.000  0.152 -0.000
 -0.000  0.000 -0.000 -0.000  0.052
atomic mag. moment =     4.532103
atom    7   Tr[ns(na)] (up, down, total) =   4.99231  0.45565  5.44796
   spin  1
    eigenvalues: 
  0.997  0.998  0.999  0.999  0.999
    eigenvectors:
  0.748  0.252  0.000  0.000  0.000
  0.000  0.000  0.324  0.022  0.654
  0.000  0.000  0.181  0.801  0.019
  0.252  0.747  0.000  0.000  0.000
  0.000  0.000  0.495  0.178  0.327
    occupations:
  0.997  0.000  0.000  0.000 -0.000
  0.000  0.999 -0.000 -0.000  0.000
  0.000 -0.000  0.999  0.000  0.000
  0.000 -0.000  0.000  0.998  0.000
 -0.000  0.000  0.000  0.000  0.999
   spin  2
    eigenvalues: 
  0.051  0.051  0.052  0.149  0.153
    eigenvectors:
  0.000  0.000  0.000  0.256  0.744
  0.003  0.001  0.996  0.000  0.000
  0.291  0.706  0.003  0.000  0.000
  0.000  0.000  0.000  0.744  0.256
  0.706  0.293  0.001  0.000  0.000
    occupations:
  0.152 -0.000 -0.000 -0.002 -0.000
 -0.000  0.052  0.000  0.000 -0.000
 -0.000  0.000  0.051 -0.000  0.000
 -0.002  0.000 -0.000  0.150 -0.000
 -0.000 -0.000  0.000 -0.000  0.051
atomic mag. moment =     4.536664
N of occupied +U levels =   21.806789
 --- exit write_ns ---

     Number of k-points >= 100: set verbosity='high' to print the bands.

     the Fermi energy is    12.4703 ev

!    total energy              =    -973.10573302 Ry
     Harris-Foulkes estimate   =    -973.10573292 Ry
     estimated scf accuracy    <          4.6E-09 Ry

     The total energy is the sum of the following terms:

     one-electron contribution =    -447.53447483 Ry
     hartree contribution      =     265.97811059 Ry
     xc contribution           =    -135.00655875 Ry
     ewald contribution        =    -656.72512721 Ry
     Hubbard energy            =       0.18240615 Ry
     smearing contrib. (-TS)   =      -0.00008897 Ry

     total magnetization       =    20.00 Bohr mag/cell
     absolute magnetization    =    20.00 Bohr mag/cell

     convergence has been achieved in  11 iterations

     Forces acting on atoms (Ry/au):


     negative rho (up, down):  0.000E+00 2.672E-03
     atom    1 type  1   force =  -0.29863153E-02  0.30748553E-02  0.80339615E-02
     atom    2 type  2   force =  -0.68770401E-03  0.35179662E-02 -0.12511139E-02
     atom    3 type  1   force =   0.11695069E-02 -0.88929090E-03 -0.15557270E-02
     atom    4 type  2   force =  -0.26156588E-02 -0.72505851E-02  0.47504088E-02
     atom    5 type  1   force =   0.58978246E-02  0.29342825E-02 -0.59051050E-02
     atom    6 type  2   force =   0.46732152E-02  0.34517965E-02  0.51954695E-02
     atom    7 type  1   force =  -0.36974219E-02 -0.63598438E-02 -0.55856929E-02
     atom    8 type  2   force =  -0.17534467E-02  0.15208194E-02 -0.36822011E-02

     Total force =     0.020668     Total SCF correction =     0.000056


     entering subroutine stress ...


     negative rho (up, down):  0.000E+00 2.672E-03
          total   stress  (Ry/bohr**3)                   (kbar)     P=    0.41
   0.0000044908   0.0000002891  -0.0000004976          0.66      0.04     -0.07
   0.0000002891   0.0000024040   0.0000004541          0.04      0.35      0.07
  -0.0000004976   0.0000004541   0.0000015274         -0.07      0.07      0.22


     Writing output data file mno_fm.scf.in.k.7.011.save

     init_run     :    119.18s CPU    135.02s WALL (       1 calls)
     electrons    :   3517.76s CPU   4120.11s WALL (       1 calls)
     forces       :    329.77s CPU    407.25s WALL (       1 calls)
     stress       :    991.00s CPU   1233.60s WALL (       1 calls)

     Called by init_run:
     wfcinit      :    118.61s CPU    134.39s WALL (       1 calls)
     potinit      :      0.10s CPU      0.11s WALL (       1 calls)

     Called by electrons:
     c_bands      :   3132.70s CPU   3708.27s WALL (      11 calls)
     sum_band     :    383.05s CPU    409.80s WALL (      11 calls)
     v_of_rho     :      0.66s CPU      0.67s WALL (      12 calls)
     newd         :      1.03s CPU      1.05s WALL (      12 calls)
     mix_rho      :      0.36s CPU      0.36s WALL (      11 calls)

     Called by c_bands:
     init_us_2    :     19.84s CPU     20.95s WALL (   20232 calls)
     cegterg      :   3046.83s CPU   3614.68s WALL (    6182 calls)

     Called by *egterg:
     h_psi        :   1688.43s CPU   1903.85s WALL (   19628 calls)
     s_psi        :    142.34s CPU    162.95s WALL (   25810 calls)
     g_psi        :      2.29s CPU      2.32s WALL (   12884 calls)
     cdiaghg      :    539.41s CPU    734.97s WALL (   19066 calls)

     Called by h_psi:
     add_vuspsi   :    102.21s CPU    121.53s WALL (   19628 calls)
     vhpsi        :    190.86s CPU    281.14s WALL (   19628 calls)

     General routines
     calbec       :   1683.24s CPU   2081.79s WALL (  231460 calls)
     fft          :      0.49s CPU      0.50s WALL (     406 calls)
     ffts         :      0.21s CPU      0.21s WALL (     272 calls)
     fftw         :   1301.13s CPU   1365.79s WALL ( 2188074 calls)
     interpolate  :      0.10s CPU      0.10s WALL (      46 calls)
     davcio       :      0.03s CPU      0.06s WALL (     562 calls)

     Parallel routines
     fft_scatter  :    543.56s CPU    568.82s WALL ( 2188752 calls)
     Hubbard U routines
     new_ns       :     53.28s CPU     63.18s WALL (      11 calls)
     vhpsi        :    190.86s CPU    281.14s WALL (   19628 calls)
     force_hub    :    303.91s CPU    377.52s WALL (       1 calls)
     stres_hub    :    952.08s CPU   1192.75s WALL (       1 calls)

     PWSCF        :     1h22m CPU        1h38m WALL


   This run was terminated on:   5: 9:42  24Aug2017            

=------------------------------------------------------------------------------=
   JOB DONE.
=------------------------------------------------------------------------------=
