
     Program PWSCF v.5.1 starts on 24Aug2017 at  1:36:55 

     This program is part of the open-source Quantum ESPRESSO suite
     for quantum simulation of materials; please cite
         "P. Giannozzi et al., J. Phys.:Condens. Matter 21 395502 (2009);
          URL http://www.quantum-espresso.org", 
     in publications or presentations arising from this work. More details at
     http://www.quantum-espresso.org/quote

     Parallel version (MPI), running on     8 processors
     R & G space division:  proc/nbgrp/npool/nimage =       8
     Reading input from /tmp/mno_fm.scf.in.k.1.01.20567/mno_fm.scf.in.k.1.01.t
Warning: card &IONS ignored
Warning: card   ION_DYNAMICS='BFGS', ignored
Warning: card / ignored
Warning: card &CELL ignored
Warning: card  CELL_DYNAMICS = 'BFGS' ignored
Warning: card / ignored

     Current dimensions of program PWSCF are:
     Max number of different atomic species (ntypx) = 10
     Max number of k-points (npk) =  40000
     Max angular momentum in pseudopotentials (lmaxx) =  3
 kfg - two_fermi_energies  T

     Subspace diagonalization in iterative solution of the eigenvalue problem:
     a serial algorithm will be used


     Parallelization info
     --------------------
     sticks:   dense  smooth     PW     G-vecs:    dense   smooth      PW
     Min         102      83     25                 1825     1340     233
     Max         103      84     26                 1826     1348     236
     Sum         817     671    203                14607    10763    1875

     Generating pointlists ...
     new r_m :   0.2028 (alat units)  1.7202 (a.u.) for type    1
     new r_m :   0.2028 (alat units)  1.7202 (a.u.) for type    2


     bravais-lattice index     =            0
     lattice parameter (alat)  =     8.482556848  a.u.
     unit-cell volume          =     305.1760 (a.u.)^3
     number of atoms/cell      =            4
     number of atomic types    =            2
     number of electrons       =        42.00 (up:  26.00, down:  16.00)
     number of Kohn-Sham states=           31
     kinetic-energy cutoff     =      41.0000  Ry
     charge density cutoff     =     200.0000  Ry
     convergence threshold     =      1.0E-08
     mixing beta               =       0.3000
     number of iterations used =            8  local-TF  mixing
     Exchange-correlation      = SLA  PW   PSX  PSC ( 1  4 10  8 0)
     A smooth kinetic-energy cutoff is imposed at      40.0000 Ry
     height of the smooth step-function =             800.0000 Ry
     width of the smooth step-function  =               1.0000 Ry


     celldm(1)=   8.482557  celldm(2)=   0.000000  celldm(3)=   0.000000
     celldm(4)=   0.000000  celldm(5)=   0.000000  celldm(6)=   0.000000

     crystal axes: (cart. coord. in units of alat)
               a(1) = (   1.000000000000   0.000000000000   0.000000000000 )  
               a(2) = (   0.000000000000   0.500000000000  -0.500000000000 )  
               a(3) = (   0.000000000000   0.500000000000   0.500000000000 )  

     reciprocal axes: (cart. coord. in units 2 pi/alat)
               b(1) = (  1.000000 -0.000000  0.000000 )  
               b(2) = (  0.000000  1.000000 -1.000000 )  
               b(3) = ( -0.000000  1.000000  1.000000 )  


     PseudoPot. # 1 for Mn read from file:
     /users/kfg/psuedo/gbrv_1.5/mn.pbesol.UPF
     MD5 check sum: 0716d5f563e6e95a34f9080f4c78c109
     Pseudo is Ultrasoft + core correction, Zval = 15.0
     Generated by new atomic code, or converted to UPF format
     Using radial grid of  859 points,  6 beta functions with: 
                l(1) =   0
                l(2) =   0
                l(3) =   1
                l(4) =   1
                l(5) =   2
                l(6) =   2
     Q(r) pseudized with  8 coefficients,  rinner =    0.950   0.950   0.950
                                                       0.950   0.950

     PseudoPot. # 2 for O  read from file:
     /users/kfg/psuedo/gbrv_1.5/o.pbesol.UPF
     MD5 check sum: 501638753501ef6325af9037351f7734
     Pseudo is Ultrasoft + core correction, Zval =  6.0
     Generated by new atomic code, or converted to UPF format
     Using radial grid of  737 points,  5 beta functions with: 
                l(1) =   0
                l(2) =   0
                l(3) =   1
                l(4) =   1
                l(5) =   2
     Q(r) pseudized with  8 coefficients,  rinner =    0.900   0.900   0.900
                                                       0.900   0.900

     atomic species   valence    mass     pseudopotential
        Mn            15.00    54.90000     Mn( 1.00)
        O              6.00    15.99900     O ( 1.00)

     Starting magnetic structure 
     atomic species   magnetization
        Mn           1.000
        O            0.000


     Simplified LDA+U calculation (l_max = 2) with parameters (eV):
     atomic species    L          U    alpha       J0     beta
        Mn             2     3.0000   0.0000   0.0000   0.0000



     No symmetry found



   Cartesian axes

     site n.     atom                  positions (alat units)
         1           Mn  tau(   1) = (   -0.00275827298    0.00254679353   -0.00002966028  )
         2           O   tau(   2) = (    0.49937981347    0.00012358878   -0.00443032286  )
         3           Mn  tau(   3) = (    0.49652349328    0.50303167614   -0.00250526042  )
         4           O   tau(   4) = (    0.00497661310    0.50452629512    0.00525908980  )

     number of k points=   246  gaussian smearing, width (Ry)=  0.0100

     Number of k-points >= 100: set verbosity='high' to print them.

     Dense  grid:    14607 G-vectors     FFT dimensions: (  40,  27,  27)

     Smooth grid:    10763 G-vectors     FFT dimensions: (  36,  25,  25)

     Largest allocated arrays     est. size (Mb)     dimensions
        Kohn-Sham Wavefunctions         0.08 Mb     (     179,   31)
        Atomic Hubbard wavefuncts       0.03 Mb     (     179,   10)
        NL pseudopotentials             0.17 Mb     (     179,   62)
        Each V/rho on FFT grid          0.13 Mb     (    4320,   2)
        Each G-vector array             0.01 Mb     (    1826)
        G-vector shells                 0.00 Mb     (     277)
     Largest temporary arrays     est. size (Mb)     dimensions
        Auxiliary wavefunctions         0.34 Mb     (     179,  124)
        Each subspace H/S matrix        0.23 Mb     (     124,  124)
        Each <psi_i|beta_j> matrix      0.03 Mb     (      62,   31)
        Arrays for rho mixing           0.53 Mb     (    4320,    8)

     Check: negative/imaginary core charge=   -0.000057    0.000000

     Initial potential from superposition of free atoms

     starting charge   40.99984, renormalised to   42.00000
     Number of +U iterations with fixed ns =  0
     Starting occupations:
 --- enter write_ns ---
 LDA+U parameters:
U( 1)     =  3.00000000
alpha( 1) =  0.00000000
atom    1   Tr[ns(na)] (up, down, total) =   5.00000  0.00000  5.00000
   spin  1
    eigenvalues: 
  1.000  1.000  1.000  1.000  1.000
    eigenvectors:
  1.000  0.000  0.000  0.000  0.000
  0.000  1.000  0.000  0.000  0.000
  0.000  0.000  1.000  0.000  0.000
  0.000  0.000  0.000  1.000  0.000
  0.000  0.000  0.000  0.000  1.000
    occupations:
  1.000  0.000  0.000  0.000  0.000
  0.000  1.000  0.000  0.000  0.000
  0.000  0.000  1.000  0.000  0.000
  0.000  0.000  0.000  1.000  0.000
  0.000  0.000  0.000  0.000  1.000
   spin  2
    eigenvalues: 
  0.000  0.000  0.000  0.000  0.000
    eigenvectors:
  1.000  0.000  0.000  0.000  0.000
  0.000  1.000  0.000  0.000  0.000
  0.000  0.000  1.000  0.000  0.000
  0.000  0.000  0.000  1.000  0.000
  0.000  0.000  0.000  0.000  1.000
    occupations:
  0.000  0.000  0.000  0.000  0.000
  0.000  0.000  0.000  0.000  0.000
  0.000  0.000  0.000  0.000  0.000
  0.000  0.000  0.000  0.000  0.000
  0.000  0.000  0.000  0.000  0.000
atomic mag. moment =     5.000000
atom    3   Tr[ns(na)] (up, down, total) =   5.00000  0.00000  5.00000
   spin  1
    eigenvalues: 
  1.000  1.000  1.000  1.000  1.000
    eigenvectors:
  1.000  0.000  0.000  0.000  0.000
  0.000  1.000  0.000  0.000  0.000
  0.000  0.000  1.000  0.000  0.000
  0.000  0.000  0.000  1.000  0.000
  0.000  0.000  0.000  0.000  1.000
    occupations:
  1.000  0.000  0.000  0.000  0.000
  0.000  1.000  0.000  0.000  0.000
  0.000  0.000  1.000  0.000  0.000
  0.000  0.000  0.000  1.000  0.000
  0.000  0.000  0.000  0.000  1.000
   spin  2
    eigenvalues: 
  0.000  0.000  0.000  0.000  0.000
    eigenvectors:
  1.000  0.000  0.000  0.000  0.000
  0.000  1.000  0.000  0.000  0.000
  0.000  0.000  1.000  0.000  0.000
  0.000  0.000  0.000  1.000  0.000
  0.000  0.000  0.000  0.000  1.000
    occupations:
  0.000  0.000  0.000  0.000  0.000
  0.000  0.000  0.000  0.000  0.000
  0.000  0.000  0.000  0.000  0.000
  0.000  0.000  0.000  0.000  0.000
  0.000  0.000  0.000  0.000  0.000
atomic mag. moment =     5.000000
N of occupied +U levels =   10.000000
 --- exit write_ns ---
 Atomic wfc used for LDA+U Projector are NOT orthogonalized
     Starting wfc are   34 randomized atomic wfcs

     total cpu time spent up to now is       15.6 secs

     Self-consistent Calculation

     iteration #  1     ecut=    41.00 Ry     beta=0.30
     Davidson diagonalization with overlap
     ethr =  1.00E-02,  avg # of iterations =  3.1
 --- enter write_ns ---
 LDA+U parameters:
U( 1)     =  3.00000000
alpha( 1) =  0.00000000
atom    1   Tr[ns(na)] (up, down, total) =   4.98804  0.19325  5.18130
   spin  1
    eigenvalues: 
  0.997  0.997  0.998  0.998  0.998
    eigenvectors:
  0.783  0.217  0.000  0.000  0.000
  0.000  0.000  0.000  0.982  0.017
  0.000  0.000  1.000  0.000  0.000
  0.217  0.783  0.000  0.000  0.000
  0.000  0.000  0.000  0.017  0.983
    occupations:
  0.997 -0.000 -0.000 -0.000 -0.000
 -0.000  0.998  0.000  0.000  0.000
 -0.000  0.000  0.998  0.000  0.000
 -0.000  0.000  0.000  0.997 -0.000
 -0.000  0.000  0.000 -0.000  0.998
   spin  2
    eigenvalues: 
  0.021  0.021  0.021  0.066  0.066
    eigenvectors:
  0.000  0.000  0.000  0.007  0.993
  0.009  0.002  0.989  0.000  0.000
  0.830  0.165  0.005  0.000  0.000
  0.000  0.000  0.000  0.993  0.007
  0.161  0.833  0.006  0.000  0.000
    occupations:
  0.066  0.000  0.000 -0.000  0.000
  0.000  0.021  0.000  0.000  0.000
  0.000  0.000  0.021 -0.000 -0.000
 -0.000  0.000 -0.000  0.066  0.000
  0.000  0.000 -0.000  0.000  0.021
atomic mag. moment =     4.794788
atom    3   Tr[ns(na)] (up, down, total) =   4.98789  0.19366  5.18155
   spin  1
    eigenvalues: 
  0.996  0.997  0.998  0.998  0.998
    eigenvectors:
  0.746  0.253  0.000  0.000  0.000
  0.000  0.001  0.001  0.976  0.023
  0.000  0.000  0.999  0.001  0.000
  0.254  0.746  0.000  0.001  0.000
  0.000  0.000  0.000  0.023  0.977
    occupations:
  0.997  0.000 -0.000 -0.000 -0.000
  0.000  0.998  0.000 -0.000  0.000
 -0.000  0.000  0.998  0.000  0.000
 -0.000 -0.000  0.000  0.997  0.000
 -0.000  0.000  0.000  0.000  0.998
   spin  2
    eigenvalues: 
  0.021  0.021  0.021  0.066  0.066
    eigenvectors:
  0.000  0.000  0.000  0.835  0.165
  0.002  0.217  0.780  0.000  0.000
  0.839  0.140  0.021  0.000  0.000
  0.000  0.000  0.000  0.165  0.835
  0.159  0.643  0.198  0.000  0.000
    occupations:
  0.066 -0.000  0.000 -0.000  0.000
 -0.000  0.021 -0.000  0.000  0.000
  0.000 -0.000  0.021 -0.000  0.000
 -0.000  0.000 -0.000  0.066 -0.000
  0.000  0.000  0.000 -0.000  0.021
atomic mag. moment =     4.794230
N of occupied +U levels =   10.362844
 --- exit write_ns ---

     negative rho (up, down):  0.000E+00 2.764E-04

     Magnetic moment per site:
     atom:    1    charge:   12.7636    magn:   10.2300    constr:    0.0000
     atom:    2    charge:    5.6801    magn:    0.1824    constr:    0.0000
     atom:    3    charge:   12.7655    magn:   10.2312    constr:    0.0000
     atom:    4    charge:    5.6817    magn:    0.1830    constr:    0.0000

     total cpu time spent up to now is       73.9 secs

     total energy              =    -484.45762142 Ry
     Harris-Foulkes estimate   =    -480.26394100 Ry
     estimated scf accuracy    <       6.41171677 Ry

     total magnetization       =    10.00 Bohr mag/cell
     absolute magnetization    =    10.45 Bohr mag/cell

     iteration #  2     ecut=    41.00 Ry     beta=0.30
     Davidson diagonalization with overlap
     ethr =  1.00E-02,  avg # of iterations =  1.1

     negative rho (up, down):  0.000E+00 1.015E-03

     Magnetic moment per site:
     atom:    1    charge:   12.6494    magn:    4.5350    constr:    0.0000
     atom:    2    charge:    5.9023    magn:   -0.0501    constr:    0.0000
     atom:    3    charge:   12.6510    magn:    4.5357    constr:    0.0000
     atom:    4    charge:    5.9042    magn:   -0.0499    constr:    0.0000

     total cpu time spent up to now is      117.5 secs

     total energy              =    -486.41003964 Ry
     Harris-Foulkes estimate   =    -484.52316796 Ry
     estimated scf accuracy    <       3.16398492 Ry

     total magnetization       =    10.00 Bohr mag/cell
     absolute magnetization    =    10.30 Bohr mag/cell

     iteration #  3     ecut=    41.00 Ry     beta=0.30
     Davidson diagonalization with overlap
     ethr =  7.53E-03,  avg # of iterations =  1.8

     negative rho (up, down):  0.000E+00 1.106E-03

     Magnetic moment per site:
     atom:    1    charge:   12.5830    magn:    4.2789    constr:    0.0000
     atom:    2    charge:    5.8827    magn:    0.0617    constr:    0.0000
     atom:    3    charge:   12.5846    magn:    4.2794    constr:    0.0000
     atom:    4    charge:    5.8846    magn:    0.0620    constr:    0.0000

     total cpu time spent up to now is      177.6 secs

     total energy              =    -486.53884555 Ry
     Harris-Foulkes estimate   =    -486.56398480 Ry
     estimated scf accuracy    <       0.09156393 Ry

     total magnetization       =    10.00 Bohr mag/cell
     absolute magnetization    =    10.00 Bohr mag/cell

     iteration #  4     ecut=    41.00 Ry     beta=0.30
     Davidson diagonalization with overlap
     ethr =  2.18E-04,  avg # of iterations =  2.2

     negative rho (up, down):  0.000E+00 1.130E-03

     Magnetic moment per site:
     atom:    1    charge:   12.5696    magn:    4.1922    constr:    0.0000
     atom:    2    charge:    5.8907    magn:    0.0803    constr:    0.0000
     atom:    3    charge:   12.5712    magn:    4.1925    constr:    0.0000
     atom:    4    charge:    5.8927    magn:    0.0806    constr:    0.0000

     total cpu time spent up to now is      237.3 secs

     total energy              =    -486.55222078 Ry
     Harris-Foulkes estimate   =    -486.55313878 Ry
     estimated scf accuracy    <       0.00695477 Ry

     total magnetization       =    10.00 Bohr mag/cell
     absolute magnetization    =    10.00 Bohr mag/cell

     iteration #  5     ecut=    41.00 Ry     beta=0.30
     Davidson diagonalization with overlap
     ethr =  1.66E-05,  avg # of iterations =  1.9

     negative rho (up, down):  0.000E+00 1.155E-03

     Magnetic moment per site:
     atom:    1    charge:   12.5354    magn:    4.2598    constr:    0.0000
     atom:    2    charge:    5.8985    magn:    0.1559    constr:    0.0000
     atom:    3    charge:   12.5371    magn:    4.2601    constr:    0.0000
     atom:    4    charge:    5.9005    magn:    0.1563    constr:    0.0000

     total cpu time spent up to now is      288.4 secs

     total energy              =    -486.55241277 Ry
     Harris-Foulkes estimate   =    -486.55257096 Ry
     estimated scf accuracy    <       0.00311325 Ry

     total magnetization       =    10.00 Bohr mag/cell
     absolute magnetization    =    10.00 Bohr mag/cell
 kfg - setting two_fermi_energies to FALSE

     iteration #  6     ecut=    41.00 Ry     beta=0.30
     Davidson diagonalization with overlap
     ethr =  7.41E-06,  avg # of iterations =  2.1

     negative rho (up, down):  0.000E+00 1.154E-03

     Magnetic moment per site:
     atom:    1    charge:   12.5291    magn:    4.2605    constr:    0.0000
     atom:    2    charge:    5.8995    magn:    0.1715    constr:    0.0000
     atom:    3    charge:   12.5307    magn:    4.2608    constr:    0.0000
     atom:    4    charge:    5.9014    magn:    0.1719    constr:    0.0000

     total cpu time spent up to now is      334.4 secs

     total energy              =    -486.55310324 Ry
     Harris-Foulkes estimate   =    -486.55307209 Ry
     estimated scf accuracy    <       0.00012446 Ry

     total magnetization       =    10.00 Bohr mag/cell
     absolute magnetization    =    10.00 Bohr mag/cell

     iteration #  7     ecut=    41.00 Ry     beta=0.30
     Davidson diagonalization with overlap
     ethr =  2.96E-07,  avg # of iterations =  2.1

     negative rho (up, down):  0.000E+00 1.149E-03

     Magnetic moment per site:
     atom:    1    charge:   12.5289    magn:    4.2509    constr:    0.0000
     atom:    2    charge:    5.8991    magn:    0.1736    constr:    0.0000
     atom:    3    charge:   12.5306    magn:    4.2512    constr:    0.0000
     atom:    4    charge:    5.9010    magn:    0.1740    constr:    0.0000

     total cpu time spent up to now is      381.3 secs

     total energy              =    -486.55313757 Ry
     Harris-Foulkes estimate   =    -486.55313227 Ry
     estimated scf accuracy    <       0.00002677 Ry

     total magnetization       =    10.00 Bohr mag/cell
     absolute magnetization    =    10.00 Bohr mag/cell

     iteration #  8     ecut=    41.00 Ry     beta=0.30
     Davidson diagonalization with overlap
     ethr =  6.37E-08,  avg # of iterations =  1.7

     negative rho (up, down):  0.000E+00 1.140E-03

     Magnetic moment per site:
     atom:    1    charge:   12.5299    magn:    4.2495    constr:    0.0000
     atom:    2    charge:    5.8985    magn:    0.1762    constr:    0.0000
     atom:    3    charge:   12.5316    magn:    4.2498    constr:    0.0000
     atom:    4    charge:    5.9004    magn:    0.1765    constr:    0.0000

     total cpu time spent up to now is      422.2 secs

     total energy              =    -486.55314273 Ry
     Harris-Foulkes estimate   =    -486.55314176 Ry
     estimated scf accuracy    <       0.00000300 Ry

     total magnetization       =    10.00 Bohr mag/cell
     absolute magnetization    =    10.00 Bohr mag/cell

     iteration #  9     ecut=    41.00 Ry     beta=0.30
     Davidson diagonalization with overlap
     ethr =  7.14E-09,  avg # of iterations =  2.0

     negative rho (up, down):  0.000E+00 1.139E-03

     Magnetic moment per site:
     atom:    1    charge:   12.5298    magn:    4.2493    constr:    0.0000
     atom:    2    charge:    5.8984    magn:    0.1772    constr:    0.0000
     atom:    3    charge:   12.5315    magn:    4.2496    constr:    0.0000
     atom:    4    charge:    5.9004    magn:    0.1776    constr:    0.0000

     total cpu time spent up to now is      469.3 secs

     total energy              =    -486.55314368 Ry
     Harris-Foulkes estimate   =    -486.55314368 Ry
     estimated scf accuracy    <       0.00000062 Ry

     total magnetization       =    10.00 Bohr mag/cell
     absolute magnetization    =    10.00 Bohr mag/cell

     iteration # 10     ecut=    41.00 Ry     beta=0.30
     Davidson diagonalization with overlap
     ethr =  1.47E-09,  avg # of iterations =  2.0

     negative rho (up, down):  0.000E+00 1.141E-03

     Magnetic moment per site:
     atom:    1    charge:   12.5299    magn:    4.2493    constr:    0.0000
     atom:    2    charge:    5.8984    magn:    0.1775    constr:    0.0000
     atom:    3    charge:   12.5316    magn:    4.2495    constr:    0.0000
     atom:    4    charge:    5.9003    magn:    0.1779    constr:    0.0000

     total cpu time spent up to now is      517.7 secs

     total energy              =    -486.55314387 Ry
     Harris-Foulkes estimate   =    -486.55314382 Ry
     estimated scf accuracy    <       0.00000002 Ry

     total magnetization       =    10.00 Bohr mag/cell
     absolute magnetization    =    10.00 Bohr mag/cell

     iteration # 11     ecut=    41.00 Ry     beta=0.30
     Davidson diagonalization with overlap
     ethr =  5.06E-11,  avg # of iterations =  2.0

     negative rho (up, down):  0.000E+00 1.140E-03

     Magnetic moment per site:
     atom:    1    charge:   12.5299    magn:    4.2493    constr:    0.0000
     atom:    2    charge:    5.8984    magn:    0.1774    constr:    0.0000
     atom:    3    charge:   12.5316    magn:    4.2496    constr:    0.0000
     atom:    4    charge:    5.9003    magn:    0.1778    constr:    0.0000

     total cpu time spent up to now is      564.5 secs

     End of self-consistent calculation
 --- enter write_ns ---
 LDA+U parameters:
U( 1)     =  3.00000000
alpha( 1) =  0.00000000
atom    1   Tr[ns(na)] (up, down, total) =   4.99178  0.45960  5.45138
   spin  1
    eigenvalues: 
  0.997  0.998  0.999  0.999  0.999
    eigenvectors:
  0.786  0.214  0.000  0.000  0.000
  0.000  0.000  0.959  0.041  0.000
  0.000  0.000  0.000  0.010  0.990
  0.214  0.786  0.000  0.000  0.000
  0.000  0.000  0.041  0.950  0.010
    occupations:
  0.997 -0.000 -0.000 -0.000 -0.000
 -0.000  0.999 -0.000  0.000  0.000
 -0.000 -0.000  0.999  0.000  0.000
 -0.000  0.000  0.000  0.997 -0.000
 -0.000  0.000  0.000 -0.000  0.999
   spin  2
    eigenvalues: 
  0.052  0.052  0.052  0.152  0.152
    eigenvectors:
  0.000  0.000  0.000  0.133  0.867
  0.048  0.742  0.210  0.000  0.000
  0.240  0.095  0.665  0.000  0.000
  0.000  0.000  0.000  0.867  0.133
  0.712  0.163  0.126  0.000  0.000
    occupations:
  0.152  0.000  0.000 -0.000  0.000
  0.000  0.052  0.000 -0.000  0.000
  0.000  0.000  0.052 -0.000 -0.000
 -0.000 -0.000 -0.000  0.152  0.000
  0.000  0.000 -0.000  0.000  0.052
atomic mag. moment =     4.532175
atom    3   Tr[ns(na)] (up, down, total) =   4.99165  0.46022  5.45187
   spin  1
    eigenvalues: 
  0.997  0.997  0.999  0.999  0.999
    eigenvectors:
  0.745  0.254  0.000  0.000  0.000
  0.000  0.001  0.962  0.036  0.001
  0.000  0.000  0.002  0.008  0.990
  0.255  0.745  0.000  0.000  0.000
  0.000  0.000  0.035  0.955  0.009
    occupations:
  0.997  0.000 -0.000 -0.000 -0.000
  0.000  0.999  0.000 -0.000  0.000
 -0.000  0.000  0.999  0.000 -0.000
 -0.000 -0.000  0.000  0.997  0.000
 -0.000  0.000 -0.000  0.000  0.999
   spin  2
    eigenvalues: 
  0.052  0.052  0.052  0.152  0.152
    eigenvectors:
  0.000  0.000  0.000  0.796  0.204
  0.008  0.992  0.000  0.000  0.000
  0.926  0.007  0.067  0.000  0.000
  0.000  0.000  0.000  0.204  0.796
  0.066  0.001  0.933  0.000  0.000
    occupations:
  0.152 -0.000  0.000 -0.000 -0.000
 -0.000  0.052 -0.000  0.000  0.000
  0.000 -0.000  0.052 -0.000  0.000
 -0.000  0.000 -0.000  0.152 -0.000
 -0.000  0.000  0.000 -0.000  0.052
atomic mag. moment =     4.531426
N of occupied +U levels =   10.903248
 --- exit write_ns ---

     Number of k-points >= 100: set verbosity='high' to print the bands.

     the Fermi energy is    12.3800 ev

!    total energy              =    -486.55314393 Ry
     Harris-Foulkes estimate   =    -486.55314388 Ry
     estimated scf accuracy    <          1.1E-09 Ry

     The total energy is the sum of the following terms:

     one-electron contribution =    -223.76043162 Ry
     hartree contribution      =     132.98605615 Ry
     xc contribution           =     -67.50340908 Ry
     ewald contribution        =    -328.36654405 Ry
     Hubbard energy            =       0.09125329 Ry
     smearing contrib. (-TS)   =      -0.00006862 Ry

     total magnetization       =    10.00 Bohr mag/cell
     absolute magnetization    =    10.00 Bohr mag/cell

     convergence has been achieved in  11 iterations

     Forces acting on atoms (Ry/au):


     negative rho (up, down):  0.000E+00 1.140E-03
     atom    1 type  1   force =   0.13744665E-02  0.80319488E-03  0.12112469E-02
     atom    2 type  2   force =   0.18586838E-02  0.22981257E-02  0.31968972E-02
     atom    3 type  1   force =   0.35584919E-02 -0.12350585E-02  0.34537150E-03
     atom    4 type  2   force =  -0.67916422E-02 -0.18662621E-02 -0.47535157E-02

     Total force =     0.010463     Total SCF correction =     0.000012


     entering subroutine stress ...


     negative rho (up, down):  0.000E+00 1.140E-03
          total   stress  (Ry/bohr**3)                   (kbar)     P=    0.74
   0.0000134039   0.0000003680   0.0000003410          1.97      0.05      0.05
   0.0000003680  -0.0000007271  -0.0000009100          0.05     -0.11     -0.13
   0.0000003410  -0.0000009100   0.0000024328          0.05     -0.13      0.36


     Writing output data file mno_fm.scf.in.k.1.011.save

     init_run     :     13.02s CPU     15.10s WALL (       1 calls)
     electrons    :    442.73s CPU    548.95s WALL (       1 calls)
     forces       :     11.26s CPU     14.03s WALL (       1 calls)
     stress       :     55.37s CPU     68.50s WALL (       1 calls)

     Called by init_run:
     wfcinit      :     12.63s CPU     14.65s WALL (       1 calls)
     potinit      :      0.06s CPU      0.06s WALL (       1 calls)

     Called by electrons:
     c_bands      :    398.62s CPU    495.93s WALL (      11 calls)
     sum_band     :     43.19s CPU     52.01s WALL (      11 calls)
     v_of_rho     :      0.32s CPU      0.34s WALL (      12 calls)
     newd         :      0.42s CPU      0.43s WALL (      12 calls)
     mix_rho      :      0.21s CPU      0.24s WALL (      11 calls)

     Called by c_bands:
     init_us_2    :      3.07s CPU      3.17s WALL (    8856 calls)
     cegterg      :    374.13s CPU    469.30s WALL (    2706 calls)

     Called by *egterg:
     h_psi        :    158.45s CPU    195.73s WALL (    8393 calls)
     s_psi        :     12.55s CPU     30.03s WALL (   11099 calls)
     g_psi        :      0.22s CPU      0.25s WALL (    5441 calls)
     cdiaghg      :     45.82s CPU     47.10s WALL (    8147 calls)

     Called by h_psi:
     add_vuspsi   :      9.20s CPU     20.70s WALL (    8393 calls)
     vhpsi        :      7.16s CPU      7.95s WALL (    8393 calls)

     General routines
     calbec       :    139.98s CPU    179.41s WALL (   65494 calls)
     fft          :      0.41s CPU      0.44s WALL (     406 calls)
     ffts         :      0.10s CPU      0.11s WALL (     274 calls)
     fftw         :     93.08s CPU     97.70s WALL (  481162 calls)
     interpolate  :      0.05s CPU      0.05s WALL (      46 calls)
     davcio       :      0.00s CPU      0.02s WALL (     246 calls)

     Parallel routines
     fft_scatter  :     45.49s CPU     47.30s WALL (  481842 calls)
     Hubbard U routines
     new_ns       :      1.26s CPU      1.32s WALL (      11 calls)
     vhpsi        :      7.16s CPU      7.95s WALL (    8393 calls)
     force_hub    :      7.18s CPU      8.38s WALL (       1 calls)
     stres_hub    :     50.53s CPU     63.04s WALL (       1 calls)

     PWSCF        :  8m45.70s CPU    10m50.74s WALL


   This run was terminated on:   1:47:46  24Aug2017            

=------------------------------------------------------------------------------=
   JOB DONE.
=------------------------------------------------------------------------------=
