
     Program PWSCF v.5.1 starts on 24Aug2017 at  2:37:52 

     This program is part of the open-source Quantum ESPRESSO suite
     for quantum simulation of materials; please cite
         "P. Giannozzi et al., J. Phys.:Condens. Matter 21 395502 (2009);
          URL http://www.quantum-espresso.org", 
     in publications or presentations arising from this work. More details at
     http://www.quantum-espresso.org/quote

     Parallel version (MPI), running on     8 processors
     R & G space division:  proc/nbgrp/npool/nimage =       8
     Reading input from /tmp/mno_fm.scf.in.k.3.02.7148/mno_fm.scf.in.k.3.02.t
Warning: card &IONS ignored
Warning: card   ION_DYNAMICS='BFGS', ignored
Warning: card / ignored
Warning: card &CELL ignored
Warning: card  CELL_DYNAMICS = 'BFGS' ignored
Warning: card / ignored

     Current dimensions of program PWSCF are:
     Max number of different atomic species (ntypx) = 10
     Max number of k-points (npk) =  40000
     Max angular momentum in pseudopotentials (lmaxx) =  3
 kfg - two_fermi_energies  T

     Subspace diagonalization in iterative solution of the eigenvalue problem:
     a serial algorithm will be used

     warning: symmetry operation #  2 not compatible with FFT grid. 
  -1   1  -1
   0   0  -1
   0  -1   0
     warning: symmetry operation #  4 not compatible with FFT grid. 
  -1   0  -1
   0  -1   1
   0   0   1
     warning: symmetry operation #  5 not compatible with FFT grid. 
   1  -1   1
   0   0  -1
   0   1  -1
     warning: symmetry operation #  6 not compatible with FFT grid. 
   1   0   1
   0  -1   1
   0  -1   0
     warning: symmetry operation #  8 not compatible with FFT grid. 
   1  -1   1
   0   0   1
   0   1   0
     warning: symmetry operation # 10 not compatible with FFT grid. 
   1   0   1
   0   1  -1
   0   0  -1
     warning: symmetry operation # 11 not compatible with FFT grid. 
  -1   1  -1
   0   0   1
   0  -1   1
     warning: symmetry operation # 12 not compatible with FFT grid. 
  -1   0  -1
   0   1  -1
   0   1   0

     Parallelization info
     --------------------
     sticks:   dense  smooth     PW     G-vecs:    dense   smooth      PW
     Min         238     195     62                 3656     2692     496
     Max         239     196     63                 3657     2701     497
     Sum        1907    1561    499                29255    21577    3975

     Generating pointlists ...
     new r_m :   0.0862 (alat units)  1.7153 (a.u.) for type    1
     new r_m :   0.0862 (alat units)  1.7153 (a.u.) for type    2


     bravais-lattice index     =            0
     lattice parameter (alat)  =    19.893359162  a.u.
     unit-cell volume          =     610.3520 (a.u.)^3
     number of atoms/cell      =            8
     number of atomic types    =            2
     number of electrons       =        84.00 (up:  52.00, down:  32.00)
     number of Kohn-Sham states=           62
     kinetic-energy cutoff     =      41.0000  Ry
     charge density cutoff     =     200.0000  Ry
     convergence threshold     =      1.0E-08
     mixing beta               =       0.3000
     number of iterations used =            8  local-TF  mixing
     Exchange-correlation      = SLA  PW   PSX  PSC ( 1  4 10  8 0)
     A smooth kinetic-energy cutoff is imposed at      40.0000 Ry
     height of the smooth step-function =             800.0000 Ry
     width of the smooth step-function  =               1.0000 Ry


     celldm(1)=  19.893359  celldm(2)=   0.000000  celldm(3)=   0.000000
     celldm(4)=   0.000000  celldm(5)=   0.000000  celldm(6)=   0.000000

     crystal axes: (cart. coord. in units of alat)
               a(1) = (   0.639602149067   0.426401432711  -0.639602149067 )  
               a(2) = (   0.213200716356   0.000000000000   0.213200716356 )  
               a(3) = (   0.000000000000   0.213200716356   0.213200716356 )  

     reciprocal axes: (cart. coord. in units 2 pi/alat)
               b(1) = (  0.586302  0.586302 -0.586302 )  
               b(2) = (  2.931510 -1.758906  1.758906 )  
               b(3) = ( -1.172604  3.517812  1.172604 )  


     PseudoPot. # 1 for Mn read from file:
     /users/kfg/psuedo/gbrv_1.5/mn.pbesol.UPF
     MD5 check sum: 0716d5f563e6e95a34f9080f4c78c109
     Pseudo is Ultrasoft + core correction, Zval = 15.0
     Generated by new atomic code, or converted to UPF format
     Using radial grid of  859 points,  6 beta functions with: 
                l(1) =   0
                l(2) =   0
                l(3) =   1
                l(4) =   1
                l(5) =   2
                l(6) =   2
     Q(r) pseudized with  8 coefficients,  rinner =    0.950   0.950   0.950
                                                       0.950   0.950

     PseudoPot. # 2 for O  read from file:
     /users/kfg/psuedo/gbrv_1.5/o.pbesol.UPF
     MD5 check sum: 501638753501ef6325af9037351f7734
     Pseudo is Ultrasoft + core correction, Zval =  6.0
     Generated by new atomic code, or converted to UPF format
     Using radial grid of  737 points,  5 beta functions with: 
                l(1) =   0
                l(2) =   0
                l(3) =   1
                l(4) =   1
                l(5) =   2
     Q(r) pseudized with  8 coefficients,  rinner =    0.900   0.900   0.900
                                                       0.900   0.900

     atomic species   valence    mass     pseudopotential
        Mn            15.00    54.90000     Mn( 1.00)
        O              6.00    15.99900     O ( 1.00)

     Starting magnetic structure 
     atomic species   magnetization
        Mn           1.000
        O            0.000


     Simplified LDA+U calculation (l_max = 2) with parameters (eV):
     atomic species    L          U    alpha       J0     beta
        Mn             2     3.0000   0.0000   0.0000   0.0000



     No symmetry found



   Cartesian axes

     site n.     atom                  positions (alat units)
         1           Mn  tau(   1) = (   -0.00056530506   -0.00113410313   -0.00169430101  )
         2           O   tau(   2) = (    0.21328979981    0.21357301276    0.21435365047  )
         3           Mn  tau(   3) = (    0.21495199651    0.21102644666    0.00032494461  )
         4           O   tau(   4) = (    0.42888091767    0.21511407357    0.00133859144  )
         5           Mn  tau(   5) = (    0.42468635217    0.42708470539   -0.00121311138  )
         6           O   tau(   6) = (    0.42620723985    0.42758101760   -0.21534449950  )
         7           Mn  tau(   7) = (    0.64160517331    0.42484617047   -0.21560946914  )
         8           O   tau(   8) = (    0.64043235044    0.42568984821   -0.42654315520  )

     number of k points=   304  gaussian smearing, width (Ry)=  0.0100

     Number of k-points >= 100: set verbosity='high' to print them.

     Dense  grid:    29255 G-vectors     FFT dimensions: (  90,  27,  27)

     Smooth grid:    21577 G-vectors     FFT dimensions: (  81,  25,  25)

     Largest allocated arrays     est. size (Mb)     dimensions
        Kohn-Sham Wavefunctions         0.33 Mb     (     350,   62)
        Atomic Hubbard wavefuncts       0.11 Mb     (     350,   20)
        NL pseudopotentials             0.66 Mb     (     350,  124)
        Each V/rho on FFT grid          0.30 Mb     (    9720,   2)
        Each G-vector array             0.03 Mb     (    3657)
        G-vector shells                 0.01 Mb     (     901)
     Largest temporary arrays     est. size (Mb)     dimensions
        Auxiliary wavefunctions         1.32 Mb     (     350,  248)
        Each subspace H/S matrix        0.94 Mb     (     248,  248)
        Each <psi_i|beta_j> matrix      0.12 Mb     (     124,   62)
        Arrays for rho mixing           1.19 Mb     (    9720,    8)

     Check: negative/imaginary core charge=   -0.000057    0.000000

     Initial potential from superposition of free atoms

     starting charge   81.99968, renormalised to   84.00000
     Number of +U iterations with fixed ns =  0
     Starting occupations:
 --- enter write_ns ---
 LDA+U parameters:
U( 1)     =  3.00000000
alpha( 1) =  0.00000000
atom    1   Tr[ns(na)] (up, down, total) =   5.00000  0.00000  5.00000
   spin  1
    eigenvalues: 
  1.000  1.000  1.000  1.000  1.000
    eigenvectors:
  1.000  0.000  0.000  0.000  0.000
  0.000  1.000  0.000  0.000  0.000
  0.000  0.000  1.000  0.000  0.000
  0.000  0.000  0.000  1.000  0.000
  0.000  0.000  0.000  0.000  1.000
    occupations:
  1.000  0.000  0.000  0.000  0.000
  0.000  1.000  0.000  0.000  0.000
  0.000  0.000  1.000  0.000  0.000
  0.000  0.000  0.000  1.000  0.000
  0.000  0.000  0.000  0.000  1.000
   spin  2
    eigenvalues: 
  0.000  0.000  0.000  0.000  0.000
    eigenvectors:
  1.000  0.000  0.000  0.000  0.000
  0.000  1.000  0.000  0.000  0.000
  0.000  0.000  1.000  0.000  0.000
  0.000  0.000  0.000  1.000  0.000
  0.000  0.000  0.000  0.000  1.000
    occupations:
  0.000  0.000  0.000  0.000  0.000
  0.000  0.000  0.000  0.000  0.000
  0.000  0.000  0.000  0.000  0.000
  0.000  0.000  0.000  0.000  0.000
  0.000  0.000  0.000  0.000  0.000
atomic mag. moment =     5.000000
atom    3   Tr[ns(na)] (up, down, total) =   5.00000  0.00000  5.00000
   spin  1
    eigenvalues: 
  1.000  1.000  1.000  1.000  1.000
    eigenvectors:
  1.000  0.000  0.000  0.000  0.000
  0.000  1.000  0.000  0.000  0.000
  0.000  0.000  1.000  0.000  0.000
  0.000  0.000  0.000  1.000  0.000
  0.000  0.000  0.000  0.000  1.000
    occupations:
  1.000  0.000  0.000  0.000  0.000
  0.000  1.000  0.000  0.000  0.000
  0.000  0.000  1.000  0.000  0.000
  0.000  0.000  0.000  1.000  0.000
  0.000  0.000  0.000  0.000  1.000
   spin  2
    eigenvalues: 
  0.000  0.000  0.000  0.000  0.000
    eigenvectors:
  1.000  0.000  0.000  0.000  0.000
  0.000  1.000  0.000  0.000  0.000
  0.000  0.000  1.000  0.000  0.000
  0.000  0.000  0.000  1.000  0.000
  0.000  0.000  0.000  0.000  1.000
    occupations:
  0.000  0.000  0.000  0.000  0.000
  0.000  0.000  0.000  0.000  0.000
  0.000  0.000  0.000  0.000  0.000
  0.000  0.000  0.000  0.000  0.000
  0.000  0.000  0.000  0.000  0.000
atomic mag. moment =     5.000000
atom    5   Tr[ns(na)] (up, down, total) =   5.00000  0.00000  5.00000
   spin  1
    eigenvalues: 
  1.000  1.000  1.000  1.000  1.000
    eigenvectors:
  1.000  0.000  0.000  0.000  0.000
  0.000  1.000  0.000  0.000  0.000
  0.000  0.000  1.000  0.000  0.000
  0.000  0.000  0.000  1.000  0.000
  0.000  0.000  0.000  0.000  1.000
    occupations:
  1.000  0.000  0.000  0.000  0.000
  0.000  1.000  0.000  0.000  0.000
  0.000  0.000  1.000  0.000  0.000
  0.000  0.000  0.000  1.000  0.000
  0.000  0.000  0.000  0.000  1.000
   spin  2
    eigenvalues: 
  0.000  0.000  0.000  0.000  0.000
    eigenvectors:
  1.000  0.000  0.000  0.000  0.000
  0.000  1.000  0.000  0.000  0.000
  0.000  0.000  1.000  0.000  0.000
  0.000  0.000  0.000  1.000  0.000
  0.000  0.000  0.000  0.000  1.000
    occupations:
  0.000  0.000  0.000  0.000  0.000
  0.000  0.000  0.000  0.000  0.000
  0.000  0.000  0.000  0.000  0.000
  0.000  0.000  0.000  0.000  0.000
  0.000  0.000  0.000  0.000  0.000
atomic mag. moment =     5.000000
atom    7   Tr[ns(na)] (up, down, total) =   5.00000  0.00000  5.00000
   spin  1
    eigenvalues: 
  1.000  1.000  1.000  1.000  1.000
    eigenvectors:
  1.000  0.000  0.000  0.000  0.000
  0.000  1.000  0.000  0.000  0.000
  0.000  0.000  1.000  0.000  0.000
  0.000  0.000  0.000  1.000  0.000
  0.000  0.000  0.000  0.000  1.000
    occupations:
  1.000  0.000  0.000  0.000  0.000
  0.000  1.000  0.000  0.000  0.000
  0.000  0.000  1.000  0.000  0.000
  0.000  0.000  0.000  1.000  0.000
  0.000  0.000  0.000  0.000  1.000
   spin  2
    eigenvalues: 
  0.000  0.000  0.000  0.000  0.000
    eigenvectors:
  1.000  0.000  0.000  0.000  0.000
  0.000  1.000  0.000  0.000  0.000
  0.000  0.000  1.000  0.000  0.000
  0.000  0.000  0.000  1.000  0.000
  0.000  0.000  0.000  0.000  1.000
    occupations:
  0.000  0.000  0.000  0.000  0.000
  0.000  0.000  0.000  0.000  0.000
  0.000  0.000  0.000  0.000  0.000
  0.000  0.000  0.000  0.000  0.000
  0.000  0.000  0.000  0.000  0.000
atomic mag. moment =     5.000000
N of occupied +U levels =   20.000000
 --- exit write_ns ---
 Atomic wfc used for LDA+U Projector are NOT orthogonalized
     Starting wfc are   68 randomized atomic wfcs

     total cpu time spent up to now is       73.0 secs

     per-process dynamical memory:   152.9 Mb

     Self-consistent Calculation

     iteration #  1     ecut=    41.00 Ry     beta=0.30
     Davidson diagonalization with overlap
     ethr =  1.00E-02,  avg # of iterations =  3.5
 --- enter write_ns ---
 LDA+U parameters:
U( 1)     =  3.00000000
alpha( 1) =  0.00000000
atom    1   Tr[ns(na)] (up, down, total) =   4.98790  0.19422  5.18211
   spin  1
    eigenvalues: 
  0.997  0.997  0.998  0.998  0.998
    eigenvectors:
  0.941  0.059  0.000  0.000  0.000
  0.000  0.000  0.012  0.008  0.980
  0.000  0.000  0.342  0.639  0.019
  0.059  0.941  0.000  0.000  0.000
  0.000  0.000  0.646  0.353  0.001
    occupations:
  0.997 -0.000 -0.000  0.000  0.000
 -0.000  0.998 -0.000 -0.000 -0.000
 -0.000 -0.000  0.998  0.000 -0.000
  0.000 -0.000  0.000  0.997 -0.000
  0.000 -0.000 -0.000 -0.000  0.998
   spin  2
    eigenvalues: 
  0.020  0.021  0.021  0.065  0.067
    eigenvectors:
  0.000  0.000  0.000  0.149  0.851
  0.001  0.000  0.999  0.000  0.000
  0.093  0.907  0.000  0.000  0.000
  0.000  0.000  0.000  0.851  0.149
  0.906  0.093  0.001  0.000  0.000
    occupations:
  0.067 -0.000  0.000 -0.000 -0.000
 -0.000  0.021 -0.000 -0.000 -0.000
  0.000 -0.000  0.021  0.000 -0.000
 -0.000 -0.000  0.000  0.066  0.000
 -0.000 -0.000 -0.000  0.000  0.020
atomic mag. moment =     4.793678
atom    3   Tr[ns(na)] (up, down, total) =   4.98825  0.19019  5.17844
   spin  1
    eigenvalues: 
  0.997  0.997  0.998  0.998  0.998
    eigenvectors:
  0.843  0.157  0.000  0.000  0.000
  0.000  0.000  0.001  0.981  0.018
  0.000  0.000  0.000  0.018  0.982
  0.157  0.843  0.000  0.000  0.000
  0.000  0.000  0.999  0.001  0.000
    occupations:
  0.997 -0.000 -0.000 -0.000  0.000
 -0.000  0.998  0.000 -0.000  0.000
 -0.000  0.000  0.998  0.000 -0.000
 -0.000 -0.000  0.000  0.997  0.000
  0.000  0.000 -0.000  0.000  0.998
   spin  2
    eigenvalues: 
  0.020  0.020  0.020  0.064  0.065
    eigenvectors:
  0.000  0.000  0.000  0.051  0.949
  0.010  0.915  0.075  0.000  0.000
  0.008  0.080  0.911  0.000  0.000
  0.000  0.000  0.000  0.949  0.051
  0.982  0.005  0.013  0.000  0.000
    occupations:
  0.065  0.000  0.000  0.000 -0.000
  0.000  0.020  0.000  0.000  0.000
  0.000  0.000  0.020 -0.000  0.000
  0.000  0.000 -0.000  0.064 -0.000
 -0.000  0.000  0.000 -0.000  0.020
atomic mag. moment =     4.798055
atom    5   Tr[ns(na)] (up, down, total) =   4.98785  0.19342  5.18127
   spin  1
    eigenvalues: 
  0.996  0.997  0.998  0.998  0.998
    eigenvectors:
  0.090  0.908  0.001  0.000  0.001
  0.000  0.000  0.089  0.908  0.002
  0.000  0.001  0.909  0.090  0.000
  0.910  0.090  0.000  0.000  0.000
  0.000  0.000  0.001  0.002  0.997
    occupations:
  0.997  0.000  0.000  0.000 -0.000
  0.000  0.998 -0.000 -0.000 -0.000
  0.000 -0.000  0.998 -0.000 -0.000
  0.000 -0.000 -0.000  0.997 -0.000
 -0.000 -0.000 -0.000 -0.000  0.998
   spin  2
    eigenvalues: 
  0.020  0.021  0.021  0.064  0.067
    eigenvectors:
  0.000  0.000  0.000  0.970  0.030
  0.039  0.957  0.003  0.000  0.000
  0.961  0.039  0.000  0.000  0.000
  0.000  0.000  0.000  0.030  0.970
  0.000  0.003  0.997  0.000  0.000
    occupations:
  0.064 -0.001 -0.000 -0.001  0.000
 -0.001  0.021 -0.000  0.000  0.000
 -0.000 -0.000  0.020 -0.000  0.000
 -0.001  0.000 -0.000  0.067  0.000
  0.000  0.000  0.000  0.000  0.021
atomic mag. moment =     4.794430
atom    7   Tr[ns(na)] (up, down, total) =   4.98773  0.19604  5.18376
   spin  1
    eigenvalues: 
  0.997  0.997  0.998  0.998  0.998
    eigenvectors:
  0.726  0.274  0.000  0.000  0.000
  0.000  0.000  0.151  0.793  0.057
  0.000  0.000  0.086  0.016  0.898
  0.274  0.726  0.000  0.000  0.000
  0.000  0.000  0.764  0.191  0.045
    occupations:
  0.997 -0.000  0.000 -0.000  0.000
 -0.000  0.998 -0.000  0.000 -0.000
  0.000 -0.000  0.998 -0.000 -0.000
 -0.000  0.000 -0.000  0.997  0.000
  0.000 -0.000 -0.000  0.000  0.998
   spin  2
    eigenvalues: 
  0.021  0.021  0.021  0.066  0.068
    eigenvectors:
  0.000  0.000  0.000  0.242  0.758
  0.484  0.516  0.000  0.000  0.000
  0.002  0.000  0.998  0.000  0.000
  0.000  0.000  0.000  0.758  0.242
  0.514  0.484  0.002  0.000  0.000
    occupations:
  0.067  0.000 -0.000  0.001  0.000
  0.000  0.021 -0.000 -0.000 -0.000
 -0.000 -0.000  0.021  0.000 -0.000
  0.001 -0.000  0.000  0.066 -0.000
  0.000 -0.000 -0.000 -0.000  0.021
atomic mag. moment =     4.791690
N of occupied +U levels =   20.725582
 --- exit write_ns ---

     negative rho (up, down):  0.000E+00 3.541E-04

     Magnetic moment per site:
     atom:    1    charge:   12.7528    magn:   10.2209    constr:    0.0000
     atom:    2    charge:    5.6704    magn:    0.1808    constr:    0.0000
     atom:    3    charge:   12.7503    magn:   10.2204    constr:    0.0000
     atom:    4    charge:    5.6678    magn:    0.1791    constr:    0.0000
     atom:    5    charge:   12.7504    magn:   10.2195    constr:    0.0000
     atom:    6    charge:    5.6656    magn:    0.1772    constr:    0.0000
     atom:    7    charge:   12.7535    magn:   10.2211    constr:    0.0000
     atom:    8    charge:    5.6734    magn:    0.1833    constr:    0.0000

     total cpu time spent up to now is      363.9 secs

     total energy              =    -968.91482361 Ry
     Harris-Foulkes estimate   =    -960.51237936 Ry
     estimated scf accuracy    <      12.82402278 Ry

     total magnetization       =    20.00 Bohr mag/cell
     absolute magnetization    =    20.90 Bohr mag/cell

     iteration #  2     ecut=    41.00 Ry     beta=0.30
     Davidson diagonalization with overlap
     ethr =  1.00E-02,  avg # of iterations =  1.1

     negative rho (up, down):  0.000E+00 1.355E-03

     Magnetic moment per site:
     atom:    1    charge:   12.6393    magn:    4.5286    constr:    0.0000
     atom:    2    charge:    5.8920    magn:   -0.0507    constr:    0.0000
     atom:    3    charge:   12.6372    magn:    4.5286    constr:    0.0000
     atom:    4    charge:    5.8892    magn:   -0.0515    constr:    0.0000
     atom:    5    charge:   12.6366    magn:    4.5283    constr:    0.0000
     atom:    6    charge:    5.8870    magn:   -0.0516    constr:    0.0000
     atom:    7    charge:   12.6394    magn:    4.5292    constr:    0.0000
     atom:    8    charge:    5.8954    magn:   -0.0488    constr:    0.0000

     total cpu time spent up to now is      525.6 secs

     total energy              =    -972.82021527 Ry
     Harris-Foulkes estimate   =    -969.04621774 Ry
     estimated scf accuracy    <       6.32828103 Ry

     total magnetization       =    20.00 Bohr mag/cell
     absolute magnetization    =    20.61 Bohr mag/cell

     iteration #  3     ecut=    41.00 Ry     beta=0.30
     Davidson diagonalization with overlap
     ethr =  7.53E-03,  avg # of iterations =  1.9

     negative rho (up, down):  0.000E+00 1.495E-03

     Magnetic moment per site:
     atom:    1    charge:   12.5729    magn:    4.2730    constr:    0.0000
     atom:    2    charge:    5.8716    magn:    0.0617    constr:    0.0000
     atom:    3    charge:   12.5702    magn:    4.2743    constr:    0.0000
     atom:    4    charge:    5.8686    magn:    0.0605    constr:    0.0000
     atom:    5    charge:   12.5700    magn:    4.2727    constr:    0.0000
     atom:    6    charge:    5.8664    magn:    0.0603    constr:    0.0000
     atom:    7    charge:   12.5732    magn:    4.2727    constr:    0.0000
     atom:    8    charge:    5.8753    magn:    0.0637    constr:    0.0000

     total cpu time spent up to now is      731.1 secs

     total energy              =    -973.07760600 Ry
     Harris-Foulkes estimate   =    -973.12814052 Ry
     estimated scf accuracy    <       0.18331831 Ry

     total magnetization       =    20.00 Bohr mag/cell
     absolute magnetization    =    20.00 Bohr mag/cell

     iteration #  4     ecut=    41.00 Ry     beta=0.30
     Davidson diagonalization with overlap
     ethr =  2.18E-04,  avg # of iterations =  2.4

     negative rho (up, down):  0.000E+00 1.532E-03

     Magnetic moment per site:
     atom:    1    charge:   12.5598    magn:    4.1862    constr:    0.0000
     atom:    2    charge:    5.8798    magn:    0.0800    constr:    0.0000
     atom:    3    charge:   12.5569    magn:    4.1877    constr:    0.0000
     atom:    4    charge:    5.8767    magn:    0.0788    constr:    0.0000
     atom:    5    charge:   12.5569    magn:    4.1860    constr:    0.0000
     atom:    6    charge:    5.8745    magn:    0.0786    constr:    0.0000
     atom:    7    charge:   12.5601    magn:    4.1858    constr:    0.0000
     atom:    8    charge:    5.8834    magn:    0.0820    constr:    0.0000

     total cpu time spent up to now is      958.5 secs

     total energy              =    -973.10450922 Ry
     Harris-Foulkes estimate   =    -973.10638907 Ry
     estimated scf accuracy    <       0.01402521 Ry

     total magnetization       =    20.00 Bohr mag/cell
     absolute magnetization    =    20.00 Bohr mag/cell

     iteration #  5     ecut=    41.00 Ry     beta=0.30
     Davidson diagonalization with overlap
     ethr =  1.67E-05,  avg # of iterations =  2.7

     negative rho (up, down):  0.000E+00 1.576E-03

     Magnetic moment per site:
     atom:    1    charge:   12.5257    magn:    4.2542    constr:    0.0000
     atom:    2    charge:    5.8873    magn:    0.1560    constr:    0.0000
     atom:    3    charge:   12.5223    magn:    4.2564    constr:    0.0000
     atom:    4    charge:    5.8843    magn:    0.1547    constr:    0.0000
     atom:    5    charge:   12.5228    magn:    4.2540    constr:    0.0000
     atom:    6    charge:    5.8820    magn:    0.1545    constr:    0.0000
     atom:    7    charge:   12.5263    magn:    4.2533    constr:    0.0000
     atom:    8    charge:    5.8908    magn:    0.1580    constr:    0.0000

     total cpu time spent up to now is     1177.3 secs

     total energy              =    -973.10490130 Ry
     Harris-Foulkes estimate   =    -973.10521499 Ry
     estimated scf accuracy    <       0.00628966 Ry

     total magnetization       =    20.00 Bohr mag/cell
     absolute magnetization    =    20.00 Bohr mag/cell
 kfg - setting two_fermi_energies to FALSE

     iteration #  6     ecut=    41.00 Ry     beta=0.30
     Davidson diagonalization with overlap
     ethr =  7.49E-06,  avg # of iterations =  2.4

     negative rho (up, down):  0.000E+00 1.576E-03

     Magnetic moment per site:
     atom:    1    charge:   12.5192    magn:    4.2544    constr:    0.0000
     atom:    2    charge:    5.8883    magn:    0.1721    constr:    0.0000
     atom:    3    charge:   12.5157    magn:    4.2566    constr:    0.0000
     atom:    4    charge:    5.8853    magn:    0.1707    constr:    0.0000
     atom:    5    charge:   12.5163    magn:    4.2542    constr:    0.0000
     atom:    6    charge:    5.8829    magn:    0.1705    constr:    0.0000
     atom:    7    charge:   12.5200    magn:    4.2535    constr:    0.0000
     atom:    8    charge:    5.8918    magn:    0.1739    constr:    0.0000

     total cpu time spent up to now is     1382.0 secs

     total energy              =    -973.10627800 Ry
     Harris-Foulkes estimate   =    -973.10622054 Ry
     estimated scf accuracy    <       0.00028500 Ry

     total magnetization       =    20.00 Bohr mag/cell
     absolute magnetization    =    20.00 Bohr mag/cell

     iteration #  7     ecut=    41.00 Ry     beta=0.30
     Davidson diagonalization with overlap
     ethr =  3.39E-07,  avg # of iterations =  2.3

     negative rho (up, down):  0.000E+00 1.566E-03

     Magnetic moment per site:
     atom:    1    charge:   12.5191    magn:    4.2448    constr:    0.0000
     atom:    2    charge:    5.8879    magn:    0.1743    constr:    0.0000
     atom:    3    charge:   12.5155    magn:    4.2470    constr:    0.0000
     atom:    4    charge:    5.8848    magn:    0.1729    constr:    0.0000
     atom:    5    charge:   12.5162    magn:    4.2446    constr:    0.0000
     atom:    6    charge:    5.8825    magn:    0.1727    constr:    0.0000
     atom:    7    charge:   12.5199    magn:    4.2439    constr:    0.0000
     atom:    8    charge:    5.8914    magn:    0.1760    constr:    0.0000

     total cpu time spent up to now is     1591.2 secs

     total energy              =    -973.10634696 Ry
     Harris-Foulkes estimate   =    -973.10633980 Ry
     estimated scf accuracy    <       0.00007590 Ry

     total magnetization       =    20.00 Bohr mag/cell
     absolute magnetization    =    20.00 Bohr mag/cell

     iteration #  8     ecut=    41.00 Ry     beta=0.30
     Davidson diagonalization with overlap
     ethr =  9.04E-08,  avg # of iterations =  1.5

     negative rho (up, down):  0.000E+00 1.540E-03

     Magnetic moment per site:
     atom:    1    charge:   12.5208    magn:    4.2424    constr:    0.0000
     atom:    2    charge:    5.8868    magn:    0.1784    constr:    0.0000
     atom:    3    charge:   12.5171    magn:    4.2446    constr:    0.0000
     atom:    4    charge:    5.8838    magn:    0.1770    constr:    0.0000
     atom:    5    charge:   12.5181    magn:    4.2423    constr:    0.0000
     atom:    6    charge:    5.8815    magn:    0.1767    constr:    0.0000
     atom:    7    charge:   12.5219    magn:    4.2416    constr:    0.0000
     atom:    8    charge:    5.8904    magn:    0.1799    constr:    0.0000

     total cpu time spent up to now is     1761.9 secs

     total energy              =    -973.10634919 Ry
     Harris-Foulkes estimate   =    -973.10635581 Ry
     estimated scf accuracy    <       0.00002365 Ry

     total magnetization       =    20.00 Bohr mag/cell
     absolute magnetization    =    20.00 Bohr mag/cell

     iteration #  9     ecut=    41.00 Ry     beta=0.30
     Davidson diagonalization with overlap
     ethr =  2.82E-08,  avg # of iterations =  2.0

     negative rho (up, down):  0.000E+00 1.541E-03

     Magnetic moment per site:
     atom:    1    charge:   12.5203    magn:    4.2427    constr:    0.0000
     atom:    2    charge:    5.8868    magn:    0.1810    constr:    0.0000
     atom:    3    charge:   12.5165    magn:    4.2449    constr:    0.0000
     atom:    4    charge:    5.8838    magn:    0.1796    constr:    0.0000
     atom:    5    charge:   12.5177    magn:    4.2426    constr:    0.0000
     atom:    6    charge:    5.8815    magn:    0.1792    constr:    0.0000
     atom:    7    charge:   12.5214    magn:    4.2418    constr:    0.0000
     atom:    8    charge:    5.8903    magn:    0.1824    constr:    0.0000

     total cpu time spent up to now is     1977.0 secs

     total energy              =    -973.10634949 Ry
     Harris-Foulkes estimate   =    -973.10635529 Ry
     estimated scf accuracy    <       0.00001103 Ry

     total magnetization       =    20.00 Bohr mag/cell
     absolute magnetization    =    20.00 Bohr mag/cell

     iteration # 10     ecut=    41.00 Ry     beta=0.30
     Davidson diagonalization with overlap
     ethr =  1.31E-08,  avg # of iterations =  2.2

     negative rho (up, down):  0.000E+00 1.556E-03

     Magnetic moment per site:
     atom:    1    charge:   12.5203    magn:    4.2431    constr:    0.0000
     atom:    2    charge:    5.8870    magn:    0.1789    constr:    0.0000
     atom:    3    charge:   12.5165    magn:    4.2453    constr:    0.0000
     atom:    4    charge:    5.8840    magn:    0.1774    constr:    0.0000
     atom:    5    charge:   12.5177    magn:    4.2430    constr:    0.0000
     atom:    6    charge:    5.8817    magn:    0.1770    constr:    0.0000
     atom:    7    charge:   12.5215    magn:    4.2423    constr:    0.0000
     atom:    8    charge:    5.8906    magn:    0.1802    constr:    0.0000

     total cpu time spent up to now is     2212.2 secs

     total energy              =    -973.10635298 Ry
     Harris-Foulkes estimate   =    -973.10635321 Ry
     estimated scf accuracy    <       0.00000669 Ry

     total magnetization       =    20.00 Bohr mag/cell
     absolute magnetization    =    20.00 Bohr mag/cell

     iteration # 11     ecut=    41.00 Ry     beta=0.30
     Davidson diagonalization with overlap
     ethr =  7.97E-09,  avg # of iterations =  1.7

     negative rho (up, down):  0.000E+00 1.556E-03

     Magnetic moment per site:
     atom:    1    charge:   12.5202    magn:    4.2436    constr:    0.0000
     atom:    2    charge:    5.8871    magn:    0.1776    constr:    0.0000
     atom:    3    charge:   12.5165    magn:    4.2458    constr:    0.0000
     atom:    4    charge:    5.8841    magn:    0.1762    constr:    0.0000
     atom:    5    charge:   12.5177    magn:    4.2435    constr:    0.0000
     atom:    6    charge:    5.8819    magn:    0.1757    constr:    0.0000
     atom:    7    charge:   12.5214    magn:    4.2427    constr:    0.0000
     atom:    8    charge:    5.8907    magn:    0.1790    constr:    0.0000

     total cpu time spent up to now is     2410.4 secs

     total energy              =    -973.10635410 Ry
     Harris-Foulkes estimate   =    -973.10635403 Ry
     estimated scf accuracy    <       0.00000043 Ry

     total magnetization       =    20.00 Bohr mag/cell
     absolute magnetization    =    20.00 Bohr mag/cell

     iteration # 12     ecut=    41.00 Ry     beta=0.30
     Davidson diagonalization with overlap
     ethr =  5.13E-10,  avg # of iterations =  2.0

     negative rho (up, down):  0.000E+00 1.553E-03

     Magnetic moment per site:
     atom:    1    charge:   12.5201    magn:    4.2435    constr:    0.0000
     atom:    2    charge:    5.8871    magn:    0.1779    constr:    0.0000
     atom:    3    charge:   12.5164    magn:    4.2457    constr:    0.0000
     atom:    4    charge:    5.8841    magn:    0.1764    constr:    0.0000
     atom:    5    charge:   12.5176    magn:    4.2433    constr:    0.0000
     atom:    6    charge:    5.8819    magn:    0.1760    constr:    0.0000
     atom:    7    charge:   12.5213    magn:    4.2426    constr:    0.0000
     atom:    8    charge:    5.8907    magn:    0.1793    constr:    0.0000

     total cpu time spent up to now is     2631.0 secs

     total energy              =    -973.10635433 Ry
     Harris-Foulkes estimate   =    -973.10635432 Ry
     estimated scf accuracy    <       0.00000012 Ry

     total magnetization       =    20.00 Bohr mag/cell
     absolute magnetization    =    20.00 Bohr mag/cell

     iteration # 13     ecut=    41.00 Ry     beta=0.30
     Davidson diagonalization with overlap
     ethr =  1.46E-10,  avg # of iterations =  2.0

     negative rho (up, down):  0.000E+00 1.551E-03

     Magnetic moment per site:
     atom:    1    charge:   12.5201    magn:    4.2435    constr:    0.0000
     atom:    2    charge:    5.8871    magn:    0.1778    constr:    0.0000
     atom:    3    charge:   12.5164    magn:    4.2457    constr:    0.0000
     atom:    4    charge:    5.8841    magn:    0.1763    constr:    0.0000
     atom:    5    charge:   12.5176    magn:    4.2434    constr:    0.0000
     atom:    6    charge:    5.8819    magn:    0.1759    constr:    0.0000
     atom:    7    charge:   12.5213    magn:    4.2426    constr:    0.0000
     atom:    8    charge:    5.8907    magn:    0.1792    constr:    0.0000

     total cpu time spent up to now is     2842.5 secs

     total energy              =    -973.10635437 Ry
     Harris-Foulkes estimate   =    -973.10635435 Ry
     estimated scf accuracy    <       0.00000001 Ry

     total magnetization       =    20.00 Bohr mag/cell
     absolute magnetization    =    20.00 Bohr mag/cell

     iteration # 14     ecut=    41.00 Ry     beta=0.30
     Davidson diagonalization with overlap
     ethr =  1.31E-11,  avg # of iterations =  2.0

     negative rho (up, down):  0.000E+00 1.551E-03

     Magnetic moment per site:
     atom:    1    charge:   12.5201    magn:    4.2435    constr:    0.0000
     atom:    2    charge:    5.8871    magn:    0.1778    constr:    0.0000
     atom:    3    charge:   12.5164    magn:    4.2457    constr:    0.0000
     atom:    4    charge:    5.8841    magn:    0.1763    constr:    0.0000
     atom:    5    charge:   12.5176    magn:    4.2433    constr:    0.0000
     atom:    6    charge:    5.8819    magn:    0.1759    constr:    0.0000
     atom:    7    charge:   12.5214    magn:    4.2426    constr:    0.0000
     atom:    8    charge:    5.8907    magn:    0.1792    constr:    0.0000

     total cpu time spent up to now is     3067.4 secs

     End of self-consistent calculation
 --- enter write_ns ---
 LDA+U parameters:
U( 1)     =  3.00000000
alpha( 1) =  0.00000000
atom    1   Tr[ns(na)] (up, down, total) =   4.99178  0.46154  5.45331
   spin  1
    eigenvalues: 
  0.997  0.997  0.999  0.999  0.999
    eigenvectors:
  0.916  0.084  0.000  0.000  0.000
  0.000  0.000  0.002  0.006  0.992
  0.000  0.000  0.979  0.019  0.002
  0.084  0.916  0.000  0.000  0.000
  0.000  0.000  0.018  0.975  0.007
    occupations:
  0.997 -0.000 -0.000  0.000  0.000
 -0.000  0.999  0.000 -0.000  0.000
 -0.000  0.000  0.999  0.000 -0.000
  0.000 -0.000  0.000  0.997 -0.000
  0.000  0.000 -0.000 -0.000  0.999
   spin  2
    eigenvalues: 
  0.052  0.052  0.053  0.151  0.154
    eigenvectors:
  0.000  0.000  0.000  0.153  0.847
  0.001  0.000  0.998  0.000  0.000
  0.022  0.978  0.001  0.000  0.000
  0.000  0.000  0.000  0.847  0.153
  0.977  0.022  0.001  0.000  0.000
    occupations:
  0.154  0.000  0.000 -0.001 -0.000
  0.000  0.053  0.000 -0.000  0.000
  0.000  0.000  0.052  0.000 -0.000
 -0.001 -0.000  0.000  0.152  0.000
 -0.000  0.000 -0.000  0.000  0.052
atomic mag. moment =     4.530240
atom    3   Tr[ns(na)] (up, down, total) =   4.99236  0.45526  5.44762
   spin  1
    eigenvalues: 
  0.997  0.998  0.999  0.999  0.999
    eigenvectors:
  0.834  0.165  0.000  0.000  0.000
  0.000  0.000  0.130  0.710  0.160
  0.000  0.000  0.003  0.200  0.797
  0.165  0.835  0.000  0.000  0.000
  0.000  0.000  0.867  0.090  0.043
    occupations:
  0.998 -0.000 -0.000 -0.000  0.000
 -0.000  0.999  0.000 -0.000  0.000
 -0.000  0.000  0.999  0.000  0.000
 -0.000 -0.000  0.000  0.998  0.000
  0.000  0.000  0.000  0.000  0.999
   spin  2
    eigenvalues: 
  0.051  0.051  0.052  0.149  0.152
    eigenvectors:
  0.000  0.000  0.000  0.060  0.939
  0.000  0.958  0.042  0.000  0.000
  0.005  0.042  0.953  0.000  0.000
  0.000  0.000  0.000  0.940  0.060
  0.995  0.001  0.005  0.000  0.000
    occupations:
  0.152  0.001  0.000  0.001 -0.000
  0.001  0.051  0.000 -0.000  0.000
  0.000  0.000  0.052  0.000  0.000
  0.001 -0.000  0.000  0.149 -0.000
 -0.000  0.000  0.000 -0.000  0.051
atomic mag. moment =     4.537108
atom    5   Tr[ns(na)] (up, down, total) =   4.99152  0.45942  5.45095
   spin  1
    eigenvalues: 
  0.997  0.997  0.999  0.999  0.999
    eigenvectors:
  0.069  0.930  0.001  0.000  0.000
  0.000  0.000  0.280  0.715  0.005
  0.000  0.000  0.719  0.280  0.001
  0.931  0.069  0.000  0.000  0.000
  0.000  0.000  0.000  0.005  0.994
    occupations:
  0.997  0.000  0.000  0.000 -0.000
  0.000  0.999 -0.000 -0.000 -0.000
  0.000 -0.000  0.999  0.000  0.000
  0.000 -0.000  0.000  0.997 -0.000
 -0.000 -0.000  0.000 -0.000  0.999
   spin  2
    eigenvalues: 
  0.051  0.052  0.053  0.148  0.155
    eigenvectors:
  0.000  0.000  0.000  0.970  0.030
  0.025  0.970  0.004  0.000  0.000
  0.974  0.026  0.000  0.000  0.000
  0.000  0.000  0.000  0.030  0.970
  0.000  0.004  0.996  0.000  0.000
    occupations:
  0.148 -0.001 -0.001 -0.001  0.000
 -0.001  0.052 -0.000  0.001  0.000
 -0.001 -0.000  0.051 -0.001  0.000
 -0.001  0.001 -0.001  0.155  0.000
  0.000  0.000  0.000  0.000  0.053
atomic mag. moment =     4.532097
atom    7   Tr[ns(na)] (up, down, total) =   4.99123  0.46359  5.45483
   spin  1
    eigenvalues: 
  0.997  0.997  0.999  0.999  0.999
    eigenvectors:
  0.700  0.300  0.000  0.000  0.000
  0.000  0.000  0.220  0.649  0.131
  0.000  0.000  0.195  0.020  0.785
  0.300  0.699  0.000  0.000  0.000
  0.000  0.000  0.585  0.331  0.084
    occupations:
  0.997 -0.000  0.000 -0.000 -0.000
 -0.000  0.999 -0.000  0.000 -0.000
  0.000 -0.000  0.999 -0.000 -0.000
 -0.000  0.000 -0.000  0.997  0.000
 -0.000 -0.000 -0.000  0.000  0.999
   spin  2
    eigenvalues: 
  0.052  0.052  0.053  0.151  0.155
    eigenvectors:
  0.000  0.000  0.000  0.237  0.763
  0.609  0.390  0.000  0.000  0.000
  0.000  0.001  0.999  0.000  0.000
  0.000  0.000  0.000  0.763  0.237
  0.390  0.609  0.001  0.000  0.000
    occupations:
  0.154  0.001 -0.000  0.002  0.000
  0.001  0.052  0.000 -0.000 -0.000
 -0.000  0.000  0.053  0.000 -0.000
  0.002 -0.000  0.000  0.152 -0.001
  0.000 -0.000 -0.000 -0.001  0.052
atomic mag. moment =     4.527638
N of occupied +U levels =   21.806704
 --- exit write_ns ---

     Number of k-points >= 100: set verbosity='high' to print the bands.

     the Fermi energy is    12.4559 ev

!    total energy              =    -973.10635438 Ry
     Harris-Foulkes estimate   =    -973.10635437 Ry
     estimated scf accuracy    <          9.5E-09 Ry

     The total energy is the sum of the following terms:

     one-electron contribution =    -447.56705700 Ry
     hartree contribution      =     265.99491650 Ry
     xc contribution           =    -135.00725079 Ry
     ewald contribution        =    -656.70936257 Ry
     Hubbard energy            =       0.18251463 Ry
     smearing contrib. (-TS)   =      -0.00011516 Ry

     total magnetization       =    20.00 Bohr mag/cell
     absolute magnetization    =    20.00 Bohr mag/cell

     convergence has been achieved in  14 iterations

     Forces acting on atoms (Ry/au):


     negative rho (up, down):  0.000E+00 1.551E-03
     atom    1 type  1   force =   0.10493991E-02 -0.19659636E-04  0.35491892E-02
     atom    2 type  2   force =   0.20426187E-02 -0.87295615E-03 -0.38239414E-02
     atom    3 type  1   force =   0.52902158E-03  0.55616634E-02 -0.10866530E-02
     atom    4 type  2   force =  -0.64279885E-02 -0.56049965E-02  0.10739498E-02
     atom    5 type  1   force =   0.73641010E-02  0.32164149E-02 -0.21400514E-02
     atom    6 type  2   force =  -0.49032449E-03 -0.29083063E-02  0.15149954E-02
     atom    7 type  1   force =  -0.63572164E-02 -0.13132143E-02  0.55204958E-02
     atom    8 type  2   force =   0.22903889E-02  0.19410546E-02 -0.46079844E-02

     Total force =     0.017960     Total SCF correction =     0.000116


     entering subroutine stress ...


     negative rho (up, down):  0.000E+00 1.551E-03
          total   stress  (Ry/bohr**3)                   (kbar)     P=    1.18
   0.0000077052  -0.0000000771  -0.0000003200          1.13     -0.01     -0.05
  -0.0000000771   0.0000090405  -0.0000006094         -0.01      1.33     -0.09
  -0.0000003200  -0.0000006094   0.0000072416         -0.05     -0.09      1.07


     Writing output data file mno_fm.scf.in.k.3.022.save

     init_run     :     66.65s CPU     72.18s WALL (       1 calls)
     electrons    :   2643.11s CPU   2994.40s WALL (       1 calls)
     forces       :    239.46s CPU    293.14s WALL (       1 calls)
     stress       :    681.19s CPU    816.62s WALL (       1 calls)

     Called by init_run:
     wfcinit      :     65.71s CPU     71.15s WALL (       1 calls)
     potinit      :      0.13s CPU      0.14s WALL (       1 calls)

     Called by electrons:
     c_bands      :   2371.87s CPU   2701.49s WALL (      14 calls)
     sum_band     :    268.25s CPU    289.88s WALL (      14 calls)
     v_of_rho     :      0.94s CPU      0.94s WALL (      15 calls)
     newd         :      1.58s CPU      1.60s WALL (      15 calls)
     mix_rho      :      0.51s CPU      0.52s WALL (      14 calls)

     Called by c_bands:
     init_us_2    :     13.88s CPU     14.20s WALL (   12768 calls)
     cegterg      :   2298.12s CPU   2624.91s WALL (    4256 calls)

     Called by *egterg:
     h_psi        :   1194.51s CPU   1298.06s WALL (   13607 calls)
     s_psi        :    103.01s CPU    104.33s WALL (   16951 calls)
     g_psi        :      1.89s CPU      1.74s WALL (    9047 calls)
     cdiaghg      :    436.62s CPU    592.10s WALL (   13303 calls)

     Called by h_psi:
     add_vuspsi   :     78.58s CPU     81.75s WALL (   13607 calls)
     vhpsi        :    147.66s CPU    208.41s WALL (   13607 calls)

     General routines
     calbec       :   1224.70s CPU   1470.79s WALL (  133006 calls)
     fft          :      0.66s CPU      0.65s WALL (     499 calls)
     ffts         :      0.28s CPU      0.29s WALL (     355 calls)
     fftw         :    867.65s CPU    885.48s WALL ( 1514734 calls)
     interpolate  :      0.11s CPU      0.11s WALL (      58 calls)
     davcio       :      0.02s CPU      0.04s WALL (     304 calls)

     Parallel routines
     fft_scatter  :    511.77s CPU    524.31s WALL ( 1515588 calls)
     Hubbard U routines
     new_ns       :     41.99s CPU     49.84s WALL (      14 calls)
     vhpsi        :    147.66s CPU    208.41s WALL (   13607 calls)
     force_hub    :    223.16s CPU    275.28s WALL (       1 calls)
     stres_hub    :    655.23s CPU    789.91s WALL (       1 calls)

     PWSCF        :     1h 0m CPU        1h 9m WALL


   This run was terminated on:   3:47:39  24Aug2017            

=------------------------------------------------------------------------------=
   JOB DONE.
=------------------------------------------------------------------------------=
