
     Program PWSCF v.5.1 starts on 16Aug2017 at 23:28:22 

     This program is part of the open-source Quantum ESPRESSO suite
     for quantum simulation of materials; please cite
         "P. Giannozzi et al., J. Phys.:Condens. Matter 21 395502 (2009);
          URL http://www.quantum-espresso.org", 
     in publications or presentations arising from this work. More details at
     http://www.quantum-espresso.org/quote

     Parallel version (MPI), running on     8 processors
     R & G space division:  proc/nbgrp/npool/nimage =       8
     Reading input from /tmp/mno_fm.scf.in.super.222.05.7809/mno_fm.scf.in.super.222.05.t
Warning: card &IONS ignored
Warning: card   ION_DYNAMICS='BFGS', ignored
Warning: card / ignored
Warning: card &CELL ignored
Warning: card  CELL_DYNAMICS = 'BFGS' ignored
Warning: card / ignored

     Current dimensions of program PWSCF are:
     Max number of different atomic species (ntypx) = 10
     Max number of k-points (npk) =  40000
     Max angular momentum in pseudopotentials (lmaxx) =  3
 kfg - two_fermi_energies  T

     Subspace diagonalization in iterative solution of the eigenvalue problem:
     a serial algorithm will be used


     Parallelization info
     --------------------
     sticks:   dense  smooth     PW     G-vecs:    dense   smooth      PW
     Min         246     204     56                 7264     5421     802
     Max         247     205     57                 7267     5438     805
     Sum        1969    1639    451                58119    43407    6423

     Generating pointlists ...
     new r_m :   0.1400 (alat units)  1.6796 (a.u.) for type    1
     new r_m :   0.1400 (alat units)  1.6796 (a.u.) for type    2


     bravais-lattice index     =            0
     lattice parameter (alat)  =    11.996146938  a.u.
     unit-cell volume          =    1220.7039 (a.u.)^3
     number of atoms/cell      =           16
     number of atomic types    =            2
     number of electrons       =       168.00 (up: 104.00, down:  64.00)
     number of Kohn-Sham states=          125
     kinetic-energy cutoff     =      41.0000  Ry
     charge density cutoff     =     200.0000  Ry
     convergence threshold     =      1.0E-08
     mixing beta               =       0.3000
     number of iterations used =            8  local-TF  mixing
     Exchange-correlation      = SLA  PW   PSX  PSC ( 1  4 10  8 0)
     A smooth kinetic-energy cutoff is imposed at      40.0000 Ry
     height of the smooth step-function =             800.0000 Ry
     width of the smooth step-function  =               1.0000 Ry


     celldm(1)=  11.996147  celldm(2)=   0.000000  celldm(3)=   0.000000
     celldm(4)=   0.000000  celldm(5)=   0.000000  celldm(6)=   0.000000

     crystal axes: (cart. coord. in units of alat)
               a(1) = (   0.707106781187   0.707106781187   0.000000000000 )  
               a(2) = (   0.707106781187   0.000000000000   0.707106781187 )  
               a(3) = (   0.000000000000   0.707106781187   0.707106781187 )  

     reciprocal axes: (cart. coord. in units 2 pi/alat)
               b(1) = (  0.707107  0.707107 -0.707107 )  
               b(2) = (  0.707107 -0.707107  0.707107 )  
               b(3) = ( -0.707107  0.707107  0.707107 )  


     PseudoPot. # 1 for Mn read from file:
     /users/kfg/psuedo/gbrv_1.5/mn.pbesol.UPF
     MD5 check sum: 0716d5f563e6e95a34f9080f4c78c109
     Pseudo is Ultrasoft + core correction, Zval = 15.0
     Generated by new atomic code, or converted to UPF format
     Using radial grid of  859 points,  6 beta functions with: 
                l(1) =   0
                l(2) =   0
                l(3) =   1
                l(4) =   1
                l(5) =   2
                l(6) =   2
     Q(r) pseudized with  8 coefficients,  rinner =    0.950   0.950   0.950
                                                       0.950   0.950

     PseudoPot. # 2 for O  read from file:
     /users/kfg/psuedo/gbrv_1.5/o.pbesol.UPF
     MD5 check sum: 501638753501ef6325af9037351f7734
     Pseudo is Ultrasoft + core correction, Zval =  6.0
     Generated by new atomic code, or converted to UPF format
     Using radial grid of  737 points,  5 beta functions with: 
                l(1) =   0
                l(2) =   0
                l(3) =   1
                l(4) =   1
                l(5) =   2
     Q(r) pseudized with  8 coefficients,  rinner =    0.900   0.900   0.900
                                                       0.900   0.900

     atomic species   valence    mass     pseudopotential
        Mn            15.00    54.90000     Mn( 1.00)
        O              6.00    15.99900     O ( 1.00)

     Starting magnetic structure 
     atomic species   magnetization
        Mn           1.000
        O            0.000


     Simplified LDA+U calculation (l_max = 2) with parameters (eV):
     atomic species    L          U    alpha       J0     beta
        Mn             2     3.0000   0.0000   0.0000   0.0000



     No symmetry found



   Cartesian axes

     site n.     atom                  positions (alat units)
         1           Mn  tau(   1) = (    0.00600199446   -0.00262659237   -0.00490005597  )
         2           O   tau(   2) = (    0.34737857342    0.35436836592    0.35560128217  )
         3           Mn  tau(   3) = (    0.00741532218    0.35851064316    0.34861910834  )
         4           O   tau(   4) = (    0.35030665131    0.70452366342    0.70939206581  )
         5           Mn  tau(   5) = (    0.35793998478   -0.00632346907    0.35065186400  )
         6           O   tau(   6) = (    0.69909133181    0.35117387262    0.71474220721  )
         7           Mn  tau(   7) = (    0.35972785070    0.34786758221    0.70981312762  )
         8           O   tau(   8) = (    0.69886741657    0.70035408173    1.05625480135  )
         9           Mn  tau(   9) = (    0.36004123162    0.35653453550   -0.00697526829  )
        10           O   tau(  10) = (    0.70860872989    0.71439665200    0.35204874327  )
        11           Mn  tau(  11) = (    0.34913820598    0.70907510575    0.35839679016  )
        12           O   tau(  12) = (    0.70598430162    1.05444830273    0.70203648187  )
        13           Mn  tau(  13) = (    0.69923628868    0.34845608402    0.35179139131  )
        14           O   tau(  14) = (    1.05289737929    0.70309015393    0.69879988616  )
        15           Mn  tau(  15) = (    0.70969413259    0.71074394827    0.71268611005  )
        16           O   tau(  16) = (    1.05254926188    1.05435192643    1.05589118379  )

     number of k points=    72  gaussian smearing, width (Ry)=  0.0100
                       cart. coord. in units 2pi/alat
        k(    1) = (   0.0000000   0.0000000   0.0000000), wk =   0.0156250
        k(    2) = (  -0.1767767   0.1767767   0.1767767), wk =   0.0312500
        k(    3) = (   0.3535534  -0.3535534  -0.3535534), wk =   0.0156250
        k(    4) = (   0.0000000   0.0000000   0.3535534), wk =   0.0312500
        k(    5) = (   0.5303301  -0.5303301  -0.1767767), wk =   0.0312500
        k(    6) = (   0.3535534  -0.3535534   0.0000000), wk =   0.0312500
        k(    7) = (   0.0000000   0.0000000  -0.7071068), wk =   0.0156250
        k(    8) = (   0.0000000   0.3535534  -0.7071068), wk =   0.0312500
        k(    9) = (   0.1767767  -0.1767767   0.1767767), wk =   0.0312500
        k(   10) = (   0.1767767   0.1767767  -0.1767767), wk =   0.0312500
        k(   11) = (  -0.1767767  -0.1767767  -0.1767767), wk =   0.0312500
        k(   12) = (  -0.3535534   0.3535534  -0.3535534), wk =   0.0156250
        k(   13) = (  -0.3535534  -0.3535534   0.3535534), wk =   0.0156250
        k(   14) = (   0.3535534   0.3535534   0.3535534), wk =   0.0156250
        k(   15) = (   0.3535534   0.0000000   0.0000000), wk =   0.0312500
        k(   16) = (   0.0000000   0.3535534   0.0000000), wk =   0.0312500
        k(   17) = (  -0.5303301   0.5303301  -0.1767767), wk =   0.0312500
        k(   18) = (  -0.5303301  -0.5303301   0.1767767), wk =   0.0312500
        k(   19) = (   0.5303301   0.5303301   0.1767767), wk =   0.0312500
        k(   20) = (  -0.1767767   0.5303301   0.5303301), wk =   0.0312500
        k(   21) = (   0.1767767   0.5303301  -0.5303301), wk =   0.0312500
        k(   22) = (  -0.1767767  -0.5303301  -0.5303301), wk =   0.0312500
        k(   23) = (   0.1767767  -0.5303301   0.5303301), wk =   0.0312500
        k(   24) = (  -0.5303301  -0.1767767  -0.5303301), wk =   0.0312500
        k(   25) = (  -0.5303301   0.1767767   0.5303301), wk =   0.0312500
        k(   26) = (   0.5303301  -0.1767767   0.5303301), wk =   0.0312500
        k(   27) = (   0.5303301   0.1767767  -0.5303301), wk =   0.0312500
        k(   28) = (  -0.3535534  -0.3535534   0.0000000), wk =   0.0312500
        k(   29) = (   0.0000000   0.3535534   0.3535534), wk =   0.0312500
        k(   30) = (   0.0000000   0.3535534  -0.3535534), wk =   0.0312500
        k(   31) = (  -0.3535534   0.0000000  -0.3535534), wk =   0.0312500
        k(   32) = (  -0.3535534   0.0000000   0.3535534), wk =   0.0312500
        k(   33) = (  -0.7071068   0.0000000   0.0000000), wk =   0.0156250
        k(   34) = (   0.0000000  -0.7071068   0.0000000), wk =   0.0156250
        k(   35) = (   0.3535534  -0.0000000   0.7071068), wk =   0.0312500
        k(   36) = (   0.0000000  -0.7071068   0.3535534), wk =   0.0312500
        k(   37) = (   0.0000000   0.0000000   0.0000000), wk =   0.0156250
        k(   38) = (  -0.1767767   0.1767767   0.1767767), wk =   0.0312500
        k(   39) = (   0.3535534  -0.3535534  -0.3535534), wk =   0.0156250
        k(   40) = (   0.0000000   0.0000000   0.3535534), wk =   0.0312500
        k(   41) = (   0.5303301  -0.5303301  -0.1767767), wk =   0.0312500
        k(   42) = (   0.3535534  -0.3535534   0.0000000), wk =   0.0312500
        k(   43) = (   0.0000000   0.0000000  -0.7071068), wk =   0.0156250
        k(   44) = (   0.0000000   0.3535534  -0.7071068), wk =   0.0312500
        k(   45) = (   0.1767767  -0.1767767   0.1767767), wk =   0.0312500
        k(   46) = (   0.1767767   0.1767767  -0.1767767), wk =   0.0312500
        k(   47) = (  -0.1767767  -0.1767767  -0.1767767), wk =   0.0312500
        k(   48) = (  -0.3535534   0.3535534  -0.3535534), wk =   0.0156250
        k(   49) = (  -0.3535534  -0.3535534   0.3535534), wk =   0.0156250
        k(   50) = (   0.3535534   0.3535534   0.3535534), wk =   0.0156250
        k(   51) = (   0.3535534   0.0000000   0.0000000), wk =   0.0312500
        k(   52) = (   0.0000000   0.3535534   0.0000000), wk =   0.0312500
        k(   53) = (  -0.5303301   0.5303301  -0.1767767), wk =   0.0312500
        k(   54) = (  -0.5303301  -0.5303301   0.1767767), wk =   0.0312500
        k(   55) = (   0.5303301   0.5303301   0.1767767), wk =   0.0312500
        k(   56) = (  -0.1767767   0.5303301   0.5303301), wk =   0.0312500
        k(   57) = (   0.1767767   0.5303301  -0.5303301), wk =   0.0312500
        k(   58) = (  -0.1767767  -0.5303301  -0.5303301), wk =   0.0312500
        k(   59) = (   0.1767767  -0.5303301   0.5303301), wk =   0.0312500
        k(   60) = (  -0.5303301  -0.1767767  -0.5303301), wk =   0.0312500
        k(   61) = (  -0.5303301   0.1767767   0.5303301), wk =   0.0312500
        k(   62) = (   0.5303301  -0.1767767   0.5303301), wk =   0.0312500
        k(   63) = (   0.5303301   0.1767767  -0.5303301), wk =   0.0312500
        k(   64) = (  -0.3535534  -0.3535534   0.0000000), wk =   0.0312500
        k(   65) = (   0.0000000   0.3535534   0.3535534), wk =   0.0312500
        k(   66) = (   0.0000000   0.3535534  -0.3535534), wk =   0.0312500
        k(   67) = (  -0.3535534   0.0000000  -0.3535534), wk =   0.0312500
        k(   68) = (  -0.3535534   0.0000000   0.3535534), wk =   0.0312500
        k(   69) = (  -0.7071068   0.0000000   0.0000000), wk =   0.0156250
        k(   70) = (   0.0000000  -0.7071068   0.0000000), wk =   0.0156250
        k(   71) = (   0.3535534  -0.0000000   0.7071068), wk =   0.0312500
        k(   72) = (   0.0000000  -0.7071068   0.3535534), wk =   0.0312500

     Dense  grid:    58119 G-vectors     FFT dimensions: (  54,  54,  54)

     Smooth grid:    43407 G-vectors     FFT dimensions: (  50,  50,  50)

     Largest allocated arrays     est. size (Mb)     dimensions
        Kohn-Sham Wavefunctions         1.31 Mb     (     688,  125)
        Atomic Hubbard wavefuncts       0.42 Mb     (     688,   40)
        NL pseudopotentials             2.60 Mb     (     688,  248)
        Each V/rho on FFT grid          0.62 Mb     (   20412,   2)
        Each G-vector array             0.06 Mb     (    7265)
        G-vector shells                 0.00 Mb     (     487)
     Largest temporary arrays     est. size (Mb)     dimensions
        Auxiliary wavefunctions         5.25 Mb     (     688,  500)
        Each subspace H/S matrix        3.81 Mb     (     500,  500)
        Each <psi_i|beta_j> matrix      0.47 Mb     (     248,  125)
        Arrays for rho mixing           2.49 Mb     (   20412,    8)

     Check: negative/imaginary core charge=   -0.000059    0.000000

     Initial potential from superposition of free atoms

     starting charge  163.99935, renormalised to  168.00000
     Number of +U iterations with fixed ns =  0
     Starting occupations:
 --- enter write_ns ---
 LDA+U parameters:
U( 1)     =  3.00000000
alpha( 1) =  0.00000000
atom    1   Tr[ns(na)] (up, down, total) =   5.00000  0.00000  5.00000
   spin  1
    eigenvalues: 
  1.000  1.000  1.000  1.000  1.000
    eigenvectors:
  1.000  0.000  0.000  0.000  0.000
  0.000  1.000  0.000  0.000  0.000
  0.000  0.000  1.000  0.000  0.000
  0.000  0.000  0.000  1.000  0.000
  0.000  0.000  0.000  0.000  1.000
    occupations:
  1.000  0.000  0.000  0.000  0.000
  0.000  1.000  0.000  0.000  0.000
  0.000  0.000  1.000  0.000  0.000
  0.000  0.000  0.000  1.000  0.000
  0.000  0.000  0.000  0.000  1.000
   spin  2
    eigenvalues: 
  0.000  0.000  0.000  0.000  0.000
    eigenvectors:
  1.000  0.000  0.000  0.000  0.000
  0.000  1.000  0.000  0.000  0.000
  0.000  0.000  1.000  0.000  0.000
  0.000  0.000  0.000  1.000  0.000
  0.000  0.000  0.000  0.000  1.000
    occupations:
  0.000  0.000  0.000  0.000  0.000
  0.000  0.000  0.000  0.000  0.000
  0.000  0.000  0.000  0.000  0.000
  0.000  0.000  0.000  0.000  0.000
  0.000  0.000  0.000  0.000  0.000
atomic mag. moment =     5.000000
atom    3   Tr[ns(na)] (up, down, total) =   5.00000  0.00000  5.00000
   spin  1
    eigenvalues: 
  1.000  1.000  1.000  1.000  1.000
    eigenvectors:
  1.000  0.000  0.000  0.000  0.000
  0.000  1.000  0.000  0.000  0.000
  0.000  0.000  1.000  0.000  0.000
  0.000  0.000  0.000  1.000  0.000
  0.000  0.000  0.000  0.000  1.000
    occupations:
  1.000  0.000  0.000  0.000  0.000
  0.000  1.000  0.000  0.000  0.000
  0.000  0.000  1.000  0.000  0.000
  0.000  0.000  0.000  1.000  0.000
  0.000  0.000  0.000  0.000  1.000
   spin  2
    eigenvalues: 
  0.000  0.000  0.000  0.000  0.000
    eigenvectors:
  1.000  0.000  0.000  0.000  0.000
  0.000  1.000  0.000  0.000  0.000
  0.000  0.000  1.000  0.000  0.000
  0.000  0.000  0.000  1.000  0.000
  0.000  0.000  0.000  0.000  1.000
    occupations:
  0.000  0.000  0.000  0.000  0.000
  0.000  0.000  0.000  0.000  0.000
  0.000  0.000  0.000  0.000  0.000
  0.000  0.000  0.000  0.000  0.000
  0.000  0.000  0.000  0.000  0.000
atomic mag. moment =     5.000000
atom    5   Tr[ns(na)] (up, down, total) =   5.00000  0.00000  5.00000
   spin  1
    eigenvalues: 
  1.000  1.000  1.000  1.000  1.000
    eigenvectors:
  1.000  0.000  0.000  0.000  0.000
  0.000  1.000  0.000  0.000  0.000
  0.000  0.000  1.000  0.000  0.000
  0.000  0.000  0.000  1.000  0.000
  0.000  0.000  0.000  0.000  1.000
    occupations:
  1.000  0.000  0.000  0.000  0.000
  0.000  1.000  0.000  0.000  0.000
  0.000  0.000  1.000  0.000  0.000
  0.000  0.000  0.000  1.000  0.000
  0.000  0.000  0.000  0.000  1.000
   spin  2
    eigenvalues: 
  0.000  0.000  0.000  0.000  0.000
    eigenvectors:
  1.000  0.000  0.000  0.000  0.000
  0.000  1.000  0.000  0.000  0.000
  0.000  0.000  1.000  0.000  0.000
  0.000  0.000  0.000  1.000  0.000
  0.000  0.000  0.000  0.000  1.000
    occupations:
  0.000  0.000  0.000  0.000  0.000
  0.000  0.000  0.000  0.000  0.000
  0.000  0.000  0.000  0.000  0.000
  0.000  0.000  0.000  0.000  0.000
  0.000  0.000  0.000  0.000  0.000
atomic mag. moment =     5.000000
atom    7   Tr[ns(na)] (up, down, total) =   5.00000  0.00000  5.00000
   spin  1
    eigenvalues: 
  1.000  1.000  1.000  1.000  1.000
    eigenvectors:
  1.000  0.000  0.000  0.000  0.000
  0.000  1.000  0.000  0.000  0.000
  0.000  0.000  1.000  0.000  0.000
  0.000  0.000  0.000  1.000  0.000
  0.000  0.000  0.000  0.000  1.000
    occupations:
  1.000  0.000  0.000  0.000  0.000
  0.000  1.000  0.000  0.000  0.000
  0.000  0.000  1.000  0.000  0.000
  0.000  0.000  0.000  1.000  0.000
  0.000  0.000  0.000  0.000  1.000
   spin  2
    eigenvalues: 
  0.000  0.000  0.000  0.000  0.000
    eigenvectors:
  1.000  0.000  0.000  0.000  0.000
  0.000  1.000  0.000  0.000  0.000
  0.000  0.000  1.000  0.000  0.000
  0.000  0.000  0.000  1.000  0.000
  0.000  0.000  0.000  0.000  1.000
    occupations:
  0.000  0.000  0.000  0.000  0.000
  0.000  0.000  0.000  0.000  0.000
  0.000  0.000  0.000  0.000  0.000
  0.000  0.000  0.000  0.000  0.000
  0.000  0.000  0.000  0.000  0.000
atomic mag. moment =     5.000000
atom    9   Tr[ns(na)] (up, down, total) =   5.00000  0.00000  5.00000
   spin  1
    eigenvalues: 
  1.000  1.000  1.000  1.000  1.000
    eigenvectors:
  1.000  0.000  0.000  0.000  0.000
  0.000  1.000  0.000  0.000  0.000
  0.000  0.000  1.000  0.000  0.000
  0.000  0.000  0.000  1.000  0.000
  0.000  0.000  0.000  0.000  1.000
    occupations:
  1.000  0.000  0.000  0.000  0.000
  0.000  1.000  0.000  0.000  0.000
  0.000  0.000  1.000  0.000  0.000
  0.000  0.000  0.000  1.000  0.000
  0.000  0.000  0.000  0.000  1.000
   spin  2
    eigenvalues: 
  0.000  0.000  0.000  0.000  0.000
    eigenvectors:
  1.000  0.000  0.000  0.000  0.000
  0.000  1.000  0.000  0.000  0.000
  0.000  0.000  1.000  0.000  0.000
  0.000  0.000  0.000  1.000  0.000
  0.000  0.000  0.000  0.000  1.000
    occupations:
  0.000  0.000  0.000  0.000  0.000
  0.000  0.000  0.000  0.000  0.000
  0.000  0.000  0.000  0.000  0.000
  0.000  0.000  0.000  0.000  0.000
  0.000  0.000  0.000  0.000  0.000
atomic mag. moment =     5.000000
atom   11   Tr[ns(na)] (up, down, total) =   5.00000  0.00000  5.00000
   spin  1
    eigenvalues: 
  1.000  1.000  1.000  1.000  1.000
    eigenvectors:
  1.000  0.000  0.000  0.000  0.000
  0.000  1.000  0.000  0.000  0.000
  0.000  0.000  1.000  0.000  0.000
  0.000  0.000  0.000  1.000  0.000
  0.000  0.000  0.000  0.000  1.000
    occupations:
  1.000  0.000  0.000  0.000  0.000
  0.000  1.000  0.000  0.000  0.000
  0.000  0.000  1.000  0.000  0.000
  0.000  0.000  0.000  1.000  0.000
  0.000  0.000  0.000  0.000  1.000
   spin  2
    eigenvalues: 
  0.000  0.000  0.000  0.000  0.000
    eigenvectors:
  1.000  0.000  0.000  0.000  0.000
  0.000  1.000  0.000  0.000  0.000
  0.000  0.000  1.000  0.000  0.000
  0.000  0.000  0.000  1.000  0.000
  0.000  0.000  0.000  0.000  1.000
    occupations:
  0.000  0.000  0.000  0.000  0.000
  0.000  0.000  0.000  0.000  0.000
  0.000  0.000  0.000  0.000  0.000
  0.000  0.000  0.000  0.000  0.000
  0.000  0.000  0.000  0.000  0.000
atomic mag. moment =     5.000000
atom   13   Tr[ns(na)] (up, down, total) =   5.00000  0.00000  5.00000
   spin  1
    eigenvalues: 
  1.000  1.000  1.000  1.000  1.000
    eigenvectors:
  1.000  0.000  0.000  0.000  0.000
  0.000  1.000  0.000  0.000  0.000
  0.000  0.000  1.000  0.000  0.000
  0.000  0.000  0.000  1.000  0.000
  0.000  0.000  0.000  0.000  1.000
    occupations:
  1.000  0.000  0.000  0.000  0.000
  0.000  1.000  0.000  0.000  0.000
  0.000  0.000  1.000  0.000  0.000
  0.000  0.000  0.000  1.000  0.000
  0.000  0.000  0.000  0.000  1.000
   spin  2
    eigenvalues: 
  0.000  0.000  0.000  0.000  0.000
    eigenvectors:
  1.000  0.000  0.000  0.000  0.000
  0.000  1.000  0.000  0.000  0.000
  0.000  0.000  1.000  0.000  0.000
  0.000  0.000  0.000  1.000  0.000
  0.000  0.000  0.000  0.000  1.000
    occupations:
  0.000  0.000  0.000  0.000  0.000
  0.000  0.000  0.000  0.000  0.000
  0.000  0.000  0.000  0.000  0.000
  0.000  0.000  0.000  0.000  0.000
  0.000  0.000  0.000  0.000  0.000
atomic mag. moment =     5.000000
atom   15   Tr[ns(na)] (up, down, total) =   5.00000  0.00000  5.00000
   spin  1
    eigenvalues: 
  1.000  1.000  1.000  1.000  1.000
    eigenvectors:
  1.000  0.000  0.000  0.000  0.000
  0.000  1.000  0.000  0.000  0.000
  0.000  0.000  1.000  0.000  0.000
  0.000  0.000  0.000  1.000  0.000
  0.000  0.000  0.000  0.000  1.000
    occupations:
  1.000  0.000  0.000  0.000  0.000
  0.000  1.000  0.000  0.000  0.000
  0.000  0.000  1.000  0.000  0.000
  0.000  0.000  0.000  1.000  0.000
  0.000  0.000  0.000  0.000  1.000
   spin  2
    eigenvalues: 
  0.000  0.000  0.000  0.000  0.000
    eigenvectors:
  1.000  0.000  0.000  0.000  0.000
  0.000  1.000  0.000  0.000  0.000
  0.000  0.000  1.000  0.000  0.000
  0.000  0.000  0.000  1.000  0.000
  0.000  0.000  0.000  0.000  1.000
    occupations:
  0.000  0.000  0.000  0.000  0.000
  0.000  0.000  0.000  0.000  0.000
  0.000  0.000  0.000  0.000  0.000
  0.000  0.000  0.000  0.000  0.000
  0.000  0.000  0.000  0.000  0.000
atomic mag. moment =     5.000000
N of occupied +U levels =   40.000000
 --- exit write_ns ---
 Atomic wfc used for LDA+U Projector are NOT orthogonalized
     Starting wfc are  136 randomized atomic wfcs

     total cpu time spent up to now is       62.0 secs

     per-process dynamical memory:   145.0 Mb

     Self-consistent Calculation

     iteration #  1     ecut=    41.00 Ry     beta=0.30
     Davidson diagonalization with overlap
     ethr =  1.00E-02,  avg # of iterations =  3.4
 --- enter write_ns ---
 LDA+U parameters:
U( 1)     =  3.00000000
alpha( 1) =  0.00000000
atom    1   Tr[ns(na)] (up, down, total) =   4.98826  0.18792  5.17618
   spin  1
    eigenvalues: 
  0.997  0.997  0.998  0.998  0.998
    eigenvectors:
  0.316  0.682  0.000  0.001  0.000
  0.008  0.001  0.292  0.651  0.049
  0.001  0.000  0.623  0.337  0.039
  0.675  0.316  0.001  0.006  0.002
  0.000  0.001  0.084  0.005  0.909
    occupations:
  0.997 -0.000  0.000  0.000 -0.000
 -0.000  0.998 -0.000  0.000 -0.000
  0.000 -0.000  0.998 -0.000 -0.000
  0.000  0.000 -0.000  0.997 -0.000
 -0.000 -0.000 -0.000 -0.000  0.998
   spin  2
    eigenvalues: 
  0.020  0.020  0.020  0.064  0.064
    eigenvectors:
  0.000  0.000  0.000  0.465  0.535
  0.153  0.317  0.529  0.000  0.000
  0.518  0.462  0.019  0.000  0.001
  0.000  0.000  0.000  0.534  0.465
  0.329  0.220  0.451  0.000  0.000
    occupations:
  0.064 -0.000 -0.001 -0.000  0.000
 -0.000  0.020 -0.000 -0.001 -0.000
 -0.001 -0.000  0.020  0.001 -0.000
 -0.000 -0.001  0.001  0.064  0.001
  0.000 -0.000 -0.000  0.001  0.020
atomic mag. moment =     4.800341
atom    3   Tr[ns(na)] (up, down, total) =   4.98465  0.20902  5.19367
   spin  1
    eigenvalues: 
  0.995  0.995  0.998  0.998  0.998
    eigenvectors:
  0.052  0.945  0.000  0.002  0.000
  0.000  0.001  0.845  0.139  0.014
  0.000  0.000  0.023  0.003  0.973
  0.948  0.052  0.000  0.000  0.000
  0.000  0.002  0.131  0.855  0.012
    occupations:
  0.995  0.000  0.000 -0.000 -0.000
  0.000  0.998 -0.000 -0.000 -0.000
  0.000 -0.000  0.998  0.000 -0.000
 -0.000 -0.000  0.000  0.995  0.000
 -0.000 -0.000 -0.000  0.000  0.998
   spin  2
    eigenvalues: 
  0.022  0.022  0.023  0.068  0.073
    eigenvectors:
  0.000  0.000  0.000  0.302  0.697
  0.812  0.184  0.003  0.000  0.000
  0.003  0.057  0.940  0.000  0.000
  0.001  0.000  0.000  0.697  0.302
  0.184  0.759  0.057  0.000  0.000
    occupations:
  0.071 -0.001  0.000  0.002  0.001
 -0.001  0.022 -0.000 -0.001  0.000
  0.000 -0.000  0.023 -0.000 -0.000
  0.002 -0.001 -0.000  0.070  0.001
  0.001  0.000 -0.000  0.001  0.022
atomic mag. moment =     4.775632
atom    5   Tr[ns(na)] (up, down, total) =   4.98629  0.20093  5.18722
   spin  1
    eigenvalues: 
  0.996  0.996  0.998  0.998  0.998
    eigenvectors:
  0.599  0.400  0.000  0.000  0.001
  0.000  0.001  0.000  0.008  0.991
  0.000  0.000  0.034  0.958  0.008
  0.400  0.596  0.003  0.000  0.001
  0.001  0.003  0.962  0.034  0.000
    occupations:
  0.996 -0.000  0.000  0.000  0.000
 -0.000  0.998  0.000 -0.000  0.000
  0.000  0.000  0.998 -0.000  0.000
  0.000 -0.000 -0.000  0.996  0.000
  0.000  0.000  0.000  0.000  0.998
   spin  2
    eigenvalues: 
  0.021  0.021  0.023  0.065  0.071
    eigenvectors:
  0.000  0.000  0.000  0.249  0.751
  0.002  0.003  0.995  0.000  0.000
  0.814  0.181  0.004  0.000  0.000
  0.000  0.000  0.000  0.750  0.249
  0.183  0.816  0.001  0.000  0.000
    occupations:
  0.070  0.000  0.000 -0.003  0.000
  0.000  0.023 -0.000  0.000 -0.000
  0.000 -0.000  0.021  0.000  0.000
 -0.003  0.000  0.000  0.066 -0.001
  0.000 -0.000  0.000 -0.001  0.021
atomic mag. moment =     4.785360
atom    7   Tr[ns(na)] (up, down, total) =   4.98683  0.20059  5.18742
   spin  1
    eigenvalues: 
  0.996  0.996  0.998  0.998  0.998
    eigenvectors:
  0.446  0.553  0.000  0.000  0.001
  0.002  0.000  0.034  0.010  0.954
  0.000  0.001  0.962  0.005  0.032
  0.551  0.446  0.002  0.000  0.001
  0.001  0.000  0.002  0.985  0.012
    occupations:
  0.996 -0.000 -0.000  0.000  0.000
 -0.000  0.998  0.000  0.000  0.000
 -0.000  0.000  0.998 -0.000 -0.000
  0.000  0.000 -0.000  0.996 -0.000
  0.000  0.000 -0.000 -0.000  0.998
   spin  2
    eigenvalues: 
  0.021  0.021  0.022  0.066  0.070
    eigenvectors:
  0.000  0.000  0.000  0.335  0.664
  0.004  0.006  0.990  0.000  0.001
  0.912  0.081  0.007  0.001  0.000
  0.000  0.000  0.000  0.664  0.335
  0.084  0.913  0.003  0.000  0.000
    occupations:
  0.068  0.001  0.001 -0.002 -0.000
  0.001  0.022  0.000 -0.001 -0.000
  0.001  0.000  0.021  0.001 -0.000
 -0.002 -0.001  0.001  0.067 -0.000
 -0.000 -0.000 -0.000 -0.000  0.021
atomic mag. moment =     4.786239
atom    9   Tr[ns(na)] (up, down, total) =   4.98829  0.18776  5.17605
   spin  1
    eigenvalues: 
  0.997  0.997  0.998  0.998  0.998
    eigenvectors:
  0.026  0.965  0.003  0.000  0.007
  0.000  0.002  0.865  0.131  0.001
  0.000  0.000  0.132  0.847  0.021
  0.972  0.027  0.000  0.000  0.001
  0.002  0.006  0.000  0.022  0.970
    occupations:
  0.997  0.000  0.000 -0.000 -0.000
  0.000  0.998 -0.000  0.000  0.000
  0.000 -0.000  0.998  0.000  0.000
 -0.000  0.000  0.000  0.997 -0.000
 -0.000  0.000  0.000 -0.000  0.998
   spin  2
    eigenvalues: 
  0.020  0.020  0.020  0.062  0.065
    eigenvectors:
  0.000  0.000  0.000  0.807  0.192
  0.928  0.069  0.003  0.000  0.000
  0.065  0.919  0.015  0.000  0.000
  0.000  0.000  0.000  0.192  0.807
  0.007  0.011  0.982  0.000  0.000
    occupations:
  0.063 -0.001 -0.001  0.001  0.001
 -0.001  0.020 -0.000  0.001  0.000
 -0.001 -0.000  0.020 -0.001  0.000
  0.001  0.001 -0.001  0.065  0.000
  0.001  0.000  0.000  0.000  0.020
atomic mag. moment =     4.800536
atom   11   Tr[ns(na)] (up, down, total) =   4.98801  0.18724  5.17524
   spin  1
    eigenvalues: 
  0.996  0.997  0.998  0.998  0.998
    eigenvectors:
  0.304  0.690  0.003  0.003  0.001
  0.000  0.008  0.973  0.018  0.001
  0.002  0.002  0.005  0.130  0.860
  0.693  0.299  0.005  0.000  0.003
  0.001  0.002  0.014  0.848  0.135
    occupations:
  0.997  0.000  0.000 -0.000  0.000
  0.000  0.998  0.000 -0.000  0.000
  0.000  0.000  0.998  0.000 -0.000
 -0.000 -0.000  0.000  0.997  0.000
  0.000  0.000 -0.000  0.000  0.998
   spin  2
    eigenvalues: 
  0.019  0.020  0.021  0.061  0.067
    eigenvectors:
  0.000  0.000  0.000  0.746  0.253
  0.991  0.007  0.001  0.000  0.000
  0.004  0.159  0.836  0.000  0.000
  0.000  0.000  0.000  0.253  0.746
  0.004  0.833  0.162  0.000  0.000
    occupations:
  0.062 -0.000 -0.000  0.003 -0.000
 -0.000  0.019  0.000 -0.000  0.000
 -0.000  0.000  0.021 -0.001 -0.000
  0.003 -0.000 -0.001  0.065  0.001
 -0.000  0.000 -0.000  0.001  0.020
atomic mag. moment =     4.800772
atom   13   Tr[ns(na)] (up, down, total) =   4.98865  0.18088  5.16953
   spin  1
    eigenvalues: 
  0.997  0.998  0.998  0.998  0.998
    eigenvectors:
  0.191  0.808  0.001  0.000  0.000
  0.006  0.001  0.009  0.351  0.634
  0.001  0.001  0.981  0.017  0.000
  0.802  0.191  0.000  0.001  0.005
  0.000  0.000  0.009  0.631  0.360
    occupations:
  0.997  0.000 -0.000  0.000  0.000
  0.000  0.998  0.000 -0.000 -0.000
 -0.000  0.000  0.998  0.000  0.000
  0.000 -0.000  0.000  0.997  0.000
  0.000 -0.000  0.000  0.000  0.998
   spin  2
    eigenvalues: 
  0.018  0.020  0.020  0.059  0.064
    eigenvectors:
  0.000  0.000  0.000  0.722  0.278
  0.000  0.311  0.689  0.000  0.000
  0.987  0.009  0.004  0.000  0.000
  0.000  0.000  0.001  0.278  0.722
  0.013  0.680  0.306  0.000  0.000
    occupations:
  0.061  0.000 -0.000 -0.002 -0.000
  0.000  0.020 -0.000  0.001 -0.000
 -0.000 -0.000  0.018  0.000  0.000
 -0.002  0.001  0.000  0.063 -0.001
 -0.000 -0.000  0.000 -0.001  0.020
atomic mag. moment =     4.807770
atom   15   Tr[ns(na)] (up, down, total) =   4.98670  0.20050  5.18720
   spin  1
    eigenvalues: 
  0.996  0.996  0.998  0.998  0.998
    eigenvectors:
  0.069  0.931  0.000  0.000  0.000
  0.004  0.000  0.395  0.566  0.036
  0.002  0.000  0.582  0.414  0.002
  0.924  0.069  0.000  0.006  0.000
  0.001  0.000  0.024  0.014  0.962
    occupations:
  0.996  0.000 -0.000  0.000 -0.000
  0.000  0.998 -0.000 -0.000  0.000
 -0.000 -0.000  0.998  0.000  0.000
  0.000 -0.000  0.000  0.996  0.000
 -0.000  0.000  0.000  0.000  0.998
   spin  2
    eigenvalues: 
  0.021  0.021  0.022  0.068  0.068
    eigenvectors:
  0.000  0.000  0.000  0.974  0.026
  0.185  0.522  0.292  0.000  0.000
  0.380  0.452  0.167  0.000  0.001
  0.000  0.001  0.000  0.026  0.973
  0.434  0.025  0.541  0.000  0.000
    occupations:
  0.068  0.001  0.001 -0.000 -0.000
  0.001  0.022  0.000  0.001  0.000
  0.001  0.000  0.021 -0.001  0.000
 -0.000  0.001 -0.001  0.068 -0.001
 -0.000  0.000  0.000 -0.001  0.022
atomic mag. moment =     4.786203
N of occupied +U levels =   41.452515
 --- exit write_ns ---

     negative rho (up, down):  0.000E+00 1.421E-04

     Magnetic moment per site:
     atom:    1    charge:   12.6561    magn:   10.1461    constr:    0.0000
     atom:    2    charge:    5.5849    magn:    0.1618    constr:    0.0000
     atom:    3    charge:   12.6660    magn:   10.1467    constr:    0.0000
     atom:    4    charge:    5.5876    magn:    0.1643    constr:    0.0000
     atom:    5    charge:   12.6618    magn:   10.1466    constr:    0.0000
     atom:    6    charge:    5.5864    magn:    0.1631    constr:    0.0000
     atom:    7    charge:   12.6616    magn:   10.1467    constr:    0.0000
     atom:    8    charge:    5.6112    magn:    0.1815    constr:    0.0000
     atom:    9    charge:   12.6561    magn:   10.1460    constr:    0.0000
     atom:   10    charge:    5.5631    magn:    0.1455    constr:    0.0000
     atom:   11    charge:   12.6561    magn:   10.1462    constr:    0.0000
     atom:   12    charge:    5.5891    magn:    0.1650    constr:    0.0000
     atom:   13    charge:   12.6527    magn:   10.1455    constr:    0.0000
     atom:   14    charge:    5.5858    magn:    0.1626    constr:    0.0000
     atom:   15    charge:   12.6620    magn:   10.1468    constr:    0.0000
     atom:   16    charge:    5.5892    magn:    0.1648    constr:    0.0000

     total cpu time spent up to now is      301.0 secs

     total energy              =   -1937.81458034 Ry
     Harris-Foulkes estimate   =   -1920.98553898 Ry
     estimated scf accuracy    <      25.67374239 Ry

     total magnetization       =    40.00 Bohr mag/cell
     absolute magnetization    =    41.80 Bohr mag/cell

     iteration #  2     ecut=    41.00 Ry     beta=0.30
     Davidson diagonalization with overlap
     ethr =  1.00E-02,  avg # of iterations =  1.1

     negative rho (up, down):  0.000E+00 7.851E-04

     Magnetic moment per site:
     atom:    1    charge:   12.5483    magn:    4.4857    constr:    0.0000
     atom:    2    charge:    5.8006    magn:   -0.0559    constr:    0.0000
     atom:    3    charge:   12.5545    magn:    4.4844    constr:    0.0000
     atom:    4    charge:    5.8036    magn:   -0.0543    constr:    0.0000
     atom:    5    charge:   12.5517    magn:    4.4858    constr:    0.0000
     atom:    6    charge:    5.8026    magn:   -0.0549    constr:    0.0000
     atom:    7    charge:   12.5517    magn:    4.4861    constr:    0.0000
     atom:    8    charge:    5.8294    magn:   -0.0468    constr:    0.0000
     atom:    9    charge:   12.5484    magn:    4.4856    constr:    0.0000
     atom:   10    charge:    5.7766    magn:   -0.0629    constr:    0.0000
     atom:   11    charge:   12.5483    magn:    4.4856    constr:    0.0000
     atom:   12    charge:    5.8051    magn:   -0.0542    constr:    0.0000
     atom:   13    charge:   12.5460    magn:    4.4853    constr:    0.0000
     atom:   14    charge:    5.8019    magn:   -0.0550    constr:    0.0000
     atom:   15    charge:   12.5521    magn:    4.4859    constr:    0.0000
     atom:   16    charge:    5.8054    magn:   -0.0545    constr:    0.0000

     total cpu time spent up to now is      436.1 secs

     total energy              =   -1945.62662485 Ry
     Harris-Foulkes estimate   =   -1938.07963855 Ry
     estimated scf accuracy    <      12.66554423 Ry

     total magnetization       =    40.00 Bohr mag/cell
     absolute magnetization    =    41.21 Bohr mag/cell

     iteration #  3     ecut=    41.00 Ry     beta=0.30
     Davidson diagonalization with overlap
     ethr =  7.54E-03,  avg # of iterations =  2.0

     negative rho (up, down):  0.000E+00 9.487E-04

     Magnetic moment per site:
     atom:    1    charge:   12.4808    magn:    4.2287    constr:    0.0000
     atom:    2    charge:    5.7749    magn:    0.0573    constr:    0.0000
     atom:    3    charge:   12.4906    magn:    4.2199    constr:    0.0000
     atom:    4    charge:    5.7783    magn:    0.0593    constr:    0.0000
     atom:    5    charge:   12.4865    magn:    4.2247    constr:    0.0000
     atom:    6    charge:    5.7770    magn:    0.0582    constr:    0.0000
     atom:    7    charge:   12.4865    magn:    4.2248    constr:    0.0000
     atom:    8    charge:    5.8055    magn:    0.0678    constr:    0.0000
     atom:    9    charge:   12.4809    magn:    4.2286    constr:    0.0000
     atom:   10    charge:    5.7494    magn:    0.0488    constr:    0.0000
     atom:   11    charge:   12.4806    magn:    4.2289    constr:    0.0000
     atom:   12    charge:    5.7798    magn:    0.0594    constr:    0.0000
     atom:   13    charge:   12.4772    magn:    4.2311    constr:    0.0000
     atom:   14    charge:    5.7763    magn:    0.0583    constr:    0.0000
     atom:   15    charge:   12.4868    magn:    4.2246    constr:    0.0000
     atom:   16    charge:    5.7801    magn:    0.0591    constr:    0.0000

     total cpu time spent up to now is      610.0 secs

     total energy              =   -1946.14266916 Ry
     Harris-Foulkes estimate   =   -1946.24436060 Ry
     estimated scf accuracy    <       0.36835074 Ry

     total magnetization       =    40.00 Bohr mag/cell
     absolute magnetization    =    40.00 Bohr mag/cell

     iteration #  4     ecut=    41.00 Ry     beta=0.30
     Davidson diagonalization with overlap
     ethr =  2.19E-04,  avg # of iterations =  2.7

     negative rho (up, down):  0.000E+00 9.945E-04

     Magnetic moment per site:
     atom:    1    charge:   12.4681    magn:    4.1440    constr:    0.0000
     atom:    2    charge:    5.7827    magn:    0.0754    constr:    0.0000
     atom:    3    charge:   12.4786    magn:    4.1341    constr:    0.0000
     atom:    4    charge:    5.7860    magn:    0.0774    constr:    0.0000
     atom:    5    charge:   12.4742    magn:    4.1394    constr:    0.0000
     atom:    6    charge:    5.7848    magn:    0.0762    constr:    0.0000
     atom:    7    charge:   12.4743    magn:    4.1395    constr:    0.0000
     atom:    8    charge:    5.8132    magn:    0.0858    constr:    0.0000
     atom:    9    charge:   12.4682    magn:    4.1439    constr:    0.0000
     atom:   10    charge:    5.7573    magn:    0.0669    constr:    0.0000
     atom:   11    charge:   12.4679    magn:    4.1442    constr:    0.0000
     atom:   12    charge:    5.7876    magn:    0.0775    constr:    0.0000
     atom:   13    charge:   12.4642    magn:    4.1468    constr:    0.0000
     atom:   14    charge:    5.7841    magn:    0.0764    constr:    0.0000
     atom:   15    charge:   12.4745    magn:    4.1393    constr:    0.0000
     atom:   16    charge:    5.7879    magn:    0.0771    constr:    0.0000

     total cpu time spent up to now is      801.7 secs

     total energy              =   -1946.19690279 Ry
     Harris-Foulkes estimate   =   -1946.20083417 Ry
     estimated scf accuracy    <       0.02831536 Ry

     total magnetization       =    40.00 Bohr mag/cell
     absolute magnetization    =    40.00 Bohr mag/cell

     iteration #  5     ecut=    41.00 Ry     beta=0.30
     Davidson diagonalization with overlap
     ethr =  1.69E-05,  avg # of iterations =  2.4

     negative rho (up, down):  0.000E+00 1.081E-03

     Magnetic moment per site:
     atom:    1    charge:   12.4336    magn:    4.2136    constr:    0.0000
     atom:    2    charge:    5.7886    magn:    0.1521    constr:    0.0000
     atom:    3    charge:   12.4468    magn:    4.2002    constr:    0.0000
     atom:    4    charge:    5.7919    magn:    0.1543    constr:    0.0000
     atom:    5    charge:   12.4414    magn:    4.2072    constr:    0.0000
     atom:    6    charge:    5.7907    magn:    0.1528    constr:    0.0000
     atom:    7    charge:   12.4415    magn:    4.2071    constr:    0.0000
     atom:    8    charge:    5.8189    magn:    0.1626    constr:    0.0000
     atom:    9    charge:   12.4337    magn:    4.2135    constr:    0.0000
     atom:   10    charge:    5.7633    magn:    0.1433    constr:    0.0000
     atom:   11    charge:   12.4333    magn:    4.2140    constr:    0.0000
     atom:   12    charge:    5.7934    magn:    0.1543    constr:    0.0000
     atom:   13    charge:   12.4287    magn:    4.2178    constr:    0.0000
     atom:   14    charge:    5.7900    magn:    0.1531    constr:    0.0000
     atom:   15    charge:   12.4417    magn:    4.2069    constr:    0.0000
     atom:   16    charge:    5.7938    magn:    0.1540    constr:    0.0000

     total cpu time spent up to now is      964.2 secs

     total energy              =   -1946.19769604 Ry
     Harris-Foulkes estimate   =   -1946.19833269 Ry
     estimated scf accuracy    <       0.01265684 Ry

     total magnetization       =    40.00 Bohr mag/cell
     absolute magnetization    =    40.00 Bohr mag/cell
 kfg - setting two_fermi_energies to FALSE

     iteration #  6     ecut=    41.00 Ry     beta=0.30
     Davidson diagonalization with overlap
     ethr =  7.53E-06,  avg # of iterations =  2.2

     negative rho (up, down):  0.000E+00 1.079E-03

     Magnetic moment per site:
     atom:    1    charge:   12.4275    magn:    4.2141    constr:    0.0000
     atom:    2    charge:    5.7892    magn:    0.1677    constr:    0.0000
     atom:    3    charge:   12.4417    magn:    4.2005    constr:    0.0000
     atom:    4    charge:    5.7926    magn:    0.1697    constr:    0.0000
     atom:    5    charge:   12.4359    magn:    4.2076    constr:    0.0000
     atom:    6    charge:    5.7914    magn:    0.1683    constr:    0.0000
     atom:    7    charge:   12.4360    magn:    4.2074    constr:    0.0000
     atom:    8    charge:    5.8198    magn:    0.1775    constr:    0.0000
     atom:    9    charge:   12.4276    magn:    4.2140    constr:    0.0000
     atom:   10    charge:    5.7636    magn:    0.1594    constr:    0.0000
     atom:   11    charge:   12.4272    magn:    4.2145    constr:    0.0000
     atom:   12    charge:    5.7941    magn:    0.1697    constr:    0.0000
     atom:   13    charge:   12.4222    magn:    4.2184    constr:    0.0000
     atom:   14    charge:    5.7907    magn:    0.1686    constr:    0.0000
     atom:   15    charge:   12.4361    magn:    4.2073    constr:    0.0000
     atom:   16    charge:    5.7946    magn:    0.1695    constr:    0.0000

     total cpu time spent up to now is     1135.6 secs

     total energy              =   -1946.20045469 Ry
     Harris-Foulkes estimate   =   -1946.20034134 Ry
     estimated scf accuracy    <       0.00052570 Ry

     total magnetization       =    40.00 Bohr mag/cell
     absolute magnetization    =    40.00 Bohr mag/cell

     iteration #  7     ecut=    41.00 Ry     beta=0.30
     Davidson diagonalization with overlap
     ethr =  3.13E-07,  avg # of iterations =  2.3

     negative rho (up, down):  0.000E+00 1.060E-03

     Magnetic moment per site:
     atom:    1    charge:   12.4272    magn:    4.2047    constr:    0.0000
     atom:    2    charge:    5.7887    magn:    0.1703    constr:    0.0000
     atom:    3    charge:   12.4418    magn:    4.1913    constr:    0.0000
     atom:    4    charge:    5.7922    magn:    0.1723    constr:    0.0000
     atom:    5    charge:   12.4358    magn:    4.1984    constr:    0.0000
     atom:    6    charge:    5.7909    magn:    0.1709    constr:    0.0000
     atom:    7    charge:   12.4360    magn:    4.1982    constr:    0.0000
     atom:    8    charge:    5.8194    magn:    0.1796    constr:    0.0000
     atom:    9    charge:   12.4273    magn:    4.2047    constr:    0.0000
     atom:   10    charge:    5.7630    magn:    0.1624    constr:    0.0000
     atom:   11    charge:   12.4269    magn:    4.2051    constr:    0.0000
     atom:   12    charge:    5.7937    magn:    0.1723    constr:    0.0000
     atom:   13    charge:   12.4217    magn:    4.2089    constr:    0.0000
     atom:   14    charge:    5.7902    magn:    0.1712    constr:    0.0000
     atom:   15    charge:   12.4361    magn:    4.1981    constr:    0.0000
     atom:   16    charge:    5.7941    magn:    0.1721    constr:    0.0000

     total cpu time spent up to now is     1308.0 secs

     total energy              =   -1946.20058947 Ry
     Harris-Foulkes estimate   =   -1946.20057188 Ry
     estimated scf accuracy    <       0.00012131 Ry

     total magnetization       =    40.00 Bohr mag/cell
     absolute magnetization    =    40.00 Bohr mag/cell

     iteration #  8     ecut=    41.00 Ry     beta=0.30
     Davidson diagonalization with overlap
     ethr =  7.22E-08,  avg # of iterations =  1.5

     negative rho (up, down):  0.000E+00 1.028E-03

     Magnetic moment per site:
     atom:    1    charge:   12.4282    magn:    4.2032    constr:    0.0000
     atom:    2    charge:    5.7882    magn:    0.1729    constr:    0.0000
     atom:    3    charge:   12.4431    magn:    4.1900    constr:    0.0000
     atom:    4    charge:    5.7916    magn:    0.1749    constr:    0.0000
     atom:    5    charge:   12.4370    magn:    4.1971    constr:    0.0000
     atom:    6    charge:    5.7903    magn:    0.1735    constr:    0.0000
     atom:    7    charge:   12.4372    magn:    4.1969    constr:    0.0000
     atom:    8    charge:    5.8187    magn:    0.1817    constr:    0.0000
     atom:    9    charge:   12.4283    magn:    4.2032    constr:    0.0000
     atom:   10    charge:    5.7626    magn:    0.1655    constr:    0.0000
     atom:   11    charge:   12.4278    magn:    4.2036    constr:    0.0000
     atom:   12    charge:    5.7931    magn:    0.1748    constr:    0.0000
     atom:   13    charge:   12.4225    magn:    4.2073    constr:    0.0000
     atom:   14    charge:    5.7897    magn:    0.1738    constr:    0.0000
     atom:   15    charge:   12.4373    magn:    4.1968    constr:    0.0000
     atom:   16    charge:    5.7935    magn:    0.1746    constr:    0.0000

     total cpu time spent up to now is     1456.7 secs

     total energy              =   -1946.20060926 Ry
     Harris-Foulkes estimate   =   -1946.20060832 Ry
     estimated scf accuracy    <       0.00001722 Ry

     total magnetization       =    40.00 Bohr mag/cell
     absolute magnetization    =    40.00 Bohr mag/cell

     iteration #  9     ecut=    41.00 Ry     beta=0.30
     Davidson diagonalization with overlap
     ethr =  1.03E-08,  avg # of iterations =  2.0

     negative rho (up, down):  0.000E+00 1.026E-03

     Magnetic moment per site:
     atom:    1    charge:   12.4281    magn:    4.2032    constr:    0.0000
     atom:    2    charge:    5.7881    magn:    0.1740    constr:    0.0000
     atom:    3    charge:   12.4431    magn:    4.1901    constr:    0.0000
     atom:    4    charge:    5.7915    magn:    0.1759    constr:    0.0000
     atom:    5    charge:   12.4369    magn:    4.1971    constr:    0.0000
     atom:    6    charge:    5.7903    magn:    0.1745    constr:    0.0000
     atom:    7    charge:   12.4371    magn:    4.1969    constr:    0.0000
     atom:    8    charge:    5.8187    magn:    0.1827    constr:    0.0000
     atom:    9    charge:   12.4282    magn:    4.2032    constr:    0.0000
     atom:   10    charge:    5.7625    magn:    0.1667    constr:    0.0000
     atom:   11    charge:   12.4277    magn:    4.2036    constr:    0.0000
     atom:   12    charge:    5.7930    magn:    0.1759    constr:    0.0000
     atom:   13    charge:   12.4224    magn:    4.2073    constr:    0.0000
     atom:   14    charge:    5.7896    magn:    0.1749    constr:    0.0000
     atom:   15    charge:   12.4372    magn:    4.1968    constr:    0.0000
     atom:   16    charge:    5.7934    magn:    0.1757    constr:    0.0000

     total cpu time spent up to now is     1624.8 secs

     total energy              =   -1946.20061301 Ry
     Harris-Foulkes estimate   =   -1946.20061368 Ry
     estimated scf accuracy    <       0.00000354 Ry

     total magnetization       =    40.00 Bohr mag/cell
     absolute magnetization    =    40.00 Bohr mag/cell

     iteration # 10     ecut=    41.00 Ry     beta=0.30
     Davidson diagonalization with overlap
     ethr =  2.11E-09,  avg # of iterations =  2.0

     negative rho (up, down):  0.000E+00 1.028E-03

     Magnetic moment per site:
     atom:    1    charge:   12.4282    magn:    4.2031    constr:    0.0000
     atom:    2    charge:    5.7881    magn:    0.1743    constr:    0.0000
     atom:    3    charge:   12.4432    magn:    4.1900    constr:    0.0000
     atom:    4    charge:    5.7915    magn:    0.1762    constr:    0.0000
     atom:    5    charge:   12.4370    magn:    4.1970    constr:    0.0000
     atom:    6    charge:    5.7902    magn:    0.1748    constr:    0.0000
     atom:    7    charge:   12.4372    magn:    4.1968    constr:    0.0000
     atom:    8    charge:    5.8186    magn:    0.1829    constr:    0.0000
     atom:    9    charge:   12.4283    magn:    4.2031    constr:    0.0000
     atom:   10    charge:    5.7624    magn:    0.1670    constr:    0.0000
     atom:   11    charge:   12.4278    magn:    4.2035    constr:    0.0000
     atom:   12    charge:    5.7929    magn:    0.1761    constr:    0.0000
     atom:   13    charge:   12.4225    magn:    4.2072    constr:    0.0000
     atom:   14    charge:    5.7895    magn:    0.1751    constr:    0.0000
     atom:   15    charge:   12.4373    magn:    4.1967    constr:    0.0000
     atom:   16    charge:    5.7934    magn:    0.1759    constr:    0.0000

     total cpu time spent up to now is     1807.9 secs

     total energy              =   -1946.20061382 Ry
     Harris-Foulkes estimate   =   -1946.20061376 Ry
     estimated scf accuracy    <       0.00000035 Ry

     total magnetization       =    40.00 Bohr mag/cell
     absolute magnetization    =    40.00 Bohr mag/cell

     iteration # 11     ecut=    41.00 Ry     beta=0.30
     Davidson diagonalization with overlap
     ethr =  2.06E-10,  avg # of iterations =  2.0

     negative rho (up, down):  0.000E+00 1.032E-03

     Magnetic moment per site:
     atom:    1    charge:   12.4282    magn:    4.2032    constr:    0.0000
     atom:    2    charge:    5.7881    magn:    0.1740    constr:    0.0000
     atom:    3    charge:   12.4432    magn:    4.1901    constr:    0.0000
     atom:    4    charge:    5.7915    magn:    0.1759    constr:    0.0000
     atom:    5    charge:   12.4370    magn:    4.1971    constr:    0.0000
     atom:    6    charge:    5.7902    magn:    0.1745    constr:    0.0000
     atom:    7    charge:   12.4372    magn:    4.1969    constr:    0.0000
     atom:    8    charge:    5.8187    magn:    0.1826    constr:    0.0000
     atom:    9    charge:   12.4283    magn:    4.2032    constr:    0.0000
     atom:   10    charge:    5.7624    magn:    0.1668    constr:    0.0000
     atom:   11    charge:   12.4278    magn:    4.2036    constr:    0.0000
     atom:   12    charge:    5.7930    magn:    0.1759    constr:    0.0000
     atom:   13    charge:   12.4225    magn:    4.2073    constr:    0.0000
     atom:   14    charge:    5.7896    magn:    0.1748    constr:    0.0000
     atom:   15    charge:   12.4373    magn:    4.1968    constr:    0.0000
     atom:   16    charge:    5.7934    magn:    0.1756    constr:    0.0000

     total cpu time spent up to now is     1979.5 secs

     total energy              =   -1946.20061399 Ry
     Harris-Foulkes estimate   =   -1946.20061387 Ry
     estimated scf accuracy    <       0.00000009 Ry

     total magnetization       =    40.00 Bohr mag/cell
     absolute magnetization    =    40.00 Bohr mag/cell

     iteration # 12     ecut=    41.00 Ry     beta=0.30
     Davidson diagonalization with overlap
     ethr =  5.49E-11,  avg # of iterations =  2.0

     negative rho (up, down):  0.000E+00 1.032E-03

     Magnetic moment per site:
     atom:    1    charge:   12.4282    magn:    4.2032    constr:    0.0000
     atom:    2    charge:    5.7881    magn:    0.1741    constr:    0.0000
     atom:    3    charge:   12.4432    magn:    4.1901    constr:    0.0000
     atom:    4    charge:    5.7915    magn:    0.1759    constr:    0.0000
     atom:    5    charge:   12.4370    magn:    4.1971    constr:    0.0000
     atom:    6    charge:    5.7902    magn:    0.1746    constr:    0.0000
     atom:    7    charge:   12.4372    magn:    4.1969    constr:    0.0000
     atom:    8    charge:    5.8187    magn:    0.1826    constr:    0.0000
     atom:    9    charge:   12.4283    magn:    4.2032    constr:    0.0000
     atom:   10    charge:    5.7624    magn:    0.1669    constr:    0.0000
     atom:   11    charge:   12.4278    magn:    4.2036    constr:    0.0000
     atom:   12    charge:    5.7930    magn:    0.1759    constr:    0.0000
     atom:   13    charge:   12.4225    magn:    4.2073    constr:    0.0000
     atom:   14    charge:    5.7896    magn:    0.1749    constr:    0.0000
     atom:   15    charge:   12.4373    magn:    4.1968    constr:    0.0000
     atom:   16    charge:    5.7934    magn:    0.1757    constr:    0.0000

     total cpu time spent up to now is     2165.8 secs

     total energy              =   -1946.20061406 Ry
     Harris-Foulkes estimate   =   -1946.20061401 Ry
     estimated scf accuracy    <       0.00000001 Ry

     total magnetization       =    40.00 Bohr mag/cell
     absolute magnetization    =    40.00 Bohr mag/cell

     iteration # 13     ecut=    41.00 Ry     beta=0.30
     Davidson diagonalization with overlap
     ethr =  5.96E-12,  avg # of iterations =  1.5

     negative rho (up, down):  0.000E+00 1.030E-03

     Magnetic moment per site:
     atom:    1    charge:   12.4282    magn:    4.2032    constr:    0.0000
     atom:    2    charge:    5.7881    magn:    0.1740    constr:    0.0000
     atom:    3    charge:   12.4432    magn:    4.1901    constr:    0.0000
     atom:    4    charge:    5.7915    magn:    0.1759    constr:    0.0000
     atom:    5    charge:   12.4370    magn:    4.1971    constr:    0.0000
     atom:    6    charge:    5.7902    magn:    0.1745    constr:    0.0000
     atom:    7    charge:   12.4372    magn:    4.1969    constr:    0.0000
     atom:    8    charge:    5.8187    magn:    0.1826    constr:    0.0000
     atom:    9    charge:   12.4283    magn:    4.2032    constr:    0.0000
     atom:   10    charge:    5.7624    magn:    0.1668    constr:    0.0000
     atom:   11    charge:   12.4278    magn:    4.2036    constr:    0.0000
     atom:   12    charge:    5.7930    magn:    0.1759    constr:    0.0000
     atom:   13    charge:   12.4225    magn:    4.2073    constr:    0.0000
     atom:   14    charge:    5.7896    magn:    0.1749    constr:    0.0000
     atom:   15    charge:   12.4373    magn:    4.1968    constr:    0.0000
     atom:   16    charge:    5.7934    magn:    0.1756    constr:    0.0000

     total cpu time spent up to now is     2334.1 secs

     End of self-consistent calculation
 --- enter write_ns ---
 LDA+U parameters:
U( 1)     =  3.00000000
alpha( 1) =  0.00000000
atom    1   Tr[ns(na)] (up, down, total) =   4.99242  0.45319  5.44561
   spin  1
    eigenvalues: 
  0.998  0.998  0.999  0.999  0.999
    eigenvectors:
  0.345  0.653  0.000  0.001  0.000
  0.006  0.001  0.318  0.655  0.021
  0.002  0.000  0.606  0.337  0.055
  0.647  0.345  0.000  0.007  0.001
  0.000  0.001  0.076  0.000  0.922
    occupations:
  0.998 -0.000  0.000  0.000 -0.000
 -0.000  0.999 -0.000  0.000 -0.000
  0.000 -0.000  0.999 -0.000 -0.000
  0.000  0.000 -0.000  0.998 -0.000
 -0.000 -0.000 -0.000 -0.000  0.999
   spin  2
    eigenvalues: 
  0.051  0.051  0.052  0.149  0.150
    eigenvectors:
  0.000  0.000  0.000  0.347  0.653
  0.039  0.418  0.542  0.000  0.000
  0.845  0.147  0.008  0.000  0.000
  0.000  0.000  0.000  0.653  0.347
  0.115  0.435  0.450  0.000  0.000
    occupations:
  0.150 -0.000 -0.001 -0.001  0.000
 -0.000  0.052 -0.000 -0.001 -0.000
 -0.001 -0.000  0.051  0.002 -0.000
 -0.001 -0.001  0.002  0.149  0.001
  0.000 -0.000 -0.000  0.001  0.052
atomic mag. moment =     4.539230
atom    3   Tr[ns(na)] (up, down, total) =   4.98746  0.48406  5.47151
   spin  1
    eigenvalues: 
  0.995  0.996  0.999  0.999  0.999
    eigenvectors:
  0.433  0.564  0.003  0.000  0.000
  0.000  0.001  0.590  0.188  0.221
  0.001  0.000  0.090  0.165  0.745
  0.566  0.434  0.000  0.000  0.000
  0.000  0.002  0.318  0.647  0.033
    occupations:
  0.996  0.000  0.000 -0.000 -0.000
  0.000  0.999 -0.000 -0.000  0.000
  0.000 -0.000  0.999  0.000 -0.000
 -0.000 -0.000  0.000  0.995  0.000
 -0.000  0.000 -0.000  0.000  0.999
   spin  2
    eigenvalues: 
  0.055  0.055  0.057  0.154  0.164
    eigenvectors:
  0.000  0.000  0.000  0.302  0.697
  0.799  0.199  0.002  0.000  0.000
  0.021  0.036  0.943  0.000  0.000
  0.000  0.000  0.000  0.697  0.302
  0.179  0.766  0.055  0.000  0.000
    occupations:
  0.161 -0.001 -0.000  0.005  0.001
 -0.001  0.055  0.000 -0.001  0.000
 -0.000  0.000  0.057 -0.000 -0.000
  0.005 -0.001 -0.000  0.157  0.002
  0.001  0.000 -0.000  0.002  0.055
atomic mag. moment =     4.503401
atom    5   Tr[ns(na)] (up, down, total) =   4.98983  0.47073  5.46057
   spin  1
    eigenvalues: 
  0.996  0.997  0.999  0.999  0.999
    eigenvectors:
  0.662  0.337  0.000  0.000  0.001
  0.000  0.001  0.007  0.006  0.986
  0.000  0.000  0.008  0.985  0.007
  0.337  0.660  0.003  0.000  0.001
  0.001  0.002  0.983  0.009  0.005
    occupations:
  0.996 -0.000  0.000  0.000 -0.000
 -0.000  0.999  0.000 -0.000 -0.000
  0.000  0.000  0.999 -0.000  0.000
  0.000 -0.000 -0.000  0.997  0.000
 -0.000 -0.000  0.000  0.000  0.999
   spin  2
    eigenvalues: 
  0.052  0.052  0.056  0.148  0.162
    eigenvectors:
  0.000  0.000  0.000  0.249  0.751
  0.000  0.000  1.000  0.000  0.000
  0.867  0.133  0.000  0.000  0.000
  0.000  0.000  0.000  0.751  0.249
  0.133  0.867  0.000  0.000  0.000
    occupations:
  0.159  0.001  0.001 -0.006  0.001
  0.001  0.056 -0.000  0.000  0.000
  0.001 -0.000  0.052  0.001  0.000
 -0.006  0.000  0.001  0.152 -0.002
  0.001  0.000  0.000 -0.002  0.052
atomic mag. moment =     4.519099
atom    7   Tr[ns(na)] (up, down, total) =   4.99021  0.47073  5.46094
   spin  1
    eigenvalues: 
  0.996  0.997  0.999  0.999  0.999
    eigenvectors:
  0.485  0.514  0.000  0.000  0.001
  0.002  0.000  0.116  0.452  0.430
  0.000  0.001  0.480  0.084  0.434
  0.512  0.485  0.002  0.001  0.000
  0.000  0.000  0.401  0.464  0.135
    occupations:
  0.997 -0.000 -0.000  0.000  0.000
 -0.000  0.999  0.000  0.000  0.000
 -0.000  0.000  0.999 -0.000 -0.000
  0.000  0.000 -0.000  0.997 -0.000
  0.000  0.000 -0.000 -0.000  0.999
   spin  2
    eigenvalues: 
  0.052  0.053  0.055  0.151  0.159
    eigenvectors:
  0.000  0.000  0.000  0.347  0.652
  0.002  0.001  0.996  0.000  0.000
  0.986  0.012  0.002  0.001  0.000
  0.000  0.000  0.000  0.652  0.348
  0.012  0.987  0.002  0.000  0.000
    occupations:
  0.156  0.002  0.002 -0.004 -0.001
  0.002  0.055  0.000 -0.002  0.000
  0.002  0.000  0.052  0.001 -0.000
 -0.004 -0.002  0.001  0.154  0.000
 -0.001  0.000 -0.000  0.000  0.053
atomic mag. moment =     4.519484
atom    9   Tr[ns(na)] (up, down, total) =   4.99254  0.45304  5.44558
   spin  1
    eigenvalues: 
  0.998  0.998  0.999  0.999  0.999
    eigenvectors:
  0.029  0.966  0.001  0.002  0.001
  0.000  0.001  0.724  0.131  0.144
  0.000  0.000  0.256  0.140  0.603
  0.969  0.030  0.000  0.001  0.000
  0.001  0.003  0.019  0.726  0.252
    occupations:
  0.998  0.000  0.000 -0.000 -0.000
  0.000  0.999 -0.000 -0.000  0.000
  0.000 -0.000  0.999  0.000  0.000
 -0.000 -0.000  0.000  0.998 -0.000
 -0.000  0.000  0.000 -0.000  0.999
   spin  2
    eigenvalues: 
  0.051  0.052  0.052  0.146  0.152
    eigenvectors:
  0.000  0.000  0.000  0.810  0.189
  0.942  0.057  0.000  0.000  0.000
  0.056  0.914  0.029  0.000  0.000
  0.000  0.000  0.000  0.190  0.810
  0.001  0.028  0.971  0.000  0.000
    occupations:
  0.147 -0.002 -0.002  0.002  0.001
 -0.002  0.051 -0.000  0.001 -0.000
 -0.002 -0.000  0.052 -0.001 -0.000
  0.002  0.001 -0.001  0.151  0.000
  0.001 -0.000 -0.000  0.000  0.052
atomic mag. moment =     4.539504
atom   11   Tr[ns(na)] (up, down, total) =   4.99241  0.45225  5.44466
   spin  1
    eigenvalues: 
  0.997  0.998  0.999  0.999  0.999
    eigenvectors:
  0.294  0.701  0.001  0.004  0.000
  0.000  0.003  0.877  0.102  0.018
  0.001  0.001  0.054  0.087  0.857
  0.704  0.293  0.002  0.000  0.002
  0.001  0.002  0.066  0.808  0.123
    occupations:
  0.998  0.000  0.000 -0.000  0.000
  0.000  0.999  0.000 -0.000  0.000
  0.000  0.000  0.999  0.000 -0.000
 -0.000 -0.000  0.000  0.997  0.000
  0.000  0.000 -0.000  0.000  0.999
   spin  2
    eigenvalues: 
  0.049  0.052  0.053  0.143  0.156
    eigenvectors:
  0.000  0.000  0.000  0.753  0.247
  0.999  0.001  0.000  0.000  0.000
  0.000  0.012  0.987  0.000  0.000
  0.000  0.000  0.000  0.247  0.752
  0.001  0.986  0.012  0.000  0.000
    occupations:
  0.146 -0.000 -0.001  0.006 -0.001
 -0.000  0.049  0.000 -0.000  0.000
 -0.001  0.000  0.053 -0.001 -0.000
  0.006 -0.000 -0.001  0.153  0.002
 -0.001  0.000 -0.000  0.002  0.052
atomic mag. moment =     4.540153
atom   13   Tr[ns(na)] (up, down, total) =   4.99336  0.44248  5.43584
   spin  1
    eigenvalues: 
  0.998  0.998  0.999  0.999  0.999
    eigenvectors:
  0.189  0.811  0.000  0.000  0.000
  0.002  0.001  0.049  0.328  0.619
  0.000  0.000  0.898  0.101  0.001
  0.808  0.188  0.000  0.000  0.003
  0.000  0.000  0.053  0.571  0.376
    occupations:
  0.998  0.000 -0.000  0.000  0.000
  0.000  0.999  0.000 -0.000 -0.000
 -0.000  0.000  0.999  0.000  0.000
  0.000 -0.000  0.000  0.998  0.000
  0.000 -0.000  0.000  0.000  0.999
   spin  2
    eigenvalues: 
  0.048  0.051  0.051  0.141  0.152
    eigenvectors:
  0.000  0.000  0.000  0.720  0.280
  0.001  0.161  0.838  0.000  0.000
  0.992  0.003  0.005  0.000  0.000
  0.000  0.000  0.000  0.280  0.720
  0.007  0.836  0.157  0.000  0.000
    occupations:
  0.144  0.000 -0.000 -0.005  0.000
  0.000  0.051 -0.000  0.001 -0.000
 -0.000 -0.000  0.048  0.000  0.000
 -0.005  0.001  0.000  0.149 -0.002
  0.000 -0.000  0.000 -0.002  0.051
atomic mag. moment =     4.550884
atom   15   Tr[ns(na)] (up, down, total) =   4.99009  0.47073  5.46082
   spin  1
    eigenvalues: 
  0.997  0.997  0.999  0.999  0.999
    eigenvectors:
  0.069  0.931  0.000  0.000  0.000
  0.004  0.000  0.400  0.523  0.072
  0.003  0.000  0.577  0.419  0.001
  0.924  0.069  0.000  0.008  0.000
  0.001  0.000  0.023  0.050  0.927
    occupations:
  0.997  0.000 -0.000  0.000 -0.000
  0.000  0.999 -0.000 -0.000  0.000
 -0.000 -0.000  0.999  0.000  0.000
  0.000 -0.000  0.000  0.997  0.000
 -0.000  0.000  0.000  0.000  0.999
   spin  2
    eigenvalues: 
  0.053  0.053  0.054  0.155  0.156
    eigenvectors:
  0.000  0.000  0.000  0.970  0.030
  0.149  0.623  0.228  0.000  0.000
  0.542  0.331  0.127  0.000  0.000
  0.000  0.001  0.000  0.030  0.969
  0.309  0.045  0.645  0.000  0.000
    occupations:
  0.155  0.001  0.001 -0.000  0.000
  0.001  0.054 -0.000  0.002  0.000
  0.001 -0.000  0.053 -0.002  0.001
 -0.000  0.002 -0.002  0.156 -0.001
  0.000  0.000  0.001 -0.001  0.054
atomic mag. moment =     4.519368
N of occupied +U levels =   43.625526
 --- exit write_ns ---

 ------ SPIN UP ------------


          k = 0.0000 0.0000 0.0000 (  5329 PWs)   bands (ev):

   -69.1666 -69.0744 -69.0650 -69.0619 -68.8916 -68.8862 -68.8789 -68.7878
   -38.0465 -38.0410 -38.0171 -37.9652 -37.9521 -37.9447 -37.9378 -37.9304
   -37.9274 -37.9238 -37.9161 -37.9117 -37.7823 -37.7750 -37.7703 -37.7606
   -37.7552 -37.7490 -37.7441 -37.7348 -37.7316 -37.6746 -37.6519 -37.6464
    -7.0495  -6.5594  -6.3935  -6.3924  -6.0111  -6.0104  -6.0092  -5.7946
     3.9498   3.9538   3.9554   3.9678   5.7310   5.7524   5.7582   5.7874
     5.7905   5.7959   5.8024   5.8138   6.0014   6.0140   6.0188   6.6596
     6.6660   6.6955   7.7231   7.7271   7.7591   8.1136   8.1567   8.1851
     8.2239   8.2357   8.2902   8.3576   8.3870   8.6962   8.7145   8.7299
     8.7423   8.7496   8.7512   8.7700   8.7814   8.8092   8.8686   8.9122
     9.0196   9.0235   9.0365   9.0505   9.0536   9.0616   9.2225   9.2262
     9.2304   9.4087   9.4320   9.4629   9.7109   9.7189   9.7244   9.7389
    11.9394  12.2904  12.2989  12.3100  12.3137  12.3203  12.3319  12.3357
    12.3570  15.8991  15.9180  15.9295  15.9479  17.2481  17.2678  17.2815
    20.1294  20.1500  20.1798  20.2003  20.3697  20.3959  20.4815  22.5998
    22.6146  22.6632  24.0740  24.0859  24.1178

          k =-0.1768 0.1768 0.1768 (  5402 PWs)   bands (ev):

   -69.1658 -69.0736 -69.0642 -69.0610 -68.8908 -68.8854 -68.8782 -68.7870
   -38.0462 -38.0408 -38.0165 -37.9619 -37.9515 -37.9455 -37.9378 -37.9307
   -37.9273 -37.9260 -37.9181 -37.9130 -37.7802 -37.7756 -37.7677 -37.7614
   -37.7554 -37.7491 -37.7458 -37.7373 -37.7346 -37.6757 -37.6529 -37.6469
    -6.9322  -6.5337  -6.3430  -6.3406  -6.1544  -6.0686  -6.0654  -5.8333
     4.2640   4.2711   4.2891   4.4439   5.7183   5.7239   5.7492   5.8284
     5.8403   5.8679   5.9712   5.9811   5.9886   6.0022   6.0281   6.4050
     6.4250   6.4560   7.1401   7.3821   7.3985   7.4152   7.5020   7.5284
     7.9498   7.9924   8.0273   8.0394   8.0689   8.5485   8.5772   8.5976
     8.6228   8.6374   8.7155   8.7763   8.7842   8.9373   8.9735   9.0059
     9.0185   9.1970   9.2178   9.2329   9.4893   9.6004   9.6134   9.6287
     9.6837   9.6998   9.7255   9.8215   9.8705   9.9106  10.1867  10.2167
    11.7160  11.7376  11.7545  11.9426  11.9541  11.9706  12.0267  12.0458
    13.0477  15.7063  16.7446  16.7667  16.7888  17.6303  17.6674  17.7054
    20.0433  20.0841  20.1176  20.3821  20.4225  20.4708  20.7421  21.9910
    22.0083  22.0362  23.0943  23.1023  23.1364

          k = 0.3536-0.3536-0.3536 (  5444 PWs)   bands (ev):

   -69.1650 -69.0727 -69.0635 -69.0602 -68.8899 -68.8846 -68.8774 -68.7862
   -38.0459 -38.0406 -38.0158 -37.9569 -37.9510 -37.9478 -37.9376 -37.9314
   -37.9286 -37.9250 -37.9222 -37.9136 -37.7777 -37.7766 -37.7641 -37.7620
   -37.7553 -37.7480 -37.7477 -37.7443 -37.7357 -37.6769 -37.6538 -37.6475
    -6.7446  -6.4747  -6.4089  -6.2412  -6.2364  -6.1736  -6.1730  -5.8689
     4.9109   4.9211   5.0713   5.1152   5.2444   5.2542   5.5443   5.7602
     5.8697   5.9269   5.9395   6.0056   6.0226   6.1630   6.3608   6.3997
     6.4393   6.5468   6.5707   6.5949   6.6226   6.6913   6.7660   6.8411
     8.0609   8.0859   8.1334   8.1740   8.2129   8.2912   8.2993   8.3247
     8.3657   8.4158   8.7432   8.8192   8.8397   8.8990   8.9223   8.9648
     9.0168   9.1537   9.3686   9.4105   9.4167   9.5126   9.5213   9.5677
    10.5118  10.5714  10.5951  10.6917  10.7342  10.7948  10.8871  10.9199
    10.9505  11.0740  11.1081  11.1566  11.1594  11.2766  11.3542  11.4166
    14.6038  14.7344  17.6684  17.7585  17.8546  17.9799  18.1321  18.2274
    19.9132  20.0392  20.1493  20.1969  20.3374  20.4443  21.5218  21.6170
    21.6611  21.8651  21.9366  22.0152  22.1444

          k = 0.0000 0.0000 0.3536 (  5425 PWs)   bands (ev):

   -69.1656 -69.0733 -69.0640 -69.0607 -68.8905 -68.8852 -68.8779 -68.7867
   -38.0456 -38.0405 -38.0167 -37.9619 -37.9508 -37.9459 -37.9383 -37.9313
   -37.9275 -37.9260 -37.9177 -37.9130 -37.7808 -37.7764 -37.7677 -37.7604
   -37.7551 -37.7498 -37.7464 -37.7373 -37.7344 -37.6757 -37.6534 -37.6479
    -6.9039  -6.5414  -6.3657  -6.3054  -6.1104  -6.1065  -6.1014  -5.8439
     4.3675   4.3787   4.3946   4.4043   5.5549   5.7970   5.8240   5.8869
     5.8992   5.9291   5.9528   5.9735   5.9940   6.0096   6.0221   6.3044
     6.3530   6.8069   6.8160   6.8450   6.9027   7.5170   7.6053   7.6689
     7.8288   7.9179   8.3823   8.4919   8.5611   8.5897   8.5964   8.6189
     8.6794   8.7051   8.7104   8.7351   8.7708   8.8300   9.0246   9.0319
     9.1118   9.1220   9.1425   9.1631   9.4222   9.4374   9.5204   9.5756
     9.5947   9.6277   9.6683   9.6884   9.7030   9.9178  10.2379  10.2789
    11.3127  11.3341  11.3411  11.3758  12.2474  12.2646  12.2725  12.2923
    13.5326  16.5633  16.6440  16.6644  16.6930  17.2888  18.0638  18.0764
    20.1823  20.2217  20.2540  20.3182  20.4230  20.5401  20.9039  21.6677
    21.7087  22.8083  23.0469  23.0560  23.0750

          k = 0.5303-0.5303-0.1768 (  5413 PWs)   bands (ev):

   -69.1648 -69.0725 -69.0633 -69.0599 -68.8897 -68.8844 -68.8771 -68.7859
   -38.0453 -38.0403 -38.0160 -37.9568 -37.9501 -37.9484 -37.9382 -37.9320
   -37.9292 -37.9249 -37.9217 -37.9137 -37.7784 -37.7774 -37.7638 -37.7612
   -37.7545 -37.7494 -37.7479 -37.7447 -37.7353 -37.6767 -37.6542 -37.6486
    -6.7435  -6.4963  -6.3405  -6.3161  -6.2358  -6.1740  -6.1445  -5.8682
     4.8287   4.8616   4.9121   5.1796   5.3392   5.4988   5.5416   5.7779
     5.8918   5.9398   5.9595   6.0372   6.1012   6.1508   6.1814   6.2232
     6.2752   6.4115   6.4903   6.5710   6.5951   6.8590   7.1883   7.2190
     7.8088   7.8686   8.2213   8.3091   8.3416   8.4786   8.5230   8.5634
     8.6247   8.6442   8.6725   8.7749   8.7925   8.8160   8.9009   8.9279
     9.2256   9.3145   9.3479   9.4175   9.4436   9.5560   9.5664   9.6061
     9.8434   9.8676  10.1716  10.2966  10.3374  10.3817  10.4128  10.5201
    10.5847  10.8710  10.9912  11.0382  11.7693  11.7879  11.8439  12.0025
    14.9386  15.7392  16.8840  17.4153  17.5117  18.4480  18.8105  18.8772
    19.8325  20.0619  20.1664  20.5735  20.6626  20.9944  21.0823  21.2819
    21.5760  21.6843  22.0018  22.0343  22.6351

          k = 0.3536-0.3536 0.0000 (  5416 PWs)   bands (ev):

   -69.1650 -69.0728 -69.0634 -69.0602 -68.8900 -68.8846 -68.8773 -68.7862
   -38.0449 -38.0404 -38.0155 -37.9631 -37.9517 -37.9458 -37.9388 -37.9311
   -37.9273 -37.9257 -37.9182 -37.9130 -37.7805 -37.7763 -37.7686 -37.7617
   -37.7557 -37.7501 -37.7460 -37.7374 -37.7345 -37.6769 -37.6537 -37.6491
    -6.7865  -6.5050  -6.3082  -6.2951  -6.2597  -6.1889  -6.1062  -5.8622
     4.6788   4.7058   4.8871   4.8998   5.4260   5.4564   5.6040   5.8466
     5.8690   5.9229   6.0433   6.0699   6.0880   6.1063   6.3338   6.3856
     6.4112   6.4409   6.4966   6.6912   6.7380   6.7704   6.8869   7.0663
     7.9573   8.1694   8.1961   8.2466   8.3066   8.3472   8.4181   8.5851
     8.6176   8.6672   8.7069   8.7289   8.7480   8.8744   8.8961   8.9176
     9.3265   9.3560   9.4206   9.4481   9.4937   9.5220   9.5643   9.5900
     9.6062   9.6361   9.7948   9.8264  10.6774  10.7076  10.7955  10.8605
    10.9460  11.1389  11.2456  11.2995  11.5888  11.6227  11.7221  11.7498
    14.2509  16.1535  16.2102  17.6976  17.8020  18.0695  18.1244  18.6443
    19.7910  19.8395  20.4099  20.4763  20.6612  20.7553  21.0474  21.2072
    21.7522  21.7735  21.8992  21.9916  23.4558

          k = 0.0000 0.0000-0.7071 (  5434 PWs)   bands (ev):

   -69.1645 -69.0722 -69.0631 -69.0596 -68.8895 -68.8841 -68.8768 -68.7857
   -38.0448 -38.0400 -38.0162 -37.9567 -37.9492 -37.9491 -37.9387 -37.9325
   -37.9297 -37.9249 -37.9211 -37.9137 -37.7791 -37.7782 -37.7635 -37.7604
   -37.7537 -37.7506 -37.7480 -37.7451 -37.7348 -37.6767 -37.6550 -37.6494
    -6.7241  -6.5508  -6.3585  -6.2395  -6.2033  -6.1938  -6.1737  -5.8730
     4.8573   4.8716   4.9067   4.9173   5.4996   5.5799   5.8331   5.8620
     5.9021   5.9531   5.9576   6.0176   6.0387   6.0815   6.0931   6.1237
     6.1703   6.1856   6.2422   6.3796   7.1187   7.2082   7.5034   7.5768
     7.5810   7.6494   8.3864   8.4009   8.4473   8.4609   8.5598   8.5842
     8.7536   8.7876   8.7911   8.8043   9.0303   9.0440   9.0884   9.0945
     9.1237   9.1599   9.1727   9.2068   9.6783   9.6907   9.7219   9.7454
     9.8122   9.8292   9.8830   9.8857   9.9083   9.9296   9.9727   9.9819
    10.0663  10.1082  10.8499  10.8729  12.2050  12.2251  12.2288  12.2541
    15.9084  15.9507  17.1702  17.2698  17.2891  17.4035  19.3106  19.3448
    20.5563  20.6538  20.6962  20.7059  21.0812  21.1545  21.1783  21.2665
    21.3711  21.3847  21.4665  21.5063  23.2007

          k = 0.0000 0.3536-0.7071 (  5400 PWs)   bands (ev):

   -69.1645 -69.0723 -69.0629 -69.0597 -68.8894 -68.8842 -68.8768 -68.7857
   -38.0451 -38.0401 -38.0155 -37.9581 -37.9506 -37.9460 -37.9389 -37.9331
   -37.9290 -37.9256 -37.9194 -37.9152 -37.7803 -37.7760 -37.7634 -37.7614
   -37.7554 -37.7503 -37.7478 -37.7427 -37.7361 -37.6776 -37.6545 -37.6490
    -6.6984  -6.4366  -6.4075  -6.3292  -6.2612  -6.1721  -6.1496  -5.8711
     5.0694   5.1580   5.2029   5.2156   5.2959   5.3105   5.3907   5.4243
     5.9315   5.9552   5.9735   6.0326   6.1390   6.1704   6.2009   6.2319
     6.4215   6.4564   6.5600   6.6359   6.6740   6.7003   6.7554   6.7904
     8.0263   8.0539   8.0848   8.1016   8.5967   8.6180   8.6339   8.6787
     8.6952   8.7053   8.7253   8.7321   8.7597   8.7722   8.7852   8.8188
     9.4596   9.4953   9.5284   9.5512   9.5921   9.6393   9.6498   9.6899
     9.7701   9.8115   9.8311   9.8500   9.8940   9.9221   9.9529  10.0035
    11.3172  11.3573  11.3996  11.4507  11.4896  11.5167  11.5689  11.6329
    16.0617  16.1302  16.2822  16.3594  18.9183  18.9496  19.0314  19.0756
    19.9435  20.0477  20.1054  20.2177  20.6267  20.6775  20.8420  20.9770
    22.2143  22.2368  22.2989  22.3567  22.7537

          k = 0.1768-0.1768 0.1768 (  5402 PWs)   bands (ev):

   -69.1658 -69.0736 -69.0642 -69.0610 -68.8908 -68.8854 -68.8781 -68.7870
   -38.0453 -38.0406 -38.0162 -37.9662 -37.9523 -37.9450 -37.9388 -37.9309
   -37.9273 -37.9238 -37.9161 -37.9117 -37.7825 -37.7757 -37.7710 -37.7610
   -37.7558 -37.7499 -37.7444 -37.7346 -37.7316 -37.6758 -37.6527 -37.6485
    -6.9310  -6.5366  -6.3438  -6.3401  -6.1488  -6.0701  -6.0656  -5.8353
     4.2668   4.2772   4.2874   4.4385   5.7187   5.7322   5.7485   5.8185
     5.8265   5.8389   5.9759   5.9853   5.9948   6.0230   6.0344   6.3993
     6.4246   6.4684   7.1358   7.3637   7.4045   7.4174   7.4909   7.5288
     7.9694   7.9835   8.0185   8.0538   8.0841   8.5495   8.5765   8.5860
     8.6075   8.6193   8.7583   8.7629   8.7926   8.9195   8.9610   8.9732
     9.0431   9.2093   9.2264   9.2482   9.4954   9.6084   9.6169   9.6355
     9.6642   9.6978   9.7302   9.8232   9.8706   9.9078  10.1919  10.2112
    11.7209  11.7302  11.7624  11.9399  11.9552  11.9694  12.0246  12.0370
    13.0471  15.6972  16.7424  16.7641  16.7898  17.6402  17.6695  17.7167
    20.0436  20.0752  20.1045  20.3714  20.4040  20.4817  20.7797  21.9773
    21.9931  22.0394  23.0730  23.0927  23.1508

          k = 0.1768 0.1768-0.1768 (  5402 PWs)   bands (ev):

   -69.1658 -69.0736 -69.0641 -69.0612 -68.8908 -68.8855 -68.8781 -68.7870
   -38.0457 -38.0410 -38.0170 -37.9623 -37.9518 -37.9429 -37.9375 -37.9326
   -37.9274 -37.9260 -37.9181 -37.9129 -37.7823 -37.7740 -37.7672 -37.7598
   -37.7559 -37.7501 -37.7454 -37.7384 -37.7341 -37.6756 -37.6523 -37.6476
    -6.9310  -6.5370  -6.3427  -6.3417  -6.1488  -6.0689  -6.0668  -5.8345
     4.2666   4.2703   4.2911   4.4431   5.7255   5.7313   5.7440   5.8157
     5.8327   5.8500   5.9709   5.9861   6.0002   6.0142   6.0239   6.4066
     6.4303   6.4605   7.1565   7.3760   7.3994   7.4080   7.4772   7.5072
     7.9609   7.9868   8.0143   8.0479   8.0769   8.5655   8.5807   8.5993
     8.6224   8.6342   8.7468   8.7651   8.7823   8.9525   8.9651   8.9932
     9.0176   9.1983   9.2191   9.2288   9.4939   9.6106   9.6263   9.6308
     9.6930   9.6958   9.7158   9.8223   9.8662   9.8920  10.1837  10.2161
    11.7160  11.7213  11.7550  11.9403  11.9566  11.9772  12.0341  12.0391
    13.0475  15.7020  16.7391  16.7773  16.7939  17.6252  17.6802  17.7004
    20.0456  20.0861  20.1218  20.3622  20.4087  20.5034  20.7191  21.9633
    22.0062  22.0665  23.0877  23.1205  23.1512

          k =-0.1768-0.1768-0.1768 (  5402 PWs)   bands (ev):

   -69.1658 -69.0736 -69.0641 -69.0611 -68.8908 -68.8854 -68.8782 -68.7870
   -38.0463 -38.0405 -38.0167 -37.9636 -37.9509 -37.9424 -37.9386 -37.9313
   -37.9270 -37.9245 -37.9177 -37.9155 -37.7801 -37.7749 -37.7695 -37.7606
   -37.7561 -37.7493 -37.7456 -37.7382 -37.7327 -37.6755 -37.6533 -37.6469
    -6.9314  -6.5366  -6.3461  -6.3387  -6.1496  -6.0711  -6.0631  -5.8348
     4.2628   4.2771   4.2881   4.4429   5.7242   5.7259   5.7517   5.8212
     5.8323   5.8442   5.9719   5.9781   6.0056   6.0168   6.0248   6.4042
     6.4323   6.4588   7.1501   7.3696   7.3917   7.4168   7.4850   7.4995
     7.9632   7.9766   8.0237   8.0624   8.0897   8.5444   8.5870   8.6070
     8.6273   8.6356   8.7269   8.7675   8.7835   8.9300   8.9757   8.9833
     9.0415   9.2033   9.2223   9.2305   9.4910   9.5999   9.6224   9.6285
     9.6914   9.6954   9.7264   9.8193   9.8682   9.8885  10.1846  10.2143
    11.7105  11.7337  11.7480  11.9392  11.9626  11.9722  12.0359  12.0428
    13.0463  15.7080  16.7357  16.7779  16.7893  17.6318  17.6718  17.7006
    20.0351  20.0820  20.1411  20.3621  20.4238  20.4865  20.7289  21.9708
    22.0021  22.0676  23.0824  23.1084  23.1493

          k =-0.3536 0.3536-0.3536 (  5444 PWs)   bands (ev):

   -69.1650 -69.0729 -69.0634 -69.0602 -68.8901 -68.8846 -68.8773 -68.7862
   -38.0440 -38.0402 -38.0152 -37.9675 -37.9525 -37.9454 -37.9398 -37.9313
   -37.9273 -37.9237 -37.9162 -37.9117 -37.7828 -37.7764 -37.7718 -37.7614
   -37.7562 -37.7508 -37.7447 -37.7344 -37.7316 -37.6770 -37.6536 -37.6506
    -6.7351  -6.5143  -6.3812  -6.2394  -6.2136  -6.1904  -6.1753  -5.8720
     4.9299   4.9557   5.0591   5.1209   5.2088   5.2370   5.5461   5.7141
     5.8627   5.9125   5.9428   6.0062   6.0379   6.1948   6.3925   6.3968
     6.4975   6.5568   6.5618   6.5963   6.6465   6.6633   6.7579   6.7619
     8.0980   8.1224   8.1597   8.1850   8.2109   8.2352   8.2991   8.3299
     8.3451   8.3661   8.7919   8.8399   8.8580   8.8703   8.8869   8.9298
     9.0504   9.1169   9.4270   9.4483   9.4622   9.4889   9.5018   9.5209
    10.5620  10.5872  10.6346  10.6465  10.6865  10.7667  10.9135  10.9745
    10.9925  11.0017  11.0815  11.1435  11.2247  11.2710  11.3385  11.3773
    14.6237  14.7028  17.6417  17.7477  17.8110  18.0775  18.1042  18.2914
    19.9099  19.9671  20.1228  20.1969  20.3042  20.5414  21.4846  21.5789
    21.6471  21.8714  21.9531  22.0397  22.2185

          k =-0.3536-0.3536 0.3536 (  5444 PWs)   bands (ev):

   -69.1650 -69.0728 -69.0632 -69.0604 -68.8899 -68.8847 -68.8773 -68.7862
   -38.0450 -38.0410 -38.0168 -37.9587 -37.9509 -37.9411 -37.9369 -37.9360
   -37.9294 -37.9254 -37.9218 -37.9135 -37.7828 -37.7725 -37.7620 -37.7603
   -37.7541 -37.7512 -37.7483 -37.7449 -37.7354 -37.6766 -37.6526 -37.6488
    -6.7348  -6.5162  -6.3806  -6.2447  -6.2093  -6.1953  -6.1698  -5.8708
     4.9240   4.9557   5.0610   5.1204   5.2024   5.2332   5.5640   5.7258
     5.8731   5.9045   5.9758   5.9968   6.0858   6.1785   6.3771   6.3971
     6.4453   6.5037   6.5274   6.6138   6.6411   6.6582   6.7799   6.8154
     8.0539   8.0940   8.1245   8.1632   8.2102   8.2922   8.3026   8.3610
     8.3791   8.4044   8.7746   8.8032   8.8418   8.9014   8.9382   8.9490
     8.9975   9.1585   9.3713   9.3959   9.4253   9.5190   9.5326   9.5640
    10.5407  10.5605  10.6200  10.6779  10.7366  10.7440  10.8567  10.9564
    10.9941  11.0497  11.0997  11.1359  11.2104  11.2488  11.3508  11.3969
    14.6104  14.7257  17.6813  17.7840  17.8563  17.9781  18.1205  18.2098
    19.9948  20.0949  20.0981  20.2044  20.2722  20.4204  21.4775  21.5161
    21.6910  21.8687  21.9976  22.0179  22.1541

          k = 0.3536 0.3536 0.3536 (  5444 PWs)   bands (ev):

   -69.1650 -69.0728 -69.0633 -69.0603 -68.8900 -68.8845 -68.8774 -68.7862
   -38.0462 -38.0401 -38.0162 -37.9620 -37.9493 -37.9404 -37.9375 -37.9342
   -37.9263 -37.9238 -37.9217 -37.9190 -37.7782 -37.7753 -37.7658 -37.7598
   -37.7592 -37.7501 -37.7472 -37.7416 -37.7337 -37.6764 -37.6548 -37.6474
    -6.7375  -6.5097  -6.3873  -6.2397  -6.2160  -6.1938  -6.1663  -5.8711
     4.9293   4.9509   5.0656   5.1091   5.2102   5.2323   5.5665   5.7231
     5.8805   5.9245   5.9489   6.0279   6.0363   6.1965   6.3463   6.4026
     6.4611   6.5224   6.5496   6.5896   6.6314   6.6788   6.7561   6.8095
     8.0631   8.0864   8.1460   8.1778   8.2401   8.2711   8.2855   8.3328
     8.3991   8.4061   8.7608   8.8155   8.8437   8.8847   8.9225   8.9415
     9.0350   9.1604   9.3883   9.4064   9.4192   9.5132   9.5261   9.5441
    10.5082  10.5861  10.6277  10.6756  10.6999  10.8032  10.8415  10.9434
    10.9605  11.0213  11.1238  11.1582  11.2117  11.2429  11.3707  11.4041
    14.6091  14.7295  17.6626  17.7611  17.8692  17.9915  18.1272  18.2226
    19.8910  20.0719  20.1027  20.3183  20.3356  20.3695  21.4728  21.6038
    21.7297  21.8157  21.9183  22.0005  22.2024

          k = 0.3536 0.0000 0.0000 (  5425 PWs)   bands (ev):

   -69.1656 -69.0734 -69.0638 -69.0609 -68.8905 -68.8852 -68.8778 -68.7867
   -38.0459 -38.0406 -38.0160 -37.9627 -37.9518 -37.9428 -37.9389 -37.9318
   -37.9275 -37.9259 -37.9181 -37.9130 -37.7818 -37.7744 -37.7673 -37.7613
   -37.7561 -37.7496 -37.7456 -37.7381 -37.7339 -37.6766 -37.6530 -37.6475
    -6.9037  -6.5418  -6.3659  -6.3048  -6.1103  -6.1058  -6.1017  -5.8445
     4.3760   4.3772   4.3877   4.4030   5.5448   5.8193   5.8305   5.8923
     5.9084   5.9242   5.9510   5.9769   5.9862   6.0078   6.0238   6.3264
     6.3360   6.7853   6.8037   6.8435   6.8761   7.5787   7.5990   7.6193
     7.8546   7.8628   8.4004   8.5196   8.5413   8.5839   8.6038   8.6609
[...]
   -32.9657 -32.9592 -32.9322 -32.8881 -32.8758 -32.8692 -32.8610 -32.8554
   -32.8508 -32.8460 -32.8418 -32.8369 -32.7125 -32.7100 -32.7001 -32.6938
   -32.6900 -32.6801 -32.6784 -32.6738 -32.6629 -32.6200 -32.5932 -32.5863
    -6.2607  -5.9628  -5.8422  -5.6798  -5.6668  -5.5535  -5.4787  -5.2752
     6.5170   6.5583   6.6181   6.8202   6.9057   6.9914   7.0221   7.5242
     7.6311   7.6980   7.8031   8.1584   8.1785   8.3062   8.3363   8.4470
     8.5368   8.5803   8.6833   8.7262   8.7611   8.9416   9.1247   9.2461
    14.0669  14.5221  14.6517  14.6946  14.9246  14.9810  15.0563  15.1303
    15.3063  15.3777  15.4820  15.5608  15.6405  15.6643  15.6860  15.7188
    15.7417  15.7598  15.7909  15.8172  15.8609  15.8828  15.9477  15.9817
    16.0113  16.0157  16.0477  16.0892  16.1198  16.1360  16.1788  16.2275
    16.3354  16.3468  16.5018  16.5513  16.7992  16.8109  16.8343  16.9625
    17.0139  17.2644  18.6833  18.9902  19.0175  20.0549  20.6330  20.6849
    21.5731  21.7205  21.8317  22.4019  22.4501  22.6855  22.7638  22.9138
    23.3778  23.4872  23.7963  23.8454  24.5534

          k = 0.5303-0.1768 0.5303 (  5413 PWs)   bands (ev):

   -63.9662 -63.8791 -63.8699 -63.8666 -63.7046 -63.6983 -63.6915 -63.6088
   -32.9633 -32.9594 -32.9319 -32.8952 -32.8765 -32.8685 -32.8631 -32.8551
   -32.8484 -32.8462 -32.8377 -32.8352 -32.7161 -32.7098 -32.7069 -32.6922
   -32.6893 -32.6816 -32.6763 -32.6690 -32.6590 -32.6204 -32.5933 -32.5885
    -6.2519  -5.9904  -5.8371  -5.6643  -5.6420  -5.5800  -5.4790  -5.2750
     6.5417   6.5623   6.6169   6.8093   6.8936   6.9877   7.0052   7.4964
     7.6466   7.6898   7.8324   8.1337   8.2109   8.2981   8.3341   8.4897
     8.4965   8.5564   8.6871   8.7591   8.7956   8.9275   9.1382   9.2094
    14.0681  14.5276  14.6820  14.6984  14.9042  14.9406  15.0480  15.1281
    15.2869  15.4068  15.4675  15.5747  15.6136  15.6587  15.7012  15.7258
    15.7421  15.7745  15.8070  15.8174  15.8528  15.8736  15.9712  15.9909
    16.0114  16.0340  16.0465  16.0844  16.1098  16.1408  16.1850  16.2096
    16.3260  16.3462  16.5092  16.5421  16.7916  16.8075  16.8424  16.9596
    17.0145  17.2628  18.6777  18.9786  19.0559  20.0475  20.5940  20.7150
    21.5847  21.6945  21.8582  22.3473  22.4832  22.6799  22.7426  22.9461
    23.3618  23.4986  23.7842  23.8708  24.5486

          k = 0.5303 0.1768-0.5303 (  5413 PWs)   bands (ev):

   -63.9662 -63.8790 -63.8697 -63.8669 -63.7044 -63.6985 -63.6915 -63.6088
   -32.9645 -32.9601 -32.9331 -32.8881 -32.8769 -32.8632 -32.8605 -32.8591
   -32.8517 -32.8464 -32.8425 -32.8362 -32.7164 -32.7075 -32.6987 -32.6927
   -32.6883 -32.6819 -32.6778 -32.6757 -32.6625 -32.6197 -32.5925 -32.5871
    -6.2513  -6.0016  -5.8088  -5.6789  -5.6647  -5.5588  -5.4785  -5.2772
     6.5230   6.5685   6.6151   6.8066   6.9182   6.9811   7.0147   7.4902
     7.6608   7.6855   7.8138   8.1668   8.1992   8.3319   8.3534   8.4425
     8.5067   8.5507   8.6611   8.7368   8.7892   8.9338   9.1141   9.2503
    14.0638  14.5279  14.6758  14.7030  14.9011  14.9616  15.0716  15.1327
    15.2909  15.4102  15.4863  15.5712  15.6258  15.6662  15.6887  15.7226
    15.7423  15.7574  15.7815  15.8300  15.8407  15.8828  15.9426  15.9815
    16.0022  16.0274  16.0427  16.0757  16.1066  16.1456  16.1927  16.2205
    16.3346  16.3485  16.5039  16.5498  16.7968  16.8098  16.8293  16.9634
    17.0142  17.2612  18.6852  18.9908  19.0256  20.0646  20.6156  20.6785
    21.5874  21.7465  21.8314  22.3657  22.4403  22.6550  22.7525  22.9919
    23.3465  23.4957  23.8049  23.8585  24.5566

          k =-0.3536-0.3536 0.0000 (  5416 PWs)   bands (ev):

   -63.9660 -63.8788 -63.8695 -63.8666 -63.7042 -63.6982 -63.6913 -63.6086
   -32.9667 -32.9597 -32.9336 -32.8876 -32.8754 -32.8642 -32.8613 -32.8593
   -32.8521 -32.8473 -32.8421 -32.8364 -32.7165 -32.7083 -32.6977 -32.6925
   -32.6904 -32.6819 -32.6773 -32.6742 -32.6626 -32.6194 -32.5930 -32.5858
    -6.3331  -5.9428  -5.8451  -5.6597  -5.5889  -5.5542  -5.5095  -5.2753
     6.4005   6.4473   6.5843   6.6382   6.7728   6.7889   7.0634   7.4396
     7.8222   7.9535   8.0773   8.2515   8.3398   8.3779   8.4106   8.4773
     8.4980   8.5509   8.6594   8.6981   8.7829   8.8392   9.2286   9.2701
    14.1604  14.1744  14.4405  14.8010  14.8436  14.8901  14.9234  15.0836
    15.3807  15.4115  15.4383  15.5434  15.5741  15.6913  15.7241  15.8511
    15.8594  15.8859  15.8916  15.9575  16.0066  16.0323  16.0709  16.1080
    16.1400  16.1539  16.1709  16.1932  16.2188  16.2318  16.2459  16.2791
    16.2985  16.3109  16.3311  16.3811  16.4051  16.4568  16.5275  16.8666
    16.8940  17.8662  17.9193  19.3605  19.4599  19.6744  19.7887  20.6605
    21.5369  21.5714  21.6742  22.3097  22.3985  22.4431  22.8598  22.8972
    23.5540  23.6224  23.7020  23.8567  25.1703

          k = 0.0000 0.3536 0.3536 (  5416 PWs)   bands (ev):

   -63.9660 -63.8787 -63.8698 -63.8664 -63.7043 -63.6981 -63.6913 -63.6086
   -32.9678 -32.9589 -32.9329 -32.8873 -32.8742 -32.8698 -32.8627 -32.8550
   -32.8514 -32.8468 -32.8420 -32.8367 -32.7125 -32.7103 -32.7002 -32.6948
   -32.6893 -32.6801 -32.6786 -32.6722 -32.6632 -32.6196 -32.5935 -32.5851
    -6.3374  -5.9224  -5.8432  -5.6885  -5.6059  -5.5359  -5.5005  -5.2749
     6.3856   6.4481   6.5981   6.6292   6.7710   6.8010   7.0695   7.4494
     7.8226   7.9434   8.0587   8.2344   8.3194   8.3824   8.4357   8.4731
     8.5136   8.5675   8.6330   8.7096   8.7704   8.8508   9.2464   9.2641
    14.1566  14.1701  14.4224  14.8018  14.8355  14.8913  14.9379  15.0839
    15.3766  15.4086  15.4486  15.5534  15.5866  15.7076  15.7237  15.8310
    15.8596  15.8798  15.8940  15.9481  15.9830  15.9956  16.0391  16.0923
    16.1375  16.1589  16.1746  16.2063  16.2127  16.2403  16.2659  16.2827
    16.3026  16.3240  16.3581  16.3839  16.4133  16.4482  16.5663  16.8656
    16.8783  17.8778  17.9258  19.3795  19.4552  19.6627  19.7624  20.6401
    21.5413  21.5742  21.7536  22.2461  22.3754  22.4687  22.8363  22.9436
    23.5412  23.5983  23.7544  23.7851  25.1760

          k = 0.0000 0.3536-0.3536 (  5416 PWs)   bands (ev):

   -63.9659 -63.8789 -63.8696 -63.8664 -63.7043 -63.6983 -63.6912 -63.6086
   -32.9642 -32.9604 -32.9329 -32.8924 -32.8774 -32.8690 -32.8624 -32.8560
   -32.8501 -32.8483 -32.8387 -32.8322 -32.7194 -32.7100 -32.7033 -32.6917
   -32.6887 -32.6821 -32.6764 -32.6676 -32.6615 -32.6201 -32.5926 -32.5879
    -6.3323  -5.9443  -5.8456  -5.6581  -5.5883  -5.5551  -5.5101  -5.2746
     6.4049   6.4494   6.5783   6.6349   6.7629   6.7999   7.0663   7.4307
     7.8012   7.9522   8.0980   8.2392   8.3181   8.3818   8.4090   8.4964
     8.5233   8.5339   8.6529   8.7227   8.7892   8.8470   9.2269   9.2613
    14.1534  14.1734  14.4368  14.8067  14.8180  14.8696  14.9435  15.0809
    15.3814  15.3990  15.4384  15.5612  15.5818  15.7083  15.7186  15.8467
    15.8655  15.8777  15.8954  15.9632  15.9876  15.9983  16.0671  16.0949
    16.1230  16.1656  16.1924  16.2027  16.2279  16.2417  16.2559  16.2677
    16.2827  16.3165  16.3429  16.3808  16.4083  16.4457  16.5655  16.8678
    16.8817  17.8673  17.9330  19.4061  19.4588  19.6904  19.7262  20.6271
    21.5362  21.5743  21.7662  22.2551  22.3535  22.4524  22.8325  22.9533
    23.5569  23.5994  23.7246  23.8065  25.1801

          k =-0.3536 0.0000-0.3536 (  5416 PWs)   bands (ev):

   -63.9659 -63.8789 -63.8697 -63.8664 -63.7044 -63.6981 -63.6913 -63.6086
   -32.9657 -32.9590 -32.9325 -32.8944 -32.8751 -32.8691 -32.8645 -32.8546
   -32.8497 -32.8465 -32.8375 -32.8355 -32.7163 -32.7104 -32.7063 -32.6933
   -32.6892 -32.6811 -32.6767 -32.6673 -32.6595 -32.6203 -32.5938 -32.5870
    -6.3329  -5.9391  -5.8499  -5.6589  -5.5893  -5.5560  -5.5082  -5.2743
     6.4101   6.4515   6.5798   6.6305   6.7596   6.7994   7.0700   7.4248
     7.8103   7.9372   8.1070   8.2344   8.3330   8.3711   8.4113   8.4952
     8.5246   8.5427   8.6244   8.7468   8.7900   8.8422   9.2164   9.2643
    14.1462  14.1969  14.4365  14.8155  14.8340  14.8637  14.9126  15.0944
    15.3671  15.3837  15.4454  15.5585  15.5801  15.7005  15.7298  15.8421
    15.8709  15.8789  15.8919  15.9521  15.9999  16.0323  16.0679  16.0963
    16.1223  16.1388  16.1724  16.2014  16.2163  16.2303  16.2552  16.2706
    16.3050  16.3201  16.3466  16.3973  16.4293  16.4597  16.5442  16.8566
    16.8905  17.8627  17.9178  19.4222  19.4616  19.6584  19.7386  20.6291
    21.5471  21.5969  21.7099  22.2485  22.3595  22.4844  22.8476  22.9452
    23.5825  23.5985  23.7255  23.7930  25.1702

          k =-0.3536 0.0000 0.3536 (  5416 PWs)   bands (ev):

   -63.9660 -63.8787 -63.8697 -63.8665 -63.7041 -63.6984 -63.6913 -63.6086
   -32.9665 -32.9603 -32.9331 -32.8840 -32.8763 -32.8710 -32.8608 -32.8568
   -32.8532 -32.8482 -32.8402 -32.8351 -32.7160 -32.7101 -32.6958 -32.6936
   -32.6878 -32.6819 -32.6786 -32.6726 -32.6653 -32.6196 -32.5924 -32.5858
    -6.3369  -5.9271  -5.8406  -5.6825  -5.6110  -5.5328  -5.5024  -5.2752
     6.3850   6.4498   6.5945   6.6302   6.7736   6.7996   7.0666   7.4511
     7.8291   7.9448   8.0457   8.2460   8.3174   8.4037   8.4211   8.4763
     8.5079   8.5729   8.6313   8.6956   8.7897   8.8275   9.2515   9.2646
    14.1552  14.1864  14.4220  14.7952  14.8428  14.8950  14.9220  15.0943
    15.3812  15.3998  15.4182  15.5564  15.5762  15.6951  15.7371  15.8449
    15.8642  15.8811  15.8878  15.9463  16.0096  16.0363  16.0537  16.0850
    16.1268  16.1445  16.1790  16.1875  16.2244  16.2283  16.2638  16.2837
    16.2938  16.3159  16.3467  16.3879  16.4322  16.4637  16.5429  16.8640
    16.8851  17.8606  17.9222  19.3715  19.4478  19.6825  19.7732  20.6487
    21.5412  21.5830  21.6860  22.2812  22.3746  22.4790  22.8393  22.9309
    23.5480  23.6382  23.7207  23.8077  25.1691

          k =-0.7071 0.0000 0.0000 (  5434 PWs)   bands (ev):

   -63.9664 -63.8792 -63.8699 -63.8671 -63.7045 -63.6989 -63.6917 -63.6091
   -32.9658 -32.9589 -32.9294 -32.8869 -32.8749 -32.8662 -32.8624 -32.8597
   -32.8506 -32.8481 -32.8426 -32.8332 -32.7176 -32.7079 -32.6958 -32.6954
   -32.6860 -32.6815 -32.6775 -32.6760 -32.6624 -32.6221 -32.5938 -32.5862
    -6.1691  -6.0281  -5.7388  -5.7075  -5.6945  -5.6734  -5.4452  -5.2738
     6.6258   6.6351   6.6725   6.6839   7.1605   7.2273   7.4222   7.4386
     7.4647   7.4864   7.8230   7.9523   8.0929   8.1251   8.1450   8.3322
     8.4957   8.5334   8.5642   8.5725   9.0928   9.0938   9.1686   9.1985
    14.0371  14.0601  15.0834  15.1095  15.1319  15.1664  15.1927  15.2590
    15.3291  15.3643  15.3881  15.4105  15.4219  15.4777  15.5979  15.6389
    15.6536  15.6552  15.6728  15.6939  15.7076  15.7238  15.8415  15.8597
    15.8962  15.9167  15.9513  15.9730  15.9836  16.0151  16.0227  16.0280
    16.4042  16.4183  16.4907  16.5007  17.1339  17.1362  17.1412  17.1789
    17.9093  17.9678  18.6653  18.7287  18.7657  18.8237  21.2887  21.3086
    22.1683  22.1847  22.2535  22.3015  22.7979  22.8860  22.9075  22.9553
    23.1936  23.2428  23.3278  23.3619  24.9319

          k = 0.0000-0.7071 0.0000 (  5434 PWs)   bands (ev):

   -63.9664 -63.8792 -63.8700 -63.8670 -63.7047 -63.6985 -63.6919 -63.6091
   -32.9637 -32.9588 -32.9322 -32.8918 -32.8753 -32.8619 -32.8607 -32.8584
   -32.8490 -32.8448 -32.8432 -32.8387 -32.7135 -32.7079 -32.7004 -32.6936
   -32.6895 -32.6804 -32.6784 -32.6774 -32.6600 -32.6200 -32.5933 -32.5876
    -6.1679  -6.0305  -5.7303  -5.7065  -5.6966  -5.6794  -5.4452  -5.2741
     6.6202   6.6321   6.6808   6.6917   7.1651   7.2309   7.4275   7.4343
     7.4611   7.4840   7.8274   7.9517   8.1067   8.1136   8.1470   8.3307
     8.4869   8.5337   8.5648   8.5753   9.0801   9.0860   9.1543   9.2062
    14.0511  14.0656  15.0889  15.0974  15.1430  15.1759  15.2065  15.2190
    15.3765  15.3836  15.4106  15.4401  15.4789  15.5160  15.5658  15.5999
    15.6148  15.6256  15.6517  15.6824  15.6985  15.7276  15.8554  15.8660
    15.8916  15.9294  15.9512  15.9620  15.9829  15.9951  16.0107  16.0223
    16.4002  16.4169  16.4843  16.5128  17.1162  17.1205  17.1483  17.1569
    17.9042  17.9646  18.6688  18.7412  18.7951  18.8383  21.2942  21.3145
    22.1866  22.2168  22.2578  22.3267  22.7640  22.8420  22.9163  22.9313
    23.1892  23.2777  23.3015  23.3752  24.8918

          k = 0.3536-0.0000 0.7071 (  5400 PWs)   bands (ev):

   -63.9664 -63.8791 -63.8702 -63.8669 -63.7046 -63.6986 -63.6918 -63.6091
   -32.9639 -32.9586 -32.9324 -32.8880 -32.8738 -32.8698 -32.8613 -32.8557
   -32.8517 -32.8454 -32.8413 -32.8368 -32.7134 -32.7109 -32.6998 -32.6919
   -32.6887 -32.6803 -32.6793 -32.6737 -32.6627 -32.6199 -32.5935 -32.5878
    -6.1520  -5.9460  -5.9073  -5.8102  -5.6226  -5.5238  -5.4935  -5.2755
     6.7487   6.8649   6.8884   6.9158   6.9649   6.9869   7.0564   7.1038
     7.5791   7.6096   7.6554   7.6963   8.2919   8.3131   8.3364   8.3588
     8.6533   8.6957   8.7186   8.7479   8.7830   8.9142   8.9253   9.0207
    14.5229  14.5449  14.5562  14.6135  15.1603  15.2417  15.2848  15.3169
    15.3641  15.3675  15.3903  15.3937  15.4158  15.4464  15.4791  15.4999
    15.7413  15.7647  15.8391  15.8816  15.8895  15.9173  15.9259  15.9411
    15.9475  15.9763  15.9804  15.9989  16.1194  16.1544  16.2177  16.2452
    16.2541  16.2769  16.3380  16.3728  16.7624  16.7842  16.8039  16.8358
    17.9121  17.9345  17.9907  18.0678  20.5415  20.5852  20.6391  20.7203
    21.8036  21.9100  21.9577  22.1623  22.2570  22.3208  22.4029  22.5466
    24.0459  24.0812  24.1214  24.1985  24.6106

          k = 0.0000-0.7071 0.3536 (  5400 PWs)   bands (ev):

   -63.9664 -63.8792 -63.8699 -63.8671 -63.7046 -63.6987 -63.6918 -63.6091
   -32.9647 -32.9590 -32.9308 -32.8889 -32.8759 -32.8643 -32.8613 -32.8588
   -32.8504 -32.8461 -32.8419 -32.8366 -32.7151 -32.7079 -32.6994 -32.6931
   -32.6895 -32.6815 -32.6770 -32.6748 -32.6624 -32.6209 -32.5934 -32.5870
    -6.1515  -5.9451  -5.9124  -5.8069  -5.6218  -5.5220  -5.4957  -5.2754
     6.7417   6.8609   6.8886   6.9161   6.9580   6.9975   7.0640   7.0909
     7.5859   7.6199   7.6476   7.6912   8.2903   8.3155   8.3350   8.3586
     8.6292   8.7069   8.7288   8.7639   8.7829   8.9037   8.9254   9.0363
    14.5134  14.5319  14.5449  14.5927  15.1751  15.2207  15.3047  15.3340
    15.3609  15.3765  15.3861  15.3966  15.4242  15.4357  15.4723  15.5278
    15.7160  15.7578  15.8675  15.8895  15.8973  15.9137  15.9315  15.9468
    15.9508  15.9715  15.9897  15.9944  16.0893  16.1050  16.2211  16.2370
    16.2603  16.2792  16.3470  16.3919  16.7616  16.7748  16.8232  16.8501
    17.9109  17.9431  17.9964  18.0599  20.4913  20.6160  20.6530  20.6721
    21.8598  21.9261  21.9421  22.0832  22.2719  22.3770  22.4018  22.5025
    24.0632  24.1035  24.1198  24.1953  24.6418

     the Fermi energy is    12.4743 ev

!    total energy              =   -1946.20061411 Ry
     Harris-Foulkes estimate   =   -1946.20061406 Ry
     estimated scf accuracy    <          2.5E-09 Ry

     The total energy is the sum of the following terms:

     one-electron contribution =    -896.85431687 Ry
     hartree contribution      =     532.82361384 Ry
     xc contribution           =    -270.02506497 Ry
     ewald contribution        =   -1312.51178089 Ry
     Hubbard energy            =       0.36717989 Ry
     smearing contrib. (-TS)   =      -0.00024513 Ry

     total magnetization       =    40.00 Bohr mag/cell
     absolute magnetization    =    40.00 Bohr mag/cell

     convergence has been achieved in  13 iterations

     Forces acting on atoms (Ry/au):


     negative rho (up, down):  0.000E+00 1.030E-03
     atom    1 type  1   force =  -0.90572115E-02  0.20613783E-02  0.20987144E-01
     atom    2 type  2   force =   0.18611847E-01  0.44935396E-02 -0.60753994E-02
     atom    3 type  1   force =  -0.66845816E-02 -0.26704935E-01  0.55007099E-02
     atom    4 type  2   force =   0.23666491E-02  0.48999873E-02 -0.64736398E-02
     atom    5 type  1   force =  -0.26822680E-01  0.64333532E-02  0.14266922E-02
     atom    6 type  2   force =   0.12591455E-01 -0.89785487E-03 -0.20063304E-01
     atom    7 type  1   force =  -0.10819609E-01  0.13844900E-02 -0.56293283E-02
     atom    8 type  2   force =   0.10390953E-01  0.13012122E-01  0.99371124E-02
     atom    9 type  1   force =  -0.12139668E-01 -0.37739275E-02  0.68980874E-02
     atom   10 type  2   force =  -0.79722695E-02 -0.16311105E-01 -0.24249088E-02
     atom   11 type  1   force =   0.21525213E-01 -0.51413482E-02 -0.77526123E-02
     atom   12 type  2   force =  -0.21590779E-02  0.11732981E-01  0.90078415E-02
     atom   13 type  1   force =   0.48275091E-02  0.21001769E-01  0.41390817E-02
     atom   14 type  2   force =   0.13065338E-01 -0.27737013E-02  0.10189503E-01
     atom   15 type  1   force =  -0.39869267E-02 -0.92052836E-02 -0.27589801E-01
     atom   16 type  2   force =  -0.37369406E-02 -0.21146472E-03  0.79228218E-02

     Total force =     0.081619     Total SCF correction =     0.000271


     entering subroutine stress ...


     negative rho (up, down):  0.000E+00 1.030E-03
          total   stress  (Ry/bohr**3)                   (kbar)     P=    5.03
   0.0000522458  -0.0000010500   0.0000012628          7.69     -0.15      0.19
  -0.0000010500   0.0000203533  -0.0000020525         -0.15      2.99     -0.30
   0.0000012628  -0.0000020525   0.0000299893          0.19     -0.30      4.41


     Writing output data file mno_fm.scf.in.super.222.055.save

     init_run     :     64.25s CPU     61.75s WALL (       1 calls)
     electrons    :   2253.12s CPU   2272.19s WALL (       1 calls)
     forces       :    159.63s CPU    179.00s WALL (       1 calls)
     stress       :    471.11s CPU    512.83s WALL (       1 calls)

     Called by init_run:
     wfcinit      :     63.29s CPU     60.75s WALL (       1 calls)
     potinit      :      0.18s CPU      0.19s WALL (       1 calls)

     Called by electrons:
     c_bands      :   2021.91s CPU   2047.27s WALL (      13 calls)
     sum_band     :    224.47s CPU    218.15s WALL (      13 calls)
     v_of_rho     :      1.82s CPU      1.83s WALL (      14 calls)
     newd         :      4.21s CPU      4.23s WALL (      14 calls)
     mix_rho      :      0.92s CPU      0.91s WALL (      13 calls)

     Called by c_bands:
     init_us_2    :      8.06s CPU      8.51s WALL (    2880 calls)
     cegterg      :   1989.08s CPU   2013.04s WALL (     936 calls)

     Called by *egterg:
     h_psi        :    985.70s CPU    967.00s WALL (    2952 calls)
     s_psi        :    146.61s CPU    109.36s WALL (    3744 calls)
     g_psi        :      1.36s CPU      1.42s WALL (    1944 calls)
     cdiaghg      :    494.28s CPU    601.93s WALL (    2880 calls)

     Called by h_psi:
     add_vuspsi   :    108.89s CPU     82.38s WALL (    2952 calls)
     vhpsi        :     88.21s CPU    105.01s WALL (    2952 calls)

     General routines
     calbec       :    765.58s CPU    814.15s WALL (   51552 calls)
     fft          :      1.39s CPU      1.40s WALL (     468 calls)
     ffts         :      0.42s CPU      0.51s WALL (     326 calls)
     fftw         :    732.34s CPU    739.56s WALL (  665562 calls)
     interpolate  :      0.21s CPU      0.22s WALL (      54 calls)
     davcio       :      0.01s CPU      0.03s WALL (      72 calls)

     Parallel routines
     fft_scatter  :    257.35s CPU    261.90s WALL (  666356 calls)
     Hubbard U routines
     new_ns       :     17.33s CPU     18.53s WALL (      13 calls)
     vhpsi        :     88.21s CPU    105.01s WALL (    2952 calls)
     force_hub    :    140.34s CPU    162.18s WALL (       1 calls)
     stres_hub    :    430.91s CPU    473.29s WALL (       1 calls)

     PWSCF        : 49m14.25s CPU    50m33.00s WALL


   This run was terminated on:   0:18:55  17Aug2017            

=------------------------------------------------------------------------------=
   JOB DONE.
=------------------------------------------------------------------------------=
