
     Program PWSCF v.5.1 starts on 17Aug2017 at  9:53:34 

     This program is part of the open-source Quantum ESPRESSO suite
     for quantum simulation of materials; please cite
         "P. Giannozzi et al., J. Phys.:Condens. Matter 21 395502 (2009);
          URL http://www.quantum-espresso.org", 
     in publications or presentations arising from this work. More details at
     http://www.quantum-espresso.org/quote

     Parallel version (MPI), running on     8 processors
     R & G space division:  proc/nbgrp/npool/nimage =       8
     Reading input from /tmp/mno_fm.scf.in.super.222.sub.01.29088/mno_fm.scf.in.super.222.sub.01.t
Warning: card &IONS ignored
Warning: card   ION_DYNAMICS='BFGS', ignored
Warning: card / ignored
Warning: card &CELL ignored
Warning: card  CELL_DYNAMICS = 'BFGS' ignored
Warning: card / ignored

     Current dimensions of program PWSCF are:
     Max number of different atomic species (ntypx) = 10
     Max number of k-points (npk) =  40000
     Max angular momentum in pseudopotentials (lmaxx) =  3
 kfg - two_fermi_energies  T

     Subspace diagonalization in iterative solution of the eigenvalue problem:
     a serial algorithm will be used


     Parallelization info
     --------------------
     sticks:   dense  smooth     PW     G-vecs:    dense   smooth      PW
     Min         250     205     58                 7332     5440     845
     Max         251     206     59                 7334     5461     847
     Sum        2001    1643    471                58663    43627    6771

     Generating pointlists ...
     new r_m :   0.1418 (alat units)  1.6935 (a.u.) for type    1
     new r_m :   0.1428 (alat units)  1.7056 (a.u.) for type    2
     new r_m :   0.1418 (alat units)  1.6935 (a.u.) for type    3


     bravais-lattice index     =            0
     lattice parameter (alat)  =    11.942535635  a.u.
     unit-cell volume          =    1228.6848 (a.u.)^3
     number of atoms/cell      =           16
     number of atomic types    =            3
     number of electrons       =       168.00 (up:  89.00, down:  79.00)
     number of Kohn-Sham states=          107
     kinetic-energy cutoff     =      41.0000  Ry
     charge density cutoff     =     200.0000  Ry
     convergence threshold     =      1.0E-08
     mixing beta               =       0.3000
     number of iterations used =            8  local-TF  mixing
     Exchange-correlation      = SLA  PW   PSX  PSC ( 1  4 10  8 0)
     A smooth kinetic-energy cutoff is imposed at      40.0000 Ry
     height of the smooth step-function =             800.0000 Ry
     width of the smooth step-function  =               1.0000 Ry


     celldm(1)=  11.942536  celldm(2)=   0.000000  celldm(3)=   0.000000
     celldm(4)=   0.000000  celldm(5)=   0.000000  celldm(6)=   0.000000

     crystal axes: (cart. coord. in units of alat)
               a(1) = (   0.704364951053   0.709828501658  -0.003676134148 )  
               a(2) = (   0.716914839240  -0.006680499306   0.713157240388 )  
               a(3) = (   0.004844741337   0.715882393701   0.705461581156 )  

     reciprocal axes: (cart. coord. in units 2 pi/alat)
               b(1) = (  0.714277  0.696327 -0.711518 )  
               b(2) = (  0.697834 -0.688868  0.694251 )  
               b(3) = ( -0.701725  0.700011  0.711980 )  


     PseudoPot. # 1 for Mn read from file:
     /users/kfg/psuedo/gbrv_1.5/mn.pbesol.UPF
     MD5 check sum: 0716d5f563e6e95a34f9080f4c78c109
     Pseudo is Ultrasoft + core correction, Zval = 15.0
     Generated by new atomic code, or converted to UPF format
     Using radial grid of  859 points,  6 beta functions with: 
                l(1) =   0
                l(2) =   0
                l(3) =   1
                l(4) =   1
                l(5) =   2
                l(6) =   2
     Q(r) pseudized with  8 coefficients,  rinner =    0.950   0.950   0.950
                                                       0.950   0.950

     PseudoPot. # 2 for Mn read from file:
     /users/kfg/psuedo/gbrv_1.5/mn.pbesol.UPF
     MD5 check sum: 0716d5f563e6e95a34f9080f4c78c109
     Pseudo is Ultrasoft + core correction, Zval = 15.0
     Generated by new atomic code, or converted to UPF format
     Using radial grid of  859 points,  6 beta functions with: 
                l(1) =   0
                l(2) =   0
                l(3) =   1
                l(4) =   1
                l(5) =   2
                l(6) =   2
     Q(r) pseudized with  8 coefficients,  rinner =    0.950   0.950   0.950
                                                       0.950   0.950

     PseudoPot. # 3 for O  read from file:
     /users/kfg/psuedo/gbrv_1.5/o.pbesol.UPF
     MD5 check sum: 501638753501ef6325af9037351f7734
     Pseudo is Ultrasoft + core correction, Zval =  6.0
     Generated by new atomic code, or converted to UPF format
     Using radial grid of  737 points,  5 beta functions with: 
                l(1) =   0
                l(2) =   0
                l(3) =   1
                l(4) =   1
                l(5) =   2
     Q(r) pseudized with  8 coefficients,  rinner =    0.900   0.900   0.900
                                                       0.900   0.900

     atomic species   valence    mass     pseudopotential
        Mn            15.00    54.90000     Mn( 1.00)
        Fe            15.00    54.90000     Mn( 1.00)
        O              6.00    15.99900     O ( 1.00)

     Starting magnetic structure 
     atomic species   magnetization
        Mn           1.000
        Fe          -1.000
        O            0.000


     Simplified LDA+U calculation (l_max = 2) with parameters (eV):
     atomic species    L          U    alpha       J0     beta
        Mn             2     3.0000   0.0000   0.0000   0.0000
        Fe             2     3.0000   0.0000   0.0000   0.0000



     No symmetry found



   Cartesian axes

     site n.     atom                  positions (alat units)
         1           Fe  tau(   1) = (    0.00194530349    0.00033305795   -0.00611395286  )
         2           O   tau(   2) = (    0.36258395242    0.35030657474    0.35119331758  )
         3           Mn  tau(   3) = (    0.00393193725    0.36327260435    0.34943307959  )
         4           O   tau(   4) = (    0.36054205419    0.71026975328    0.69929318351  )
         5           Mn  tau(   5) = (    0.36221475063    0.00400996511    0.35823925026  )
         6           O   tau(   6) = (    0.72000803601    0.35235123534    0.71103505197  )
         7           Fe  tau(   7) = (    0.35750830833    0.34643518582    0.71676501435  )
         8           O   tau(   8) = (    0.71081732025    0.71738437410    1.06163416272  )
         9           Mn  tau(   9) = (    0.35583233642    0.36134927904   -0.00241292047  )
        10           O   tau(  10) = (    0.70833327679    0.71162436579    0.35348188076  )
        11           Mn  tau(  11) = (    0.35364943546    0.71938607380    0.35018073769  )
        12           O   tau(  12) = (    0.70645921555    1.06648331427    0.69807695896  )
        13           Mn  tau(  13) = (    0.71354816292    0.35795072491    0.34829827762  )
        14           O   tau(  14) = (    1.06412820847    0.70801682927    0.70793409229  )
        15           Fe  tau(  15) = (    0.71804098741    0.71335144269    0.69996403855  )
        16           O   tau(  16) = (    1.07022090796    1.06481309658    1.06624123715  )

     number of k points=    72  gaussian smearing, width (Ry)=  0.0100
                       cart. coord. in units 2pi/alat
        k(    1) = (   0.0000000   0.0000000   0.0000000), wk =   0.0156250
        k(    2) = (  -0.1754312   0.1750027   0.1779949), wk =   0.0312500
        k(    3) = (   0.3508624  -0.3500055  -0.3559898), wk =   0.0156250
        k(    4) = (   0.1744586  -0.1722169   0.1735628), wk =   0.0312500
        k(    5) = (  -0.0009726   0.0027858   0.3515576), wk =   0.0312500
        k(    6) = (   0.5253210  -0.5222224  -0.1824270), wk =   0.0312500
        k(    7) = (   0.3498898  -0.3472197  -0.0044321), wk =   0.0312500
        k(    8) = (  -0.3489172   0.3444339  -0.3471255), wk =   0.0156250
        k(    9) = (  -0.5243484   0.5194366  -0.1691307), wk =   0.0312500
        k(   10) = (   0.0019452  -0.0055716  -0.7031153), wk =   0.0156250
        k(   11) = (   0.1785693   0.1740817  -0.1778795), wk =   0.0312500
        k(   12) = (   0.0031381   0.3490844   0.0001154), wk =   0.0312500
        k(   13) = (   0.5294317  -0.1759238  -0.5338692), wk =   0.0312500
        k(   14) = (   0.3540005  -0.0009210  -0.3558743), wk =   0.0312500
        k(   15) = (   0.3530279   0.0018647  -0.0043167), wk =   0.0312500
        k(   16) = (   0.1775967   0.1768675   0.1736782), wk =   0.0312500
        k(   17) = (   0.7038903  -0.3481407  -0.3603065), wk =   0.0312500
        k(   18) = (   0.5284591  -0.1731380  -0.1823116), wk =   0.0312500
        k(   19) = (  -0.1703479   0.5185155  -0.5250050), wk =   0.0312500
        k(   20) = (  -0.3457791   0.6935183  -0.3470101), wk =   0.0312500
        k(   21) = (   0.1805145   0.1685101  -0.8809948), wk =   0.0312500
        k(   22) = (   0.0050833   0.3435128  -0.7029999), wk =   0.0312500
        k(   23) = (   0.0041107   0.3462986  -0.3514422), wk =   0.0312500
        k(   24) = (  -0.1713205   0.5213013  -0.1734474), wk =   0.0312500
        k(   25) = (   0.3549731  -0.0037068  -0.7074320), wk =   0.0312500
        k(   26) = (   0.1795419   0.1712959  -0.5294371), wk =   0.0312500
        k(   27) = (  -0.3571386  -0.3481634   0.3557589), wk =   0.0156250
        k(   28) = (  -0.5325698  -0.1731606   0.5337538), wk =   0.0312500
        k(   29) = (  -0.0062762  -0.6981688  -0.0002308), wk =   0.0156250
        k(   30) = (  -0.1826800  -0.5203803   0.5293217), wk =   0.0312500
        k(   31) = (  -0.3581112  -0.3453776   0.7073166), wk =   0.0312500
        k(   32) = (   0.1681824  -0.8703857   0.1733319), wk =   0.0312500
        k(   33) = (  -0.0072488  -0.6953830   0.3513268), wk =   0.0312500
        k(   34) = (  -0.7060558  -0.0037295   0.0086334), wk =   0.0156250
        k(   35) = (  -0.8814870   0.1712732   0.1866283), wk =   0.0312500
        k(   36) = (  -0.3551934  -0.3537349  -0.3473564), wk =   0.0156250
        k(   37) = (   0.0000000   0.0000000   0.0000000), wk =   0.0156250
        k(   38) = (  -0.1754312   0.1750027   0.1779949), wk =   0.0312500
        k(   39) = (   0.3508624  -0.3500055  -0.3559898), wk =   0.0156250
        k(   40) = (   0.1744586  -0.1722169   0.1735628), wk =   0.0312500
        k(   41) = (  -0.0009726   0.0027858   0.3515576), wk =   0.0312500
        k(   42) = (   0.5253210  -0.5222224  -0.1824270), wk =   0.0312500
        k(   43) = (   0.3498898  -0.3472197  -0.0044321), wk =   0.0312500
        k(   44) = (  -0.3489172   0.3444339  -0.3471255), wk =   0.0156250
        k(   45) = (  -0.5243484   0.5194366  -0.1691307), wk =   0.0312500
        k(   46) = (   0.0019452  -0.0055716  -0.7031153), wk =   0.0156250
        k(   47) = (   0.1785693   0.1740817  -0.1778795), wk =   0.0312500
        k(   48) = (   0.0031381   0.3490844   0.0001154), wk =   0.0312500
        k(   49) = (   0.5294317  -0.1759238  -0.5338692), wk =   0.0312500
        k(   50) = (   0.3540005  -0.0009210  -0.3558743), wk =   0.0312500
        k(   51) = (   0.3530279   0.0018647  -0.0043167), wk =   0.0312500
        k(   52) = (   0.1775967   0.1768675   0.1736782), wk =   0.0312500
        k(   53) = (   0.7038903  -0.3481407  -0.3603065), wk =   0.0312500
        k(   54) = (   0.5284591  -0.1731380  -0.1823116), wk =   0.0312500
        k(   55) = (  -0.1703479   0.5185155  -0.5250050), wk =   0.0312500
        k(   56) = (  -0.3457791   0.6935183  -0.3470101), wk =   0.0312500
        k(   57) = (   0.1805145   0.1685101  -0.8809948), wk =   0.0312500
        k(   58) = (   0.0050833   0.3435128  -0.7029999), wk =   0.0312500
        k(   59) = (   0.0041107   0.3462986  -0.3514422), wk =   0.0312500
        k(   60) = (  -0.1713205   0.5213013  -0.1734474), wk =   0.0312500
        k(   61) = (   0.3549731  -0.0037068  -0.7074320), wk =   0.0312500
        k(   62) = (   0.1795419   0.1712959  -0.5294371), wk =   0.0312500
        k(   63) = (  -0.3571386  -0.3481634   0.3557589), wk =   0.0156250
        k(   64) = (  -0.5325698  -0.1731606   0.5337538), wk =   0.0312500
        k(   65) = (  -0.0062762  -0.6981688  -0.0002308), wk =   0.0156250
        k(   66) = (  -0.1826800  -0.5203803   0.5293217), wk =   0.0312500
        k(   67) = (  -0.3581112  -0.3453776   0.7073166), wk =   0.0312500
        k(   68) = (   0.1681824  -0.8703857   0.1733319), wk =   0.0312500
        k(   69) = (  -0.0072488  -0.6953830   0.3513268), wk =   0.0312500
        k(   70) = (  -0.7060558  -0.0037295   0.0086334), wk =   0.0156250
        k(   71) = (  -0.8814870   0.1712732   0.1866283), wk =   0.0312500
        k(   72) = (  -0.3551934  -0.3537349  -0.3473564), wk =   0.0156250

     Dense  grid:    58663 G-vectors     FFT dimensions: (  54,  60,  60)

     Smooth grid:    43627 G-vectors     FFT dimensions: (  50,  50,  50)

     Largest allocated arrays     est. size (Mb)     dimensions
        Kohn-Sham Wavefunctions         1.13 Mb     (     694,  107)
        Atomic Hubbard wavefuncts       0.42 Mb     (     694,   40)
        NL pseudopotentials             2.63 Mb     (     694,  248)
        Each V/rho on FFT grid          0.79 Mb     (   25920,   2)
        Each G-vector array             0.06 Mb     (    7334)
        G-vector shells                 0.05 Mb     (    7061)
     Largest temporary arrays     est. size (Mb)     dimensions
        Auxiliary wavefunctions         4.53 Mb     (     694,  428)
        Each subspace H/S matrix        2.80 Mb     (     428,  428)
        Each <psi_i|beta_j> matrix      0.40 Mb     (     248,  107)
        Arrays for rho mixing           3.16 Mb     (   25920,    8)

     Check: negative/imaginary core charge=   -0.000060    0.000000

     Initial potential from superposition of free atoms

     starting charge  163.99935, renormalised to  168.00000
     Number of +U iterations with fixed ns =  0
     Starting occupations:
 --- enter write_ns ---
 LDA+U parameters:
U( 1)     =  3.00000000
alpha( 1) =  0.00000000
U( 2)     =  3.00000000
alpha( 2) =  0.00000000
atom    1   Tr[ns(na)] (up, down, total) =   0.00000  5.00000  5.00000
   spin  1
    eigenvalues: 
  0.000  0.000  0.000  0.000  0.000
    eigenvectors:
  1.000  0.000  0.000  0.000  0.000
  0.000  1.000  0.000  0.000  0.000
  0.000  0.000  1.000  0.000  0.000
  0.000  0.000  0.000  1.000  0.000
  0.000  0.000  0.000  0.000  1.000
    occupations:
  0.000  0.000  0.000  0.000  0.000
  0.000  0.000  0.000  0.000  0.000
  0.000  0.000  0.000  0.000  0.000
  0.000  0.000  0.000  0.000  0.000
  0.000  0.000  0.000  0.000  0.000
   spin  2
    eigenvalues: 
  1.000  1.000  1.000  1.000  1.000
    eigenvectors:
  1.000  0.000  0.000  0.000  0.000
  0.000  1.000  0.000  0.000  0.000
  0.000  0.000  1.000  0.000  0.000
  0.000  0.000  0.000  1.000  0.000
  0.000  0.000  0.000  0.000  1.000
    occupations:
  1.000  0.000  0.000  0.000  0.000
  0.000  1.000  0.000  0.000  0.000
  0.000  0.000  1.000  0.000  0.000
  0.000  0.000  0.000  1.000  0.000
  0.000  0.000  0.000  0.000  1.000
atomic mag. moment =    -5.000000
atom    3   Tr[ns(na)] (up, down, total) =   5.00000  0.00000  5.00000
   spin  1
    eigenvalues: 
  1.000  1.000  1.000  1.000  1.000
    eigenvectors:
  1.000  0.000  0.000  0.000  0.000
  0.000  1.000  0.000  0.000  0.000
  0.000  0.000  1.000  0.000  0.000
  0.000  0.000  0.000  1.000  0.000
  0.000  0.000  0.000  0.000  1.000
    occupations:
  1.000  0.000  0.000  0.000  0.000
  0.000  1.000  0.000  0.000  0.000
  0.000  0.000  1.000  0.000  0.000
  0.000  0.000  0.000  1.000  0.000
  0.000  0.000  0.000  0.000  1.000
   spin  2
    eigenvalues: 
  0.000  0.000  0.000  0.000  0.000
    eigenvectors:
  1.000  0.000  0.000  0.000  0.000
  0.000  1.000  0.000  0.000  0.000
  0.000  0.000  1.000  0.000  0.000
  0.000  0.000  0.000  1.000  0.000
  0.000  0.000  0.000  0.000  1.000
    occupations:
  0.000  0.000  0.000  0.000  0.000
  0.000  0.000  0.000  0.000  0.000
  0.000  0.000  0.000  0.000  0.000
  0.000  0.000  0.000  0.000  0.000
  0.000  0.000  0.000  0.000  0.000
atomic mag. moment =     5.000000
atom    5   Tr[ns(na)] (up, down, total) =   5.00000  0.00000  5.00000
   spin  1
    eigenvalues: 
  1.000  1.000  1.000  1.000  1.000
    eigenvectors:
  1.000  0.000  0.000  0.000  0.000
  0.000  1.000  0.000  0.000  0.000
  0.000  0.000  1.000  0.000  0.000
  0.000  0.000  0.000  1.000  0.000
  0.000  0.000  0.000  0.000  1.000
    occupations:
  1.000  0.000  0.000  0.000  0.000
  0.000  1.000  0.000  0.000  0.000
  0.000  0.000  1.000  0.000  0.000
  0.000  0.000  0.000  1.000  0.000
  0.000  0.000  0.000  0.000  1.000
   spin  2
    eigenvalues: 
  0.000  0.000  0.000  0.000  0.000
    eigenvectors:
  1.000  0.000  0.000  0.000  0.000
  0.000  1.000  0.000  0.000  0.000
  0.000  0.000  1.000  0.000  0.000
  0.000  0.000  0.000  1.000  0.000
  0.000  0.000  0.000  0.000  1.000
    occupations:
  0.000  0.000  0.000  0.000  0.000
  0.000  0.000  0.000  0.000  0.000
  0.000  0.000  0.000  0.000  0.000
  0.000  0.000  0.000  0.000  0.000
  0.000  0.000  0.000  0.000  0.000
atomic mag. moment =     5.000000
atom    7   Tr[ns(na)] (up, down, total) =   0.00000  5.00000  5.00000
   spin  1
    eigenvalues: 
  0.000  0.000  0.000  0.000  0.000
    eigenvectors:
  1.000  0.000  0.000  0.000  0.000
  0.000  1.000  0.000  0.000  0.000
  0.000  0.000  1.000  0.000  0.000
  0.000  0.000  0.000  1.000  0.000
  0.000  0.000  0.000  0.000  1.000
    occupations:
  0.000  0.000  0.000  0.000  0.000
  0.000  0.000  0.000  0.000  0.000
  0.000  0.000  0.000  0.000  0.000
  0.000  0.000  0.000  0.000  0.000
  0.000  0.000  0.000  0.000  0.000
   spin  2
    eigenvalues: 
  1.000  1.000  1.000  1.000  1.000
    eigenvectors:
  1.000  0.000  0.000  0.000  0.000
  0.000  1.000  0.000  0.000  0.000
  0.000  0.000  1.000  0.000  0.000
  0.000  0.000  0.000  1.000  0.000
  0.000  0.000  0.000  0.000  1.000
    occupations:
  1.000  0.000  0.000  0.000  0.000
  0.000  1.000  0.000  0.000  0.000
  0.000  0.000  1.000  0.000  0.000
  0.000  0.000  0.000  1.000  0.000
  0.000  0.000  0.000  0.000  1.000
atomic mag. moment =    -5.000000
atom    9   Tr[ns(na)] (up, down, total) =   5.00000  0.00000  5.00000
   spin  1
    eigenvalues: 
  1.000  1.000  1.000  1.000  1.000
    eigenvectors:
  1.000  0.000  0.000  0.000  0.000
  0.000  1.000  0.000  0.000  0.000
  0.000  0.000  1.000  0.000  0.000
  0.000  0.000  0.000  1.000  0.000
  0.000  0.000  0.000  0.000  1.000
    occupations:
  1.000  0.000  0.000  0.000  0.000
  0.000  1.000  0.000  0.000  0.000
  0.000  0.000  1.000  0.000  0.000
  0.000  0.000  0.000  1.000  0.000
  0.000  0.000  0.000  0.000  1.000
   spin  2
    eigenvalues: 
  0.000  0.000  0.000  0.000  0.000
    eigenvectors:
  1.000  0.000  0.000  0.000  0.000
  0.000  1.000  0.000  0.000  0.000
  0.000  0.000  1.000  0.000  0.000
  0.000  0.000  0.000  1.000  0.000
  0.000  0.000  0.000  0.000  1.000
    occupations:
  0.000  0.000  0.000  0.000  0.000
  0.000  0.000  0.000  0.000  0.000
  0.000  0.000  0.000  0.000  0.000
  0.000  0.000  0.000  0.000  0.000
  0.000  0.000  0.000  0.000  0.000
atomic mag. moment =     5.000000
atom   11   Tr[ns(na)] (up, down, total) =   5.00000  0.00000  5.00000
   spin  1
    eigenvalues: 
  1.000  1.000  1.000  1.000  1.000
    eigenvectors:
  1.000  0.000  0.000  0.000  0.000
  0.000  1.000  0.000  0.000  0.000
  0.000  0.000  1.000  0.000  0.000
  0.000  0.000  0.000  1.000  0.000
  0.000  0.000  0.000  0.000  1.000
    occupations:
  1.000  0.000  0.000  0.000  0.000
  0.000  1.000  0.000  0.000  0.000
  0.000  0.000  1.000  0.000  0.000
  0.000  0.000  0.000  1.000  0.000
  0.000  0.000  0.000  0.000  1.000
   spin  2
    eigenvalues: 
  0.000  0.000  0.000  0.000  0.000
    eigenvectors:
  1.000  0.000  0.000  0.000  0.000
  0.000  1.000  0.000  0.000  0.000
  0.000  0.000  1.000  0.000  0.000
  0.000  0.000  0.000  1.000  0.000
  0.000  0.000  0.000  0.000  1.000
    occupations:
  0.000  0.000  0.000  0.000  0.000
  0.000  0.000  0.000  0.000  0.000
  0.000  0.000  0.000  0.000  0.000
  0.000  0.000  0.000  0.000  0.000
  0.000  0.000  0.000  0.000  0.000
atomic mag. moment =     5.000000
atom   13   Tr[ns(na)] (up, down, total) =   5.00000  0.00000  5.00000
   spin  1
    eigenvalues: 
  1.000  1.000  1.000  1.000  1.000
    eigenvectors:
  1.000  0.000  0.000  0.000  0.000
  0.000  1.000  0.000  0.000  0.000
  0.000  0.000  1.000  0.000  0.000
  0.000  0.000  0.000  1.000  0.000
  0.000  0.000  0.000  0.000  1.000
    occupations:
  1.000  0.000  0.000  0.000  0.000
  0.000  1.000  0.000  0.000  0.000
  0.000  0.000  1.000  0.000  0.000
  0.000  0.000  0.000  1.000  0.000
  0.000  0.000  0.000  0.000  1.000
   spin  2
    eigenvalues: 
  0.000  0.000  0.000  0.000  0.000
    eigenvectors:
  1.000  0.000  0.000  0.000  0.000
  0.000  1.000  0.000  0.000  0.000
  0.000  0.000  1.000  0.000  0.000
  0.000  0.000  0.000  1.000  0.000
  0.000  0.000  0.000  0.000  1.000
    occupations:
  0.000  0.000  0.000  0.000  0.000
  0.000  0.000  0.000  0.000  0.000
  0.000  0.000  0.000  0.000  0.000
  0.000  0.000  0.000  0.000  0.000
  0.000  0.000  0.000  0.000  0.000
atomic mag. moment =     5.000000
atom   15   Tr[ns(na)] (up, down, total) =   0.00000  5.00000  5.00000
   spin  1
    eigenvalues: 
  0.000  0.000  0.000  0.000  0.000
    eigenvectors:
  1.000  0.000  0.000  0.000  0.000
  0.000  1.000  0.000  0.000  0.000
  0.000  0.000  1.000  0.000  0.000
  0.000  0.000  0.000  1.000  0.000
  0.000  0.000  0.000  0.000  1.000
    occupations:
  0.000  0.000  0.000  0.000  0.000
  0.000  0.000  0.000  0.000  0.000
  0.000  0.000  0.000  0.000  0.000
  0.000  0.000  0.000  0.000  0.000
  0.000  0.000  0.000  0.000  0.000
   spin  2
    eigenvalues: 
  1.000  1.000  1.000  1.000  1.000
    eigenvectors:
  1.000  0.000  0.000  0.000  0.000
  0.000  1.000  0.000  0.000  0.000
  0.000  0.000  1.000  0.000  0.000
  0.000  0.000  0.000  1.000  0.000
  0.000  0.000  0.000  0.000  1.000
    occupations:
  1.000  0.000  0.000  0.000  0.000
  0.000  1.000  0.000  0.000  0.000
  0.000  0.000  1.000  0.000  0.000
  0.000  0.000  0.000  1.000  0.000
  0.000  0.000  0.000  0.000  1.000
atomic mag. moment =    -5.000000
N of occupied +U levels =   40.000000
 --- exit write_ns ---
 Atomic wfc used for LDA+U Projector are NOT orthogonalized
     Starting wfc are  136 randomized atomic wfcs

     total cpu time spent up to now is       62.1 secs

     Self-consistent Calculation

     iteration #  1     ecut=    41.00 Ry     beta=0.30
     Davidson diagonalization with overlap
     ethr =  1.00E-02,  avg # of iterations =  5.2
 --- enter write_ns ---
 LDA+U parameters:
U( 1)     =  3.00000000
alpha( 1) =  0.00000000
U( 2)     =  3.00000000
alpha( 2) =  0.00000000
atom    1   Tr[ns(na)] (up, down, total) =   0.19924  4.99171  5.19095
   spin  1
    eigenvalues: 
  0.024  0.025  0.026  0.061  0.063
    eigenvectors:
  0.000  0.000  0.001  0.426  0.572
  0.000  0.038  0.961  0.000  0.001
  0.001  0.961  0.038  0.000  0.000
  0.001  0.000  0.000  0.573  0.427
  0.998  0.001  0.000  0.001  0.000
    occupations:
  0.062 -0.001  0.000 -0.001 -0.001
 -0.001  0.026  0.000  0.000  0.000
  0.000  0.000  0.025  0.000 -0.000
 -0.001  0.000  0.000  0.062 -0.001
 -0.001  0.000 -0.000 -0.001  0.024
   spin  2
    eigenvalues: 
  0.998  0.998  0.998  0.999  0.999
    eigenvectors:
  0.714  0.251  0.030  0.004  0.001
  0.010  0.002  0.543  0.001  0.444
  0.005  0.024  0.424  0.002  0.545
  0.265  0.723  0.003  0.001  0.007
  0.006  0.000  0.000  0.992  0.002
    occupations:
  0.998  0.000 -0.000  0.000 -0.000
  0.000  0.998  0.000 -0.000 -0.000
 -0.000  0.000  0.999 -0.000 -0.000
  0.000 -0.000 -0.000  0.998  0.000
 -0.000 -0.000 -0.000  0.000  0.999
atomic mag. moment =    -4.792471
atom    3   Tr[ns(na)] (up, down, total) =   4.99051  0.19583  5.18634
   spin  1
    eigenvalues: 
  0.997  0.998  0.998  0.998  0.999
    eigenvectors:
  0.957  0.000  0.036  0.006  0.001
  0.001  0.063  0.002  0.656  0.278
  0.001  0.002  0.035  0.267  0.694
  0.001  0.923  0.008  0.061  0.007
  0.039  0.013  0.918  0.010  0.019
    occupations:
  0.997 -0.000 -0.000  0.000  0.000
 -0.000  0.998 -0.000 -0.000  0.000
 -0.000 -0.000  0.998 -0.000 -0.000
  0.000 -0.000 -0.000  0.998  0.000
  0.000  0.000 -0.000  0.000  0.998
   spin  2
    eigenvalues: 
  0.020  0.024  0.025  0.061  0.066
    eigenvectors:
  0.000  0.000  0.000  0.066  0.933
  0.000  0.977  0.022  0.000  0.000
  0.002  0.022  0.975  0.000  0.000
  0.000  0.000  0.000  0.934  0.066
  0.997  0.000  0.002  0.000  0.000
    occupations:
  0.065 -0.000 -0.000 -0.001  0.001
 -0.000  0.024 -0.000 -0.000  0.000
 -0.000 -0.000  0.025 -0.000 -0.000
 -0.001 -0.000 -0.000  0.061 -0.000
  0.001  0.000 -0.000 -0.000  0.020
atomic mag. moment =     4.794674
atom    5   Tr[ns(na)] (up, down, total) =   4.98995  0.20275  5.19270
   spin  1
    eigenvalues: 
  0.997  0.998  0.998  0.998  0.999
    eigenvectors:
  0.064  0.932  0.001  0.000  0.003
  0.001  0.002  0.275  0.010  0.712
  0.004  0.000  0.033  0.962  0.000
  0.930  0.063  0.000  0.004  0.003
  0.000  0.004  0.690  0.024  0.282
    occupations:
  0.998 -0.000 -0.000  0.000  0.000
 -0.000  0.998  0.000 -0.000 -0.000
 -0.000  0.000  0.998  0.000  0.000
  0.000 -0.000  0.000  0.997  0.000
  0.000 -0.000  0.000  0.000  0.998
   spin  2
    eigenvalues: 
  0.023  0.023  0.026  0.063  0.068
    eigenvectors:
  0.000  0.001  0.000  0.939  0.061
  0.002  0.000  0.998  0.000  0.000
  0.003  0.996  0.000  0.001  0.000
  0.000  0.000  0.000  0.061  0.939
  0.995  0.003  0.002  0.000  0.000
    occupations:
  0.063 -0.000 -0.001 -0.001 -0.000
 -0.000  0.026 -0.000  0.000 -0.000
 -0.001 -0.000  0.023 -0.000  0.000
 -0.001  0.000 -0.000  0.067 -0.000
 -0.000 -0.000  0.000 -0.000  0.023
atomic mag. moment =     4.787195
atom    7   Tr[ns(na)] (up, down, total) =   0.19339  4.99458  5.18797
   spin  1
    eigenvalues: 
  0.021  0.025  0.025  0.060  0.062
    eigenvectors:
  0.000  0.000  0.000  0.829  0.171
  0.000  0.916  0.084  0.000  0.000
  0.001  0.084  0.915  0.000  0.000
  0.000  0.000  0.000  0.171  0.829
  0.999  0.000  0.001  0.000  0.000
    occupations:
  0.060  0.000 -0.001  0.001  0.000
  0.000  0.025 -0.000 -0.000  0.000
 -0.001 -0.000  0.025 -0.000 -0.000
  0.001 -0.000 -0.000  0.062 -0.000
  0.000  0.000 -0.000 -0.000  0.021
   spin  2
    eigenvalues: 
  0.998  0.998  0.998  1.000  1.000
    eigenvectors:
  0.000  0.000  0.000  0.326  0.673
  0.739  0.256  0.003  0.000  0.002
  0.087  0.171  0.739  0.002  0.001
  0.004  0.001  0.001  0.671  0.324
  0.170  0.572  0.257  0.001  0.001
    occupations:
  1.000  0.000 -0.000 -0.000  0.000
  0.000  0.998 -0.000 -0.000 -0.000
 -0.000 -0.000  0.998 -0.000 -0.000
 -0.000 -0.000 -0.000  1.000 -0.000
  0.000 -0.000 -0.000 -0.000  0.998
atomic mag. moment =    -4.801192
atom    9   Tr[ns(na)] (up, down, total) =   4.99373  0.20075  5.19448
   spin  1
    eigenvalues: 
  0.998  0.998  0.998  0.999  0.999
    eigenvectors:
  0.001  0.000  0.006  0.191  0.802
  0.000  0.017  0.972  0.010  0.001
  0.454  0.533  0.009  0.004  0.001
  0.017  0.005  0.004  0.780  0.194
  0.528  0.444  0.009  0.016  0.003
    occupations:
  0.999 -0.000  0.000  0.000  0.000
 -0.000  0.998 -0.000  0.000 -0.000
  0.000 -0.000  0.998 -0.000  0.000
  0.000  0.000 -0.000  0.999  0.000
  0.000 -0.000  0.000  0.000  0.998
   spin  2
    eigenvalues: 
  0.021  0.023  0.026  0.062  0.069
    eigenvectors:
  0.000  0.001  0.000  0.330  0.669
  0.004  0.994  0.002  0.000  0.001
  0.995  0.004  0.001  0.000  0.000
  0.000  0.000  0.000  0.670  0.330
  0.001  0.002  0.997  0.000  0.000
    occupations:
  0.066 -0.001  0.000 -0.003  0.001
 -0.001  0.023 -0.000  0.000  0.000
  0.000 -0.000  0.021 -0.000 -0.000
 -0.003  0.000 -0.000  0.064 -0.000
  0.001  0.000 -0.000 -0.000  0.026
atomic mag. moment =     4.792975
atom   11   Tr[ns(na)] (up, down, total) =   4.99028  0.19685  5.18714
   spin  1
    eigenvalues: 
  0.997  0.998  0.998  0.998  0.998
    eigenvectors:
  0.884  0.072  0.026  0.002  0.016
  0.009  0.000  0.026  0.029  0.936
  0.010  0.061  0.034  0.879  0.017
  0.050  0.857  0.011  0.077  0.006
  0.048  0.010  0.904  0.013  0.025
    occupations:
  0.997  0.000 -0.000 -0.000  0.000
  0.000  0.998  0.000  0.000  0.000
 -0.000  0.000  0.998 -0.000  0.000
 -0.000  0.000 -0.000  0.998  0.000
  0.000  0.000  0.000  0.000  0.998
   spin  2
    eigenvalues: 
  0.020  0.023  0.026  0.061  0.065
    eigenvectors:
  0.000  0.000  0.000  0.034  0.965
  0.003  0.011  0.986  0.000  0.000
  0.003  0.987  0.010  0.000  0.000
  0.000  0.000  0.000  0.966  0.034
  0.994  0.002  0.004  0.000  0.000
    occupations:
  0.065 -0.001  0.001 -0.001  0.001
 -0.001  0.026 -0.000 -0.000  0.000
  0.001 -0.000  0.023 -0.001 -0.000
 -0.001 -0.000 -0.001  0.062 -0.000
  0.001  0.000 -0.000 -0.000  0.021
atomic mag. moment =     4.793429
atom   13   Tr[ns(na)] (up, down, total) =   4.99033  0.20116  5.19149
   spin  1
    eigenvalues: 
  0.997  0.998  0.998  0.998  0.998
    eigenvectors:
  0.111  0.887  0.001  0.000  0.001
  0.007  0.004  0.865  0.119  0.006
  0.002  0.000  0.008  0.196  0.793
  0.880  0.109  0.008  0.000  0.002
  0.000  0.001  0.118  0.684  0.197
    occupations:
  0.998  0.000  0.000  0.000  0.000
  0.000  0.998  0.000  0.000 -0.000
  0.000  0.000  0.998 -0.000  0.000
  0.000  0.000 -0.000  0.997 -0.000
  0.000 -0.000  0.000 -0.000  0.998
   spin  2
    eigenvalues: 
  0.022  0.024  0.025  0.062  0.067
    eigenvectors:
  0.000  0.000  0.000  0.937  0.063
  0.000  0.995  0.005  0.000  0.000
  0.000  0.005  0.995  0.000  0.000
  0.000  0.000  0.000  0.063  0.937
  1.000  0.000  0.000  0.000  0.000
    occupations:
  0.063 -0.000 -0.000 -0.001 -0.000
 -0.000  0.024 -0.000 -0.000 -0.000
 -0.000 -0.000  0.025 -0.000  0.000
 -0.001 -0.000 -0.000  0.067 -0.000
 -0.000 -0.000  0.000 -0.000  0.022
atomic mag. moment =     4.789170
atom   15   Tr[ns(na)] (up, down, total) =   0.20798  4.99041  5.19839
   spin  1
    eigenvalues: 
  0.024  0.026  0.027  0.064  0.067
    eigenvectors:
  0.001  0.000  0.000  0.472  0.527
  0.000  0.101  0.899  0.000  0.000
  0.006  0.894  0.100  0.001  0.000
  0.000  0.000  0.000  0.526  0.473
  0.993  0.005  0.001  0.001  0.000
    occupations:
  0.065 -0.000 -0.001 -0.002  0.001
 -0.000  0.027 -0.000 -0.001  0.000
 -0.001 -0.000  0.026 -0.001 -0.000
 -0.002 -0.001 -0.001  0.065  0.001
  0.001  0.000 -0.000  0.001  0.024
   spin  2
    eigenvalues: 
  0.997  0.998  0.998  0.998  0.999
    eigenvectors:
  0.583  0.402  0.004  0.011  0.000
  0.000  0.005  0.548  0.006  0.440
  0.001  0.000  0.446  0.002  0.550
  0.415  0.576  0.000  0.007  0.001
  0.001  0.017  0.001  0.973  0.009
    occupations:
  0.998  0.000  0.000  0.000  0.000
  0.000  0.998 -0.000  0.000 -0.000
  0.000 -0.000  0.998 -0.000  0.000
  0.000  0.000 -0.000  0.998  0.000
  0.000 -0.000  0.000  0.000  0.998
atomic mag. moment =    -4.782432
N of occupied +U levels =   41.529454
 --- exit write_ns ---

     negative rho (up, down):  1.237E-04 1.842E-04

     Magnetic moment per site:
     atom:    1    charge:   12.7230    magn:  -10.1525    constr:    0.0000
     atom:    2    charge:    5.6092    magn:    0.1144    constr:    0.0000
     atom:    3    charge:   12.6924    magn:   10.1488    constr:    0.0000
     atom:    4    charge:    5.5982    magn:    0.0008    constr:    0.0000
     atom:    5    charge:   12.6958    magn:   10.1474    constr:    0.0000
     atom:    6    charge:    5.6025    magn:    0.0096    constr:    0.0000
     atom:    7    charge:   12.7234    magn:  -10.1638    constr:    0.0000
     atom:    8    charge:    5.6159    magn:    0.0578    constr:    0.0000
     atom:    9    charge:   12.6980    magn:   10.1604    constr:    0.0000
     atom:   10    charge:    5.6119    magn:    0.0509    constr:    0.0000
     atom:   11    charge:   12.6931    magn:   10.1477    constr:    0.0000
     atom:   12    charge:    5.6238    magn:    0.0098    constr:    0.0000
     atom:   13    charge:   12.6945    magn:   10.1475    constr:    0.0000
     atom:   14    charge:    5.6297    magn:   -0.0028    constr:    0.0000
     atom:   15    charge:   12.7281    magn:  -10.1544    constr:    0.0000
     atom:   16    charge:    5.6207    magn:    0.1111    constr:    0.0000

     total cpu time spent up to now is      272.3 secs

     total energy              =   -1937.96447891 Ry
     Harris-Foulkes estimate   =   -1921.79458749 Ry
     estimated scf accuracy    <      25.45279361 Ry

     total magnetization       =    10.00 Bohr mag/cell
     absolute magnetization    =    40.75 Bohr mag/cell

     iteration #  2     ecut=    41.00 Ry     beta=0.30
     Davidson diagonalization with overlap
     ethr =  1.00E-02,  avg # of iterations =  1.1

     negative rho (up, down):  5.321E-04 8.392E-04

     Magnetic moment per site:
     atom:    1    charge:   12.6080    magn:   -4.4570    constr:    0.0000
     atom:    2    charge:    5.8307    magn:   -0.0400    constr:    0.0000
     atom:    3    charge:   12.5792    magn:    4.4449    constr:    0.0000
     atom:    4    charge:    5.8177    magn:    0.0035    constr:    0.0000
     atom:    5    charge:   12.5816    magn:    4.4445    constr:    0.0000
     atom:    6    charge:    5.8224    magn:   -0.0024    constr:    0.0000
     atom:    7    charge:   12.6104    magn:   -4.4611    constr:    0.0000
     atom:    8    charge:    5.8363    magn:   -0.0190    constr:    0.0000
     atom:    9    charge:   12.5855    magn:    4.4535    constr:    0.0000
     atom:   10    charge:    5.8319    magn:   -0.0194    constr:    0.0000
     atom:   11    charge:   12.5798    magn:    4.4442    constr:    0.0000
     atom:   12    charge:    5.8450    magn:   -0.0021    constr:    0.0000
     atom:   13    charge:   12.5805    magn:    4.4446    constr:    0.0000
     atom:   14    charge:    5.8515    magn:    0.0023    constr:    0.0000
     atom:   15    charge:   12.6116    magn:   -4.4580    constr:    0.0000
     atom:   16    charge:    5.8423    magn:   -0.0364    constr:    0.0000

     total cpu time spent up to now is      387.0 secs

     total energy              =   -1945.62695363 Ry
     Harris-Foulkes estimate   =   -1938.22040237 Ry
     estimated scf accuracy    <      12.64676868 Ry

     total magnetization       =    10.00 Bohr mag/cell
     absolute magnetization    =    40.42 Bohr mag/cell

     iteration #  3     ecut=    41.00 Ry     beta=0.30
     Davidson diagonalization with overlap
     ethr =  7.53E-03,  avg # of iterations =  3.9

     negative rho (up, down):  5.732E-04 9.268E-04

     Magnetic moment per site:
     atom:    1    charge:   12.5311    magn:   -4.2537    constr:    0.0000
     atom:    2    charge:    5.7969    magn:    0.0414    constr:    0.0000
     atom:    3    charge:   12.5054    magn:    4.2503    constr:    0.0000
     atom:    4    charge:    5.7846    magn:    0.0089    constr:    0.0000
     atom:    5    charge:   12.5088    magn:    4.2457    constr:    0.0000
     atom:    6    charge:    5.7899    magn:    0.0040    constr:    0.0000
     atom:    7    charge:   12.5357    magn:   -4.2337    constr:    0.0000
     atom:    8    charge:    5.8057    magn:    0.0243    constr:    0.0000
     atom:    9    charge:   12.5155    magn:    4.2290    constr:    0.0000
     atom:   10    charge:    5.8011    magn:    0.0221    constr:    0.0000
     atom:   11    charge:   12.5060    magn:    4.2484    constr:    0.0000
     atom:   12    charge:    5.8133    magn:    0.0030    constr:    0.0000
     atom:   13    charge:   12.5072    magn:    4.2472    constr:    0.0000
     atom:   14    charge:    5.8201    magn:    0.0059    constr:    0.0000
     atom:   15    charge:   12.5368    magn:   -4.2498    constr:    0.0000
     atom:   16    charge:    5.8093    magn:    0.0402    constr:    0.0000

     total cpu time spent up to now is      578.7 secs

     total energy              =   -1946.16332991 Ry
     Harris-Foulkes estimate   =   -1946.29784589 Ry
     estimated scf accuracy    <       0.39061127 Ry

     total magnetization       =    10.00 Bohr mag/cell
     absolute magnetization    =    38.60 Bohr mag/cell

     iteration #  4     ecut=    41.00 Ry     beta=0.30
     Davidson diagonalization with overlap
     ethr =  2.33E-04,  avg # of iterations =  4.2

     negative rho (up, down):  5.925E-04 9.614E-04

     Magnetic moment per site:
     atom:    1    charge:   12.5219    magn:   -4.1539    constr:    0.0000
     atom:    2    charge:    5.8074    magn:    0.0485    constr:    0.0000
     atom:    3    charge:   12.4963    magn:    4.1496    constr:    0.0000
     atom:    4    charge:    5.7951    magn:    0.0080    constr:    0.0000
     atom:    5    charge:   12.4998    magn:    4.1448    constr:    0.0000
     atom:    6    charge:    5.8003    magn:    0.0034    constr:    0.0000
     atom:    7    charge:   12.5268    magn:   -4.1312    constr:    0.0000
     atom:    8    charge:    5.8160    magn:    0.0271    constr:    0.0000
     atom:    9    charge:   12.5068    magn:    4.1263    constr:    0.0000
     atom:   10    charge:    5.8114    magn:    0.0247    constr:    0.0000
     atom:   11    charge:   12.4968    magn:    4.1476    constr:    0.0000
     atom:   12    charge:    5.8235    magn:    0.0024    constr:    0.0000
     atom:   13    charge:   12.4982    magn:    4.1464    constr:    0.0000
     atom:   14    charge:    5.8304    magn:    0.0049    constr:    0.0000
     atom:   15    charge:   12.5278    magn:   -4.1497    constr:    0.0000
     atom:   16    charge:    5.8197    magn:    0.0467    constr:    0.0000

     total cpu time spent up to now is      789.1 secs

     total energy              =   -1946.23584700 Ry
     Harris-Foulkes estimate   =   -1946.24339073 Ry
     estimated scf accuracy    <       0.03520762 Ry

     total magnetization       =    10.00 Bohr mag/cell
     absolute magnetization    =    38.55 Bohr mag/cell

     iteration #  5     ecut=    41.00 Ry     beta=0.30
     Davidson diagonalization with overlap
     ethr =  2.10E-05,  avg # of iterations =  3.3

     negative rho (up, down):  6.190E-04 1.030E-03

     Magnetic moment per site:
     atom:    1    charge:   12.4875    magn:   -4.2198    constr:    0.0000
     atom:    2    charge:    5.8161    magn:    0.1009    constr:    0.0000
     atom:    3    charge:   12.4626    magn:    4.2149    constr:    0.0000
     atom:    4    charge:    5.8039    magn:    0.0054    constr:    0.0000
     atom:    5    charge:   12.4668    magn:    4.2086    constr:    0.0000
     atom:    6    charge:    5.8088    magn:    0.0036    constr:    0.0000
     atom:    7    charge:   12.4941    magn:   -4.1826    constr:    0.0000
     atom:    8    charge:    5.8249    magn:    0.0512    constr:    0.0000
     atom:    9    charge:   12.4756    magn:    4.1782    constr:    0.0000
     atom:   10    charge:    5.8203    magn:    0.0473    constr:    0.0000
     atom:   11    charge:   12.4631    magn:    4.2121    constr:    0.0000
     atom:   12    charge:    5.8318    magn:    0.0020    constr:    0.0000
     atom:   13    charge:   12.4649    magn:    4.2109    constr:    0.0000
     atom:   14    charge:    5.8388    magn:    0.0012    constr:    0.0000
     atom:   15    charge:   12.4948    magn:   -4.2137    constr:    0.0000
     atom:   16    charge:    5.8280    magn:    0.0952    constr:    0.0000

     total cpu time spent up to now is      951.7 secs

     total energy              =   -1946.23518742 Ry
     Harris-Foulkes estimate   =   -1946.23793973 Ry
     estimated scf accuracy    <       0.01266835 Ry

     total magnetization       =    10.00 Bohr mag/cell
     absolute magnetization    =    38.48 Bohr mag/cell
 kfg - setting two_fermi_energies to FALSE

     iteration #  6     ecut=    41.00 Ry     beta=0.30
     Davidson diagonalization with overlap
     ethr =  7.54E-06,  avg # of iterations =  3.1

     negative rho (up, down):  6.170E-04 1.028E-03

     Magnetic moment per site:
     atom:    1    charge:   12.4828    magn:   -4.2273    constr:    0.0000
     atom:    2    charge:    5.8157    magn:    0.1100    constr:    0.0000
     atom:    3    charge:   12.4582    magn:    4.2221    constr:    0.0000
     atom:    4    charge:    5.8035    magn:    0.0045    constr:    0.0000
     atom:    5    charge:   12.4626    magn:    4.2159    constr:    0.0000
     atom:    6    charge:    5.8086    magn:    0.0031    constr:    0.0000
     atom:    7    charge:   12.4901    magn:   -4.1888    constr:    0.0000
     atom:    8    charge:    5.8248    magn:    0.0554    constr:    0.0000
     atom:    9    charge:   12.4720    magn:    4.1838    constr:    0.0000
     atom:   10    charge:    5.8202    magn:    0.0513    constr:    0.0000
     atom:   11    charge:   12.4588    magn:    4.2194    constr:    0.0000
     atom:   12    charge:    5.8318    magn:    0.0014    constr:    0.0000
     atom:   13    charge:   12.4606    magn:    4.2182    constr:    0.0000
     atom:   14    charge:    5.8387    magn:    0.0002    constr:    0.0000
     atom:   15    charge:   12.4906    magn:   -4.2209    constr:    0.0000
     atom:   16    charge:    5.8277    magn:    0.1034    constr:    0.0000

     total cpu time spent up to now is     1130.6 secs

     total energy              =   -1946.23738006 Ry
     Harris-Foulkes estimate   =   -1946.23747299 Ry
     estimated scf accuracy    <       0.00052426 Ry

     total magnetization       =    10.01 Bohr mag/cell
     absolute magnetization    =    38.44 Bohr mag/cell

     iteration #  7     ecut=    41.00 Ry     beta=0.30
     Davidson diagonalization with overlap
     ethr =  3.12E-07,  avg # of iterations =  1.8

     negative rho (up, down):  6.129E-04 1.018E-03

     Magnetic moment per site:
     atom:    1    charge:   12.4806    magn:   -4.2155    constr:    0.0000
     atom:    2    charge:    5.8159    magn:    0.1145    constr:    0.0000
     atom:    3    charge:   12.4562    magn:    4.2100    constr:    0.0000
     atom:    4    charge:    5.8037    magn:    0.0039    constr:    0.0000
     atom:    5    charge:   12.4608    magn:    4.2040    constr:    0.0000
     atom:    6    charge:    5.8089    magn:    0.0027    constr:    0.0000
     atom:    7    charge:   12.4885    magn:   -4.1767    constr:    0.0000
     atom:    8    charge:    5.8252    magn:    0.0575    constr:    0.0000
     atom:    9    charge:   12.4706    magn:    4.1712    constr:    0.0000
     atom:   10    charge:    5.8206    magn:    0.0533    constr:    0.0000
     atom:   11    charge:   12.4568    magn:    4.2073    constr:    0.0000
     atom:   12    charge:    5.8321    magn:    0.0008    constr:    0.0000
     atom:   13    charge:   12.4588    magn:    4.2061    constr:    0.0000
     atom:   14    charge:    5.8391    magn:   -0.0005    constr:    0.0000
     atom:   15    charge:   12.4886    magn:   -4.2091    constr:    0.0000
     atom:   16    charge:    5.8280    magn:    0.1073    constr:    0.0000

     total cpu time spent up to now is     1261.8 secs

     total energy              =   -1946.23743193 Ry
     Harris-Foulkes estimate   =   -1946.23741996 Ry
     estimated scf accuracy    <       0.00009726 Ry

     total magnetization       =    10.01 Bohr mag/cell
     absolute magnetization    =    38.44 Bohr mag/cell

     iteration #  8     ecut=    41.00 Ry     beta=0.30
     Davidson diagonalization with overlap
     ethr =  5.79E-08,  avg # of iterations =  2.0

     negative rho (up, down):  6.067E-04 1.003E-03

     Magnetic moment per site:
     atom:    1    charge:   12.4805    magn:   -4.2153    constr:    0.0000
     atom:    2    charge:    5.8156    magn:    0.1164    constr:    0.0000
     atom:    3    charge:   12.4563    magn:    4.2095    constr:    0.0000
     atom:    4    charge:    5.8035    magn:    0.0036    constr:    0.0000
     atom:    5    charge:   12.4610    magn:    4.2035    constr:    0.0000
     atom:    6    charge:    5.8087    magn:    0.0024    constr:    0.0000
     atom:    7    charge:   12.4887    magn:   -4.1764    constr:    0.0000
     atom:    8    charge:    5.8250    magn:    0.0584    constr:    0.0000
     atom:    9    charge:   12.4710    magn:    4.1708    constr:    0.0000
     atom:   10    charge:    5.8204    magn:    0.0542    constr:    0.0000
     atom:   11    charge:   12.4569    magn:    4.2069    constr:    0.0000
     atom:   12    charge:    5.8319    magn:    0.0006    constr:    0.0000
     atom:   13    charge:   12.4589    magn:    4.2057    constr:    0.0000
     atom:   14    charge:    5.8388    magn:   -0.0008    constr:    0.0000
     atom:   15    charge:   12.4886    magn:   -4.2089    constr:    0.0000
     atom:   16    charge:    5.8277    magn:    0.1090    constr:    0.0000

     total cpu time spent up to now is     1416.0 secs

     total energy              =   -1946.23744905 Ry
     Harris-Foulkes estimate   =   -1946.23744728 Ry
     estimated scf accuracy    <       0.00001019 Ry

     total magnetization       =    10.01 Bohr mag/cell
     absolute magnetization    =    38.43 Bohr mag/cell

     iteration #  9     ecut=    41.00 Ry     beta=0.30
     Davidson diagonalization with overlap
     ethr =  6.07E-09,  avg # of iterations =  2.0

     negative rho (up, down):  6.017E-04 9.901E-04

     Magnetic moment per site:
     atom:    1    charge:   12.4802    magn:   -4.2155    constr:    0.0000
     atom:    2    charge:    5.8154    magn:    0.1187    constr:    0.0000
     atom:    3    charge:   12.4562    magn:    4.2096    constr:    0.0000
     atom:    4    charge:    5.8034    magn:    0.0032    constr:    0.0000
     atom:    5    charge:   12.4610    magn:    4.2036    constr:    0.0000
     atom:    6    charge:    5.8085    magn:    0.0021    constr:    0.0000
     atom:    7    charge:   12.4887    magn:   -4.1766    constr:    0.0000
     atom:    8    charge:    5.8248    magn:    0.0594    constr:    0.0000
     atom:    9    charge:   12.4712    magn:    4.1708    constr:    0.0000
     atom:   10    charge:    5.8202    magn:    0.0552    constr:    0.0000
     atom:   11    charge:   12.4568    magn:    4.2069    constr:    0.0000
     atom:   12    charge:    5.8317    magn:    0.0003    constr:    0.0000
     atom:   13    charge:   12.4589    magn:    4.2057    constr:    0.0000
     atom:   14    charge:    5.8387    magn:   -0.0012    constr:    0.0000
     atom:   15    charge:   12.4885    magn:   -4.2092    constr:    0.0000
     atom:   16    charge:    5.8275    magn:    0.1110    constr:    0.0000

     total cpu time spent up to now is     1551.6 secs

     total energy              =   -1946.23744948 Ry
     Harris-Foulkes estimate   =   -1946.23744988 Ry
     estimated scf accuracy    <       0.00000352 Ry

     total magnetization       =    10.01 Bohr mag/cell
     absolute magnetization    =    38.43 Bohr mag/cell

     iteration # 10     ecut=    41.00 Ry     beta=0.30
     Davidson diagonalization with overlap
     ethr =  2.10E-09,  avg # of iterations =  2.1

     negative rho (up, down):  6.033E-04 9.940E-04

     Magnetic moment per site:
     atom:    1    charge:   12.4801    magn:   -4.2156    constr:    0.0000
     atom:    2    charge:    5.8154    magn:    0.1189    constr:    0.0000
     atom:    3    charge:   12.4562    magn:    4.2096    constr:    0.0000
     atom:    4    charge:    5.8034    magn:    0.0032    constr:    0.0000
     atom:    5    charge:   12.4610    magn:    4.2036    constr:    0.0000
     atom:    6    charge:    5.8085    magn:    0.0021    constr:    0.0000
     atom:    7    charge:   12.4887    magn:   -4.1767    constr:    0.0000
     atom:    8    charge:    5.8249    magn:    0.0595    constr:    0.0000
     atom:    9    charge:   12.4713    magn:    4.1710    constr:    0.0000
     atom:   10    charge:    5.8202    magn:    0.0553    constr:    0.0000
     atom:   11    charge:   12.4568    magn:    4.2070    constr:    0.0000
     atom:   12    charge:    5.8318    magn:    0.0002    constr:    0.0000
     atom:   13    charge:   12.4589    magn:    4.2058    constr:    0.0000
     atom:   14    charge:    5.8387    magn:   -0.0013    constr:    0.0000
     atom:   15    charge:   12.4884    magn:   -4.2093    constr:    0.0000
     atom:   16    charge:    5.8275    magn:    0.1112    constr:    0.0000

     total cpu time spent up to now is     1705.1 secs

     total energy              =   -1946.23745034 Ry
     Harris-Foulkes estimate   =   -1946.23745025 Ry
     estimated scf accuracy    <       0.00000048 Ry

     total magnetization       =    10.01 Bohr mag/cell
     absolute magnetization    =    38.43 Bohr mag/cell

     iteration # 11     ecut=    41.00 Ry     beta=0.30
     Davidson diagonalization with overlap
     ethr =  2.85E-10,  avg # of iterations =  2.0

     negative rho (up, down):  6.031E-04 9.937E-04

     Magnetic moment per site:
     atom:    1    charge:   12.4801    magn:   -4.2156    constr:    0.0000
     atom:    2    charge:    5.8154    magn:    0.1190    constr:    0.0000
     atom:    3    charge:   12.4562    magn:    4.2096    constr:    0.0000
     atom:    4    charge:    5.8034    magn:    0.0031    constr:    0.0000
     atom:    5    charge:   12.4610    magn:    4.2036    constr:    0.0000
     atom:    6    charge:    5.8085    magn:    0.0021    constr:    0.0000
     atom:    7    charge:   12.4887    magn:   -4.1767    constr:    0.0000
     atom:    8    charge:    5.8249    magn:    0.0595    constr:    0.0000
     atom:    9    charge:   12.4713    magn:    4.1710    constr:    0.0000
     atom:   10    charge:    5.8202    magn:    0.0553    constr:    0.0000
     atom:   11    charge:   12.4568    magn:    4.2070    constr:    0.0000
     atom:   12    charge:    5.8318    magn:    0.0002    constr:    0.0000
     atom:   13    charge:   12.4589    magn:    4.2057    constr:    0.0000
     atom:   14    charge:    5.8387    magn:   -0.0013    constr:    0.0000
     atom:   15    charge:   12.4884    magn:   -4.2093    constr:    0.0000
     atom:   16    charge:    5.8275    magn:    0.1112    constr:    0.0000

     total cpu time spent up to now is     1853.6 secs

     total energy              =   -1946.23745051 Ry
     Harris-Foulkes estimate   =   -1946.23745041 Ry
     estimated scf accuracy    <       0.00000011 Ry

     total magnetization       =    10.01 Bohr mag/cell
     absolute magnetization    =    38.43 Bohr mag/cell

     iteration # 12     ecut=    41.00 Ry     beta=0.30
     Davidson diagonalization with overlap
     ethr =  6.81E-11,  avg # of iterations =  1.0

     negative rho (up, down):  6.041E-04 9.963E-04

     Magnetic moment per site:
     atom:    1    charge:   12.4801    magn:   -4.2156    constr:    0.0000
     atom:    2    charge:    5.8154    magn:    0.1188    constr:    0.0000
     atom:    3    charge:   12.4563    magn:    4.2096    constr:    0.0000
     atom:    4    charge:    5.8034    magn:    0.0031    constr:    0.0000
     atom:    5    charge:   12.4610    magn:    4.2036    constr:    0.0000
     atom:    6    charge:    5.8086    magn:    0.0020    constr:    0.0000
     atom:    7    charge:   12.4887    magn:   -4.1768    constr:    0.0000
     atom:    8    charge:    5.8249    magn:    0.0594    constr:    0.0000
     atom:    9    charge:   12.4713    magn:    4.1710    constr:    0.0000
     atom:   10    charge:    5.8202    magn:    0.0552    constr:    0.0000
     atom:   11    charge:   12.4568    magn:    4.2070    constr:    0.0000
     atom:   12    charge:    5.8318    magn:    0.0001    constr:    0.0000
     atom:   13    charge:   12.4589    magn:    4.2057    constr:    0.0000
     atom:   14    charge:    5.8387    magn:   -0.0013    constr:    0.0000
     atom:   15    charge:   12.4884    magn:   -4.2093    constr:    0.0000
     atom:   16    charge:    5.8275    magn:    0.1110    constr:    0.0000

     total cpu time spent up to now is     1965.7 secs

     total energy              =   -1946.23745056 Ry
     Harris-Foulkes estimate   =   -1946.23745051 Ry
     estimated scf accuracy    <       0.00000007 Ry

     total magnetization       =    10.01 Bohr mag/cell
     absolute magnetization    =    38.43 Bohr mag/cell

     iteration # 13     ecut=    41.00 Ry     beta=0.30
     Davidson diagonalization with overlap
     ethr =  4.26E-11,  avg # of iterations =  2.4

     negative rho (up, down):  6.040E-04 9.959E-04

     Magnetic moment per site:
     atom:    1    charge:   12.4801    magn:   -4.2156    constr:    0.0000
     atom:    2    charge:    5.8154    magn:    0.1187    constr:    0.0000
     atom:    3    charge:   12.4563    magn:    4.2096    constr:    0.0000
     atom:    4    charge:    5.8034    magn:    0.0031    constr:    0.0000
     atom:    5    charge:   12.4610    magn:    4.2036    constr:    0.0000
     atom:    6    charge:    5.8086    magn:    0.0020    constr:    0.0000
     atom:    7    charge:   12.4887    magn:   -4.1768    constr:    0.0000
     atom:    8    charge:    5.8249    magn:    0.0594    constr:    0.0000
     atom:    9    charge:   12.4713    magn:    4.1710    constr:    0.0000
     atom:   10    charge:    5.8202    magn:    0.0552    constr:    0.0000
     atom:   11    charge:   12.4568    magn:    4.2070    constr:    0.0000
     atom:   12    charge:    5.8318    magn:    0.0002    constr:    0.0000
     atom:   13    charge:   12.4589    magn:    4.2057    constr:    0.0000
     atom:   14    charge:    5.8387    magn:   -0.0013    constr:    0.0000
     atom:   15    charge:   12.4884    magn:   -4.2093    constr:    0.0000
     atom:   16    charge:    5.8275    magn:    0.1110    constr:    0.0000

     total cpu time spent up to now is     2126.5 secs

     total energy              =   -1946.23745060 Ry
     Harris-Foulkes estimate   =   -1946.23745058 Ry
     estimated scf accuracy    <       0.00000001 Ry

     total magnetization       =    10.01 Bohr mag/cell
     absolute magnetization    =    38.43 Bohr mag/cell

     iteration # 14     ecut=    41.00 Ry     beta=0.30
     Davidson diagonalization with overlap
     ethr =  6.07E-12,  avg # of iterations =  2.3

     negative rho (up, down):  6.036E-04 9.950E-04

     Magnetic moment per site:
     atom:    1    charge:   12.4801    magn:   -4.2156    constr:    0.0000
     atom:    2    charge:    5.8154    magn:    0.1187    constr:    0.0000
     atom:    3    charge:   12.4563    magn:    4.2096    constr:    0.0000
     atom:    4    charge:    5.8034    magn:    0.0031    constr:    0.0000
     atom:    5    charge:   12.4610    magn:    4.2036    constr:    0.0000
     atom:    6    charge:    5.8086    magn:    0.0020    constr:    0.0000
     atom:    7    charge:   12.4887    magn:   -4.1767    constr:    0.0000
     atom:    8    charge:    5.8249    magn:    0.0594    constr:    0.0000
     atom:    9    charge:   12.4713    magn:    4.1710    constr:    0.0000
     atom:   10    charge:    5.8202    magn:    0.0552    constr:    0.0000
     atom:   11    charge:   12.4568    magn:    4.2070    constr:    0.0000
     atom:   12    charge:    5.8318    magn:    0.0002    constr:    0.0000
     atom:   13    charge:   12.4589    magn:    4.2057    constr:    0.0000
     atom:   14    charge:    5.8387    magn:   -0.0013    constr:    0.0000
     atom:   15    charge:   12.4884    magn:   -4.2093    constr:    0.0000
     atom:   16    charge:    5.8275    magn:    0.1110    constr:    0.0000

     total cpu time spent up to now is     2286.1 secs

     End of self-consistent calculation
 --- enter write_ns ---
 LDA+U parameters:
U( 1)     =  3.00000000
alpha( 1) =  0.00000000
U( 2)     =  3.00000000
alpha( 2) =  0.00000000
atom    1   Tr[ns(na)] (up, down, total) =   0.46627  4.98574  5.45201
   spin  1
    eigenvalues: 
  0.055  0.057  0.059  0.147  0.150
    eigenvectors:
  0.001  0.000  0.001  0.564  0.435
  0.000  0.090  0.909  0.000  0.000
  0.005  0.906  0.089  0.000  0.000
  0.000  0.000  0.000  0.436  0.564
  0.994  0.004  0.001  0.000  0.001
    occupations:
  0.148 -0.002  0.001 -0.001  0.003
 -0.002  0.059 -0.001  0.000  0.000
  0.001 -0.001  0.057  0.000 -0.000
 -0.001  0.000  0.000  0.148 -0.002
  0.003  0.000 -0.000 -0.002  0.055
   spin  2
    eigenvalues: 
  0.997  0.997  0.997  0.997  0.998
    eigenvectors:
  0.064  0.002  0.693  0.109  0.133
  0.845  0.086  0.062  0.004  0.002
  0.086  0.910  0.002  0.001  0.000
  0.003  0.001  0.187  0.755  0.055
  0.001  0.001  0.057  0.131  0.810
    occupations:
  0.997 -0.000  0.000  0.000 -0.000
 -0.000  0.997  0.000 -0.000  0.000
  0.000  0.000  0.997 -0.000 -0.000
  0.000 -0.000 -0.000  0.997 -0.000
 -0.000  0.000 -0.000 -0.000  0.998
atomic mag. moment =    -4.519472
atom    3   Tr[ns(na)] (up, down, total) =   4.98823  0.46125  5.44947
   spin  1
    eigenvalues: 
  0.997  0.997  0.997  0.998  0.999
    eigenvectors:
  0.929  0.035  0.000  0.033  0.003
  0.030  0.000  0.223  0.747  0.000
  0.036  0.945  0.018  0.001  0.001
  0.002  0.019  0.758  0.219  0.001
  0.003  0.001  0.001  0.000  0.995
    occupations:
  0.997 -0.000 -0.000  0.000  0.000
 -0.000  0.998 -0.000 -0.000  0.000
 -0.000 -0.000  0.997 -0.000  0.000
  0.000 -0.000 -0.000  0.998  0.000
  0.000  0.000  0.000  0.000  0.999
   spin  2
    eigenvalues: 
  0.049  0.056  0.058  0.144  0.155
    eigenvectors:
  0.000  0.000  0.000  0.096  0.903
  0.000  0.973  0.026  0.001  0.000
  0.003  0.026  0.971  0.000  0.000
  0.000  0.001  0.000  0.903  0.096
  0.997  0.000  0.003  0.000  0.000
    occupations:
  0.154  0.001 -0.000 -0.003  0.001
  0.001  0.056 -0.000  0.003  0.000
 -0.000 -0.000  0.058 -0.001  0.000
 -0.003  0.003 -0.001  0.145 -0.000
  0.001  0.000  0.000 -0.000  0.049
atomic mag. moment =     4.526980
atom    5   Tr[ns(na)] (up, down, total) =   4.98624  0.47244  5.45868
   spin  1
    eigenvalues: 
  0.996  0.997  0.997  0.998  0.999
    eigenvectors:
  0.320  0.125  0.554  0.000  0.001
  0.033  0.873  0.094  0.000  0.000
  0.027  0.000  0.011  0.962  0.000
  0.621  0.001  0.341  0.037  0.000
  0.000  0.000  0.001  0.000  0.999
    occupations:
  0.997 -0.000 -0.000  0.000  0.000
 -0.000  0.997  0.000 -0.000  0.000
 -0.000  0.000  0.998  0.000 -0.000
  0.000 -0.000  0.000  0.996  0.000
  0.000  0.000 -0.000  0.000  0.999
   spin  2
    eigenvalues: 
  0.054  0.054  0.059  0.146  0.159
    eigenvectors:
  0.000  0.000  0.000  0.968  0.032
  0.005  0.000  0.995  0.000  0.000
  0.012  0.986  0.000  0.000  0.001
  0.000  0.001  0.000  0.032  0.967
  0.983  0.013  0.005  0.000  0.000
    occupations:
  0.146 -0.001 -0.000 -0.002  0.000
 -0.001  0.059  0.000  0.000  0.000
 -0.000  0.000  0.055 -0.004 -0.000
 -0.002  0.000 -0.004  0.158 -0.000
  0.000  0.000 -0.000 -0.000  0.054
atomic mag. moment =     4.513802
atom    7   Tr[ns(na)] (up, down, total) =   0.49455  4.98418  5.47873
   spin  1
    eigenvalues: 
  0.052  0.058  0.059  0.159  0.166
    eigenvectors:
  0.000  0.000  0.000  0.916  0.084
  0.000  0.994  0.006  0.000  0.000
  0.001  0.006  0.992  0.000  0.000
  0.000  0.000  0.000  0.084  0.916
  0.999  0.000  0.001  0.000  0.000
    occupations:
  0.159 -0.000 -0.002  0.002  0.000
 -0.000  0.058 -0.000 -0.001  0.000
 -0.002 -0.000  0.059 -0.001 -0.000
  0.002 -0.001 -0.001  0.166 -0.001
  0.000  0.000 -0.000 -0.001  0.052
   spin  2
    eigenvalues: 
  0.996  0.996  0.997  0.997  0.999
    eigenvectors:
  0.000  0.000  0.447  0.552  0.000
  0.975  0.000  0.015  0.009  0.000
  0.001  0.984  0.009  0.005  0.000
  0.023  0.015  0.528  0.434  0.000
  0.000  0.000  0.000  0.000  1.000
    occupations:
  0.997  0.000  0.000 -0.000 -0.000
  0.000  0.996  0.000 -0.000 -0.000
  0.000  0.000  0.996 -0.000 -0.000
 -0.000 -0.000 -0.000  0.997 -0.000
 -0.000 -0.000 -0.000 -0.000  0.999
atomic mag. moment =    -4.489624
atom    9   Tr[ns(na)] (up, down, total) =   4.98470  0.50115  5.48585
   spin  1
    eigenvalues: 
  0.995  0.996  0.996  0.999  0.999
    eigenvectors:
  0.391  0.165  0.443  0.000  0.001
  0.000  0.001  0.000  0.370  0.629
  0.000  0.000  0.000  0.630  0.370
  0.537  0.000  0.463  0.000  0.000
  0.072  0.834  0.094  0.000  0.000
    occupations:
  0.996  0.000 -0.000  0.000  0.000
  0.000  0.999 -0.000 -0.000 -0.000
 -0.000 -0.000  0.999 -0.000  0.000
  0.000 -0.000 -0.000  0.996  0.000
  0.000 -0.000  0.000  0.000  0.996
   spin  2
    eigenvalues: 
  0.052  0.057  0.059  0.158  0.175
    eigenvectors:
  0.000  0.001  0.000  0.272  0.727
  0.002  0.997  0.000  0.000  0.001
  0.998  0.002  0.000  0.000  0.000
  0.000  0.000  0.000  0.728  0.272
  0.000  0.000  1.000  0.000  0.000
    occupations:
  0.170 -0.003  0.001 -0.007  0.001
 -0.003  0.057 -0.000  0.001 -0.000
  0.001 -0.000  0.052  0.000 -0.000
 -0.007  0.001  0.000  0.163 -0.000
  0.001 -0.000 -0.000 -0.000  0.059
atomic mag. moment =     4.483543
atom   11   Tr[ns(na)] (up, down, total) =   4.98744  0.46404  5.45149
   spin  1
    eigenvalues: 
  0.996  0.997  0.997  0.998  0.999
    eigenvectors:
  0.840  0.069  0.087  0.000  0.003
  0.074  0.923  0.000  0.001  0.001
  0.013  0.004  0.209  0.774  0.000
  0.071  0.003  0.698  0.222  0.006
  0.002  0.000  0.005  0.003  0.989
    occupations:
  0.997  0.000  0.000  0.000  0.000
  0.000  0.997  0.000 -0.000 -0.000
  0.000  0.000  0.998 -0.000  0.000
  0.000 -0.000 -0.000  0.997  0.000
  0.000 -0.000  0.000  0.000  0.999
   spin  2
    eigenvalues: 
  0.049  0.055  0.060  0.146  0.154
    eigenvectors:
  0.000  0.000  0.000  0.017  0.983
  0.000  0.006  0.994  0.000  0.000
  0.002  0.992  0.006  0.001  0.000
  0.000  0.001  0.000  0.982  0.017
  0.998  0.002  0.000  0.000  0.000
    occupations:
  0.154 -0.002  0.000 -0.001  0.001
 -0.002  0.060 -0.000 -0.000 -0.000
  0.000 -0.000  0.055  0.002 -0.000
 -0.001 -0.000  0.002  0.146 -0.001
  0.001 -0.000 -0.000 -0.001  0.050
atomic mag. moment =     4.523398
atom   13   Tr[ns(na)] (up, down, total) =   4.98686  0.46927  5.45613
   spin  1
    eigenvalues: 
  0.997  0.997  0.997  0.998  0.999
    eigenvectors:
  0.163  0.038  0.720  0.078  0.000
  0.065  0.016  0.188  0.731  0.000
  0.236  0.762  0.000  0.001  0.001
  0.536  0.183  0.092  0.190  0.000
  0.000  0.001  0.000  0.000  0.999
    occupations:
  0.997  0.000  0.000  0.000  0.000
  0.000  0.997  0.000  0.000  0.000
  0.000  0.000  0.997 -0.000 -0.000
  0.000  0.000 -0.000  0.997 -0.000
  0.000  0.000 -0.000 -0.000  0.999
   spin  2
    eigenvalues: 
  0.053  0.056  0.057  0.145  0.158
    eigenvectors:
  0.000  0.001  0.000  0.945  0.054
  0.000  0.998  0.000  0.001  0.000
  0.040  0.000  0.960  0.000  0.000
  0.000  0.001  0.000  0.054  0.946
  0.960  0.000  0.040  0.000  0.000
    occupations:
  0.145 -0.003 -0.001 -0.003  0.000
 -0.003  0.057  0.000 -0.003  0.000
 -0.001  0.000  0.057 -0.000 -0.001
 -0.003 -0.003 -0.000  0.157 -0.000
  0.000  0.000 -0.001 -0.000  0.053
atomic mag. moment =     4.517588
atom   15   Tr[ns(na)] (up, down, total) =   0.47992  4.98348  5.46340
   spin  1
    eigenvalues: 
  0.056  0.058  0.060  0.150  0.156
    eigenvectors:
  0.000  0.000  0.000  0.515  0.484
  0.000  0.002  0.998  0.000  0.000
  0.018  0.980  0.002  0.000  0.000
  0.000  0.000  0.000  0.484  0.516
  0.982  0.018  0.000  0.000  0.000
    occupations:
  0.153 -0.001 -0.001 -0.003 -0.001
 -0.001  0.060  0.000 -0.001  0.000
 -0.001  0.000  0.058 -0.001 -0.000
 -0.003 -0.001 -0.001  0.153  0.001
 -0.001  0.000 -0.000  0.001  0.056
   spin  2
    eigenvalues: 
  0.996  0.996  0.996  0.997  0.998
    eigenvectors:
  0.661  0.083  0.081  0.116  0.058
  0.063  0.895  0.040  0.002  0.000
  0.001  0.015  0.580  0.402  0.001
  0.252  0.000  0.289  0.450  0.009
  0.022  0.007  0.009  0.030  0.931
    occupations:
  0.996  0.000 -0.000  0.000  0.000
  0.000  0.996  0.000 -0.000  0.000
 -0.000  0.000  0.997 -0.000 -0.000
  0.000 -0.000 -0.000  0.996  0.000
  0.000  0.000 -0.000  0.000  0.998
atomic mag. moment =    -4.503560
N of occupied +U levels =   43.695756
 --- exit write_ns ---

 ------ SPIN UP ------------


          k = 0.0000 0.0000 0.0000 (  5457 PWs)   bands (ev):

   -69.1938 -69.1877 -69.1388 -69.1159 -68.9410 -64.0995 -64.0464 -63.9655
   -38.0896 -38.0652 -38.0623 -38.0508 -38.0462 -38.0407 -38.0277 -38.0101
   -38.0032 -37.9906 -37.9734 -37.9674 -37.8371 -37.8037 -37.7931 -33.0863
   -33.0791 -33.0684 -33.0469 -33.0302 -33.0086 -32.9546 -32.9529 -32.9264
    -6.9507  -6.3354  -6.1868  -6.1479  -6.0125  -5.9657  -5.8302  -5.7413
     4.4320   4.4754   4.4807   4.4944   5.7640   5.8009   5.8840   5.9740
     6.0979   6.1307   6.1495   6.4213   6.6720   6.9695   7.2802   7.3269
     7.3876   7.6186   8.0564   8.0972   8.1841   8.2569   8.2930   8.3532
     8.3980   8.4029   8.4988   8.6189   8.6544   8.7324   8.7628   8.7871
     8.8487   8.9454   9.0459   9.1662   9.2294   9.2967   9.3166   9.3791
     9.4472   9.4828   9.5952  10.9202  11.1024  12.0574  12.0919  12.1689
    12.2246  12.3186  14.4482  14.9234  14.9556  15.3680  15.4041  15.4740
    15.4939  15.6660  15.7059  15.7225  15.9540  15.9954  16.1311  16.1615
    16.2057  16.3287  16.3669

          k =-0.1754 0.1750 0.1780 (  5454 PWs)   bands (ev):

   -69.1935 -69.1874 -69.1390 -69.1162 -68.9406 -64.0991 -64.0461 -63.9647
   -38.0895 -38.0643 -38.0617 -38.0501 -38.0458 -38.0405 -38.0276 -38.0103
   -38.0030 -37.9916 -37.9741 -37.9678 -37.8374 -37.8047 -37.7932 -33.0861
   -33.0789 -33.0669 -33.0478 -33.0306 -33.0105 -32.9552 -32.9531 -32.9268
    -6.8267  -6.3177  -6.2137  -6.1470  -6.0861  -6.0075  -5.8461  -5.7687
     4.7142   4.7574   4.7798   4.9126   5.8521   5.9066   5.9617   5.9794
     6.0237   6.0538   6.1644   6.4451   6.6291   6.6784   6.9235   7.1119
     7.3513   7.4742   7.5053   7.5331   7.6414   7.9242   8.0411   8.0788
     8.2324   8.3739   8.5051   8.5977   8.6952   8.7708   8.8662   8.9612
     9.0161   9.1362   9.1691   9.2359   9.2583   9.3489   9.4825   9.5905
     9.6796   9.9300   9.9687  10.9150  11.1017  11.5587  11.7226  11.7702
    11.8212  13.2808  14.5576  14.9611  15.0069  15.3608  15.3791  15.3912
    15.5213  15.5498  15.5756  15.6373  15.9077  15.9629  16.0035  16.1282
    16.4223  16.4789  17.1043

          k = 0.3509-0.3500-0.3560 (  5450 PWs)   bands (ev):

   -69.1932 -69.1871 -69.1393 -69.1164 -68.9403 -64.0988 -64.0457 -63.9638
   -38.0894 -38.0636 -38.0609 -38.0494 -38.0454 -38.0403 -38.0275 -38.0105
   -38.0028 -37.9927 -37.9750 -37.9681 -37.8378 -37.8056 -37.7932 -33.0861
   -33.0787 -33.0649 -33.0489 -33.0309 -33.0125 -32.9558 -32.9534 -32.9271
    -6.5419  -6.4975  -6.2430  -6.1496  -6.1172  -6.0638  -5.8605  -5.7825
     5.2708   5.3180   5.3967   5.5149   5.5916   5.6268   5.8184   6.0201
     6.1013   6.1857   6.2922   6.3818   6.5075   6.5741   6.6174   6.6647
     6.6840   6.7771   7.0478   7.4359   7.4927   7.7141   7.9166   8.0291
     8.2013   8.2218   8.3784   8.6956   8.7787   8.8253   8.9687   9.0228
     9.0824   9.0912   9.1134   9.2027   9.2538   9.2631   9.3291  10.4240
    10.5905  10.7341  10.7671  10.8060  10.8174  10.8965  11.0204  11.1278
    11.2354  14.5974  14.7428  14.8373  15.0376  15.1651  15.2520  15.2934
    15.3444  15.5854  15.6138  15.8463  15.8736  15.9179  15.9452  15.9725
    16.0589  16.1544  18.0986

          k = 0.1745-0.1722 0.1736 (  5417 PWs)   bands (ev):

   -69.1939 -69.1879 -69.1385 -69.1157 -68.9407 -64.0992 -64.0461 -63.9647
   -38.0894 -38.0645 -38.0619 -38.0501 -38.0456 -38.0404 -38.0278 -38.0104
   -38.0031 -37.9914 -37.9741 -37.9677 -37.8374 -37.8038 -37.7940 -33.0857
   -33.0789 -33.0672 -33.0475 -33.0306 -33.0107 -32.9548 -32.9531 -32.9270
    -6.8316  -6.3083  -6.2320  -6.1558  -6.0706  -6.0075  -5.8458  -5.7587
     4.7420   4.7541   4.7681   4.8615   5.8289   5.9137   5.9432   5.9725
     6.0015   6.0492   6.1661   6.4441   6.6533   6.6992   6.8713   7.1281
     7.3539   7.4701   7.5088   7.5592   7.6662   7.9587   8.0325   8.0954
     8.1982   8.4135   8.4891   8.5789   8.6999   8.7545   8.8279   8.9783
     9.0187   9.1304   9.1856   9.2282   9.2974   9.3388   9.4845   9.5940
     9.7133   9.9492   9.9969  10.9206  11.1079  11.5512  11.7257  11.7773
    11.8243  13.2697  14.5589  14.9872  15.0136  15.3849  15.3924  15.4255
    15.5308  15.5424  15.5728  15.6449  15.8858  15.9519  16.0033  16.1403
    16.4081  16.4608  17.0745

          k =-0.0010 0.0028 0.3516 (  5449 PWs)   bands (ev):

   -69.1942 -69.1881 -69.1392 -69.1164 -68.9399 -64.0984 -64.0453 -63.9644
   -38.0893 -38.0649 -38.0620 -38.0505 -38.0458 -38.0402 -38.0273 -38.0098
   -38.0027 -37.9902 -37.9733 -37.9671 -37.8379 -37.8049 -37.7942 -33.0870
   -33.0796 -33.0689 -33.0476 -33.0308 -33.0090 -32.9552 -32.9533 -32.9269
    -6.7996  -6.3343  -6.2195  -6.1658  -6.0589  -5.9897  -5.9051  -5.7483
     4.6856   4.7137   4.9295   4.9715   5.7500   5.8504   5.9645   6.0618
     6.0965   6.2223   6.2842   6.4931   6.5639   6.8096   6.9135   6.9672
     7.0546   7.2397   7.5292   7.6027   7.7346   7.7826   7.8999   8.2409
     8.3790   8.4250   8.4966   8.7672   8.8057   8.8173   8.8345   8.9101
     8.9395   8.9557   9.0846   9.2653   9.3120   9.3400   9.5527   9.5787
     9.6561   9.7310  10.1584  10.7861  11.0101  11.1008  11.1215  12.0798
    12.1245  13.6580  14.4219  14.9818  14.9995  15.3324  15.3949  15.4333
    15.4810  15.5254  15.5984  15.6641  15.8218  15.8602  16.0823  16.1825
    16.8380  16.9214  17.0814

          k = 0.5253-0.5222-0.1824 (  5456 PWs)   bands (ev):

   -69.1939 -69.1878 -69.1395 -69.1166 -68.9395 -64.0980 -64.0450 -63.9635
   -38.0892 -38.0641 -38.0614 -38.0498 -38.0455 -38.0401 -38.0271 -38.0099
   -38.0025 -37.9913 -37.9740 -37.9676 -37.8383 -37.8059 -37.7943 -33.0868
   -33.0794 -33.0675 -33.0485 -33.0312 -33.0109 -32.9558 -32.9535 -32.9272
    -6.5804  -6.3974  -6.2826  -6.2122  -6.0900  -6.0259  -5.9355  -5.7339
     5.0234   5.0710   5.5151   5.5674   5.6666   5.7536   5.9406   6.0208
     6.1005   6.1717   6.2036   6.3671   6.4441   6.5584   6.7643   6.8235
     6.8441   6.9916   7.1312   7.4811   7.5230   7.6240   7.8336   8.0059
     8.1072   8.2794   8.5356   8.6621   8.6854   8.7994   8.8894   8.9531
     9.0928   9.1323   9.1834   9.3991   9.4639   9.5653   9.6031   9.6260
     9.9251  10.1869  10.2286  10.5102  10.7126  10.8658  11.0146  11.6340
    11.7816  14.5227  14.7863  15.0294  15.0702  15.2442  15.2766  15.3849
    15.4991  15.5509  15.5656  15.6016  15.7197  15.9819  16.0365  16.0880
    16.2782  16.5448  17.5700

          k = 0.3499-0.3472-0.0044 (  5438 PWs)   bands (ev):

   -69.1936 -69.1876 -69.1387 -69.1159 -68.9403 -64.0988 -64.0458 -63.9639
   -38.0893 -38.0637 -38.0612 -38.0493 -38.0453 -38.0402 -38.0277 -38.0106
   -38.0030 -37.9925 -37.9749 -37.9681 -37.8378 -37.8048 -37.7940 -33.0857
   -33.0787 -33.0652 -33.0486 -33.0309 -33.0127 -32.9554 -32.9534 -32.9273
    -6.6565  -6.3210  -6.2972  -6.2029  -6.0786  -6.0553  -5.8948  -5.7410
     5.0651   5.2199   5.2801   5.3071   5.5495   5.8134   5.8794   5.9844
     6.0367   6.1401   6.2225   6.2675   6.5772   6.5987   6.6585   6.7458
     6.9387   7.1613   7.3337   7.4742   7.5994   7.6822   8.0091   8.1641
     8.2048   8.2542   8.2974   8.3690   8.7350   8.8665   8.9243   8.9914
     9.0954   9.1894   9.2560   9.3479   9.4220   9.4499   9.4727   9.5525
     9.6659  10.4334  10.6352  10.7870  10.8251  11.0329  11.1456  11.4934
    11.6159  14.3489  14.6857  15.0448  15.1375  15.2254  15.2565  15.3196
    15.4964  15.5508  15.6304  15.7122  15.8515  15.9135  15.9849  16.0615
    16.2848  16.3224  17.1844

          k =-0.3489 0.3444-0.3471 (  5444 PWs)   bands (ev):

   -69.1941 -69.1881 -69.1382 -69.1154 -68.9404 -64.0989 -64.0458 -63.9640
   -38.0892 -38.0638 -38.0614 -38.0493 -38.0451 -38.0400 -38.0279 -38.0107
   -38.0032 -37.9922 -37.9749 -37.9681 -37.8377 -37.8039 -37.7948 -33.0852
   -33.0787 -33.0656 -33.0483 -33.0310 -33.0129 -32.9550 -32.9534 -32.9276
    -6.5801  -6.4738  -6.2640  -6.1437  -6.0953  -6.0635  -5.8618  -5.7674
     5.2759   5.3057   5.3515   5.5155   5.5546   5.6230   5.7670   5.9388
     6.1164   6.1214   6.2723   6.3385   6.5364   6.5610   6.6388   6.6743
     6.7198   6.7644   7.1673   7.4513   7.5375   7.8104   7.8995   8.0796
     8.1288   8.2238   8.4485   8.6019   8.7573   8.7769   8.9815   9.0374
     9.0680   9.1481   9.1829   9.1877   9.2491   9.2739   9.3505  10.4707
    10.6089  10.7279  10.7801  10.8094  10.8326  10.9136  11.0512  11.0938
    11.2298  14.6173  14.7542  14.9147  15.0847  15.1630  15.2769  15.2842
    15.3239  15.5534  15.5976  15.8303  15.8712  15.9067  15.9428  15.9706
    16.0533  16.1454  18.0904

          k =-0.5243 0.5194-0.1691 (  5448 PWs)   bands (ev):

   -69.1943 -69.1883 -69.1389 -69.1161 -68.9396 -64.0981 -64.0450 -63.9636
   -38.0891 -38.0642 -38.0616 -38.0498 -38.0453 -38.0399 -38.0273 -38.0101
   -38.0027 -37.9911 -37.9740 -37.9675 -37.8383 -37.8050 -37.7951 -33.0864
   -33.0794 -33.0677 -33.0482 -33.0311 -33.0110 -32.9555 -32.9535 -32.9274
    -6.5958  -6.3614  -6.3255  -6.2035  -6.0844  -6.0215  -5.9343  -5.7284
     5.0185   5.0765   5.4856   5.5606   5.6322   5.7538   5.9212   5.9865
     6.0891   6.1559   6.1982   6.3722   6.4477   6.5555   6.7664   6.8175
     6.8805   7.0012   7.1904   7.4850   7.5124   7.6413   7.9022   7.9980
     8.0656   8.2699   8.5724   8.6408   8.6645   8.7827   8.9401   8.9481
     9.0540   9.1411   9.1898   9.4299   9.4780   9.5454   9.6137   9.6377
     9.9321  10.2005  10.2336  10.5304  10.7016  10.8722  11.0234  11.6298
    11.7792  14.5228  14.8015  15.0584  15.0827  15.2595  15.3171  15.4322
    15.4759  15.5273  15.5593  15.5956  15.6833  15.9765  16.0338  16.0805
    16.2625  16.5393  17.5740

          k = 0.0019-0.0056-0.7031 (  5452 PWs)   bands (ev):

   -69.1946 -69.1884 -69.1397 -69.1168 -68.9388 -64.0973 -64.0442 -63.9633
   -38.0889 -38.0646 -38.0618 -38.0502 -38.0455 -38.0398 -38.0268 -38.0094
   -38.0022 -37.9899 -37.9732 -37.9669 -37.8388 -37.8062 -37.7953 -33.0877
   -33.0801 -33.0695 -33.0483 -33.0314 -33.0093 -32.9559 -32.9537 -32.9273
    -6.5548  -6.4434  -6.2358  -6.2119  -6.1041  -6.0120  -5.9861  -5.7117
     4.8647   4.8858   5.5696   5.7532   5.8856   5.9062   5.9874   6.0210
     6.0724   6.1469   6.1982   6.2232   6.4053   6.4453   6.5085   6.7419
     7.0696   7.3438   7.3594   7.4120   7.4992   7.5725   8.2707   8.2848
     8.3069   8.3376   8.5214   8.5490   8.6187   8.6641   8.8347   8.8442
     8.9461   9.1201   9.1375   9.4641   9.5152   9.6940   9.7213   9.7720
     9.7772   9.7998   9.8299   9.8877  10.2122  10.7267  10.9063  12.0818
    12.1235  14.3896  14.7964  15.0171  15.0568  15.2521  15.3393  15.4060
    15.4102  15.5122  15.5877  15.6388  15.9086  15.9497  16.0350  16.2010
    16.8665  17.2032  17.3845

          k = 0.1786 0.1741-0.1779 (  5458 PWs)   bands (ev):

   -69.1938 -69.1874 -69.1389 -69.1157 -68.9407 -64.0987 -64.0461 -63.9652
   -38.0856 -38.0669 -38.0633 -38.0517 -38.0461 -38.0408 -38.0272 -38.0076
   -38.0030 -37.9896 -37.9759 -37.9687 -37.8373 -37.8046 -37.7934 -33.0867
   -33.0797 -33.0686 -33.0472 -33.0279 -33.0086 -32.9558 -32.9545 -32.9268
    -6.8279  -6.3094  -6.2043  -6.1526  -6.0797  -6.0184  -5.8731  -5.7490
     4.7128   4.7532   4.7729   4.9365   5.8795   5.8936   5.9637   6.0034
     6.0234   6.0819   6.0972   6.4521   6.6503   6.7333   6.9010   7.0932
     7.3314   7.4057   7.4887   7.5377   7.6678   7.9240   8.0300   8.1121
     8.2302   8.4518   8.5296   8.5681   8.7265   8.7415   8.8444   8.9325
     8.9692   9.1512   9.1691   9.1938   9.2690   9.3466   9.4851   9.5862
     9.6961   9.9248   9.9744  10.9272  11.0958  11.5260  11.7377  11.7762
    11.8311  13.2844  14.5485  14.9747  14.9988  15.3188  15.4411  15.4737
    15.5415  15.5485  15.5758  15.5909  15.8894  15.9203  15.9563  16.1111
    16.4240  16.5025  17.1800

          k = 0.0031 0.3491 0.0001 (  5439 PWs)   bands (ev):

   -69.1931 -69.1877 -69.1387 -69.1154 -68.9409 -64.0989 -64.0464 -63.9650
   -38.0856 -38.0666 -38.0628 -38.0512 -38.0458 -38.0408 -38.0275 -38.0079
   -38.0032 -37.9907 -37.9764 -37.9695 -37.8376 -37.8039 -37.7933 -33.0859
   -33.0793 -33.0670 -33.0474 -33.0281 -33.0104 -32.9561 -32.9543 -32.9270
    -6.7995  -6.3315  -6.1959  -6.1435  -6.0825  -6.0501  -5.8491  -5.7681
     4.7786   4.8188   4.8654   4.9500   5.7648   5.8495   5.8677   6.0616
     6.1374   6.1833   6.2100   6.3988   6.6399   6.6847   6.7819   6.8482
     7.0838   7.4199   7.4491   7.7273   7.9285   8.0025   8.0214   8.1658
     8.2428   8.4007   8.6129   8.6488   8.6989   8.7730   8.8620   8.8988
     8.9377   9.1362   9.1918   9.2258   9.2690   9.3590   9.4209   9.5263
     9.6735   9.8339   9.9276  10.7941  11.0150  11.0607  11.0748  12.1725
    12.2119  13.5997  14.6960  14.9818  15.0539  15.3558  15.3827  15.4036
    15.4371  15.4879  15.6692  15.6963  15.7280  15.8443  15.9807  16.1534
    16.7675  16.8762  16.9925

          k = 0.5294-0.1759-0.5339 (  5444 PWs)   bands (ev):

   -69.1928 -69.1874 -69.1389 -69.1156 -68.9406 -64.0985 -64.0460 -63.9641
   -38.0854 -38.0663 -38.0617 -38.0504 -38.0454 -38.0406 -38.0275 -38.0081
   -38.0030 -37.9916 -37.9769 -37.9702 -37.8379 -37.8049 -37.7934 -33.0859
   -33.0792 -33.0651 -33.0485 -33.0285 -33.0124 -32.9564 -32.9547 -32.9273
    -6.5799  -6.4042  -6.2401  -6.2165  -6.1051  -6.0707  -5.8704  -5.7705
     5.1599   5.2586   5.3869   5.5185   5.6482   5.7941   5.9296   5.9896
     6.0512   6.1091   6.1993   6.3154   6.4412   6.5236   6.5841   6.7408
     6.9065   7.0717   7.2113   7.2974   7.5728   7.7156   7.8278   8.1113
     8.2300   8.4131   8.5159   8.5612   8.7397   8.8828   8.9450   8.9879
     9.0620   9.1735   9.2193   9.2441   9.2601   9.3420   9.6325   9.8047
     9.9413  10.1006  10.2227  10.5205  10.7141  10.7753  11.0625  11.7233
    11.8273  14.7551  14.8918  15.0597  15.1835  15.2096  15.2642  15.2816
    15.3985  15.5116  15.5779  15.6093  15.6824  15.8179  15.9860  16.1108
    16.2716  16.5812  17.4015

          k = 0.3540-0.0009-0.3559 (  5458 PWs)   bands (ev):

   -69.1936 -69.1871 -69.1392 -69.1159 -68.9403 -64.0983 -64.0458 -63.9643
   -38.0854 -38.0666 -38.0623 -38.0510 -38.0457 -38.0406 -38.0271 -38.0078
   -38.0028 -37.9906 -37.9764 -37.9694 -37.8376 -37.8056 -37.7934 -33.0866
   -33.0795 -33.0672 -33.0481 -33.0283 -33.0105 -32.9561 -32.9550 -32.9271
    -6.6518  -6.3239  -6.2577  -6.2211  -6.0858  -6.0666  -5.8820  -5.7631
     5.0558   5.1211   5.3017   5.3352   5.6519   5.7685   5.9610   6.0673
     6.1650   6.2252   6.3350   6.4044   6.5677   6.5994   6.6436   6.7302
     6.8171   6.9461   7.0065   7.3036   7.5006   7.6692   7.8348   8.2244
     8.3284   8.4307   8.6241   8.6778   8.7776   8.8441   8.9069   8.9809
     9.0504   9.0978   9.1622   9.1897   9.2143   9.3987   9.4347   9.4912
     9.7003  10.6943  10.7220  10.7656  10.8663  10.9314  11.2159  11.4458
    11.5003  14.3678  14.6889  15.0261  15.0609  15.2158  15.3696  15.4049
    15.4524  15.5233  15.5869  15.7189  15.8044  15.8866  15.9729  16.0539
    16.1315  16.6580  16.9777

          k = 0.3530 0.0019-0.0043 (  5457 PWs)   bands (ev):

   -69.1936 -69.1872 -69.1382 -69.1159 -68.9409 -64.0989 -64.0463 -63.9649
   -38.0856 -38.0668 -38.0626 -38.0511 -38.0457 -38.0408 -38.0276 -38.0081
   -38.0031 -37.9906 -37.9765 -37.9693 -37.8369 -37.8044 -37.7937 -33.0860
   -33.0792 -33.0672 -33.0475 -33.0282 -33.0103 -32.9558 -32.9544 -32.9272
[...]
   -37.9817 -33.0263 -33.0040 -33.0013 -32.9841 -32.9823 -32.9746 -32.9715
   -32.9488 -32.9473 -32.9275 -32.9121 -32.9087 -32.8229 -32.7838 -32.7693
    -6.5793  -6.2493  -6.1133  -5.9756  -5.9478  -5.8335  -5.7392  -5.6522
     5.4190   5.4494   5.5985   5.6655   5.9509   6.0744   6.2639   6.4414
     6.4475   6.5075   6.6222   6.7460   6.9396   7.1061   7.3704   7.4363
     7.5773   7.6454   7.8896   7.9810   8.0968   8.2054   8.3440   8.5768
     8.7768   8.9308   8.9665   9.0411   9.1101   9.1703   9.2228   9.2748
     9.4313   9.5110  10.5299  10.6998  10.8080  10.9352  11.5110  14.3895
    14.5256  14.6605  14.6916  15.2020  15.2570  15.3173  15.4175  15.4467
    15.5188  15.5260  15.5567  15.6234  15.6501  15.6720  15.8122  15.9467
    15.9629  16.0230  16.0327  16.0732  16.1008  16.1139  16.1473  16.2041
    16.5018  17.1566  17.4001

          k =-0.1713 0.5213-0.1734 (  5444 PWs)   bands (ev):

   -69.2679 -69.1722 -69.1276 -64.0164 -64.0066 -63.9632 -63.9435 -63.8030
   -38.1394 -38.1385 -38.1231 -38.0543 -38.0421 -38.0289 -38.0029 -37.9996
   -37.9816 -33.0261 -33.0015 -33.0008 -32.9844 -32.9805 -32.9738 -32.9718
   -32.9489 -32.9481 -32.9291 -32.9132 -32.9093 -32.8234 -32.7833 -32.7694
    -6.5004  -6.3239  -6.0962  -6.0318  -5.9050  -5.8205  -5.7615  -5.6585
     5.5252   5.6398   5.7154   5.8193   5.9650   6.0570   6.1481   6.2377
     6.2947   6.5483   6.5881   6.7539   6.9990   7.1012   7.2615   7.3117
     7.5668   7.7384   7.7877   8.0668   8.2074   8.2593   8.3520   8.4989
     8.6299   8.7336   8.8962   9.1035   9.2147   9.2724   9.2857   9.3459
     9.4047   9.8380  10.0270  10.4659  10.7098  10.7617  11.7937  14.5838
    14.7853  14.8305  14.8900  15.0032  15.1974  15.2343  15.3279  15.4376
    15.4791  15.5061  15.5644  15.6019  15.6374  15.6546  15.6785  15.7727
    15.8245  15.8963  15.9175  16.0667  16.1395  16.3294  16.4236  16.5459
    16.6565  16.7046  17.8166

          k = 0.3550-0.0037-0.7074 (  5445 PWs)   bands (ev):

   -69.2686 -69.1729 -69.1278 -64.0161 -64.0064 -63.9624 -63.9426 -63.8038
   -38.1392 -38.1383 -38.1235 -38.0538 -38.0418 -38.0279 -38.0028 -37.9993
   -37.9817 -33.0261 -33.0023 -33.0014 -32.9846 -32.9820 -32.9748 -32.9718
   -32.9493 -32.9479 -32.9277 -32.9122 -32.9087 -32.8237 -32.7840 -32.7695
    -6.4254  -6.2831  -6.1356  -6.0943  -5.9929  -5.7914  -5.7446  -5.6422
     5.5174   5.5792   5.7544   5.8342   6.0925   6.1798   6.2267   6.3671
     6.5045   6.5867   6.6682   6.7394   6.8832   6.9389   7.0286   7.3575
     7.6101   7.6694   7.7908   8.0448   8.1630   8.2473   8.3115   8.4186
     8.7121   8.7444   8.8041   9.0207   9.1385   9.2613   9.3118   9.4132
     9.5300   9.6113   9.6767  10.3042  10.7618  11.3206  11.4240  14.4235
    14.7839  15.0900  15.1221  15.1409  15.1802  15.2330  15.2968  15.3132
    15.3762  15.4550  15.4945  15.5833  15.6058  15.6841  15.7034  15.7249
    15.7609  15.9793  16.0189  16.0562  16.1564  16.1757  16.3862  16.5910
    16.9064  17.0783  17.3216

          k = 0.1795 0.1713-0.5294 (  5440 PWs)   bands (ev):

   -69.2689 -69.1732 -69.1277 -64.0154 -64.0067 -63.9622 -63.9424 -63.8041
   -38.1390 -38.1386 -38.1239 -38.0535 -38.0419 -38.0271 -38.0030 -37.9992
   -37.9818 -33.0263 -33.0048 -33.0019 -32.9846 -32.9833 -32.9752 -32.9716
   -32.9492 -32.9473 -32.9261 -32.9114 -32.9078 -32.8232 -32.7845 -32.7693
    -6.5185  -6.2035  -6.1605  -6.0778  -5.9412  -5.8053  -5.7628  -5.6322
     5.3067   5.4406   5.8045   5.8346   6.0135   6.0737   6.2434   6.3646
     6.4783   6.5721   6.7979   6.9487   6.9981   7.1283   7.2232   7.2519
     7.3862   7.7254   7.9068   8.0000   8.0424   8.1755   8.3244   8.3891
     8.4446   8.7828   8.8814   8.8956   9.1656   9.2778   9.3404   9.5376
     9.5960   9.7380  10.0848  10.4895  10.7312  10.7798  11.7199  14.1505
    14.7860  14.8738  14.9152  15.1440  15.1990  15.2486  15.2982  15.4555
    15.4789  15.5402  15.5824  15.5945  15.6262  15.6422  15.7149  15.7386
    15.8440  15.8963  15.9056  16.1231  16.2594  16.3196  16.3906  16.5041
    16.6362  16.7069  18.0081

          k =-0.3571-0.3482 0.3558 (  5466 PWs)   bands (ev):

   -69.2686 -69.1724 -69.1269 -64.0156 -64.0076 -63.9625 -63.9432 -63.8033
   -38.1389 -38.1388 -38.1240 -38.0534 -38.0402 -38.0269 -38.0051 -38.0001
   -37.9824 -33.0147 -33.0112 -33.0054 -32.9856 -32.9835 -32.9750 -32.9716
   -32.9488 -32.9412 -32.9236 -32.9194 -32.9083 -32.8231 -32.7844 -32.7686
    -6.5221  -6.2609  -6.1971  -5.9839  -5.8582  -5.8406  -5.7742  -5.6606
     5.5672   5.6310   5.6766   5.9552   5.9959   6.0213   6.0911   6.3730
     6.4988   6.5667   6.5881   6.6356   6.7089   6.7609   7.1446   7.6410
     7.6813   7.7087   7.7677   7.9498   8.0766   8.3775   8.4160   8.4704
     8.5118   8.7957   8.9313   9.0260   9.0794   9.1484   9.1771   9.2378
     9.2737  10.4817  10.7723  10.8021  10.8837  10.8894  10.9384  14.5618
    14.6385  14.7219  14.7482  14.9292  15.0724  15.1864  15.2106  15.5021
    15.5533  15.5823  15.6282  15.7399  15.8802  15.9086  15.9271  15.9728
    15.9757  16.0199  16.0282  16.0731  16.0846  16.1274  16.1726  16.1757
    16.2150  16.2508  18.1917

          k =-0.5326-0.1732 0.5338 (  5449 PWs)   bands (ev):

   -69.2684 -69.1722 -69.1271 -64.0164 -64.0073 -63.9627 -63.9435 -63.8030
   -38.1391 -38.1385 -38.1236 -38.0537 -38.0403 -38.0277 -38.0049 -38.0002
   -37.9823 -33.0144 -33.0111 -33.0028 -32.9856 -32.9820 -32.9746 -32.9717
   -32.9489 -32.9420 -32.9248 -32.9196 -32.9098 -32.8236 -32.7839 -32.7687
    -6.5080  -6.2494  -6.1651  -5.9946  -5.9473  -5.8272  -5.7448  -5.6654
     5.5403   5.5979   5.7222   5.8562   5.9998   6.1218   6.1614   6.2735
     6.2991   6.5373   6.5879   6.7618   6.9857   7.0740   7.2349   7.3386
     7.5892   7.7367   7.7506   8.0238   8.2207   8.2594   8.3060   8.4260
     8.6474   8.7669   8.8926   9.1063   9.2289   9.2584   9.2682   9.3594
     9.3881   9.7876  10.0215  10.4596  10.7167  10.7614  11.7837  14.5546
    14.8046  14.8516  14.9029  14.9693  15.1931  15.2470  15.3366  15.4284
    15.4847  15.5130  15.5487  15.6130  15.6410  15.6706  15.6979  15.7401
    15.8149  15.8489  15.9030  16.0344  16.1324  16.3375  16.4383  16.5640
    16.6627  16.7097  17.7764

          k =-0.0063-0.6982-0.0002 (  5446 PWs)   bands (ev):

   -69.2681 -69.1719 -69.1273 -64.0171 -64.0069 -63.9629 -63.9437 -63.8027
   -38.1393 -38.1382 -38.1232 -38.0540 -38.0403 -38.0285 -38.0047 -38.0004
   -37.9821 -33.0140 -33.0111 -33.0001 -32.9859 -32.9802 -32.9739 -32.9721
   -32.9490 -32.9431 -32.9261 -32.9199 -32.9112 -32.8240 -32.7835 -32.7689
    -6.4439  -6.3475  -6.0809  -6.0451  -5.9055  -5.8519  -5.7569  -5.6741
     5.5215   5.5317   5.7429   5.8786   5.9255   5.9819   6.3525   6.4973
     6.5199   6.5407   6.6042   6.7433   6.7922   6.8215   7.3813   7.4375
     7.5583   7.6046   7.8200   8.2525   8.3039   8.3278   8.4085   8.4869
     8.6252   8.6785   8.7559   9.2317   9.3023   9.3335   9.3762   9.3792
     9.4862   9.5277   9.5803  10.0328  10.2967  10.6713  12.1984  14.5039
    14.8472  15.0793  15.1229  15.1826  15.2847  15.3088  15.3306  15.3554
    15.3944  15.3977  15.4164  15.4581  15.4727  15.4924  15.5407  15.6726
    15.7105  15.7158  15.7302  16.0287  16.1676  16.5225  16.9241  16.9462
    16.9526  17.2756  17.6772

          k =-0.1827-0.5204 0.5293 (  5450 PWs)   bands (ev):

   -69.2684 -69.1722 -69.1271 -64.0158 -64.0078 -63.9631 -63.9430 -63.8030
   -38.1390 -38.1386 -38.1236 -38.0536 -38.0402 -38.0278 -38.0050 -38.0002
   -37.9821 -33.0146 -33.0108 -33.0039 -32.9843 -32.9823 -32.9744 -32.9714
   -32.9496 -32.9417 -32.9240 -32.9202 -32.9103 -32.8227 -32.7846 -32.7690
    -6.4983  -6.2672  -6.1511  -5.9981  -5.9280  -5.8404  -5.7606  -5.6598
     5.5854   5.6052   5.7268   5.8252   6.0010   6.1218   6.1750   6.2632
     6.3225   6.5516   6.5899   6.7337   6.9938   7.0652   7.2630   7.3200
     7.5614   7.6752   7.7632   8.0445   8.1850   8.2547   8.3219   8.4668
     8.6535   8.7595   8.8706   9.0604   9.2060   9.2358   9.2987   9.3722
     9.4231   9.7957  10.0549  10.4191  10.7252  10.8193  11.7146  14.5710
    14.7452  14.8324  14.9269  14.9742  15.1897  15.2386  15.2807  15.4318
    15.5053  15.5537  15.5929  15.6094  15.6400  15.6862  15.7058  15.7459
    15.8135  15.8430  15.9095  16.0747  16.1474  16.2499  16.5339  16.5617
    16.5917  16.6472  17.8866

          k =-0.3581-0.3454 0.7073 (  5449 PWs)   bands (ev):

   -69.2686 -69.1724 -69.1269 -64.0161 -64.0071 -63.9630 -63.9428 -63.8033
   -38.1392 -38.1386 -38.1240 -38.0536 -38.0400 -38.0269 -38.0050 -38.0004
   -37.9823 -33.0144 -33.0114 -33.0042 -32.9870 -32.9834 -32.9754 -32.9709
   -32.9495 -32.9411 -32.9227 -32.9200 -32.9087 -32.8230 -32.7838 -32.7690
    -6.5674  -6.2180  -6.1479  -6.0382  -5.8911  -5.7983  -5.7687  -5.6637
     5.4380   5.5205   5.6787   5.7354   5.9110   6.0423   6.1227   6.3831
     6.4252   6.4633   6.6653   6.8430   6.9144   7.0013   7.1550   7.6142
     7.6765   7.7911   8.0892   8.1559   8.2105   8.2433   8.3209   8.3534
     8.6600   8.6792   8.7604   8.7834   9.0781   9.2708   9.2902   9.4114
     9.5008   9.6201  10.4458  10.6505  10.8314  10.9262  11.5457  14.4832
    14.6434  14.6898  14.7341  14.7634  15.2556  15.2851  15.3362  15.3967
    15.4366  15.5470  15.6789  15.7164  15.7687  15.8124  15.8745  15.9157
    15.9365  15.9782  16.0086  16.0208  16.0675  16.1280  16.1594  16.2370
    16.6519  16.9054  17.5216

          k = 0.1682-0.8704 0.1733 (  5450 PWs)   bands (ev):

   -69.2684 -69.1721 -69.1271 -64.0169 -64.0067 -63.9632 -63.9430 -63.8030
   -38.1394 -38.1383 -38.1236 -38.0539 -38.0400 -38.0277 -38.0048 -38.0005
   -37.9822 -33.0140 -33.0113 -33.0016 -32.9872 -32.9819 -32.9749 -32.9711
   -32.9495 -32.9420 -32.9240 -32.9202 -32.9101 -32.8235 -32.7833 -32.7691
    -6.5016  -6.2575  -6.1936  -5.9973  -5.8955  -5.8243  -5.7588  -5.6721
     5.5379   5.5907   5.7463   5.8370   5.9951   6.1014   6.1442   6.2927
     6.3015   6.5387   6.5940   6.7303   6.9794   7.0836   7.2614   7.3134
     7.5564   7.7111   7.8052   8.0579   8.1810   8.2843   8.3670   8.4605
     8.6336   8.7506   8.8633   9.1008   9.2188   9.2439   9.2673   9.3653
     9.3927   9.8267  10.0220  10.4524  10.6969  10.7722  11.7913  14.5958
    14.7833  14.8279  14.9236  14.9651  15.1766  15.2294  15.2750  15.4421
    15.4928  15.5387  15.5703  15.6083  15.6415  15.6742  15.6940  15.7518
    15.8143  15.8467  15.9070  16.0580  16.1403  16.3473  16.4361  16.5532
    16.6613  16.7121  17.7697

          k =-0.0072-0.6954 0.3513 (  5449 PWs)   bands (ev):

   -69.2681 -69.1719 -69.1273 -64.0166 -64.0075 -63.9634 -63.9432 -63.8027
   -38.1392 -38.1383 -38.1231 -38.0540 -38.0402 -38.0286 -38.0048 -38.0003
   -37.9820 -33.0143 -33.0107 -33.0013 -32.9845 -32.9804 -32.9738 -32.9718
   -32.9497 -32.9427 -32.9253 -32.9205 -32.9117 -32.8232 -32.7841 -32.7691
    -6.4089  -6.3193  -6.1283  -6.0691  -5.9129  -5.8697  -5.7493  -5.6533
     5.6715   5.7470   5.8201   5.8897   6.0239   6.1217   6.1388   6.3605
     6.5019   6.5742   6.6165   6.7004   6.7279   6.8295   6.9477   7.2567
     7.6870   7.7399   7.8165   7.8710   8.1799   8.2525   8.3470   8.4177
     8.8662   8.9837   9.0216   9.1156   9.2094   9.2562   9.2911   9.3262
     9.3889   9.4724   9.5806  10.2532  10.7692  11.3163  11.3943  14.7499
    14.7727  15.0430  15.1593  15.1969  15.2134  15.3093  15.3381  15.3704
    15.4077  15.4230  15.4517  15.5129  15.5490  15.5656  15.5788  15.6952
    15.7614  15.9723  15.9868  16.0449  16.1108  16.1412  16.3729  16.4433
    17.0368  17.1741  17.3275

          k =-0.7061-0.0037 0.0086 (  5466 PWs)   bands (ev):

   -69.2682 -69.1719 -69.1274 -64.0160 -64.0080 -63.9638 -63.9427 -63.8028
   -38.1391 -38.1385 -38.1231 -38.0539 -38.0401 -38.0288 -38.0050 -38.0002
   -37.9819 -33.0145 -33.0104 -33.0025 -32.9831 -32.9806 -32.9737 -32.9714
   -32.9504 -32.9424 -32.9244 -32.9211 -32.9123 -32.8223 -32.7848 -32.7694
    -6.4194  -6.3633  -6.0743  -6.0277  -5.9087  -5.8551  -5.8067  -5.6539
     5.5766   5.6032   5.6905   5.8453   5.9315   6.0117   6.3510   6.4928
     6.5324   6.5636   6.6094   6.7410   6.7993   6.8302   7.3564   7.3848
     7.5080   7.5822   7.8209   8.2427   8.2965   8.3701   8.4235   8.5121
     8.6036   8.6645   8.7076   9.2181   9.2949   9.3031   9.3621   9.4331
     9.4708   9.5685   9.6070   9.9806  10.3140  10.7436  12.1125  14.4974
    14.7608  15.0815  15.1630  15.2324  15.2813  15.3039  15.3445  15.3572
    15.3711  15.3927  15.4186  15.4675  15.4877  15.5040  15.5477  15.6847
    15.6963  15.7131  15.7256  16.0837  16.1417  16.4149  16.8842  16.8935
    17.0375  17.4757  17.6598

          k =-0.8815 0.1713 0.1866 (  5448 PWs)   bands (ev):

   -69.2684 -69.1722 -69.1271 -64.0163 -64.0073 -63.9637 -63.9425 -63.8030
   -38.1393 -38.1385 -38.1235 -38.0538 -38.0400 -38.0279 -38.0049 -38.0004
   -37.9820 -33.0142 -33.0110 -33.0027 -32.9858 -32.9822 -32.9747 -32.9708
   -32.9502 -32.9416 -32.9231 -32.9208 -32.9106 -32.8227 -32.7840 -32.7694
    -6.4963  -6.2607  -6.1892  -5.9858  -5.8884  -5.8360  -5.7894  -5.6565
     5.5589   5.6366   5.7294   5.8251   5.9821   6.1052   6.1713   6.2653
     6.3175   6.5409   6.5865   6.7280   7.0002   7.0648   7.2660   7.3146
     7.5624   7.7258   7.7575   8.0308   8.1771   8.2880   8.3391   8.4471
     8.6427   8.7501   8.8814   9.0858   9.2165   9.2369   9.3146   9.3551
     9.4137   9.7693  10.0587  10.4304  10.7362  10.8159  11.7118  14.5425
    14.7863  14.8568  14.9124  14.9672  15.1962  15.2321  15.3462  15.4137
    15.4974  15.5470  15.5635  15.6084  15.6420  15.6794  15.7023  15.7349
    15.8317  15.8402  15.9379  16.0438  16.1619  16.2407  16.5181  16.5579
    16.6002  16.6450  17.8982

          k =-0.3552-0.3537-0.3474 (  5446 PWs)   bands (ev):

   -69.2686 -69.1724 -69.1269 -64.0167 -64.0065 -63.9635 -63.9424 -63.8032
   -38.1395 -38.1384 -38.1239 -38.0538 -38.0398 -38.0270 -38.0049 -38.0006
   -37.9822 -33.0140 -33.0116 -33.0031 -32.9885 -32.9832 -32.9757 -32.9704
   -32.9501 -32.9410 -32.9219 -32.9205 -32.9090 -32.8230 -32.7832 -32.7694
    -6.5112  -6.3042  -6.1934  -5.9701  -5.8535  -5.8172  -5.7558  -5.6901
     5.5548   5.6289   5.7081   5.9306   5.9572   6.0051   6.0941   6.3680
     6.5271   6.5502   6.5961   6.6310   6.6759   6.7373   7.1606   7.6368
     7.6623   7.7341   7.7820   7.9805   8.1249   8.4043   8.4090   8.4520
     8.5377   8.7932   8.9134   9.0327   9.0960   9.1430   9.1688   9.2416
     9.2656  10.4768  10.7761  10.7852  10.8835  10.9214  10.9398  14.5681
    14.6535  14.7253  14.7482  14.9415  15.0753  15.1652  15.2098  15.5151
    15.5489  15.5789  15.6081  15.7409  15.8919  15.9088  15.9323  15.9808
    15.9965  16.0154  16.0264  16.0633  16.0950  16.1246  16.1521  16.1565
    16.1988  16.2861  18.2072

     the Fermi energy is    12.3556 ev

!    total energy              =   -1946.23745063 Ry
     Harris-Foulkes estimate   =   -1946.23745060 Ry
     estimated scf accuracy    <          2.3E-09 Ry

     The total energy is the sum of the following terms:

     one-electron contribution =    -900.39372572 Ry
     hartree contribution      =     533.59762107 Ry
     xc contribution           =    -269.83669353 Ry
     ewald contribution        =   -1309.98648640 Ry
     Hubbard energy            =       0.38203447 Ry
     smearing contrib. (-TS)   =      -0.00020052 Ry

     total magnetization       =    10.01 Bohr mag/cell
     absolute magnetization    =    38.43 Bohr mag/cell

     convergence has been achieved in  14 iterations

     Forces acting on atoms (Ry/au):


     negative rho (up, down):  6.036E-04 9.950E-04
     atom    1 type  2   force =   0.81705954E-02  0.67321232E-02  0.50959121E-02
     atom    2 type  3   force =  -0.72394297E-02  0.10550322E-01  0.78321595E-03
     atom    3 type  1   force =   0.29605819E-02 -0.28855876E-02 -0.48157501E-02
     atom    4 type  3   force =  -0.50304053E-02 -0.50526666E-02  0.56572628E-02
     atom    5 type  1   force =  -0.52517670E-02 -0.35236210E-02 -0.13262712E-01
     atom    6 type  3   force =  -0.71411037E-02 -0.20711137E-02  0.20008178E-02
     atom    7 type  2   force =   0.12654661E-01  0.20922182E-01 -0.10498090E-01
     atom    8 type  3   force =   0.10816032E-01 -0.65898149E-02 -0.91326599E-03
     atom    9 type  1   force =  -0.84385064E-02 -0.11461474E-01  0.22720721E-02
     atom   10 type  3   force =   0.24915688E-02 -0.52072236E-03 -0.10527345E-01
     atom   11 type  1   force =   0.32425666E-02 -0.91299327E-02  0.83523314E-02
     atom   12 type  3   force =   0.11036832E-01  0.63896761E-02  0.28629912E-02
     atom   13 type  1   force =  -0.58769686E-02  0.54348706E-04  0.10827885E-01
     atom   14 type  3   force =   0.64687924E-02  0.35676550E-02  0.54560574E-02
     atom   15 type  2   force =  -0.18255899E-01 -0.10712524E-01  0.47078968E-02
     atom   16 type  3   force =  -0.60754984E-03  0.37311489E-02 -0.79992792E-02

     Total force =     0.054901     Total SCF correction =     0.000107


     entering subroutine stress ...


     negative rho (up, down):  6.036E-04 9.950E-04
          total   stress  (Ry/bohr**3)                   (kbar)     P=  -26.00
  -0.0001428073   0.0000666699  -0.0000688727        -21.01      9.81    -10.13
   0.0000666699  -0.0001953559   0.0000396109          9.81    -28.74      5.83
  -0.0000688727   0.0000396109  -0.0001920610        -10.13      5.83    -28.25


     Writing output data file mno_fm.scf.in.super.222.sub.011.save

     init_run     :     59.55s CPU     61.76s WALL (       1 calls)
     electrons    :   2052.75s CPU   2224.08s WALL (       1 calls)
     forces       :    157.03s CPU    180.23s WALL (       1 calls)
     stress       :    472.73s CPU    539.07s WALL (       1 calls)

     Called by init_run:
     wfcinit      :     56.72s CPU     58.87s WALL (       1 calls)
     potinit      :      0.79s CPU      0.81s WALL (       1 calls)

     Called by electrons:
     c_bands      :   1836.71s CPU   1995.89s WALL (      14 calls)
     sum_band     :    208.22s CPU    220.06s WALL (      14 calls)
     v_of_rho     :      2.00s CPU      2.10s WALL (      15 calls)
     newd         :      5.22s CPU      5.27s WALL (      15 calls)
     mix_rho      :      0.85s CPU      0.96s WALL (      14 calls)

     Called by c_bands:
     init_us_2    :      8.99s CPU      9.74s WALL (    3024 calls)
     cegterg      :   1800.10s CPU   1957.36s WALL (    1008 calls)

     Called by *egterg:
     h_psi        :    941.38s CPU   1020.72s WALL (    3696 calls)
     s_psi        :    124.57s CPU    101.18s WALL (    4488 calls)
     g_psi        :      1.32s CPU      1.23s WALL (    2616 calls)
     cdiaghg      :    398.68s CPU    503.61s WALL (    3624 calls)

     Called by h_psi:
     add_vuspsi   :     95.49s CPU     80.48s WALL (    3696 calls)
     vhpsi        :     88.65s CPU    112.19s WALL (    3696 calls)

     General routines
     calbec       :    781.97s CPU    864.67s WALL (   53184 calls)
     fft          :      1.61s CPU      1.71s WALL (     499 calls)
     ffts         :      0.49s CPU      0.59s WALL (     357 calls)
     fftw         :    702.10s CPU    791.51s WALL (  627420 calls)
     interpolate  :      0.25s CPU      0.31s WALL (      58 calls)
     davcio       :      0.01s CPU      0.26s WALL (      72 calls)

     Parallel routines
     fft_scatter  :    287.95s CPU    324.61s WALL (  628276 calls)
     Hubbard U routines
     new_ns       :     19.76s CPU     21.44s WALL (      14 calls)
     vhpsi        :     88.65s CPU    112.19s WALL (    3696 calls)
     force_hub    :    140.07s CPU    165.36s WALL (       1 calls)
     stres_hub    :    437.22s CPU    503.48s WALL (       1 calls)

     PWSCF        : 45m46.53s CPU    50m11.01s WALL


   This run was terminated on:  10:43:45  17Aug2017            

=------------------------------------------------------------------------------=
   JOB DONE.
=------------------------------------------------------------------------------=
