
     Program PWSCF v.5.1 starts on  9Mar2018 at 14: 2:47 

     This program is part of the open-source Quantum ESPRESSO suite
     for quantum simulation of materials; please cite
         "P. Giannozzi et al., J. Phys.:Condens. Matter 21 395502 (2009);
          URL http://www.quantum-espresso.org", 
     in publications or presentations arising from this work. More details at
     http://www.quantum-espresso.org/quote

     Parallel version (MPI), running on     1 processors
     Waiting for input...
     Reading input from standard input
Warning: card &IONS ignored
Warning: card   ION_DYNAMICS='BFGS', ignored
Warning: card / ignored
Warning: card &CELL ignored
Warning: card  CELL_DYNAMICS = 'BFGS' ignored
Warning: card / ignored

     Current dimensions of program PWSCF are:
     Max number of different atomic species (ntypx) = 10
     Max number of k-points (npk) =  40000
     Max angular momentum in pseudopotentials (lmaxx) =  3
 kfg - two_fermi_energies  T

     Subspace diagonalization in iterative solution of the eigenvalue problem:
     a serial algorithm will be used

     Found symmetry operation: I + ( -0.5000 -0.5000 -0.5000)
     This is a supercell, fractional translations are disabled

     G-vector sticks info
     --------------------
     sticks:   dense  smooth     PW     G-vecs:    dense   smooth      PW
     Sum         961     781    265                14661    10773    2123

     Generating pointlists ...
     new r_m :   0.1684 (alat units)  1.7495 (a.u.) for type    1
     new r_m :   0.1684 (alat units)  1.7495 (a.u.) for type    2


     bravais-lattice index     =            0
     lattice parameter (alat)  =    10.388967996  a.u.
     unit-cell volume          =     305.1760 (a.u.)^3
     number of atoms/cell      =            4
     number of atomic types    =            2
     number of electrons       =        42.00 (up:  26.00, down:  16.00)
     number of Kohn-Sham states=           31
     kinetic-energy cutoff     =      41.0000  Ry
     charge density cutoff     =     200.0000  Ry
     convergence threshold     =      1.0E-08
     mixing beta               =       0.3000
     number of iterations used =            8  local-TF  mixing
     Exchange-correlation      = SLA  PW   PSX  PSC ( 1  4 10  8 0)
     A smooth kinetic-energy cutoff is imposed at      40.0000 Ry
     height of the smooth step-function =             800.0000 Ry
     width of the smooth step-function  =               1.0000 Ry


     celldm(1)=  10.388968  celldm(2)=   0.000000  celldm(3)=   0.000000
     celldm(4)=   0.000000  celldm(5)=   0.000000  celldm(6)=   0.000000

     crystal axes: (cart. coord. in units of alat)
               a(1) = (   0.816496580928   0.408248290464   0.408248290464 )  
               a(2) = (   0.408248290464   0.816496580928   0.408248290464 )  
               a(3) = (   0.408248290464   0.408248290464   0.816496580928 )  

     reciprocal axes: (cart. coord. in units 2 pi/alat)
               b(1) = (  1.837117 -0.612372 -0.612372 )  
               b(2) = ( -0.612372  1.837117 -0.612372 )  
               b(3) = ( -0.612372 -0.612372  1.837117 )  


     PseudoPot. # 1 for Mn read from file:
     /users/kfg/psuedo/gbrv_1.5/mn.pbesol.UPF
     MD5 check sum: 0716d5f563e6e95a34f9080f4c78c109
     Pseudo is Ultrasoft + core correction, Zval = 15.0
     Generated by new atomic code, or converted to UPF format
     Using radial grid of  859 points,  6 beta functions with: 
                l(1) =   0
                l(2) =   0
                l(3) =   1
                l(4) =   1
                l(5) =   2
                l(6) =   2
     Q(r) pseudized with  8 coefficients,  rinner =    0.950   0.950   0.950
                                                       0.950   0.950

     PseudoPot. # 2 for O  read from file:
     /users/kfg/psuedo/gbrv_1.5/o.pbesol.UPF
     MD5 check sum: 501638753501ef6325af9037351f7734
     Pseudo is Ultrasoft + core correction, Zval =  6.0
     Generated by new atomic code, or converted to UPF format
     Using radial grid of  737 points,  5 beta functions with: 
                l(1) =   0
                l(2) =   0
                l(3) =   1
                l(4) =   1
                l(5) =   2
     Q(r) pseudized with  8 coefficients,  rinner =    0.900   0.900   0.900
                                                       0.900   0.900

     atomic species   valence    mass     pseudopotential
        Mn            15.00    54.90000     Mn( 1.00)
        O              6.00    15.99900     O ( 1.00)

     Starting magnetic structure 
     atomic species   magnetization
        Mn           1.000
        O            0.000


     Simplified LDA+U calculation (l_max = 2) with parameters (eV):
     atomic species    L          U    alpha       J0     beta
        Mn             2     3.0000   0.0000   0.0000   0.0000



     12 Sym. Ops., with inversion, found



   Cartesian axes

     site n.     atom                  positions (alat units)
         1           Mn  tau(   1) = (    0.00000000000    0.00000000000    0.00000000000  )
         2           O   tau(   2) = (    0.40824829210    0.40824829210    0.40824829210  )
         3           Mn  tau(   3) = (    0.81649658093    0.81649658093    0.81649658093  )
         4           O   tau(   4) = (    1.22474486976    1.22474486976    1.22474486976  )

     number of k points=    64  gaussian smearing, width (Ry)=  0.0100
                       cart. coord. in units 2pi/alat
        k(    1) = (   0.0000000   0.0000000   0.0000000), wk =   0.0046296
        k(    2) = (  -0.1020621  -0.1020621   0.3061862), wk =   0.0277778
        k(    3) = (  -0.2041241  -0.2041241   0.6123724), wk =   0.0277778
        k(    4) = (   0.3061862   0.3061862  -0.9185587), wk =   0.0138889
        k(    5) = (  -0.2041241   0.2041241   0.2041241), wk =   0.0277778
        k(    6) = (  -0.3061862   0.1020621   0.5103104), wk =   0.0555556
        k(    7) = (   0.2041241   0.6123724  -1.0206207), wk =   0.0555556
        k(    8) = (   0.1020621   0.5103104  -0.7144345), wk =   0.0555556
        k(    9) = (  -0.0000000   0.4082483  -0.4082483), wk =   0.0277778
        k(   10) = (  -0.4082483   0.4082483   0.4082483), wk =   0.0277778
        k(   11) = (   0.1020621   0.9185587  -1.1226828), wk =   0.0555556
        k(   12) = (   0.0000000   0.8164966  -0.8164966), wk =   0.0277778
        k(   13) = (   0.6123724  -0.6123724  -0.6123724), wk =   0.0138889
        k(   14) = (   0.1020621   0.1020621   0.1020621), wk =   0.0092593
        k(   15) = (  -0.0000000  -0.0000000   0.4082483), wk =   0.0277778
        k(   16) = (   0.5103104   0.5103104  -1.1226828), wk =   0.0277778
        k(   17) = (   0.4082483   0.4082483  -0.8164966), wk =   0.0277778
        k(   18) = (   0.3061862   0.3061862  -0.5103104), wk =   0.0277778
        k(   19) = (  -0.1020621   0.3061862   0.3061862), wk =   0.0277778
        k(   20) = (   0.4082483   0.8164966  -1.2247449), wk =   0.0555556
        k(   21) = (   0.3061862   0.7144345  -0.9185587), wk =   0.0555556
        k(   22) = (   0.2041241   0.6123724  -0.6123724), wk =   0.0555556
        k(   23) = (   0.9185587  -0.7144345  -0.7144345), wk =   0.0277778
        k(   24) = (   0.8164966  -0.8164966  -0.4082483), wk =   0.0555556
        k(   25) = (   0.7144345  -0.9185587  -0.1020621), wk =   0.0277778
        k(   26) = (   0.7144345  -0.5103104  -0.5103104), wk =   0.0277778
        k(   27) = (   0.2041241   0.2041241   0.2041241), wk =   0.0092593
        k(   28) = (   0.7144345   0.7144345  -1.3268069), wk =   0.0277778
        k(   29) = (   0.6123724   0.6123724  -1.0206207), wk =   0.0277778
        k(   30) = (   1.2247449  -0.8164966  -0.8164966), wk =   0.0277778
        k(   31) = (   1.1226828  -0.9185587  -0.5103104), wk =   0.0277778
        k(   32) = (  -0.3061862  -0.3061862  -0.3061862), wk =   0.0046296
        k(   33) = (   0.0000000   0.0000000   0.0000000), wk =   0.0046296
        k(   34) = (  -0.1020621  -0.1020621   0.3061862), wk =   0.0277778
        k(   35) = (  -0.2041241  -0.2041241   0.6123724), wk =   0.0277778
        k(   36) = (   0.3061862   0.3061862  -0.9185587), wk =   0.0138889
        k(   37) = (  -0.2041241   0.2041241   0.2041241), wk =   0.0277778
        k(   38) = (  -0.3061862   0.1020621   0.5103104), wk =   0.0555556
        k(   39) = (   0.2041241   0.6123724  -1.0206207), wk =   0.0555556
        k(   40) = (   0.1020621   0.5103104  -0.7144345), wk =   0.0555556
        k(   41) = (  -0.0000000   0.4082483  -0.4082483), wk =   0.0277778
        k(   42) = (  -0.4082483   0.4082483   0.4082483), wk =   0.0277778
        k(   43) = (   0.1020621   0.9185587  -1.1226828), wk =   0.0555556
        k(   44) = (   0.0000000   0.8164966  -0.8164966), wk =   0.0277778
        k(   45) = (   0.6123724  -0.6123724  -0.6123724), wk =   0.0138889
        k(   46) = (   0.1020621   0.1020621   0.1020621), wk =   0.0092593
        k(   47) = (  -0.0000000  -0.0000000   0.4082483), wk =   0.0277778
        k(   48) = (   0.5103104   0.5103104  -1.1226828), wk =   0.0277778
        k(   49) = (   0.4082483   0.4082483  -0.8164966), wk =   0.0277778
        k(   50) = (   0.3061862   0.3061862  -0.5103104), wk =   0.0277778
        k(   51) = (  -0.1020621   0.3061862   0.3061862), wk =   0.0277778
        k(   52) = (   0.4082483   0.8164966  -1.2247449), wk =   0.0555556
        k(   53) = (   0.3061862   0.7144345  -0.9185587), wk =   0.0555556
        k(   54) = (   0.2041241   0.6123724  -0.6123724), wk =   0.0555556
        k(   55) = (   0.9185587  -0.7144345  -0.7144345), wk =   0.0277778
        k(   56) = (   0.8164966  -0.8164966  -0.4082483), wk =   0.0555556
        k(   57) = (   0.7144345  -0.9185587  -0.1020621), wk =   0.0277778
        k(   58) = (   0.7144345  -0.5103104  -0.5103104), wk =   0.0277778
        k(   59) = (   0.2041241   0.2041241   0.2041241), wk =   0.0092593
        k(   60) = (   0.7144345   0.7144345  -1.3268069), wk =   0.0277778
        k(   61) = (   0.6123724   0.6123724  -1.0206207), wk =   0.0277778
        k(   62) = (   1.2247449  -0.8164966  -0.8164966), wk =   0.0277778
        k(   63) = (   1.1226828  -0.9185587  -0.5103104), wk =   0.0277778
        k(   64) = (  -0.3061862  -0.3061862  -0.3061862), wk =   0.0046296

     Dense  grid:    14661 G-vectors     FFT dimensions: (  48,  48,  48)

     Smooth grid:    10773 G-vectors     FFT dimensions: (  45,  45,  45)

     Largest allocated arrays     est. size (Mb)     dimensions
        Kohn-Sham Wavefunctions         0.65 Mb     (    1368,   31)
        Atomic Hubbard wavefuncts       0.21 Mb     (    1368,   10)
        NL pseudopotentials             1.29 Mb     (    1368,   62)
        Each V/rho on FFT grid          3.38 Mb     (  110592,   2)
        Each G-vector array             0.11 Mb     (   14661)
        G-vector shells                 0.00 Mb     (     307)
     Largest temporary arrays     est. size (Mb)     dimensions
        Auxiliary wavefunctions         2.59 Mb     (    1368,  124)
        Each subspace H/S matrix        0.23 Mb     (     124,  124)
        Each <psi_i|beta_j> matrix      0.03 Mb     (      62,   31)
        Arrays for rho mixing          13.50 Mb     (  110592,    8)

     Check: negative/imaginary core charge=   -0.000056    0.000000

     Initial potential from superposition of free atoms

     starting charge   40.99984, renormalised to   42.00000
     Number of +U iterations with fixed ns =  0
     Starting occupations:
 --- enter write_ns ---
 LDA+U parameters:
U( 1)     =  3.00000000
alpha( 1) =  0.00000000
atom    1   Tr[ns(na)] (up, down, total) =   5.00000  0.00000  5.00000
   spin  1
    eigenvalues: 
  1.000  1.000  1.000  1.000  1.000
    eigenvectors:
  1.000  0.000  0.000  0.000  0.000
  0.000  1.000  0.000  0.000  0.000
  0.000  0.000  1.000  0.000  0.000
  0.000  0.000  0.000  1.000  0.000
  0.000  0.000  0.000  0.000  1.000
    occupations:
  1.000  0.000  0.000  0.000  0.000
  0.000  1.000  0.000  0.000  0.000
  0.000  0.000  1.000  0.000  0.000
  0.000  0.000  0.000  1.000  0.000
  0.000  0.000  0.000  0.000  1.000
   spin  2
    eigenvalues: 
  0.000  0.000  0.000  0.000  0.000
    eigenvectors:
  1.000  0.000  0.000  0.000  0.000
  0.000  1.000  0.000  0.000  0.000
  0.000  0.000  1.000  0.000  0.000
  0.000  0.000  0.000  1.000  0.000
  0.000  0.000  0.000  0.000  1.000
    occupations:
  0.000  0.000  0.000  0.000  0.000
  0.000  0.000  0.000  0.000  0.000
  0.000  0.000  0.000  0.000  0.000
  0.000  0.000  0.000  0.000  0.000
  0.000  0.000  0.000  0.000  0.000
atomic mag. moment =     5.000000
atom    3   Tr[ns(na)] (up, down, total) =   5.00000  0.00000  5.00000
   spin  1
    eigenvalues: 
  1.000  1.000  1.000  1.000  1.000
    eigenvectors:
  1.000  0.000  0.000  0.000  0.000
  0.000  1.000  0.000  0.000  0.000
  0.000  0.000  1.000  0.000  0.000
  0.000  0.000  0.000  1.000  0.000
  0.000  0.000  0.000  0.000  1.000
    occupations:
  1.000  0.000  0.000  0.000  0.000
  0.000  1.000  0.000  0.000  0.000
  0.000  0.000  1.000  0.000  0.000
  0.000  0.000  0.000  1.000  0.000
  0.000  0.000  0.000  0.000  1.000
   spin  2
    eigenvalues: 
  0.000  0.000  0.000  0.000  0.000
    eigenvectors:
  1.000  0.000  0.000  0.000  0.000
  0.000  1.000  0.000  0.000  0.000
  0.000  0.000  1.000  0.000  0.000
  0.000  0.000  0.000  1.000  0.000
  0.000  0.000  0.000  0.000  1.000
    occupations:
  0.000  0.000  0.000  0.000  0.000
  0.000  0.000  0.000  0.000  0.000
  0.000  0.000  0.000  0.000  0.000
  0.000  0.000  0.000  0.000  0.000
  0.000  0.000  0.000  0.000  0.000
atomic mag. moment =     5.000000
N of occupied +U levels =   10.000000
 --- exit write_ns ---
 Atomic wfc used for LDA+U Projector are NOT orthogonalized
     Starting wfc are   34 randomized atomic wfcs

     total cpu time spent up to now is       22.7 secs

     per-process dynamical memory:    83.4 Mb

     Self-consistent Calculation

     iteration #  1     ecut=    41.00 Ry     beta=0.30
     Davidson diagonalization with overlap
     ethr =  1.00E-02,  avg # of iterations =  3.1
 --- enter write_ns ---
 LDA+U parameters:
U( 1)     =  3.00000000
alpha( 1) =  0.00000000
atom    1   Tr[ns(na)] (up, down, total) =   4.98776  0.19331  5.18107
   spin  1
    eigenvalues: 
  0.997  0.997  0.998  0.998  0.998
    eigenvectors:
  0.174  0.826  0.000  0.000  0.000
  0.000  0.000  0.333  0.232  0.435
  0.000  0.000  0.333  0.109  0.557
  0.826  0.174  0.000  0.000  0.000
  0.000  0.000  0.333  0.659  0.008
    occupations:
  0.997  0.000  0.000 -0.000  0.000
  0.000  0.998 -0.000  0.000  0.000
  0.000 -0.000  0.998 -0.000  0.000
 -0.000  0.000 -0.000  0.997 -0.000
  0.000  0.000  0.000 -0.000  0.998
   spin  2
    eigenvalues: 
  0.021  0.021  0.021  0.066  0.066
    eigenvectors:
  0.000  0.000  0.000  0.134  0.866
  0.389  0.278  0.333  0.000  0.000
  0.021  0.646  0.333  0.000  0.000
  0.000  0.000  0.000  0.866  0.134
  0.590  0.077  0.333  0.000  0.000
    occupations:
  0.066  0.000  0.000 -0.000  0.000
  0.000  0.021  0.000  0.000 -0.000
  0.000  0.000  0.021 -0.000 -0.000
 -0.000  0.000 -0.000  0.066 -0.000
  0.000 -0.000 -0.000 -0.000  0.021
atomic mag. moment =     4.794446
atom    3   Tr[ns(na)] (up, down, total) =   4.98775  0.19329  5.18105
   spin  1
    eigenvalues: 
  0.997  0.997  0.998  0.998  0.998
    eigenvectors:
  0.115  0.885  0.000  0.000  0.000
  0.000  0.000  0.333  0.212  0.455
  0.000  0.000  0.333  0.125  0.541
  0.885  0.115  0.000  0.000  0.000
  0.000  0.000  0.333  0.663  0.004
    occupations:
  0.997  0.000  0.000 -0.000  0.000
  0.000  0.998 -0.000  0.000  0.000
  0.000 -0.000  0.998 -0.000  0.000
 -0.000  0.000 -0.000  0.997 -0.000
  0.000  0.000  0.000 -0.000  0.998
   spin  2
    eigenvalues: 
  0.021  0.021  0.021  0.066  0.066
    eigenvectors:
  0.000  0.000  0.000  0.127  0.873
  0.187  0.480  0.333  0.000  0.000
  0.147  0.520  0.333  0.000  0.000
  0.000  0.000  0.000  0.873  0.127
  0.666  0.001  0.333  0.000  0.000
    occupations:
  0.066 -0.000 -0.000 -0.000 -0.000
 -0.000  0.021  0.000 -0.000 -0.000
 -0.000  0.000  0.021  0.000 -0.000
 -0.000 -0.000  0.000  0.066 -0.000
 -0.000 -0.000 -0.000 -0.000  0.021
atomic mag. moment =     4.794459
N of occupied +U levels =   10.362115
 --- exit write_ns ---

     negative rho (up, down):  0.000E+00 1.615E-04

     Magnetic moment per site:
     atom:    1    charge:   12.8384    magn:   10.2884    constr:    0.0000
     atom:    2    charge:    5.7475    magn:    0.1983    constr:    0.0000
     atom:    3    charge:   12.8385    magn:   10.2884    constr:    0.0000
     atom:    4    charge:    5.7475    magn:    0.1983    constr:    0.0000

     total cpu time spent up to now is       77.3 secs

     total energy              =    -484.45784312 Ry
     Harris-Foulkes estimate   =    -480.26076668 Ry
     estimated scf accuracy    <       6.41179922 Ry

     total magnetization       =    10.00 Bohr mag/cell
     absolute magnetization    =    10.45 Bohr mag/cell

     iteration #  2     ecut=    41.00 Ry     beta=0.30
     Davidson diagonalization with overlap
     ethr =  1.00E-02,  avg # of iterations =  1.1

     negative rho (up, down):  0.000E+00 5.902E-04

     Magnetic moment per site:
     atom:    1    charge:   12.7194    magn:    4.5660    constr:    0.0000
     atom:    2    charge:    5.9742    magn:   -0.0459    constr:    0.0000
     atom:    3    charge:   12.7194    magn:    4.5660    constr:    0.0000
     atom:    4    charge:    5.9742    magn:   -0.0459    constr:    0.0000

     total cpu time spent up to now is      119.9 secs

     total energy              =    -486.41049424 Ry
     Harris-Foulkes estimate   =    -484.52342147 Ry
     estimated scf accuracy    <       3.16532482 Ry

     total magnetization       =    10.00 Bohr mag/cell
     absolute magnetization    =    10.31 Bohr mag/cell

     iteration #  3     ecut=    41.00 Ry     beta=0.30
     Davidson diagonalization with overlap
     ethr =  7.54E-03,  avg # of iterations =  1.8

     negative rho (up, down):  0.000E+00 6.418E-04

     Magnetic moment per site:
     atom:    1    charge:   12.6523    magn:    4.3133    constr:    0.0000
     atom:    2    charge:    5.9581    magn:    0.0663    constr:    0.0000
     atom:    3    charge:   12.6523    magn:    4.3132    constr:    0.0000
     atom:    4    charge:    5.9581    magn:    0.0663    constr:    0.0000

     total cpu time spent up to now is      166.4 secs

     total energy              =    -486.53895312 Ry
     Harris-Foulkes estimate   =    -486.56453299 Ry
     estimated scf accuracy    <       0.09167435 Ry

     total magnetization       =    10.00 Bohr mag/cell
     absolute magnetization    =    10.00 Bohr mag/cell

     iteration #  4     ecut=    41.00 Ry     beta=0.30
     Davidson diagonalization with overlap
     ethr =  2.18E-04,  avg # of iterations =  2.1

     negative rho (up, down):  0.000E+00 6.550E-04

     Magnetic moment per site:
     atom:    1    charge:   12.6392    magn:    4.2251    constr:    0.0000
     atom:    2    charge:    5.9669    magn:    0.0834    constr:    0.0000
     atom:    3    charge:   12.6392    magn:    4.2251    constr:    0.0000
     atom:    4    charge:    5.9669    magn:    0.0834    constr:    0.0000

     total cpu time spent up to now is      214.4 secs

     total energy              =    -486.55257543 Ry
     Harris-Foulkes estimate   =    -486.55355325 Ry
     estimated scf accuracy    <       0.00703071 Ry

     total magnetization       =    10.00 Bohr mag/cell
     absolute magnetization    =    10.00 Bohr mag/cell

     iteration #  5     ecut=    41.00 Ry     beta=0.30
     Davidson diagonalization with overlap
     ethr =  1.67E-05,  avg # of iterations =  2.4

     negative rho (up, down):  0.000E+00 6.685E-04

     Magnetic moment per site:
     atom:    1    charge:   12.6051    magn:    4.2924    constr:    0.0000
     atom:    2    charge:    5.9759    magn:    0.1581    constr:    0.0000
     atom:    3    charge:   12.6051    magn:    4.2924    constr:    0.0000
     atom:    4    charge:    5.9759    magn:    0.1581    constr:    0.0000

     total cpu time spent up to now is      259.7 secs

     total energy              =    -486.55281875 Ry
     Harris-Foulkes estimate   =    -486.55294855 Ry
     estimated scf accuracy    <       0.00309053 Ry

     total magnetization       =    10.00 Bohr mag/cell
     absolute magnetization    =    10.00 Bohr mag/cell

     iteration #  6     ecut=    41.00 Ry     beta=0.30
     Davidson diagonalization with overlap
     ethr =  7.36E-06,  avg # of iterations =  2.0

     negative rho (up, down):  0.000E+00 6.685E-04

     Magnetic moment per site:
     atom:    1    charge:   12.5986    magn:    4.2942    constr:    0.0000
     atom:    2    charge:    5.9772    magn:    0.1740    constr:    0.0000
     atom:    3    charge:   12.5986    magn:    4.2942    constr:    0.0000
     atom:    4    charge:    5.9772    magn:    0.1740    constr:    0.0000

     total cpu time spent up to now is      307.5 secs

     total energy              =    -486.55350756 Ry
     Harris-Foulkes estimate   =    -486.55347439 Ry
     estimated scf accuracy    <       0.00013241 Ry

     total magnetization       =    10.00 Bohr mag/cell
     absolute magnetization    =    10.00 Bohr mag/cell

     iteration #  7     ecut=    41.00 Ry     beta=0.30
     Davidson diagonalization with overlap
     ethr =  3.15E-07,  avg # of iterations =  2.1

     negative rho (up, down):  0.000E+00 6.660E-04

     Magnetic moment per site:
     atom:    1    charge:   12.5983    magn:    4.2839    constr:    0.0000
     atom:    2    charge:    5.9770    magn:    0.1765    constr:    0.0000
     atom:    3    charge:   12.5983    magn:    4.2839    constr:    0.0000
     atom:    4    charge:    5.9770    magn:    0.1765    constr:    0.0000

     total cpu time spent up to now is      355.8 secs

     total energy              =    -486.55354494 Ry
     Harris-Foulkes estimate   =    -486.55353791 Ry
     estimated scf accuracy    <       0.00002669 Ry

     total magnetization       =    10.00 Bohr mag/cell
     absolute magnetization    =    10.00 Bohr mag/cell

     iteration #  8     ecut=    41.00 Ry     beta=0.30
     Davidson diagonalization with overlap
     ethr =  6.35E-08,  avg # of iterations =  1.6

     negative rho (up, down):  0.000E+00 6.610E-04

     Magnetic moment per site:
     atom:    1    charge:   12.5993    magn:    4.2823    constr:    0.0000
     atom:    2    charge:    5.9764    magn:    0.1791    constr:    0.0000
     atom:    3    charge:   12.5993    magn:    4.2823    constr:    0.0000
     atom:    4    charge:    5.9764    magn:    0.1791    constr:    0.0000

     total cpu time spent up to now is      401.8 secs

     total energy              =    -486.55355031 Ry
     Harris-Foulkes estimate   =    -486.55354936 Ry
     estimated scf accuracy    <       0.00000318 Ry

     total magnetization       =    10.00 Bohr mag/cell
     absolute magnetization    =    10.00 Bohr mag/cell

     iteration #  9     ecut=    41.00 Ry     beta=0.30
     Davidson diagonalization with overlap
     ethr =  7.57E-09,  avg # of iterations =  2.0

     negative rho (up, down):  0.000E+00 6.605E-04

     Magnetic moment per site:
     atom:    1    charge:   12.5993    magn:    4.2821    constr:    0.0000
     atom:    2    charge:    5.9763    magn:    0.1802    constr:    0.0000
     atom:    3    charge:   12.5993    magn:    4.2821    constr:    0.0000
     atom:    4    charge:    5.9763    magn:    0.1802    constr:    0.0000

     total cpu time spent up to now is      451.0 secs

     total energy              =    -486.55355129 Ry
     Harris-Foulkes estimate   =    -486.55355135 Ry
     estimated scf accuracy    <       0.00000077 Ry

     total magnetization       =    10.00 Bohr mag/cell
     absolute magnetization    =    10.00 Bohr mag/cell

     iteration # 10     ecut=    41.00 Ry     beta=0.30
     Davidson diagonalization with overlap
     ethr =  1.83E-09,  avg # of iterations =  2.1

     negative rho (up, down):  0.000E+00 6.614E-04

     Magnetic moment per site:
     atom:    1    charge:   12.5993    magn:    4.2820    constr:    0.0000
     atom:    2    charge:    5.9763    magn:    0.1804    constr:    0.0000
     atom:    3    charge:   12.5993    magn:    4.2820    constr:    0.0000
     atom:    4    charge:    5.9763    magn:    0.1804    constr:    0.0000

     total cpu time spent up to now is      501.1 secs

     total energy              =    -486.55355152 Ry
     Harris-Foulkes estimate   =    -486.55355146 Ry
     estimated scf accuracy    <       0.00000002 Ry

     total magnetization       =    10.00 Bohr mag/cell
     absolute magnetization    =    10.00 Bohr mag/cell
 kfg - setting two_fermi_energies to FALSE

     iteration # 11     ecut=    41.00 Ry     beta=0.30
     Davidson diagonalization with overlap
     ethr =  5.82E-11,  avg # of iterations =  2.0

     negative rho (up, down):  0.000E+00 6.610E-04

     Magnetic moment per site:
     atom:    1    charge:   12.5994    magn:    4.2821    constr:    0.0000
     atom:    2    charge:    5.9763    magn:    0.1804    constr:    0.0000
     atom:    3    charge:   12.5994    magn:    4.2821    constr:    0.0000
     atom:    4    charge:    5.9763    magn:    0.1804    constr:    0.0000

     total cpu time spent up to now is      550.4 secs

     End of self-consistent calculation
 --- enter write_ns ---
 LDA+U parameters:
U( 1)     =  3.00000000
alpha( 1) =  0.00000000
atom    1   Tr[ns(na)] (up, down, total) =   4.99157  0.45956  5.45113
   spin  1
    eigenvalues: 
  0.997  0.997  0.999  0.999  0.999
    eigenvectors:
  0.164  0.836  0.000  0.000  0.000
  0.000  0.000  0.333  0.224  0.443
  0.000  0.000  0.333  0.115  0.551
  0.836  0.164  0.000  0.000  0.000
  0.000  0.000  0.333  0.661  0.006
    occupations:
  0.997  0.000  0.000 -0.000  0.000
  0.000  0.999 -0.000  0.000  0.000
  0.000 -0.000  0.999 -0.000  0.000
 -0.000  0.000 -0.000  0.997 -0.000
  0.000  0.000  0.000 -0.000  0.999
   spin  2
    eigenvalues: 
  0.052  0.052  0.052  0.152  0.152
    eigenvectors:
  0.000  0.000  0.000  0.103  0.897
  0.333  0.281  0.386  0.000  0.000
  0.333  0.075  0.592  0.000  0.000
  0.000  0.000  0.000  0.897  0.103
  0.333  0.645  0.022  0.000  0.000
    occupations:
  0.152  0.000  0.000 -0.000  0.000
  0.000  0.052 -0.000  0.000  0.000
  0.000 -0.000  0.052 -0.000  0.000
 -0.000  0.000 -0.000  0.152 -0.000
  0.000  0.000  0.000 -0.000  0.052
atomic mag. moment =     4.532005
atom    3   Tr[ns(na)] (up, down, total) =   4.99157  0.45956  5.45113
   spin  1
    eigenvalues: 
  0.997  0.997  0.999  0.999  0.999
    eigenvectors:
  0.184  0.816  0.000  0.000  0.000
  0.000  0.000  0.333  0.243  0.424
  0.000  0.000  0.333  0.101  0.566
  0.816  0.184  0.000  0.000  0.000
  0.000  0.000  0.333  0.656  0.010
    occupations:
  0.997  0.000  0.000 -0.000  0.000
  0.000  0.999 -0.000  0.000  0.000
  0.000 -0.000  0.999 -0.000  0.000
 -0.000  0.000 -0.000  0.997 -0.000
  0.000  0.000  0.000 -0.000  0.999
   spin  2
    eigenvalues: 
  0.052  0.052  0.052  0.152  0.152
    eigenvectors:
  0.000  0.000  0.000  0.098  0.902
  0.333  0.348  0.318  0.000  0.000
  0.333  0.037  0.629  0.000  0.000
  0.000  0.000  0.000  0.902  0.098
  0.333  0.614  0.052  0.000  0.000
    occupations:
  0.152  0.000  0.000 -0.000  0.000
  0.000  0.052 -0.000  0.000  0.000
  0.000 -0.000  0.052 -0.000  0.000
 -0.000  0.000 -0.000  0.152 -0.000
  0.000  0.000  0.000 -0.000  0.052
atomic mag. moment =     4.532005
N of occupied +U levels =   10.902250
 --- exit write_ns ---

 ------ SPIN UP ------------


          k = 0.0000 0.0000 0.0000 (  1297 PWs)   bands (ev):

   -68.9771 -68.9765 -37.8760 -37.8270 -37.8270 -37.8198 -37.8197 -37.8197
    -7.0011  -5.9979   3.9711   5.8077   5.8077   7.7810   7.7811   7.7811
     8.3665   8.3665   8.7588   8.7588   9.3353   9.3353   9.3353   9.6957
    11.9767  12.3206  12.3206  15.9152  20.2143  24.1054  24.1054

          k =-0.1021-0.1021 0.3062 (  1351 PWs)   bands (ev):

   -68.9760 -68.9739 -37.8716 -37.8380 -37.8310 -37.8293 -37.8230 -37.8222
    -6.7999  -6.0658   4.4419   5.9047   5.9796   6.7364   7.3101   7.4705
     7.8401   8.3135   8.6599   8.7194   9.1720   9.5908   9.9134  10.3785
    11.1706  12.0809  13.6838  17.3265  20.0081  22.3831  24.3155

          k =-0.2041-0.2041 0.6124 (  1355 PWs)   bands (ev):

   -68.9743 -68.9712 -37.8595 -37.8580 -37.8537 -37.8333 -37.8298 -37.8297
    -6.4111  -6.1473   5.2006   5.3307   5.9096   6.3042   6.4711   6.8903
     7.9559   8.5465   8.6781   8.7504   9.3796   9.6001   9.8996  10.5608
    11.0607  11.5499  16.1323  19.3275  19.6047  20.5412  21.9212

          k = 0.3062 0.3062-0.9186 (  1368 PWs)   bands (ev):

   -68.9723 -68.9723 -37.8665 -37.8665 -37.8430 -37.8430 -37.8340 -37.8340
    -6.1937  -6.1937   5.1028   5.1028   5.9963   5.9963   6.5486   6.5486
     8.2171   8.2171   8.8776   8.8776   9.4550   9.4550  10.6797  10.6797
    11.0124  11.0124  17.9544  17.9544  20.1868  20.1868  21.7621

          k =-0.2041 0.2041 0.2041 (  1339 PWs)   bands (ev):

   -68.9760 -68.9739 -37.8708 -37.8360 -37.8341 -37.8306 -37.8217 -37.8216
    -6.7743  -6.0975   4.5305   5.8738   6.1431   6.7557   7.1858   7.1858
     8.0902   8.0902   8.4719   8.8176   8.9104   9.5657  10.5310  10.5310
    11.3943  11.6861  13.6163  17.2599  20.0842  22.5666  23.8154

          k =-0.3062 0.1021 0.5103 (  1346 PWs)   bands (ev):

   -68.9748 -68.9716 -37.8638 -37.8493 -37.8483 -37.8351 -37.8307 -37.8246
    -6.4718  -6.1720   5.1904   5.5408   6.0351   6.2592   6.5114   6.7623
     8.0804   8.5557   8.6080   8.8202   9.3830   9.4957  10.0112  10.2117
    11.3988  11.5025  15.5439  18.5433  20.2199  21.2401  22.3156

          k = 0.2041 0.6124-1.0206 (  1352 PWs)   bands (ev):

   -68.9725 -68.9712 -37.8645 -37.8615 -37.8501 -37.8436 -37.8362 -37.8327
    -6.2385  -6.1471   5.1805   5.1936   5.9505   6.2338   6.2855   6.3324
     8.3740   8.6343   8.7707   8.8551   9.4311   9.6949   9.7481  10.1707
    11.3230  11.4408  17.6907  19.1766  19.6060  21.0625  21.2122

          k = 0.1021 0.5103-0.7144 (  1360 PWs)   bands (ev):

   -68.9732 -68.9704 -37.8624 -37.8614 -37.8533 -37.8425 -37.8402 -37.8288
    -6.1944  -6.1911   4.9186   5.6895   5.9807   6.0616   6.2111   6.3047
     8.4337   8.7375   8.8015   8.9130   9.2884   9.5898   9.6125  10.2184
    10.9076  12.0057  17.3667  19.1603  20.3028  20.8084  20.8922

          k =-0.0000 0.4082-0.4082 (  1344 PWs)   bands (ev):

   -68.9749 -68.9712 -37.8646 -37.8500 -37.8472 -37.8361 -37.8316 -37.8227
    -6.4938  -6.1471   5.1936   5.6856   5.9505   6.2338   6.4218   6.7229
     8.1274   8.6213   8.6343   8.7707   9.4310   9.5642   9.8331  10.1707
    11.3230  11.7711  15.2896  19.1766  19.6060  21.2122  22.5201

          k =-0.4082 0.4082 0.4082 (  1338 PWs)   bands (ev):

   -68.9758 -68.9716 -37.8661 -37.8621 -37.8449 -37.8374 -37.8253 -37.8253
    -6.2871  -6.2778   4.8236   5.6159   6.1787   6.1787   6.2647   7.0903
     8.0508   8.5228   8.5229   8.9383   9.3081   9.3246  10.0073  10.2277
    11.8035  11.8035  15.4825  17.8816  20.4371  21.0194  21.7258

          k = 0.1021 0.9186-1.1227 (  1356 PWs)   bands (ev):

   -68.9744 -68.9710 -37.8697 -37.8664 -37.8470 -37.8397 -37.8346 -37.8287
    -6.2752  -6.1093   4.4948   5.8201   5.9051   6.0916   6.2261   6.8529
     8.4084   8.5180   8.7740   8.9670   9.2218   9.5136   9.5652  10.3710
    11.2664  12.0451  16.8947  18.1462  20.2778  20.3922  21.5242

          k = 0.0000 0.8165-0.8165 (  1362 PWs)   bands (ev):

   -68.9712 -68.9712 -37.8645 -37.8595 -37.8580 -37.8500 -37.8362 -37.8333
    -6.1473  -6.1471   5.1936   5.2007   5.9096   5.9505   6.2338   6.3042
     8.5466   8.6343   8.7503   8.7707   9.4311   9.6001   9.8996  10.1707
    11.3230  11.5499  19.1765  19.3274  19.6047  19.6060  20.5413

          k = 0.6124-0.6124-0.6124 (  1344 PWs)   bands (ev):

   -68.9765 -68.9718 -37.8759 -37.8707 -37.8407 -37.8406 -37.8271 -37.8270
    -6.3785  -5.9979   3.9712   5.8077   5.8078   5.9815   6.7067   8.2559
     8.2559   8.7588   8.7588   8.8180   9.0219   9.0220   9.2272   9.6958
    12.3206  12.3206  15.9152  17.2930  20.2143  20.3628  22.6359

          k = 0.1021 0.1021 0.1021 (  1346 PWs)   bands (ev):

   -68.9767 -68.9762 -37.8723 -37.8265 -37.8265 -37.8237 -37.8202 -37.8202
    -6.9414  -6.0756   4.1956   5.9020   5.9020   7.5433   7.7154   7.7154
     8.0559   8.0559   8.6947   8.6947   9.0625   9.5850   9.7972   9.7972
    12.1856  12.1856  12.5360  15.8491  20.3787  24.3644  24.3644

          k =-0.0000-0.0000 0.4082 (  1350 PWs)   bands (ev):

   -68.9755 -68.9740 -37.8664 -37.8382 -37.8329 -37.8272 -37.8253 -37.8252
    -6.7357  -6.1437   4.6507   5.9785   6.0917   6.2936   7.5033   7.5703
     7.5703   8.4774   8.5340   8.7331   9.5638   9.6784   9.6784   9.9376
    10.7745  12.2483  14.3889  16.9863  20.4845  22.4719  24.3415

          k = 0.5103 0.5103-1.1227 (  1360 PWs)   bands (ev):

   -68.9735 -68.9723 -37.8643 -37.8537 -37.8487 -37.8336 -37.8329 -37.8301
    -6.4335  -6.1240   4.8578   5.4007   5.9888   6.0772   6.8545   7.3733
     7.7235   8.6258   8.7146   8.7173   9.5189   9.6286   9.9444  10.2025
    10.3444  12.0259  16.6379  18.1897  20.1800  21.1622  22.1882

          k = 0.4082 0.4082-0.8165 (  1352 PWs)   bands (ev):

   -68.9739 -68.9716 -37.8707 -37.8661 -37.8449 -37.8374 -37.8361 -37.8306
    -6.2871  -6.0975   4.5306   5.6160   5.8738   6.1431   6.2647   7.0903
     8.0507   8.4719   8.8176   8.9383   9.3081   9.5657  10.0073  10.2277
    11.3943  11.6861  17.2599  17.8816  20.0842  20.4370  21.7258

          k = 0.3062 0.3062-0.5103 (  1353 PWs)   bands (ev):

   -68.9752 -68.9710 -37.8644 -37.8575 -37.8522 -37.8359 -37.8268 -37.8259
    -6.3547  -6.2075   5.1190   5.5480   5.9338   6.2264   6.4760   6.6504
     8.2674   8.2916   8.5943   8.8709   9.2959   9.3927   9.9615  10.9109
    11.2301  11.6565  15.6159  18.6200  20.1724  20.8628  21.3948

          k =-0.1021 0.3062 0.3062 (  1347 PWs)   bands (ev):

   -68.9756 -68.9741 -37.8643 -37.8395 -37.8330 -37.8307 -37.8256 -37.8215
    -6.6642  -6.2273   4.8721   6.0484   6.2835   6.4586   6.7996   7.0269
     8.0319   8.2117   8.3776   8.7991   9.1537   9.4757  10.1445  11.1495
    11.2016  11.3723  14.3073  16.8341  20.7363  22.9859  23.2350

          k = 0.4082 0.8165-1.2247 (  1345 PWs)   bands (ev):

   -68.9743 -68.9725 -37.8615 -37.8537 -37.8436 -37.8326 -37.8298 -37.8297
    -6.4111  -6.2385   5.1804   5.3307   6.2855   6.3324   6.4711   6.8903
     7.9559   8.3740   8.6781   8.8551   9.3797   9.6948   9.7481  10.5608
    11.0607  11.4408  16.1323  17.6907  21.0626  21.4610  21.9212

          k = 0.3062 0.7144-0.9186 (  1352 PWs)   bands (ev):

   -68.9726 -68.9720 -37.8689 -37.8639 -37.8427 -37.8427 -37.8363 -37.8325
    -6.2736  -6.1116   4.7760   5.3981   5.9100   6.1781   6.3002   6.7590
     8.2172   8.5174   8.7910   8.9009   9.4230   9.5197   9.9001  10.7606
    10.8017  11.6260  17.8094  18.0691  19.8639  20.6645  21.8444

          k = 0.2041 0.6124-0.6124 (  1359 PWs)   bands (ev):

   -68.9740 -68.9704 -37.8663 -37.8643 -37.8492 -37.8421 -37.8382 -37.8272
    -6.2412  -6.1437   4.6507   5.9079   5.9785   6.0917   6.1828   6.4206
     8.5339   8.7331   8.8923   9.0224   9.1281   9.1837   9.5638  10.5784
    10.7745  12.2483  16.9862  18.6382  20.4421  20.4845  21.2833

          k = 0.9186-0.7144-0.7144 (  1352 PWs)   bands (ev):

   -68.9754 -68.9724 -37.8654 -37.8636 -37.8390 -37.8373 -37.8297 -37.8254
    -6.3636  -6.2004   4.6385   5.5344   6.0120   6.1609   6.6938   7.5455
     7.8733   8.4979   8.6600   8.8665   9.3801   9.4548   9.7012   9.9331
    11.3999  12.1687  16.0030  17.3698  20.7406  20.8385  22.5086

          k = 0.8165-0.8165-0.4082 (  1352 PWs)   bands (ev):

   -68.9739 -68.9716 -37.8707 -37.8661 -37.8448 -37.8374 -37.8360 -37.8306
    -6.2871  -6.0975   4.5305   5.6159   5.8738   6.1431   6.2647   7.0903
     8.0507   8.4719   8.8176   8.9383   9.3082   9.5658  10.0073  10.2277
    11.3943  11.6861  17.2598  17.8816  20.0842  20.4371  21.7258

          k = 0.7144-0.9186-0.1021 (  1358 PWs)   bands (ev):

   -68.9712 -68.9712 -37.8630 -37.8630 -37.8531 -37.8531 -37.8346 -37.8346
    -6.1472  -6.1472   5.1972   5.1972   5.9279   5.9279   6.2709   6.2709
     8.5857   8.5857   8.7655   8.7655   9.5001   9.5001  10.0432  10.0432
    11.4436  11.4436  19.2406  19.2406  19.6053  19.6053  20.8629

          k = 0.7144-0.5103-0.5103 (  1352 PWs)   bands (ev):

   -68.9757 -68.9716 -37.8745 -37.8692 -37.8422 -37.8398 -37.8296 -37.8280
    -6.3541  -6.0250   4.1188   5.8222   5.8914   5.8925   6.5928   7.7341
     8.1084   8.6814   8.7746   8.9803   9.1276   9.4226   9.4727   9.6556
    12.0282  12.1522  16.3437  17.4843  20.1685  20.3974  22.3352

          k = 0.2041 0.2041 0.2041 (  1325 PWs)   bands (ev):

   -68.9760 -68.9758 -37.8622 -37.8341 -37.8253 -37.8253 -37.8216 -37.8216
    -6.7743  -6.2778   4.8236   6.1787   6.1787   6.7557   7.1858   7.1858
     8.0902   8.0902   8.5229   8.5229   8.9104   9.3246  10.5310  10.5310
    11.8035  11.8035  13.6163  15.4826  21.0194  23.8153  25.0954

          k = 0.7144 0.7144-1.3268 (  1346 PWs)   bands (ev):

   -68.9748 -68.9743 -37.8572 -37.8420 -37.8361 -37.8276 -37.8272 -37.8247
    -6.5957  -6.3032   5.1017   5.8059   6.1335   6.3862   7.0495   7.3402
     7.7426   8.3157   8.5336   8.7256   9.4233   9.5374  10.0090  10.2723
    10.5055  12.1410  15.2763  16.2533  21.4567  22.8822  23.3681

          k = 0.6124 0.6124-1.0206 (  1357 PWs)   bands (ev):

   -68.9740 -68.9730 -37.8664 -37.8584 -37.8382 -37.8357 -37.8357 -37.8272
    -6.4166  -6.1437   4.6507   5.4511   5.9785   6.0917   6.9664   7.7261
     7.7261   8.5340   8.7031   8.7331   9.5639   9.6030   9.6030   9.8478
    10.7744  12.2483  16.9862  17.0147  20.4845  21.4634  22.4719

          k = 1.2247-0.8165-0.8165 (  1337 PWs)   bands (ev):

   -68.9749 -68.9743 -37.8537 -37.8473 -37.8316 -37.8297 -37.8297 -37.8226
    -6.4938  -6.4111   5.3307   5.6856   6.4218   6.4711   6.7229   6.8903
     7.9559   8.1275   8.6213   8.6781   9.3796   9.5642   9.8330  10.5608
    11.0607  11.7711  15.2896  16.1323  21.9212  22.5201  23.6509

          k = 1.1227-0.9186-0.5103 (  1350 PWs)   bands (ev):

   -68.9735 -68.9735 -37.8581 -37.8581 -37.8367 -37.8367 -37.8304 -37.8304
    -6.3263  -6.3263   5.2088   5.2088   6.3833   6.3833   6.6807   6.6807
     8.1038   8.1038   8.7934   8.7934   9.5149   9.5149  10.1403  10.1403
    11.2709  11.2709  16.8658  16.8658  21.5301  21.5301  22.4517

          k =-0.3062-0.3062-0.3062 (  1340 PWs)   bands (ev):

   -68.9756 -68.9756 -37.8483 -37.8483 -37.8235 -37.8235 -37.8235 -37.8235
    -6.5346  -6.5346   5.7374   5.7374   6.6195   6.6195   6.6195   6.6195
     8.2977   8.2977   8.2977   8.2977   9.0549   9.0549  11.2295  11.2295
    11.2295  11.2295  14.6873  14.6873  22.2297  22.2297  26.1710

 ------ SPIN DOWN ----------


          k = 0.0000 0.0000 0.0000 (  1297 PWs)   bands (ev):

   -63.7892 -63.7778 -32.8138 -32.7485 -32.7485 -32.7398 -32.7397 -32.7397
    -6.5815  -5.6424   5.9295   8.5315   8.5315   9.6873   9.6878   9.6878
    13.4082  14.8683  14.8684  14.8684  15.1553  15.1553  15.8626  15.9852
    15.9852  17.1315  17.1428  17.1428  21.8700  25.6886  25.6886

          k =-0.1021-0.1021 0.3062 (  1351 PWs)   bands (ev):

   -63.7874 -63.7789 -32.8056 -32.7605 -32.7543 -32.7511 -32.7434 -32.7425
    -6.3821  -5.5833   6.2743   8.1327   8.4272   8.5165   9.3809   9.4198
    14.4747  14.7382  15.2250  15.2475  15.3803  15.5439  15.7679  15.9754
    16.0308  16.4401  17.0535  18.8862  21.7085  24.0745  26.2613

          k =-0.2041-0.2041 0.6124 (  1355 PWs)   bands (ev):

   -63.7828 -63.7796 -32.7873 -32.7849 -32.7837 -32.7561 -32.7516 -32.7511
    -5.9266  -5.4896   6.9942   7.0166   7.3528   8.5064   8.7359   8.9384
    14.4787  15.0296  15.7026  15.7702  15.9174  15.9176  15.9803  16.0185
    16.0654  16.7967  17.9408  21.0740  21.4928  21.9585  23.7744

          k = 0.3062 0.3062-0.9186 (  1368 PWs)   bands (ev):

   -63.7796 -63.7796 -32.7986 -32.7986 -32.7664 -32.7664 -32.7572 -32.7572
    -5.5621  -5.5621   6.6303   6.6303   7.9991   7.9991   8.6119   8.6119
    14.5853  14.5853  16.0642  16.0642  16.1760  16.1760  16.3002  16.3002
    16.3815  16.3815  19.5622  19.5622  21.9718  21.9718  23.5090

          k =-0.2041 0.2041 0.2041 (  1339 PWs)   bands (ev):

   -63.7872 -63.7791 -32.8050 -32.7581 -32.7580 -32.7528 -32.7419 -32.7418
    -6.3656  -5.6029   6.3128   8.1784   8.3491   8.5707   9.3383   9.3387
    14.5930  15.1297  15.1298  15.1555  15.2157  15.6713  15.6714  15.9787
    16.0812  16.5276  16.7435  18.8320  21.8186  24.2923  25.4504

          k =-0.3062 0.1021 0.5103 (  1346 PWs)   bands (ev):

   -63.7838 -63.7798 -32.7942 -32.7782 -32.7731 -32.7576 -32.7522 -32.7452
    -6.0307  -5.5293   6.7801   7.2257   7.8760   8.3763   8.8643   8.9506
    14.7371  14.9837  15.3620  15.6110  15.6845  15.7808  16.0119  16.1846
    16.2438  16.7169  17.3367  20.1128  22.0294  22.9598  24.1250

          k = 0.2041 0.6124-1.0206 (  1352 PWs)   bands (ev):

   -63.7805 -63.7796 -32.7944 -32.7926 -32.7751 -32.7674 -32.7589 -32.7548
    -5.6368  -5.4898   6.7304   6.8429   7.6919   8.2462   8.3335   8.5069
    14.6637  15.3094  15.4158  15.6782  16.0690  16.1041  16.1452  16.2792
    16.6219  16.6777  19.2535  20.7510  21.4457  22.8719  22.8800

          k = 0.1021 0.5103-0.7144 (  1360 PWs)   bands (ev):

   -63.7805 -63.7796 -32.7938 -32.7902 -32.7795 -32.7657 -32.7636 -32.7502
    -5.6727  -5.4553   6.6451   7.1238   7.6244   8.1785   8.1854   8.5555
    14.8968  15.1321  15.6284  15.7035  15.9315  15.9362  16.0380  16.3670
    16.4949  16.9639  18.8692  21.0551  21.8572  22.5548  22.5888

          k =-0.0000 0.4082-0.4082 (  1344 PWs)   bands (ev):

   -63.7842 -63.7796 -32.7945 -32.7756 -32.7750 -32.7589 -32.7530 -32.7430
    -6.0685  -5.4898   6.8426   7.3405   7.6921   8.3336   8.9042   8.9180
    15.0589  15.2178  15.2908  15.3095  15.4157  15.7625  16.1041  16.2792
    16.5929  16.6777  16.8302  20.7510  21.4455  22.8800  24.2917

          k =-0.4082 0.4082 0.4082 (  1338 PWs)   bands (ev):

   -63.7814 -63.7794 -32.7983 -32.7951 -32.7695 -32.7617 -32.7463 -32.7462
    -5.8970  -5.5198   6.6246   6.7295   8.1565   8.6554   8.7716   8.7719
    14.0172  15.2560  15.6809  15.6810  16.0225  16.0239  16.2715  16.2944
    16.6475  16.6476  16.8395  19.7218  21.8895  22.7865  23.6844

          k = 0.1021 0.9186-1.1227 (  1356 PWs)   bands (ev):

   -63.7794 -63.7792 -32.8039 -32.7980 -32.7724 -32.7641 -32.7567 -32.7502
    -5.6524  -5.4715   6.3119   6.8242   8.0695   8.3111   8.4767   8.5655
    14.1045  15.2876  15.8830  15.9203  15.9791  16.1418  16.2193  16.3673
    16.3853  16.9537  18.4431  20.1166  21.6640  22.0065  23.4847

          k = 0.0000 0.8165-0.8165 (  1362 PWs)   bands (ev):

   -63.7796 -63.7796 -32.7944 -32.7872 -32.7849 -32.7750 -32.7590 -32.7562
    -5.4898  -5.4896   6.8428   7.0168   7.3528   7.6921   8.3333   8.5062
    15.0296  15.3095  15.4157  15.9175  16.0186  16.0654  16.1041  16.2792
    16.6777  16.7966  20.7511  21.0740  21.4457  21.4929  21.9585

          k = 0.6124-0.6124-0.6124 (  1344 PWs)   bands (ev):

   -63.7785 -63.7778 -32.8137 -32.8053 -32.7664 -32.7663 -32.7486 -32.7485
    -5.6424  -5.4755   5.9297   6.5994   8.5312   8.5315   8.7012   8.7015
    13.3835  15.7023  15.8627  15.8753  15.9851  15.9852  16.3988  16.3989
    17.1316  17.1427  17.1428  19.4812  21.3930  21.8702  24.9492

          k = 0.1021 0.1021 0.1021 (  1346 PWs)   bands (ev):

   -63.7887 -63.7788 -32.8088 -32.7479 -32.7479 -32.7447 -32.7402 -32.7402
    -6.5248  -5.7120   6.1093   8.5937   8.5937   9.2527   9.5883   9.5883
    13.8467  14.9088  14.9396  14.9396  15.2955  15.2955  15.6422  15.9016
    15.9016  17.0073  17.0073  17.1429  22.0709  25.9877  25.9878

          k =-0.0000-0.0000 0.4082 (  1350 PWs)   bands (ev):

   -63.7867 -63.7800 -32.7993 -32.7607 -32.7569 -32.7484 -32.7461 -32.7460
    -6.2990  -5.6782   6.4580   8.0606   8.2628   8.5656   9.3568   9.3570
    14.4497  14.6027  15.2873  15.4163  15.4516  15.4516  15.7638  15.8440
    16.1481  16.6437  17.1399  18.4719  22.2248  24.2094  26.7163

          k = 0.5103 0.5103-1.1227 (  1360 PWs)   bands (ev):

   -63.7824 -63.7798 -32.7947 -32.7838 -32.7731 -32.7561 -32.7557 -32.7520
    -5.8519  -5.5645   6.6523   6.9248   7.7934   8.5099   8.8467   8.9424
    14.0119  15.4832  15.5340  15.5944  15.6900  15.9024  16.0368  16.0697
    16.0799  17.0668  18.4817  19.7448  21.9438  22.8553  24.0719

          k = 0.4082 0.4082-0.8165 (  1352 PWs)   bands (ev):

   -63.7794 -63.7791 -32.8049 -32.7983 -32.7696 -32.7617 -32.7582 -32.7528
    -5.6029  -5.5198   6.3130   6.7296   8.1564   8.1781   8.5707   8.6554
    14.0172  15.1555  15.9788  16.0225  16.0239  16.0812  16.2715  16.2944
    16.5276  16.7435  18.8320  19.7219  21.8188  21.8894  23.6844

          k = 0.3062 0.3062-0.5103 (  1353 PWs)   bands (ev):

   -63.7824 -63.7793 -32.7945 -32.7889 -32.7779 -32.7597 -32.7481 -32.7467
    -5.9431  -5.4733   6.8586   6.9398   7.5900   8.5581   8.7461   8.8741
    14.4892  14.9443  15.6712  15.7461  16.0353  16.1593  16.2078  16.2108
    16.2433  16.4173  17.3087  20.5082  21.6920  22.5591  23.1925

          k =-0.1021 0.3062 0.3062 (  1347 PWs)   bands (ev):

   -63.7861 -63.7806 -32.7972 -32.7653 -32.7546 -32.7530 -32.7464 -32.7416
    -6.2527  -5.7306   6.5668   7.8934   8.3934   8.7204   9.1494   9.2096
    14.7578  14.8065  15.1523  15.1667  15.4387  16.0240  16.0317  16.0547
    16.1176  16.2810  16.3244  18.4638  22.5408  24.8130  24.9514

          k = 0.4082 0.8165-1.2247 (  1345 PWs)   bands (ev):

   -63.7828 -63.7805 -32.7927 -32.7838 -32.7674 -32.7547 -32.7516 -32.7510
    -5.9266  -5.6368   6.7303   6.9942   8.2462   8.5071   8.7362   8.9381
    14.4787  14.6637  15.6782  15.7026  15.7702  15.9176  15.9803  16.0690
    16.1452  16.6220  17.9408  19.2534  22.8719  23.2787  23.7744

          k = 0.3062 0.7144-0.9186 (  1352 PWs)   bands (ev):

   -63.7800 -63.7793 -32.8013 -32.7957 -32.7669 -32.7660 -32.7597 -32.7549
    -5.5806  -5.5434   6.4987   6.7191   7.9466   8.2680   8.4858   8.5776
    14.2332  15.1768  15.7659  15.8096  16.1552  16.1653  16.2649  16.3067
    16.3286  16.7902  19.4928  19.6396  21.6262  22.3380  23.5499

          k = 0.2041 0.6124-0.6124 (  1359 PWs)   bands (ev):

   -63.7800 -63.7794 -32.7992 -32.7945 -32.7751 -32.7662 -32.7608 -32.7485
    -5.6782  -5.4484   6.4582   6.9956   7.9852   8.1456   8.2627   8.5653
    14.4398  15.4163  15.7638  15.8440  15.8543  15.9159  16.1481  16.3447
    16.4000  17.1398  18.4720  20.6517  21.7152  22.2249  23.1467

          k = 0.9186-0.7144-0.7144 (  1352 PWs)   bands (ev):

   -63.7805 -63.7801 -32.7992 -32.7961 -32.7633 -32.7616 -32.7513 -32.7463
    -5.8001  -5.6168   6.4601   6.6781   8.6219   8.6401   8.6601   8.7747
    13.7228  15.3035  15.6844  15.7165  15.8389  15.9219  16.2863  16.2931
    16.3062  16.9839  17.4712  19.2178  22.3994  22.4929  24.6185

          k = 0.8165-0.8165-0.4082 (  1352 PWs)   bands (ev):

   -63.7794 -63.7791 -32.8049 -32.7983 -32.7695 -32.7618 -32.7581 -32.7529
    -5.6029  -5.5198   6.3130   6.7296   8.1566   8.1784   8.5704   8.6552
    14.0172  15.1555  15.9788  16.0225  16.0239  16.0811  16.2716  16.2943
    16.5276  16.7435  18.8320  19.7219  21.8188  21.8894  23.6845

          k = 0.7144-0.9186-0.1021 (  1358 PWs)   bands (ev):

   -63.7796 -63.7796 -32.7921 -32.7921 -32.7788 -32.7788 -32.7574 -32.7574
    -5.4897  -5.4897   6.9103   6.9103   7.5307   7.5307   8.4309   8.4309
    15.1180  15.1180  15.6792  15.6792  16.0592  16.0592  16.2109  16.2109
    16.7395  16.7395  20.8790  20.8790  21.4536  21.4536  22.4390

          k = 0.7144-0.5103-0.5103 (  1352 PWs)   bands (ev):

   -63.7788 -63.7782 -32.8112 -32.8029 -32.7677 -32.7651 -32.7512 -32.7496
    -5.6319  -5.4875   6.0337   6.6480   8.4246   8.5216   8.5418   8.6889
    13.5643  15.6666  15.7875  15.9154  15.9213  16.0106  16.3599  16.3699
    16.7841  17.0319  17.8719  19.5762  21.5344  21.8394  24.5205

          k = 0.2041 0.2041 0.2041 (  1325 PWs)   bands (ev):

   -63.7872 -63.7814 -32.7952 -32.7581 -32.7462 -32.7462 -32.7418 -32.7418
    -6.3656  -5.8970   6.6244   8.3489   8.7719   8.7719   9.3387   9.3387
    14.5929  15.1298  15.1298  15.2156  15.2559  15.6714  15.6714  15.6810
    15.6810  16.6476  16.6476  16.8394  22.7864  25.4504  26.8099

          k = 0.7144 0.7144-1.3268 (  1346 PWs)   bands (ev):

   -63.7851 -63.7820 -32.7881 -32.7687 -32.7582 -32.7490 -32.7483 -32.7454
    -6.1342  -5.8578   6.8335   7.5249   8.5440   8.7084   9.1102   9.1741
    14.3687  15.0638  15.1885  15.4506  15.5128  15.6046  15.6913  15.7101
    15.9855  16.9693  17.3174  17.7004  23.2412  24.6840  25.1727

          k = 0.6124 0.6124-1.0206 (  1357 PWs)   bands (ev):

   -63.7812 -63.7800 -32.7992 -32.7897 -32.7608 -32.7594 -32.7593 -32.7484
    -5.7385  -5.6782   6.4582   6.7688   8.2626   8.5656   8.8814   8.8817
    13.7117  15.4163  15.5608  15.6069  15.7638  15.8441  16.1481  16.2118
    16.2119  17.1399  18.4719  18.8745  22.2249  23.2097  24.2093

          k = 1.2247-0.8165-0.8165 (  1337 PWs)   bands (ev):

   -63.7842 -63.7828 -32.7839 -32.7757 -32.7530 -32.7516 -32.7510 -32.7429
    -6.0685  -5.9266   6.9940   7.3403   8.7362   8.9042   8.9183   8.9384
    14.4787  15.0589  15.2177  15.2909  15.7026  15.7625  15.7702  15.9175
    15.9803  16.5930  16.8301  17.9408  23.7743  24.2917  25.5740

          k = 1.1227-0.9186-0.5103 (  1350 PWs)   bands (ev):

   -63.7816 -63.7816 -32.7892 -32.7892 -32.7595 -32.7595 -32.7522 -32.7522
    -5.7826  -5.7826   6.8029   6.8029   8.5468   8.5468   8.7446   8.7446
    14.4651  14.4651  15.6335  15.6335  16.0211  16.0211  16.0849  16.0849
    16.2617  16.2617  18.5427  18.5427  23.3817  23.3817  24.3167

          k =-0.3062-0.3062-0.3062 (  1340 PWs)   bands (ev):

   -63.7846 -63.7846 -32.7766 -32.7766 -32.7440 -32.7440 -32.7440 -32.7440
    -6.1377  -6.1377   7.4074   7.4074   9.0381   9.0381   9.0381   9.0381
    14.9335  14.9335  15.3970  15.3970  15.3970  15.3970  16.0791  16.0791
    16.1644  16.1644  16.1644  16.1644  24.0081  24.0081  27.9707

     the Fermi energy is    12.4441 ev

!    total energy              =    -486.55355158 Ry
     Harris-Foulkes estimate   =    -486.55355152 Ry
     estimated scf accuracy    <          1.4E-09 Ry

     The total energy is the sum of the following terms:

     one-electron contribution =    -223.70883675 Ry
     hartree contribution      =     132.95829478 Ry
     xc contribution           =     -67.50235465 Ry
     ewald contribution        =    -328.39176810 Ry
     Hubbard energy            =       0.09121919 Ry
     smearing contrib. (-TS)   =      -0.00010606 Ry

     total magnetization       =    10.00 Bohr mag/cell
     absolute magnetization    =    10.00 Bohr mag/cell

     convergence has been achieved in  11 iterations

     Forces acting on atoms (Ry/au):


     negative rho (up, down):  0.000E+00 6.610E-04
     atom    1 type  1   force =  -0.10305636E-28  0.10305636E-28  0.00000000E+00
     atom    2 type  2   force =   0.41211755E-08  0.41211755E-08  0.41211755E-08
     atom    3 type  1   force =  -0.41222543E-28  0.41222543E-28  0.00000000E+00
     atom    4 type  2   force =  -0.41211755E-08 -0.41211755E-08 -0.41211755E-08

     Total force =     0.000000     Total SCF correction =     0.000000
     SCF correction compared to forces is large: reduce conv_thr to get better values


     entering subroutine stress ...


     negative rho (up, down):  0.000E+00 6.610E-04
          total   stress  (Ry/bohr**3)                   (kbar)     P=    0.03
   0.0000002276  -0.0000002141  -0.0000002141          0.03     -0.03     -0.03
  -0.0000002141   0.0000002276  -0.0000002141         -0.03      0.03     -0.03
  -0.0000002141  -0.0000002141   0.0000002276         -0.03     -0.03      0.03


     Writing output data file PREFIX.save

     init_run     :     24.37s CPU     22.34s WALL (       1 calls)
     electrons    :    568.28s CPU    527.69s WALL (       1 calls)
     forces       :     16.27s CPU     11.68s WALL (       1 calls)
     stress       :     69.30s CPU     54.55s WALL (       1 calls)

     Called by init_run:
     wfcinit      :     21.83s CPU     19.73s WALL (       1 calls)
     potinit      :      0.54s CPU      0.55s WALL (       1 calls)

     Called by electrons:
     c_bands      :    463.09s CPU    424.79s WALL (      11 calls)
     sum_band     :     95.92s CPU     93.56s WALL (      11 calls)
     v_of_rho     :      5.78s CPU      5.84s WALL (      12 calls)
     newd         :      2.44s CPU      2.45s WALL (      12 calls)
     mix_rho      :      1.44s CPU      1.44s WALL (      11 calls)

     Called by c_bands:
     init_us_2    :      7.73s CPU      8.01s WALL (    2304 calls)
     cegterg      :    451.67s CPU    413.24s WALL (     704 calls)

     Called by *egterg:
     h_psi        :    385.40s CPU    370.47s WALL (    2201 calls)
     s_psi        :     20.67s CPU     12.84s WALL (    2905 calls)
     g_psi        :      1.47s CPU      1.50s WALL (    1433 calls)
     cdiaghg      :     14.96s CPU     15.20s WALL (    2137 calls)

     Called by h_psi:
     add_vuspsi   :     15.58s CPU      9.15s WALL (    2201 calls)
     vhpsi        :     13.16s CPU      7.69s WALL (    2201 calls)

     General routines
     calbec       :     75.26s CPU     49.21s WALL (   17074 calls)
     fft          :      1.35s CPU      1.38s WALL (     406 calls)
     ffts         :      0.94s CPU      0.93s WALL (     272 calls)
     fftw         :    374.54s CPU    375.56s WALL (  125108 calls)
     interpolate  :      0.40s CPU      0.39s WALL (      46 calls)
     davcio       :      0.01s CPU      0.02s WALL (      64 calls)

     Parallel routines
     fft_scatter  :     21.22s CPU     21.56s WALL (  125786 calls)
     Hubbard U routines
     new_ns       :      2.78s CPU      1.83s WALL (      11 calls)
     vhpsi        :     13.16s CPU      7.69s WALL (    2201 calls)
     force_hub    :     11.68s CPU      7.67s WALL (       1 calls)
     stres_hub    :     61.03s CPU     46.39s WALL (       1 calls)

     PWSCF        : 11m18.89s CPU    10m17.28s WALL


   This run was terminated on:  14:13: 4   9Mar2018            

=------------------------------------------------------------------------------=
   JOB DONE.
=------------------------------------------------------------------------------=
