
     Program PWSCF v.5.1 starts on 24Aug2017 at  2:37:53 

     This program is part of the open-source Quantum ESPRESSO suite
     for quantum simulation of materials; please cite
         "P. Giannozzi et al., J. Phys.:Condens. Matter 21 395502 (2009);
          URL http://www.quantum-espresso.org", 
     in publications or presentations arising from this work. More details at
     http://www.quantum-espresso.org/quote

     Parallel version (MPI), running on     8 processors
     R & G space division:  proc/nbgrp/npool/nimage =       8
     Reading input from /tmp/mno_fm.scf.in.k.4.01.15713/mno_fm.scf.in.k.4.01.t
Warning: card &IONS ignored
Warning: card   ION_DYNAMICS='BFGS', ignored
Warning: card / ignored
Warning: card &CELL ignored
Warning: card  CELL_DYNAMICS = 'BFGS' ignored
Warning: card / ignored

     Current dimensions of program PWSCF are:
     Max number of different atomic species (ntypx) = 10
     Max number of k-points (npk) =  40000
     Max angular momentum in pseudopotentials (lmaxx) =  3
 kfg - two_fermi_energies  T

     Subspace diagonalization in iterative solution of the eigenvalue problem:
     a serial algorithm will be used


     Parallelization info
     --------------------
     sticks:   dense  smooth     PW     G-vecs:    dense   smooth      PW
     Min         203     167     50                 3658     2695     453
     Max         204     168     52                 3659     2705     454
     Sum        1627    1337    403                29269    21613    3631

     Generating pointlists ...
     new r_m :   0.1012 (alat units)  1.7164 (a.u.) for type    1
     new r_m :   0.1012 (alat units)  1.7164 (a.u.) for type    2


     bravais-lattice index     =            0
     lattice parameter (alat)  =    16.965113696  a.u.
     unit-cell volume          =     610.3520 (a.u.)^3
     number of atoms/cell      =            8
     number of atomic types    =            2
     number of electrons       =        84.00 (up:  52.00, down:  32.00)
     number of Kohn-Sham states=           62
     kinetic-energy cutoff     =      41.0000  Ry
     charge density cutoff     =     200.0000  Ry
     convergence threshold     =      1.0E-08
     mixing beta               =       0.3000
     number of iterations used =            8  local-TF  mixing
     Exchange-correlation      = SLA  PW   PSX  PSC ( 1  4 10  8 0)
     A smooth kinetic-energy cutoff is imposed at      40.0000 Ry
     height of the smooth step-function =             800.0000 Ry
     width of the smooth step-function  =               1.0000 Ry


     celldm(1)=  16.965114  celldm(2)=   0.000000  celldm(3)=   0.000000
     celldm(4)=   0.000000  celldm(5)=   0.000000  celldm(6)=   0.000000

     crystal axes: (cart. coord. in units of alat)
               a(1) = (   1.000000000000   0.000000000000   0.000000000000 )  
               a(2) = (   0.000000000000   0.250000000000  -0.250000000000 )  
               a(3) = (   0.000000000000   0.250000000000   0.250000000000 )  

     reciprocal axes: (cart. coord. in units 2 pi/alat)
               b(1) = (  1.000000 -0.000000  0.000000 )  
               b(2) = (  0.000000  2.000000 -2.000000 )  
               b(3) = ( -0.000000  2.000000  2.000000 )  


     PseudoPot. # 1 for Mn read from file:
     /users/kfg/psuedo/gbrv_1.5/mn.pbesol.UPF
     MD5 check sum: 0716d5f563e6e95a34f9080f4c78c109
     Pseudo is Ultrasoft + core correction, Zval = 15.0
     Generated by new atomic code, or converted to UPF format
     Using radial grid of  859 points,  6 beta functions with: 
                l(1) =   0
                l(2) =   0
                l(3) =   1
                l(4) =   1
                l(5) =   2
                l(6) =   2
     Q(r) pseudized with  8 coefficients,  rinner =    0.950   0.950   0.950
                                                       0.950   0.950

     PseudoPot. # 2 for O  read from file:
     /users/kfg/psuedo/gbrv_1.5/o.pbesol.UPF
     MD5 check sum: 501638753501ef6325af9037351f7734
     Pseudo is Ultrasoft + core correction, Zval =  6.0
     Generated by new atomic code, or converted to UPF format
     Using radial grid of  737 points,  5 beta functions with: 
                l(1) =   0
                l(2) =   0
                l(3) =   1
                l(4) =   1
                l(5) =   2
     Q(r) pseudized with  8 coefficients,  rinner =    0.900   0.900   0.900
                                                       0.900   0.900

     atomic species   valence    mass     pseudopotential
        Mn            15.00    54.90000     Mn( 1.00)
        O              6.00    15.99900     O ( 1.00)

     Starting magnetic structure 
     atomic species   magnetization
        Mn           1.000
        O            0.000


     Simplified LDA+U calculation (l_max = 2) with parameters (eV):
     atomic species    L          U    alpha       J0     beta
        Mn             2     3.0000   0.0000   0.0000   0.0000



     No symmetry found



   Cartesian axes

     site n.     atom                  positions (alat units)
         1           Mn  tau(   1) = (    0.00183003279    0.00082509845    0.00051572902  )
         2           O   tau(   2) = (    0.24839986214   -0.00131140833    0.00276061835  )
         3           Mn  tau(   3) = (    0.25263262140    0.24785727297   -0.00108226283  )
         4           O   tau(   4) = (    0.49785409951    0.25213224302   -0.00044534792  )
         5           Mn  tau(   5) = (    0.49821222811   -0.00082678415   -0.00203231516  )
         6           O   tau(   6) = (    0.74811310234    0.25041223975   -0.25208753929  )
         7           Mn  tau(   7) = (    0.75234523232    0.24912345084    0.00252559678  )
         8           O   tau(   8) = (    0.00077841029    0.24780343378   -0.00284715743  )

     number of k points=   148  gaussian smearing, width (Ry)=  0.0100

     Number of k-points >= 100: set verbosity='high' to print them.

     Dense  grid:    29269 G-vectors     FFT dimensions: (  80,  27,  27)

     Smooth grid:    21613 G-vectors     FFT dimensions: (  72,  25,  25)

     Largest allocated arrays     est. size (Mb)     dimensions
        Kohn-Sham Wavefunctions         0.33 Mb     (     347,   62)
        Atomic Hubbard wavefuncts       0.11 Mb     (     347,   20)
        NL pseudopotentials             0.66 Mb     (     347,  124)
        Each V/rho on FFT grid          0.26 Mb     (    8640,   2)
        Each G-vector array             0.03 Mb     (    3659)
        G-vector shells                 0.00 Mb     (     449)
     Largest temporary arrays     est. size (Mb)     dimensions
        Auxiliary wavefunctions         1.31 Mb     (     347,  248)
        Each subspace H/S matrix        0.94 Mb     (     248,  248)
        Each <psi_i|beta_j> matrix      0.12 Mb     (     124,   62)
        Arrays for rho mixing           1.05 Mb     (    8640,    8)

     Check: negative/imaginary core charge=   -0.000057    0.000000

     Initial potential from superposition of free atoms

     starting charge   81.99968, renormalised to   84.00000
     Number of +U iterations with fixed ns =  0
     Starting occupations:
 --- enter write_ns ---
 LDA+U parameters:
U( 1)     =  3.00000000
alpha( 1) =  0.00000000
atom    1   Tr[ns(na)] (up, down, total) =   5.00000  0.00000  5.00000
   spin  1
    eigenvalues: 
  1.000  1.000  1.000  1.000  1.000
    eigenvectors:
  1.000  0.000  0.000  0.000  0.000
  0.000  1.000  0.000  0.000  0.000
  0.000  0.000  1.000  0.000  0.000
  0.000  0.000  0.000  1.000  0.000
  0.000  0.000  0.000  0.000  1.000
    occupations:
  1.000  0.000  0.000  0.000  0.000
  0.000  1.000  0.000  0.000  0.000
  0.000  0.000  1.000  0.000  0.000
  0.000  0.000  0.000  1.000  0.000
  0.000  0.000  0.000  0.000  1.000
   spin  2
    eigenvalues: 
  0.000  0.000  0.000  0.000  0.000
    eigenvectors:
  1.000  0.000  0.000  0.000  0.000
  0.000  1.000  0.000  0.000  0.000
  0.000  0.000  1.000  0.000  0.000
  0.000  0.000  0.000  1.000  0.000
  0.000  0.000  0.000  0.000  1.000
    occupations:
  0.000  0.000  0.000  0.000  0.000
  0.000  0.000  0.000  0.000  0.000
  0.000  0.000  0.000  0.000  0.000
  0.000  0.000  0.000  0.000  0.000
  0.000  0.000  0.000  0.000  0.000
atomic mag. moment =     5.000000
atom    3   Tr[ns(na)] (up, down, total) =   5.00000  0.00000  5.00000
   spin  1
    eigenvalues: 
  1.000  1.000  1.000  1.000  1.000
    eigenvectors:
  1.000  0.000  0.000  0.000  0.000
  0.000  1.000  0.000  0.000  0.000
  0.000  0.000  1.000  0.000  0.000
  0.000  0.000  0.000  1.000  0.000
  0.000  0.000  0.000  0.000  1.000
    occupations:
  1.000  0.000  0.000  0.000  0.000
  0.000  1.000  0.000  0.000  0.000
  0.000  0.000  1.000  0.000  0.000
  0.000  0.000  0.000  1.000  0.000
  0.000  0.000  0.000  0.000  1.000
   spin  2
    eigenvalues: 
  0.000  0.000  0.000  0.000  0.000
    eigenvectors:
  1.000  0.000  0.000  0.000  0.000
  0.000  1.000  0.000  0.000  0.000
  0.000  0.000  1.000  0.000  0.000
  0.000  0.000  0.000  1.000  0.000
  0.000  0.000  0.000  0.000  1.000
    occupations:
  0.000  0.000  0.000  0.000  0.000
  0.000  0.000  0.000  0.000  0.000
  0.000  0.000  0.000  0.000  0.000
  0.000  0.000  0.000  0.000  0.000
  0.000  0.000  0.000  0.000  0.000
atomic mag. moment =     5.000000
atom    5   Tr[ns(na)] (up, down, total) =   5.00000  0.00000  5.00000
   spin  1
    eigenvalues: 
  1.000  1.000  1.000  1.000  1.000
    eigenvectors:
  1.000  0.000  0.000  0.000  0.000
  0.000  1.000  0.000  0.000  0.000
  0.000  0.000  1.000  0.000  0.000
  0.000  0.000  0.000  1.000  0.000
  0.000  0.000  0.000  0.000  1.000
    occupations:
  1.000  0.000  0.000  0.000  0.000
  0.000  1.000  0.000  0.000  0.000
  0.000  0.000  1.000  0.000  0.000
  0.000  0.000  0.000  1.000  0.000
  0.000  0.000  0.000  0.000  1.000
   spin  2
    eigenvalues: 
  0.000  0.000  0.000  0.000  0.000
    eigenvectors:
  1.000  0.000  0.000  0.000  0.000
  0.000  1.000  0.000  0.000  0.000
  0.000  0.000  1.000  0.000  0.000
  0.000  0.000  0.000  1.000  0.000
  0.000  0.000  0.000  0.000  1.000
    occupations:
  0.000  0.000  0.000  0.000  0.000
  0.000  0.000  0.000  0.000  0.000
  0.000  0.000  0.000  0.000  0.000
  0.000  0.000  0.000  0.000  0.000
  0.000  0.000  0.000  0.000  0.000
atomic mag. moment =     5.000000
atom    7   Tr[ns(na)] (up, down, total) =   5.00000  0.00000  5.00000
   spin  1
    eigenvalues: 
  1.000  1.000  1.000  1.000  1.000
    eigenvectors:
  1.000  0.000  0.000  0.000  0.000
  0.000  1.000  0.000  0.000  0.000
  0.000  0.000  1.000  0.000  0.000
  0.000  0.000  0.000  1.000  0.000
  0.000  0.000  0.000  0.000  1.000
    occupations:
  1.000  0.000  0.000  0.000  0.000
  0.000  1.000  0.000  0.000  0.000
  0.000  0.000  1.000  0.000  0.000
  0.000  0.000  0.000  1.000  0.000
  0.000  0.000  0.000  0.000  1.000
   spin  2
    eigenvalues: 
  0.000  0.000  0.000  0.000  0.000
    eigenvectors:
  1.000  0.000  0.000  0.000  0.000
  0.000  1.000  0.000  0.000  0.000
  0.000  0.000  1.000  0.000  0.000
  0.000  0.000  0.000  1.000  0.000
  0.000  0.000  0.000  0.000  1.000
    occupations:
  0.000  0.000  0.000  0.000  0.000
  0.000  0.000  0.000  0.000  0.000
  0.000  0.000  0.000  0.000  0.000
  0.000  0.000  0.000  0.000  0.000
  0.000  0.000  0.000  0.000  0.000
atomic mag. moment =     5.000000
N of occupied +U levels =   20.000000
 --- exit write_ns ---
 Atomic wfc used for LDA+U Projector are NOT orthogonalized
     Starting wfc are   68 randomized atomic wfcs

     total cpu time spent up to now is       32.5 secs

     per-process dynamical memory:    80.9 Mb

     Self-consistent Calculation

     iteration #  1     ecut=    41.00 Ry     beta=0.30
     Davidson diagonalization with overlap
     ethr =  1.00E-02,  avg # of iterations =  3.4
 --- enter write_ns ---
 LDA+U parameters:
U( 1)     =  3.00000000
alpha( 1) =  0.00000000
atom    1   Tr[ns(na)] (up, down, total) =   4.98796  0.19354  5.18150
   spin  1
    eigenvalues: 
  0.997  0.997  0.998  0.998  0.998
    eigenvectors:
  0.252  0.747  0.000  0.000  0.000
  0.001  0.000  0.000  0.239  0.760
  0.000  0.000  0.995  0.003  0.002
  0.747  0.252  0.000  0.000  0.001
  0.000  0.000  0.005  0.758  0.237
    occupations:
  0.997 -0.000 -0.000  0.000  0.000
 -0.000  0.998 -0.000  0.000  0.000
 -0.000 -0.000  0.998  0.000 -0.000
  0.000  0.000  0.000  0.997  0.000
  0.000  0.000 -0.000  0.000  0.998
   spin  2
    eigenvalues: 
  0.021  0.021  0.021  0.066  0.066
    eigenvectors:
  0.000  0.000  0.000  0.187  0.813
  0.000  0.899  0.101  0.000  0.000
  0.401  0.061  0.538  0.000  0.000
  0.000  0.000  0.000  0.813  0.187
  0.599  0.040  0.361  0.000  0.000
    occupations:
  0.066  0.000  0.000  0.000  0.000
  0.000  0.021 -0.000 -0.001  0.000
  0.000 -0.000  0.021 -0.000 -0.000
  0.000 -0.001 -0.000  0.066 -0.000
  0.000  0.000 -0.000 -0.000  0.021
atomic mag. moment =     4.794414
atom    3   Tr[ns(na)] (up, down, total) =   4.98789  0.19598  5.18387
   spin  1
    eigenvalues: 
  0.997  0.997  0.998  0.998  0.998
    eigenvectors:
  0.316  0.683  0.000  0.000  0.001
  0.000  0.001  0.010  0.000  0.988
  0.000  0.000  0.977  0.013  0.010
  0.683  0.316  0.000  0.001  0.000
  0.001  0.000  0.013  0.986  0.000
    occupations:
  0.997  0.000 -0.000  0.000  0.000
  0.000  0.998  0.000  0.000  0.000
 -0.000  0.000  0.998  0.000 -0.000
  0.000  0.000  0.000  0.997 -0.000
  0.000  0.000 -0.000 -0.000  0.998
   spin  2
    eigenvalues: 
  0.021  0.021  0.021  0.066  0.067
    eigenvectors:
  0.000  0.000  0.000  0.701  0.299
  0.031  0.001  0.968  0.000  0.000
  0.961  0.007  0.032  0.000  0.000
  0.000  0.000  0.000  0.299  0.701
  0.008  0.992  0.000  0.000  0.000
    occupations:
  0.066  0.000  0.000 -0.001 -0.000
  0.000  0.021  0.000 -0.000  0.000
  0.000  0.000  0.021 -0.000 -0.000
 -0.001 -0.000 -0.000  0.067  0.000
 -0.000  0.000 -0.000  0.000  0.021
atomic mag. moment =     4.791909
atom    5   Tr[ns(na)] (up, down, total) =   4.98804  0.19357  5.18161
   spin  1
    eigenvalues: 
  0.997  0.997  0.998  0.998  0.998
    eigenvectors:
  0.184  0.816  0.000  0.000  0.000
  0.000  0.000  0.000  0.034  0.965
  0.000  0.000  0.989  0.011  0.000
  0.815  0.184  0.000  0.000  0.000
  0.000  0.000  0.010  0.955  0.034
    occupations:
  0.997  0.000 -0.000  0.000 -0.000
  0.000  0.998 -0.000 -0.000  0.000
 -0.000 -0.000  0.998  0.000  0.000
  0.000 -0.000  0.000  0.997 -0.000
 -0.000  0.000  0.000 -0.000  0.998
   spin  2
    eigenvalues: 
  0.021  0.021  0.021  0.066  0.066
    eigenvectors:
  0.000  0.000  0.000  0.996  0.004
  0.017  0.927  0.056  0.000  0.000
  0.607  0.002  0.391  0.000  0.000
  0.000  0.000  0.000  0.004  0.996
  0.376  0.071  0.553  0.000  0.000
    occupations:
  0.066 -0.000  0.000  0.000 -0.000
 -0.000  0.021  0.000  0.001  0.000
  0.000  0.000  0.021 -0.000  0.000
  0.000  0.001 -0.000  0.066  0.000
 -0.000  0.000  0.000  0.000  0.021
atomic mag. moment =     4.794475
atom    7   Tr[ns(na)] (up, down, total) =   4.98808  0.19143  5.17951
   spin  1
    eigenvalues: 
  0.997  0.997  0.998  0.998  0.998
    eigenvectors:
  0.961  0.039  0.000  0.000  0.000
  0.000  0.001  0.001  0.069  0.929
  0.000  0.000  0.954  0.039  0.007
  0.039  0.960  0.000  0.000  0.001
  0.000  0.000  0.045  0.891  0.063
    occupations:
  0.997 -0.000  0.000  0.000 -0.000
 -0.000  0.998 -0.000 -0.000 -0.000
  0.000 -0.000  0.998 -0.000  0.000
  0.000 -0.000 -0.000  0.997  0.000
 -0.000 -0.000  0.000  0.000  0.998
   spin  2
    eigenvalues: 
  0.020  0.020  0.021  0.064  0.066
    eigenvectors:
  0.000  0.000  0.000  0.191  0.809
  0.003  0.964  0.033  0.000  0.000
  0.008  0.034  0.957  0.000  0.000
  0.000  0.000  0.000  0.809  0.191
  0.988  0.002  0.010  0.000  0.000
    occupations:
  0.066  0.000 -0.000  0.001  0.000
  0.000  0.020 -0.000  0.000 -0.000
 -0.000 -0.000  0.021  0.000  0.000
  0.001  0.000  0.000  0.065 -0.000
  0.000 -0.000  0.000 -0.000  0.020
atomic mag. moment =     4.796645
N of occupied +U levels =   20.726481
 --- exit write_ns ---

     negative rho (up, down):  0.000E+00 5.049E-04

     Magnetic moment per site:
     atom:    1    charge:   12.7538    magn:   10.2220    constr:    0.0000
     atom:    2    charge:    5.6761    magn:    0.1844    constr:    0.0000
     atom:    3    charge:   12.7578    magn:   10.2242    constr:    0.0000
     atom:    4    charge:    5.6735    magn:    0.1816    constr:    0.0000
     atom:    5    charge:   12.7541    magn:   10.2223    constr:    0.0000
     atom:    6    charge:    5.6667    magn:    0.1770    constr:    0.0000
     atom:    7    charge:   12.7536    magn:   10.2226    constr:    0.0000
     atom:    8    charge:    5.6727    magn:    0.1808    constr:    0.0000

     total cpu time spent up to now is      164.5 secs

     total energy              =    -968.91419609 Ry
     Harris-Foulkes estimate   =    -960.52110711 Ry
     estimated scf accuracy    <      12.82438314 Ry

     total magnetization       =    20.00 Bohr mag/cell
     absolute magnetization    =    20.90 Bohr mag/cell

     iteration #  2     ecut=    41.00 Ry     beta=0.30
     Davidson diagonalization with overlap
     ethr =  1.00E-02,  avg # of iterations =  1.1

     negative rho (up, down):  0.000E+00 1.871E-03

     Magnetic moment per site:
     atom:    1    charge:   12.6402    magn:    4.5305    constr:    0.0000
     atom:    2    charge:    5.8984    magn:   -0.0476    constr:    0.0000
     atom:    3    charge:   12.6437    magn:    4.5317    constr:    0.0000
     atom:    4    charge:    5.8955    magn:   -0.0500    constr:    0.0000
     atom:    5    charge:   12.6404    magn:    4.5308    constr:    0.0000
     atom:    6    charge:    5.8879    magn:   -0.0530    constr:    0.0000
     atom:    7    charge:   12.6399    magn:    4.5314    constr:    0.0000
     atom:    8    charge:    5.8945    magn:   -0.0505    constr:    0.0000

     total cpu time spent up to now is      237.1 secs

     total energy              =    -972.81938633 Ry
     Harris-Foulkes estimate   =    -969.04546693 Ry
     estimated scf accuracy    <       6.32805080 Ry

     total magnetization       =    20.00 Bohr mag/cell
     absolute magnetization    =    20.61 Bohr mag/cell

     iteration #  3     ecut=    41.00 Ry     beta=0.30
     Davidson diagonalization with overlap
     ethr =  7.53E-03,  avg # of iterations =  2.0

     negative rho (up, down):  0.000E+00 2.044E-03

     Magnetic moment per site:
     atom:    1    charge:   12.5736    magn:    4.2720    constr:    0.0000
     atom:    2    charge:    5.8785    magn:    0.0651    constr:    0.0000
     atom:    3    charge:   12.5775    magn:    4.2721    constr:    0.0000
     atom:    4    charge:    5.8753    magn:    0.0620    constr:    0.0000
     atom:    5    charge:   12.5738    magn:    4.2724    constr:    0.0000
     atom:    6    charge:    5.8673    magn:    0.0582    constr:    0.0000
     atom:    7    charge:   12.5729    magn:    4.2735    constr:    0.0000
     atom:    8    charge:    5.8743    magn:    0.0613    constr:    0.0000

     total cpu time spent up to now is      331.5 secs

     total energy              =    -973.07696537 Ry
     Harris-Foulkes estimate   =    -973.12742758 Ry
     estimated scf accuracy    <       0.18357024 Ry

     total magnetization       =    20.00 Bohr mag/cell
     absolute magnetization    =    20.00 Bohr mag/cell

     iteration #  4     ecut=    41.00 Ry     beta=0.30
     Davidson diagonalization with overlap
     ethr =  2.19E-04,  avg # of iterations =  2.4

     negative rho (up, down):  0.000E+00 2.089E-03

     Magnetic moment per site:
     atom:    1    charge:   12.5604    magn:    4.1871    constr:    0.0000
     atom:    2    charge:    5.8865    magn:    0.0836    constr:    0.0000
     atom:    3    charge:   12.5645    magn:    4.1870    constr:    0.0000
     atom:    4    charge:    5.8834    magn:    0.0805    constr:    0.0000
     atom:    5    charge:   12.5606    magn:    4.1875    constr:    0.0000
     atom:    6    charge:    5.8755    magn:    0.0766    constr:    0.0000
     atom:    7    charge:   12.5597    magn:    4.1888    constr:    0.0000
     atom:    8    charge:    5.8824    magn:    0.0797    constr:    0.0000

     total cpu time spent up to now is      435.6 secs

     total energy              =    -973.10387869 Ry
     Harris-Foulkes estimate   =    -973.10571734 Ry
     estimated scf accuracy    <       0.01378664 Ry

     total magnetization       =    20.00 Bohr mag/cell
     absolute magnetization    =    20.00 Bohr mag/cell

     iteration #  5     ecut=    41.00 Ry     beta=0.30
     Davidson diagonalization with overlap
     ethr =  1.64E-05,  avg # of iterations =  2.3

     negative rho (up, down):  0.000E+00 2.138E-03

     Magnetic moment per site:
     atom:    1    charge:   12.5264    magn:    4.2551    constr:    0.0000
     atom:    2    charge:    5.8940    magn:    0.1596    constr:    0.0000
     atom:    3    charge:   12.5307    magn:    4.2542    constr:    0.0000
     atom:    4    charge:    5.8910    magn:    0.1564    constr:    0.0000
     atom:    5    charge:   12.5266    magn:    4.2554    constr:    0.0000
     atom:    6    charge:    5.8832    magn:    0.1523    constr:    0.0000
     atom:    7    charge:   12.5254    magn:    4.2573    constr:    0.0000
     atom:    8    charge:    5.8900    magn:    0.1556    constr:    0.0000

     total cpu time spent up to now is      531.2 secs

     total energy              =    -973.10430669 Ry
     Harris-Foulkes estimate   =    -973.10457964 Ry
     estimated scf accuracy    <       0.00617904 Ry

     total magnetization       =    20.00 Bohr mag/cell
     absolute magnetization    =    20.00 Bohr mag/cell
 kfg - setting two_fermi_energies to FALSE

     iteration #  6     ecut=    41.00 Ry     beta=0.30
     Davidson diagonalization with overlap
     ethr =  7.36E-06,  avg # of iterations =  2.1

     negative rho (up, down):  0.000E+00 2.137E-03

     Magnetic moment per site:
     atom:    1    charge:   12.5201    magn:    4.2553    constr:    0.0000
     atom:    2    charge:    5.8950    magn:    0.1751    constr:    0.0000
     atom:    3    charge:   12.5246    magn:    4.2543    constr:    0.0000
     atom:    4    charge:    5.8920    magn:    0.1719    constr:    0.0000
     atom:    5    charge:   12.5204    magn:    4.2557    constr:    0.0000
     atom:    6    charge:    5.8841    magn:    0.1679    constr:    0.0000
     atom:    7    charge:   12.5191    magn:    4.2575    constr:    0.0000
     atom:    8    charge:    5.8910    magn:    0.1711    constr:    0.0000

     total cpu time spent up to now is      627.2 secs

     total energy              =    -973.10567690 Ry
     Harris-Foulkes estimate   =    -973.10561252 Ry
     estimated scf accuracy    <       0.00024560 Ry

     total magnetization       =    20.00 Bohr mag/cell
     absolute magnetization    =    20.00 Bohr mag/cell

     iteration #  7     ecut=    41.00 Ry     beta=0.30
     Davidson diagonalization with overlap
     ethr =  2.92E-07,  avg # of iterations =  2.1

     negative rho (up, down):  0.000E+00 2.127E-03

     Magnetic moment per site:
     atom:    1    charge:   12.5200    magn:    4.2460    constr:    0.0000
     atom:    2    charge:    5.8946    magn:    0.1774    constr:    0.0000
     atom:    3    charge:   12.5245    magn:    4.2450    constr:    0.0000
     atom:    4    charge:    5.8916    magn:    0.1742    constr:    0.0000
     atom:    5    charge:   12.5202    magn:    4.2463    constr:    0.0000
     atom:    6    charge:    5.8837    magn:    0.1703    constr:    0.0000
     atom:    7    charge:   12.5188    magn:    4.2482    constr:    0.0000
     atom:    8    charge:    5.8906    magn:    0.1734    constr:    0.0000

     total cpu time spent up to now is      726.4 secs

     total energy              =    -973.10574545 Ry
     Harris-Foulkes estimate   =    -973.10573522 Ry
     estimated scf accuracy    <       0.00005363 Ry

     total magnetization       =    20.00 Bohr mag/cell
     absolute magnetization    =    20.00 Bohr mag/cell

     iteration #  8     ecut=    41.00 Ry     beta=0.30
     Davidson diagonalization with overlap
     ethr =  6.38E-08,  avg # of iterations =  1.6

     negative rho (up, down):  0.000E+00 2.109E-03

     Magnetic moment per site:
     atom:    1    charge:   12.5209    magn:    4.2446    constr:    0.0000
     atom:    2    charge:    5.8940    magn:    0.1798    constr:    0.0000
     atom:    3    charge:   12.5254    magn:    4.2436    constr:    0.0000
     atom:    4    charge:    5.8911    magn:    0.1767    constr:    0.0000
     atom:    5    charge:   12.5211    magn:    4.2450    constr:    0.0000
     atom:    6    charge:    5.8831    magn:    0.1728    constr:    0.0000
     atom:    7    charge:   12.5198    magn:    4.2468    constr:    0.0000
     atom:    8    charge:    5.8900    magn:    0.1759    constr:    0.0000

     total cpu time spent up to now is      811.7 secs

     total energy              =    -973.10575591 Ry
     Harris-Foulkes estimate   =    -973.10575396 Ry
     estimated scf accuracy    <       0.00000605 Ry

     total magnetization       =    20.00 Bohr mag/cell
     absolute magnetization    =    20.00 Bohr mag/cell

     iteration #  9     ecut=    41.00 Ry     beta=0.30
     Davidson diagonalization with overlap
     ethr =  7.21E-09,  avg # of iterations =  2.0

     negative rho (up, down):  0.000E+00 2.107E-03

     Magnetic moment per site:
     atom:    1    charge:   12.5209    magn:    4.2445    constr:    0.0000
     atom:    2    charge:    5.8939    magn:    0.1809    constr:    0.0000
     atom:    3    charge:   12.5254    magn:    4.2435    constr:    0.0000
     atom:    4    charge:    5.8910    magn:    0.1778    constr:    0.0000
     atom:    5    charge:   12.5211    magn:    4.2448    constr:    0.0000
     atom:    6    charge:    5.8831    magn:    0.1740    constr:    0.0000
     atom:    7    charge:   12.5197    magn:    4.2467    constr:    0.0000
     atom:    8    charge:    5.8899    magn:    0.1770    constr:    0.0000

     total cpu time spent up to now is      908.6 secs

     total energy              =    -973.10575774 Ry
     Harris-Foulkes estimate   =    -973.10575772 Ry
     estimated scf accuracy    <       0.00000123 Ry

     total magnetization       =    20.00 Bohr mag/cell
     absolute magnetization    =    20.00 Bohr mag/cell

     iteration # 10     ecut=    41.00 Ry     beta=0.30
     Davidson diagonalization with overlap
     ethr =  1.47E-09,  avg # of iterations =  2.1

     negative rho (up, down):  0.000E+00 2.109E-03

     Magnetic moment per site:
     atom:    1    charge:   12.5209    magn:    4.2444    constr:    0.0000
     atom:    2    charge:    5.8939    magn:    0.1811    constr:    0.0000
     atom:    3    charge:   12.5255    magn:    4.2434    constr:    0.0000
     atom:    4    charge:    5.8909    magn:    0.1780    constr:    0.0000
     atom:    5    charge:   12.5211    magn:    4.2447    constr:    0.0000
     atom:    6    charge:    5.8830    magn:    0.1742    constr:    0.0000
     atom:    7    charge:   12.5197    magn:    4.2466    constr:    0.0000
     atom:    8    charge:    5.8899    magn:    0.1773    constr:    0.0000

     total cpu time spent up to now is     1010.0 secs

     total energy              =    -973.10575813 Ry
     Harris-Foulkes estimate   =    -973.10575802 Ry
     estimated scf accuracy    <       0.00000007 Ry

     total magnetization       =    20.00 Bohr mag/cell
     absolute magnetization    =    20.00 Bohr mag/cell

     iteration # 11     ecut=    41.00 Ry     beta=0.30
     Davidson diagonalization with overlap
     ethr =  8.35E-11,  avg # of iterations =  2.0

     negative rho (up, down):  0.000E+00 2.110E-03

     Magnetic moment per site:
     atom:    1    charge:   12.5210    magn:    4.2444    constr:    0.0000
     atom:    2    charge:    5.8939    magn:    0.1810    constr:    0.0000
     atom:    3    charge:   12.5255    magn:    4.2434    constr:    0.0000
     atom:    4    charge:    5.8909    magn:    0.1780    constr:    0.0000
     atom:    5    charge:   12.5212    magn:    4.2448    constr:    0.0000
     atom:    6    charge:    5.8830    magn:    0.1742    constr:    0.0000
     atom:    7    charge:   12.5198    magn:    4.2467    constr:    0.0000
     atom:    8    charge:    5.8899    magn:    0.1772    constr:    0.0000

     total cpu time spent up to now is     1103.3 secs

     total energy              =    -973.10575819 Ry
     Harris-Foulkes estimate   =    -973.10575814 Ry
     estimated scf accuracy    <       0.00000001 Ry

     total magnetization       =    20.00 Bohr mag/cell
     absolute magnetization    =    20.00 Bohr mag/cell

     iteration # 12     ecut=    41.00 Ry     beta=0.30
     Davidson diagonalization with overlap
     ethr =  1.52E-11,  avg # of iterations =  1.5

     negative rho (up, down):  0.000E+00 2.109E-03

     Magnetic moment per site:
     atom:    1    charge:   12.5209    magn:    4.2444    constr:    0.0000
     atom:    2    charge:    5.8939    magn:    0.1810    constr:    0.0000
     atom:    3    charge:   12.5255    magn:    4.2434    constr:    0.0000
     atom:    4    charge:    5.8909    magn:    0.1780    constr:    0.0000
     atom:    5    charge:   12.5211    magn:    4.2448    constr:    0.0000
     atom:    6    charge:    5.8830    magn:    0.1742    constr:    0.0000
     atom:    7    charge:   12.5198    magn:    4.2466    constr:    0.0000
     atom:    8    charge:    5.8899    magn:    0.1772    constr:    0.0000

     total cpu time spent up to now is     1186.9 secs

     End of self-consistent calculation
 --- enter write_ns ---
 LDA+U parameters:
U( 1)     =  3.00000000
alpha( 1) =  0.00000000
atom    1   Tr[ns(na)] (up, down, total) =   4.99173  0.46014  5.45187
   spin  1
    eigenvalues: 
  0.997  0.997  0.999  0.999  0.999
    eigenvectors:
  0.272  0.728  0.000  0.000  0.000
  0.000  0.000  0.871  0.074  0.054
  0.000  0.000  0.127  0.425  0.448
  0.728  0.272  0.001  0.000  0.000
  0.000  0.000  0.001  0.501  0.498
    occupations:
  0.997 -0.000 -0.000  0.000  0.000
 -0.000  0.999 -0.000  0.000 -0.000
 -0.000 -0.000  0.999  0.000 -0.000
  0.000  0.000  0.000  0.997  0.000
  0.000 -0.000 -0.000  0.000  0.999
   spin  2
    eigenvalues: 
  0.052  0.052  0.052  0.152  0.152
    eigenvectors:
  0.000  0.000  0.000  0.123  0.877
  0.017  0.954  0.028  0.000  0.000
  0.323  0.046  0.631  0.000  0.000
  0.000  0.000  0.000  0.877  0.123
  0.660  0.000  0.340  0.000  0.000
    occupations:
  0.152  0.000  0.000  0.000  0.000
  0.000  0.052 -0.000 -0.001  0.000
  0.000 -0.000  0.052 -0.000 -0.000
  0.000 -0.001 -0.000  0.152 -0.000
  0.000  0.000 -0.000 -0.000  0.052
atomic mag. moment =     4.531586
atom    3   Tr[ns(na)] (up, down, total) =   4.99151  0.46493  5.45644
   spin  1
    eigenvalues: 
  0.997  0.997  0.999  0.999  0.999
    eigenvectors:
  0.334  0.665  0.000  0.001  0.000
  0.000  0.001  0.616  0.306  0.077
  0.000  0.000  0.175  0.020  0.804
  0.665  0.335  0.000  0.000  0.000
  0.001  0.000  0.209  0.672  0.118
    occupations:
  0.997  0.000 -0.000  0.000  0.000
  0.000  0.999  0.000  0.000 -0.000
 -0.000  0.000  0.999  0.000 -0.000
  0.000  0.000  0.000  0.997 -0.000
  0.000 -0.000 -0.000 -0.000  0.999
   spin  2
    eigenvalues: 
  0.052  0.053  0.053  0.152  0.155
    eigenvectors:
  0.000  0.000  0.000  0.702  0.298
  0.024  0.002  0.973  0.000  0.000
  0.969  0.005  0.025  0.000  0.000
  0.000  0.000  0.000  0.298  0.702
  0.007  0.992  0.001  0.000  0.000
    occupations:
  0.153 -0.000  0.000 -0.002 -0.001
 -0.000  0.053  0.000 -0.001  0.000
  0.000  0.000  0.052 -0.000 -0.000
 -0.002 -0.001 -0.000  0.154  0.001
 -0.001  0.000 -0.000  0.001  0.053
atomic mag. moment =     4.526583
atom    5   Tr[ns(na)] (up, down, total) =   4.99181  0.46017  5.45198
   spin  1
    eigenvalues: 
  0.997  0.997  0.999  0.999  0.999
    eigenvectors:
  0.148  0.852  0.000  0.000  0.000
  0.000  0.000  0.100  0.900  0.000
  0.000  0.000  0.252  0.031  0.717
  0.852  0.148  0.000  0.000  0.000
  0.000  0.000  0.648  0.069  0.283
    occupations:
  0.997  0.000 -0.000  0.000 -0.000
  0.000  0.999  0.000 -0.000 -0.000
 -0.000  0.000  0.999  0.000  0.000
  0.000 -0.000  0.000  0.997 -0.000
 -0.000 -0.000  0.000 -0.000  0.999
   spin  2
    eigenvalues: 
  0.052  0.052  0.052  0.152  0.152
    eigenvectors:
  0.000  0.000  0.000  0.955  0.045
  0.000  0.987  0.013  0.000  0.000
  0.534  0.005  0.461  0.000  0.000
  0.000  0.000  0.000  0.045  0.955
  0.466  0.007  0.526  0.000  0.000
    occupations:
  0.152 -0.000  0.000 -0.000 -0.000
 -0.000  0.052  0.000  0.001  0.000
  0.000  0.000  0.052 -0.000  0.000
 -0.000  0.001 -0.000  0.152  0.000
 -0.000  0.000  0.000  0.000  0.052
atomic mag. moment =     4.531643
atom    7   Tr[ns(na)] (up, down, total) =   4.99195  0.45601  5.44796
   spin  1
    eigenvalues: 
  0.997  0.997  0.999  0.999  0.999
    eigenvectors:
  0.980  0.020  0.000  0.000  0.000
  0.000  0.000  0.000  0.985  0.015
  0.000  0.000  0.676  0.006  0.318
  0.020  0.979  0.000  0.000  0.000
  0.000  0.000  0.324  0.009  0.667
    occupations:
  0.997 -0.000  0.000 -0.000 -0.000
 -0.000  0.999 -0.000 -0.000 -0.000
  0.000 -0.000  0.999 -0.000  0.000
 -0.000 -0.000 -0.000  0.997  0.000
 -0.000 -0.000  0.000  0.000  0.999
   spin  2
    eigenvalues: 
  0.051  0.051  0.052  0.149  0.153
    eigenvectors:
  0.000  0.000  0.000  0.195  0.805
  0.003  0.967  0.029  0.000  0.000
  0.008  0.031  0.961  0.000  0.000
  0.000  0.000  0.000  0.804  0.195
  0.988  0.002  0.010  0.000  0.000
    occupations:
  0.152  0.000 -0.000  0.001  0.001
  0.000  0.051 -0.000  0.001 -0.000
 -0.000 -0.000  0.052  0.000  0.000
  0.001  0.001  0.000  0.150 -0.001
  0.001 -0.000  0.000 -0.001  0.051
atomic mag. moment =     4.535939
N of occupied +U levels =   21.808258
 --- exit write_ns ---

     Number of k-points >= 100: set verbosity='high' to print the bands.

     the Fermi energy is    12.4213 ev

!    total energy              =    -973.10575825 Ry
     Harris-Foulkes estimate   =    -973.10575820 Ry
     estimated scf accuracy    <          4.0E-09 Ry

     The total energy is the sum of the following terms:

     one-electron contribution =    -447.73237673 Ry
     hartree contribution      =     266.07867649 Ry
     xc contribution           =    -135.00877590 Ry
     ewald contribution        =    -656.62580046 Ry
     Hubbard energy            =       0.18263741 Ry
     smearing contrib. (-TS)   =      -0.00011905 Ry

     total magnetization       =    20.00 Bohr mag/cell
     absolute magnetization    =    20.00 Bohr mag/cell

     convergence has been achieved in  12 iterations

     Forces acting on atoms (Ry/au):


     negative rho (up, down):  0.000E+00 2.109E-03
     atom    1 type  1   force =  -0.23941603E-02 -0.38938236E-02 -0.26921518E-02
     atom    2 type  2   force =   0.36385293E-02  0.72979722E-04 -0.56334422E-02
     atom    3 type  1   force =  -0.76104685E-02  0.21087649E-02  0.32722621E-02
     atom    4 type  2   force =   0.30212373E-02 -0.40484016E-02 -0.79733433E-03
     atom    5 type  1   force =   0.67680230E-02  0.20641478E-02  0.30037670E-02
     atom    6 type  2   force =   0.34458155E-02 -0.12893147E-02  0.42275640E-02
     atom    7 type  1   force =  -0.59573108E-02  0.16176709E-02 -0.60384505E-02
     atom    8 type  2   force =  -0.91166568E-03  0.33679765E-02  0.46577857E-02

     Total force =     0.019269     Total SCF correction =     0.000472


     entering subroutine stress ...


     negative rho (up, down):  0.000E+00 2.109E-03
          total   stress  (Ry/bohr**3)                   (kbar)     P=    1.15
   0.0000077802  -0.0000000179  -0.0000000093          1.14     -0.00     -0.00
  -0.0000000179   0.0000035065  -0.0000002958         -0.00      0.52     -0.04
  -0.0000000093  -0.0000002958   0.0000120730         -0.00     -0.04      1.78


     Writing output data file mno_fm.scf.in.k.4.011.save

     init_run     :     29.51s CPU     32.24s WALL (       1 calls)
     electrons    :   1003.42s CPU   1154.44s WALL (       1 calls)
     forces       :     84.28s CPU     99.32s WALL (       1 calls)
     stress       :    349.12s CPU    421.86s WALL (       1 calls)

     Called by init_run:
     wfcinit      :     28.78s CPU     31.50s WALL (       1 calls)
     potinit      :      0.10s CPU      0.11s WALL (       1 calls)

     Called by electrons:
     c_bands      :    901.33s CPU   1042.63s WALL (      12 calls)
     sum_band     :     99.79s CPU    109.51s WALL (      12 calls)
     v_of_rho     :      0.70s CPU      0.70s WALL (      13 calls)
     newd         :      1.23s CPU      1.24s WALL (      13 calls)
     mix_rho      :      0.39s CPU      0.39s WALL (      12 calls)

     Called by c_bands:
     init_us_2    :      6.56s CPU      6.66s WALL (    5624 calls)
     cegterg      :    870.87s CPU   1010.98s WALL (    1776 calls)

     Called by *egterg:
     h_psi        :    429.10s CPU    474.79s WALL (    5542 calls)
     s_psi        :     43.90s CPU     44.96s WALL (    7170 calls)
     g_psi        :      0.71s CPU      0.70s WALL (    3618 calls)
     cdiaghg      :    172.32s CPU    237.07s WALL (    5394 calls)

     Called by h_psi:
     add_vuspsi   :     32.18s CPU     34.52s WALL (    5542 calls)
     vhpsi        :     63.32s CPU     89.64s WALL (    5542 calls)

     General routines
     calbec       :    558.55s CPU    672.70s WALL (   61996 calls)
     fft          :      0.50s CPU      0.50s WALL (     437 calls)
     ffts         :      0.22s CPU      0.23s WALL (     303 calls)
     fftw         :    280.50s CPU    287.48s WALL (  623098 calls)
     interpolate  :      0.10s CPU      0.10s WALL (      50 calls)
     davcio       :      0.02s CPU      0.02s WALL (     148 calls)

     Parallel routines
     fft_scatter  :    166.43s CPU    170.71s WALL (  623838 calls)
     Hubbard U routines
     new_ns       :     18.48s CPU     22.20s WALL (      12 calls)
     vhpsi        :     63.32s CPU     89.64s WALL (    5542 calls)
     force_hub    :     76.21s CPU     90.35s WALL (       1 calls)
     stres_hub    :    337.07s CPU    409.83s WALL (       1 calls)

     PWSCF        : 24m30.55s CPU    28m32.78s WALL


   This run was terminated on:   3: 6:26  24Aug2017            

=------------------------------------------------------------------------------=
   JOB DONE.
=------------------------------------------------------------------------------=
