
     Program PWSCF v.5.1 starts on 17Aug2017 at  9:57:38 

     This program is part of the open-source Quantum ESPRESSO suite
     for quantum simulation of materials; please cite
         "P. Giannozzi et al., J. Phys.:Condens. Matter 21 395502 (2009);
          URL http://www.quantum-espresso.org", 
     in publications or presentations arising from this work. More details at
     http://www.quantum-espresso.org/quote

     Parallel version (MPI), running on     8 processors
     R & G space division:  proc/nbgrp/npool/nimage =       8
     Reading input from /tmp/mno_fm.scf.in.super.222.sub.04.1807/mno_fm.scf.in.super.222.sub.04.t
Warning: card &IONS ignored
Warning: card   ION_DYNAMICS='BFGS', ignored
Warning: card / ignored
Warning: card &CELL ignored
Warning: card  CELL_DYNAMICS = 'BFGS' ignored
Warning: card / ignored

     Current dimensions of program PWSCF are:
     Max number of different atomic species (ntypx) = 10
     Max number of k-points (npk) =  40000
     Max angular momentum in pseudopotentials (lmaxx) =  3
 kfg - two_fermi_energies  T

     Subspace diagonalization in iterative solution of the eigenvalue problem:
     a serial algorithm will be used


     Parallelization info
     --------------------
     sticks:   dense  smooth     PW     G-vecs:    dense   smooth      PW
     Min         245     202     57                 7169     5327     827
     Max         246     203     58                 7171     5345     830
     Sum        1965    1617    463                57359    42675    6633

     Generating pointlists ...
     new r_m :   0.1416 (alat units)  1.6867 (a.u.) for type    1
     new r_m :   0.1415 (alat units)  1.6856 (a.u.) for type    2
     new r_m :   0.1415 (alat units)  1.6856 (a.u.) for type    3


     bravais-lattice index     =            0
     lattice parameter (alat)  =    11.913407494  a.u.
     unit-cell volume          =    1202.6597 (a.u.)^3
     number of atoms/cell      =           16
     number of atomic types    =            3
     number of electrons       =       168.00 (up:  89.00, down:  79.00)
     number of Kohn-Sham states=          107
     kinetic-energy cutoff     =      41.0000  Ry
     charge density cutoff     =     200.0000  Ry
     convergence threshold     =      1.0E-08
     mixing beta               =       0.3000
     number of iterations used =            8  local-TF  mixing
     Exchange-correlation      = SLA  PW   PSX  PSC ( 1  4 10  8 0)
     A smooth kinetic-energy cutoff is imposed at      40.0000 Ry
     height of the smooth step-function =             800.0000 Ry
     width of the smooth step-function  =               1.0000 Ry


     celldm(1)=  11.913407  celldm(2)=   0.000000  celldm(3)=   0.000000
     celldm(4)=   0.000000  celldm(5)=   0.000000  celldm(6)=   0.000000

     crystal axes: (cart. coord. in units of alat)
               a(1) = (   0.708498495306   0.705663310552   0.008317108282 )  
               a(2) = (   0.717307008429   0.007082395411   0.717663374031 )  
               a(3) = (   0.004533195775   0.712935241380   0.708991517120 )  

     reciprocal axes: (cart. coord. in units 2 pi/alat)
               b(1) = (  0.712283  0.710435 -0.718941 )  
               b(2) = (  0.695066 -0.706175  0.705659 )  
               b(3) = ( -0.711923  0.706479  0.704597 )  


     PseudoPot. # 1 for Mn read from file:
     /users/kfg/psuedo/gbrv_1.5/mn.pbesol.UPF
     MD5 check sum: 0716d5f563e6e95a34f9080f4c78c109
     Pseudo is Ultrasoft + core correction, Zval = 15.0
     Generated by new atomic code, or converted to UPF format
     Using radial grid of  859 points,  6 beta functions with: 
                l(1) =   0
                l(2) =   0
                l(3) =   1
                l(4) =   1
                l(5) =   2
                l(6) =   2
     Q(r) pseudized with  8 coefficients,  rinner =    0.950   0.950   0.950
                                                       0.950   0.950

     PseudoPot. # 2 for Mn read from file:
     /users/kfg/psuedo/gbrv_1.5/mn.pbesol.UPF
     MD5 check sum: 0716d5f563e6e95a34f9080f4c78c109
     Pseudo is Ultrasoft + core correction, Zval = 15.0
     Generated by new atomic code, or converted to UPF format
     Using radial grid of  859 points,  6 beta functions with: 
                l(1) =   0
                l(2) =   0
                l(3) =   1
                l(4) =   1
                l(5) =   2
                l(6) =   2
     Q(r) pseudized with  8 coefficients,  rinner =    0.950   0.950   0.950
                                                       0.950   0.950

     PseudoPot. # 3 for O  read from file:
     /users/kfg/psuedo/gbrv_1.5/o.pbesol.UPF
     MD5 check sum: 501638753501ef6325af9037351f7734
     Pseudo is Ultrasoft + core correction, Zval =  6.0
     Generated by new atomic code, or converted to UPF format
     Using radial grid of  737 points,  5 beta functions with: 
                l(1) =   0
                l(2) =   0
                l(3) =   1
                l(4) =   1
                l(5) =   2
     Q(r) pseudized with  8 coefficients,  rinner =    0.900   0.900   0.900
                                                       0.900   0.900

     atomic species   valence    mass     pseudopotential
        Mn            15.00    54.90000     Mn( 1.00)
        Fe            15.00    54.90000     Mn( 1.00)
        O              6.00    15.99900     O ( 1.00)

     Starting magnetic structure 
     atomic species   magnetization
        Mn           1.000
        Fe          -1.000
        O            0.000


     Simplified LDA+U calculation (l_max = 2) with parameters (eV):
     atomic species    L          U    alpha       J0     beta
        Mn             2     3.0000   0.0000   0.0000   0.0000
        Fe             2     3.0000   0.0000   0.0000   0.0000



     No symmetry found



   Cartesian axes

     site n.     atom                  positions (alat units)
         1           Mn  tau(   1) = (    0.00598510278   -0.00180069980   -0.00189334018  )
         2           O   tau(   2) = (    0.35788774661    0.36217456628    0.36012108728  )
         3           Fe  tau(   3) = (   -0.00374570753    0.35519678922    0.35619743740  )
         4           O   tau(   4) = (    0.35885673347    0.71614092883    0.71087685151  )
         5           Mn  tau(   5) = (    0.35818618734    0.00310649322    0.35398835783  )
         6           O   tau(   6) = (    0.72267240594    0.35649942048    0.72273417512  )
         7           Fe  tau(   7) = (    0.35749115330    0.35255205350    0.70504240063  )
         8           O   tau(   8) = (    0.72576778881    0.72373894236    1.06815034644  )
         9           Fe  tau(   9) = (    0.35969595632    0.34779783806    0.00343030899  )
        10           O   tau(  10) = (    0.70554284000    0.71361623771    0.36816334238  )
        11           Mn  tau(  11) = (    0.35685716112    0.70923908244    0.36175878224  )
        12           O   tau(  12) = (    0.70980301778    1.07371687415    0.71155489438  )
        13           Mn  tau(  13) = (    0.71067495942    0.36365048240    0.36486873075  )
        14           O   tau(  14) = (    1.06456653673    0.70532801524    0.72782019070  )
        15           Mn  tau(  15) = (    0.70738070507    0.71898061111    0.71703781148  )
        16           O   tau(  16) = (    1.07907235706    1.06884334723    1.08456055450  )

     number of k points=    72  gaussian smearing, width (Ry)=  0.0100
                       cart. coord. in units 2pi/alat
        k(    1) = (   0.0000000   0.0000000   0.0000000), wk =   0.0156250
        k(    2) = (  -0.1779808   0.1766197   0.1761494), wk =   0.0312500
        k(    3) = (   0.3559615  -0.3532394  -0.3522987), wk =   0.0156250
        k(    4) = (   0.1737664  -0.1765439   0.1764148), wk =   0.0312500
        k(    5) = (  -0.0042143   0.0000758   0.3525642), wk =   0.0312500
        k(    6) = (   0.5297280  -0.5297833  -0.1758839), wk =   0.0312500
        k(    7) = (   0.3517472  -0.3531636   0.0002655), wk =   0.0312500
        k(    8) = (  -0.3475329   0.3530877  -0.3528297), wk =   0.0156250
        k(    9) = (  -0.5255136   0.5297074  -0.1766803), wk =   0.0312500
        k(   10) = (   0.0084286  -0.0001517  -0.7051284), wk =   0.0156250
        k(   11) = (   0.1780709   0.1776087  -0.1797352), wk =   0.0312500
        k(   12) = (   0.0000901   0.3542284  -0.0035858), wk =   0.0312500
        k(   13) = (   0.5340324  -0.1756307  -0.5320339), wk =   0.0312500
        k(   14) = (   0.3560516   0.0009890  -0.3558846), wk =   0.0312500
        k(   15) = (   0.3518373   0.0010648  -0.0033204), wk =   0.0312500
        k(   16) = (   0.1738565   0.1776845   0.1728290), wk =   0.0312500
        k(   17) = (   0.7077988  -0.3521746  -0.3556191), wk =   0.0312500
        k(   18) = (   0.5298181  -0.1755549  -0.1794697), wk =   0.0312500
        k(   19) = (  -0.1694620   0.5306964  -0.5325649), wk =   0.0312500
        k(   20) = (  -0.3474428   0.7073161  -0.3564155), wk =   0.0312500
        k(   21) = (   0.1864995   0.1774570  -0.8848636), wk =   0.0312500
        k(   22) = (   0.0085187   0.3540767  -0.7087142), wk =   0.0312500
        k(   23) = (   0.0043044   0.3541526  -0.3561500), wk =   0.0312500
        k(   24) = (  -0.1736763   0.5307723  -0.1800007), wk =   0.0312500
        k(   25) = (   0.3602659   0.0009132  -0.7084488), wk =   0.0312500
        k(   26) = (   0.1822852   0.1775329  -0.5322994), wk =   0.0312500
        k(   27) = (  -0.3561417  -0.3552174   0.3594704), wk =   0.0156250
        k(   28) = (  -0.5341225  -0.1785977   0.5356198), wk =   0.0312500
        k(   29) = (  -0.0001802  -0.7084568   0.0071717), wk =   0.0156250
        k(   30) = (  -0.1823753  -0.5317613   0.5358852), wk =   0.0312500
        k(   31) = (  -0.3603560  -0.3551416   0.7120346), wk =   0.0312500
        k(   32) = (   0.1735862  -0.8850007   0.1835865), wk =   0.0312500
        k(   33) = (  -0.0043945  -0.7083810   0.3597359), wk =   0.0312500
        k(   34) = (  -0.7036746  -0.0021297   0.0066407), wk =   0.0156250
        k(   35) = (  -0.8816554   0.1744900   0.1827901), wk =   0.0312500
        k(   36) = (  -0.3477131  -0.3553691  -0.3456580), wk =   0.0156250
        k(   37) = (   0.0000000   0.0000000   0.0000000), wk =   0.0156250
        k(   38) = (  -0.1779808   0.1766197   0.1761494), wk =   0.0312500
        k(   39) = (   0.3559615  -0.3532394  -0.3522987), wk =   0.0156250
        k(   40) = (   0.1737664  -0.1765439   0.1764148), wk =   0.0312500
        k(   41) = (  -0.0042143   0.0000758   0.3525642), wk =   0.0312500
        k(   42) = (   0.5297280  -0.5297833  -0.1758839), wk =   0.0312500
        k(   43) = (   0.3517472  -0.3531636   0.0002655), wk =   0.0312500
        k(   44) = (  -0.3475329   0.3530877  -0.3528297), wk =   0.0156250
        k(   45) = (  -0.5255136   0.5297074  -0.1766803), wk =   0.0312500
        k(   46) = (   0.0084286  -0.0001517  -0.7051284), wk =   0.0156250
        k(   47) = (   0.1780709   0.1776087  -0.1797352), wk =   0.0312500
        k(   48) = (   0.0000901   0.3542284  -0.0035858), wk =   0.0312500
        k(   49) = (   0.5340324  -0.1756307  -0.5320339), wk =   0.0312500
        k(   50) = (   0.3560516   0.0009890  -0.3558846), wk =   0.0312500
        k(   51) = (   0.3518373   0.0010648  -0.0033204), wk =   0.0312500
        k(   52) = (   0.1738565   0.1776845   0.1728290), wk =   0.0312500
        k(   53) = (   0.7077988  -0.3521746  -0.3556191), wk =   0.0312500
        k(   54) = (   0.5298181  -0.1755549  -0.1794697), wk =   0.0312500
        k(   55) = (  -0.1694620   0.5306964  -0.5325649), wk =   0.0312500
        k(   56) = (  -0.3474428   0.7073161  -0.3564155), wk =   0.0312500
        k(   57) = (   0.1864995   0.1774570  -0.8848636), wk =   0.0312500
        k(   58) = (   0.0085187   0.3540767  -0.7087142), wk =   0.0312500
        k(   59) = (   0.0043044   0.3541526  -0.3561500), wk =   0.0312500
        k(   60) = (  -0.1736763   0.5307723  -0.1800007), wk =   0.0312500
        k(   61) = (   0.3602659   0.0009132  -0.7084488), wk =   0.0312500
        k(   62) = (   0.1822852   0.1775329  -0.5322994), wk =   0.0312500
        k(   63) = (  -0.3561417  -0.3552174   0.3594704), wk =   0.0156250
        k(   64) = (  -0.5341225  -0.1785977   0.5356198), wk =   0.0312500
        k(   65) = (  -0.0001802  -0.7084568   0.0071717), wk =   0.0156250
        k(   66) = (  -0.1823753  -0.5317613   0.5358852), wk =   0.0312500
        k(   67) = (  -0.3603560  -0.3551416   0.7120346), wk =   0.0312500
        k(   68) = (   0.1735862  -0.8850007   0.1835865), wk =   0.0312500
        k(   69) = (  -0.0043945  -0.7083810   0.3597359), wk =   0.0312500
        k(   70) = (  -0.7036746  -0.0021297   0.0066407), wk =   0.0156250
        k(   71) = (  -0.8816554   0.1744900   0.1827901), wk =   0.0312500
        k(   72) = (  -0.3477131  -0.3553691  -0.3456580), wk =   0.0156250

     Dense  grid:    57359 G-vectors     FFT dimensions: (  54,  60,  54)

     Smooth grid:    42675 G-vectors     FFT dimensions: (  50,  50,  50)

     Largest allocated arrays     est. size (Mb)     dimensions
        Kohn-Sham Wavefunctions         1.11 Mb     (     677,  107)
        Atomic Hubbard wavefuncts       0.41 Mb     (     677,   40)
        NL pseudopotentials             2.56 Mb     (     677,  248)
        Each V/rho on FFT grid          0.69 Mb     (   22680,   2)
        Each G-vector array             0.05 Mb     (    7171)
        G-vector shells                 0.05 Mb     (    7016)
     Largest temporary arrays     est. size (Mb)     dimensions
        Auxiliary wavefunctions         4.42 Mb     (     677,  428)
        Each subspace H/S matrix        2.80 Mb     (     428,  428)
        Each <psi_i|beta_j> matrix      0.40 Mb     (     248,  107)
        Arrays for rho mixing           2.77 Mb     (   22680,    8)

     Check: negative/imaginary core charge=   -0.000061    0.000000

     Initial potential from superposition of free atoms

     starting charge  163.99935, renormalised to  168.00000
     Number of +U iterations with fixed ns =  0
     Starting occupations:
 --- enter write_ns ---
 LDA+U parameters:
U( 1)     =  3.00000000
alpha( 1) =  0.00000000
U( 2)     =  3.00000000
alpha( 2) =  0.00000000
atom    1   Tr[ns(na)] (up, down, total) =   5.00000  0.00000  5.00000
   spin  1
    eigenvalues: 
  1.000  1.000  1.000  1.000  1.000
    eigenvectors:
  1.000  0.000  0.000  0.000  0.000
  0.000  1.000  0.000  0.000  0.000
  0.000  0.000  1.000  0.000  0.000
  0.000  0.000  0.000  1.000  0.000
  0.000  0.000  0.000  0.000  1.000
    occupations:
  1.000  0.000  0.000  0.000  0.000
  0.000  1.000  0.000  0.000  0.000
  0.000  0.000  1.000  0.000  0.000
  0.000  0.000  0.000  1.000  0.000
  0.000  0.000  0.000  0.000  1.000
   spin  2
    eigenvalues: 
  0.000  0.000  0.000  0.000  0.000
    eigenvectors:
  1.000  0.000  0.000  0.000  0.000
  0.000  1.000  0.000  0.000  0.000
  0.000  0.000  1.000  0.000  0.000
  0.000  0.000  0.000  1.000  0.000
  0.000  0.000  0.000  0.000  1.000
    occupations:
  0.000  0.000  0.000  0.000  0.000
  0.000  0.000  0.000  0.000  0.000
  0.000  0.000  0.000  0.000  0.000
  0.000  0.000  0.000  0.000  0.000
  0.000  0.000  0.000  0.000  0.000
atomic mag. moment =     5.000000
atom    3   Tr[ns(na)] (up, down, total) =   0.00000  5.00000  5.00000
   spin  1
    eigenvalues: 
  0.000  0.000  0.000  0.000  0.000
    eigenvectors:
  1.000  0.000  0.000  0.000  0.000
  0.000  1.000  0.000  0.000  0.000
  0.000  0.000  1.000  0.000  0.000
  0.000  0.000  0.000  1.000  0.000
  0.000  0.000  0.000  0.000  1.000
    occupations:
  0.000  0.000  0.000  0.000  0.000
  0.000  0.000  0.000  0.000  0.000
  0.000  0.000  0.000  0.000  0.000
  0.000  0.000  0.000  0.000  0.000
  0.000  0.000  0.000  0.000  0.000
   spin  2
    eigenvalues: 
  1.000  1.000  1.000  1.000  1.000
    eigenvectors:
  1.000  0.000  0.000  0.000  0.000
  0.000  1.000  0.000  0.000  0.000
  0.000  0.000  1.000  0.000  0.000
  0.000  0.000  0.000  1.000  0.000
  0.000  0.000  0.000  0.000  1.000
    occupations:
  1.000  0.000  0.000  0.000  0.000
  0.000  1.000  0.000  0.000  0.000
  0.000  0.000  1.000  0.000  0.000
  0.000  0.000  0.000  1.000  0.000
  0.000  0.000  0.000  0.000  1.000
atomic mag. moment =    -5.000000
atom    5   Tr[ns(na)] (up, down, total) =   5.00000  0.00000  5.00000
   spin  1
    eigenvalues: 
  1.000  1.000  1.000  1.000  1.000
    eigenvectors:
  1.000  0.000  0.000  0.000  0.000
  0.000  1.000  0.000  0.000  0.000
  0.000  0.000  1.000  0.000  0.000
  0.000  0.000  0.000  1.000  0.000
  0.000  0.000  0.000  0.000  1.000
    occupations:
  1.000  0.000  0.000  0.000  0.000
  0.000  1.000  0.000  0.000  0.000
  0.000  0.000  1.000  0.000  0.000
  0.000  0.000  0.000  1.000  0.000
  0.000  0.000  0.000  0.000  1.000
   spin  2
    eigenvalues: 
  0.000  0.000  0.000  0.000  0.000
    eigenvectors:
  1.000  0.000  0.000  0.000  0.000
  0.000  1.000  0.000  0.000  0.000
  0.000  0.000  1.000  0.000  0.000
  0.000  0.000  0.000  1.000  0.000
  0.000  0.000  0.000  0.000  1.000
    occupations:
  0.000  0.000  0.000  0.000  0.000
  0.000  0.000  0.000  0.000  0.000
  0.000  0.000  0.000  0.000  0.000
  0.000  0.000  0.000  0.000  0.000
  0.000  0.000  0.000  0.000  0.000
atomic mag. moment =     5.000000
atom    7   Tr[ns(na)] (up, down, total) =   0.00000  5.00000  5.00000
   spin  1
    eigenvalues: 
  0.000  0.000  0.000  0.000  0.000
    eigenvectors:
  1.000  0.000  0.000  0.000  0.000
  0.000  1.000  0.000  0.000  0.000
  0.000  0.000  1.000  0.000  0.000
  0.000  0.000  0.000  1.000  0.000
  0.000  0.000  0.000  0.000  1.000
    occupations:
  0.000  0.000  0.000  0.000  0.000
  0.000  0.000  0.000  0.000  0.000
  0.000  0.000  0.000  0.000  0.000
  0.000  0.000  0.000  0.000  0.000
  0.000  0.000  0.000  0.000  0.000
   spin  2
    eigenvalues: 
  1.000  1.000  1.000  1.000  1.000
    eigenvectors:
  1.000  0.000  0.000  0.000  0.000
  0.000  1.000  0.000  0.000  0.000
  0.000  0.000  1.000  0.000  0.000
  0.000  0.000  0.000  1.000  0.000
  0.000  0.000  0.000  0.000  1.000
    occupations:
  1.000  0.000  0.000  0.000  0.000
  0.000  1.000  0.000  0.000  0.000
  0.000  0.000  1.000  0.000  0.000
  0.000  0.000  0.000  1.000  0.000
  0.000  0.000  0.000  0.000  1.000
atomic mag. moment =    -5.000000
atom    9   Tr[ns(na)] (up, down, total) =   0.00000  5.00000  5.00000
   spin  1
    eigenvalues: 
  0.000  0.000  0.000  0.000  0.000
    eigenvectors:
  1.000  0.000  0.000  0.000  0.000
  0.000  1.000  0.000  0.000  0.000
  0.000  0.000  1.000  0.000  0.000
  0.000  0.000  0.000  1.000  0.000
  0.000  0.000  0.000  0.000  1.000
    occupations:
  0.000  0.000  0.000  0.000  0.000
  0.000  0.000  0.000  0.000  0.000
  0.000  0.000  0.000  0.000  0.000
  0.000  0.000  0.000  0.000  0.000
  0.000  0.000  0.000  0.000  0.000
   spin  2
    eigenvalues: 
  1.000  1.000  1.000  1.000  1.000
    eigenvectors:
  1.000  0.000  0.000  0.000  0.000
  0.000  1.000  0.000  0.000  0.000
  0.000  0.000  1.000  0.000  0.000
  0.000  0.000  0.000  1.000  0.000
  0.000  0.000  0.000  0.000  1.000
    occupations:
  1.000  0.000  0.000  0.000  0.000
  0.000  1.000  0.000  0.000  0.000
  0.000  0.000  1.000  0.000  0.000
  0.000  0.000  0.000  1.000  0.000
  0.000  0.000  0.000  0.000  1.000
atomic mag. moment =    -5.000000
atom   11   Tr[ns(na)] (up, down, total) =   5.00000  0.00000  5.00000
   spin  1
    eigenvalues: 
  1.000  1.000  1.000  1.000  1.000
    eigenvectors:
  1.000  0.000  0.000  0.000  0.000
  0.000  1.000  0.000  0.000  0.000
  0.000  0.000  1.000  0.000  0.000
  0.000  0.000  0.000  1.000  0.000
  0.000  0.000  0.000  0.000  1.000
    occupations:
  1.000  0.000  0.000  0.000  0.000
  0.000  1.000  0.000  0.000  0.000
  0.000  0.000  1.000  0.000  0.000
  0.000  0.000  0.000  1.000  0.000
  0.000  0.000  0.000  0.000  1.000
   spin  2
    eigenvalues: 
  0.000  0.000  0.000  0.000  0.000
    eigenvectors:
  1.000  0.000  0.000  0.000  0.000
  0.000  1.000  0.000  0.000  0.000
  0.000  0.000  1.000  0.000  0.000
  0.000  0.000  0.000  1.000  0.000
  0.000  0.000  0.000  0.000  1.000
    occupations:
  0.000  0.000  0.000  0.000  0.000
  0.000  0.000  0.000  0.000  0.000
  0.000  0.000  0.000  0.000  0.000
  0.000  0.000  0.000  0.000  0.000
  0.000  0.000  0.000  0.000  0.000
atomic mag. moment =     5.000000
atom   13   Tr[ns(na)] (up, down, total) =   5.00000  0.00000  5.00000
   spin  1
    eigenvalues: 
  1.000  1.000  1.000  1.000  1.000
    eigenvectors:
  1.000  0.000  0.000  0.000  0.000
  0.000  1.000  0.000  0.000  0.000
  0.000  0.000  1.000  0.000  0.000
  0.000  0.000  0.000  1.000  0.000
  0.000  0.000  0.000  0.000  1.000
    occupations:
  1.000  0.000  0.000  0.000  0.000
  0.000  1.000  0.000  0.000  0.000
  0.000  0.000  1.000  0.000  0.000
  0.000  0.000  0.000  1.000  0.000
  0.000  0.000  0.000  0.000  1.000
   spin  2
    eigenvalues: 
  0.000  0.000  0.000  0.000  0.000
    eigenvectors:
  1.000  0.000  0.000  0.000  0.000
  0.000  1.000  0.000  0.000  0.000
  0.000  0.000  1.000  0.000  0.000
  0.000  0.000  0.000  1.000  0.000
  0.000  0.000  0.000  0.000  1.000
    occupations:
  0.000  0.000  0.000  0.000  0.000
  0.000  0.000  0.000  0.000  0.000
  0.000  0.000  0.000  0.000  0.000
  0.000  0.000  0.000  0.000  0.000
  0.000  0.000  0.000  0.000  0.000
atomic mag. moment =     5.000000
atom   15   Tr[ns(na)] (up, down, total) =   5.00000  0.00000  5.00000
   spin  1
    eigenvalues: 
  1.000  1.000  1.000  1.000  1.000
    eigenvectors:
  1.000  0.000  0.000  0.000  0.000
  0.000  1.000  0.000  0.000  0.000
  0.000  0.000  1.000  0.000  0.000
  0.000  0.000  0.000  1.000  0.000
  0.000  0.000  0.000  0.000  1.000
    occupations:
  1.000  0.000  0.000  0.000  0.000
  0.000  1.000  0.000  0.000  0.000
  0.000  0.000  1.000  0.000  0.000
  0.000  0.000  0.000  1.000  0.000
  0.000  0.000  0.000  0.000  1.000
   spin  2
    eigenvalues: 
  0.000  0.000  0.000  0.000  0.000
    eigenvectors:
  1.000  0.000  0.000  0.000  0.000
  0.000  1.000  0.000  0.000  0.000
  0.000  0.000  1.000  0.000  0.000
  0.000  0.000  0.000  1.000  0.000
  0.000  0.000  0.000  0.000  1.000
    occupations:
  0.000  0.000  0.000  0.000  0.000
  0.000  0.000  0.000  0.000  0.000
  0.000  0.000  0.000  0.000  0.000
  0.000  0.000  0.000  0.000  0.000
  0.000  0.000  0.000  0.000  0.000
atomic mag. moment =     5.000000
N of occupied +U levels =   40.000000
 --- exit write_ns ---
 Atomic wfc used for LDA+U Projector are NOT orthogonalized
     Starting wfc are  136 randomized atomic wfcs

     total cpu time spent up to now is       68.9 secs

     per-process dynamical memory:   138.7 Mb

     Self-consistent Calculation

     iteration #  1     ecut=    41.00 Ry     beta=0.30
     Davidson diagonalization with overlap
     ethr =  1.00E-02,  avg # of iterations =  5.1
 --- enter write_ns ---
 LDA+U parameters:
U( 1)     =  3.00000000
alpha( 1) =  0.00000000
U( 2)     =  3.00000000
alpha( 2) =  0.00000000
atom    1   Tr[ns(na)] (up, down, total) =   4.98921  0.20641  5.19562
   spin  1
    eigenvalues: 
  0.997  0.998  0.998  0.998  0.998
    eigenvectors:
  0.325  0.556  0.023  0.060  0.036
  0.001  0.006  0.865  0.015  0.113
  0.015  0.078  0.024  0.859  0.022
  0.645  0.346  0.004  0.004  0.001
  0.014  0.014  0.083  0.061  0.828
    occupations:
  0.997 -0.000 -0.000 -0.001  0.000
 -0.000  0.998  0.000 -0.000 -0.000
 -0.000  0.000  0.998 -0.000  0.000
 -0.001 -0.000 -0.000  0.997  0.000
  0.000 -0.000  0.000  0.000  0.998
   spin  2
    eigenvalues: 
  0.021  0.025  0.028  0.063  0.070
    eigenvectors:
  0.000  0.000  0.001  0.811  0.189
  0.994  0.003  0.003  0.000  0.000
  0.003  0.996  0.001  0.000  0.001
  0.000  0.001  0.000  0.188  0.811
  0.003  0.001  0.996  0.000  0.000
    occupations:
  0.064  0.001 -0.000  0.003 -0.001
  0.001  0.021  0.000 -0.000 -0.000
 -0.000  0.000  0.025  0.001 -0.000
  0.003 -0.000  0.001  0.069 -0.000
 -0.001 -0.000 -0.000 -0.000  0.028
atomic mag. moment =     4.782793
atom    3   Tr[ns(na)] (up, down, total) =   0.21569  4.99369  5.20938
   spin  1
    eigenvalues: 
  0.024  0.027  0.028  0.066  0.070
    eigenvectors:
  0.000  0.000  0.001  0.091  0.907
  0.998  0.001  0.002  0.000  0.000
  0.001  0.060  0.937  0.001  0.001
  0.000  0.000  0.000  0.908  0.091
  0.001  0.938  0.060  0.000  0.000
    occupations:
  0.070  0.000 -0.002 -0.001 -0.001
  0.000  0.024  0.000  0.000 -0.000
 -0.002  0.000  0.028 -0.000 -0.000
 -0.001  0.000 -0.000  0.067 -0.000
 -0.001 -0.000 -0.000 -0.000  0.027
   spin  2
    eigenvalues: 
  0.998  0.998  0.998  0.999  0.999
    eigenvectors:
  0.002  0.004  0.000  0.579  0.415
  0.023  0.000  0.976  0.000  0.001
  0.009  0.986  0.000  0.001  0.004
  0.000  0.001  0.000  0.419  0.579
  0.965  0.009  0.024  0.001  0.001
    occupations:
  0.999 -0.000 -0.000  0.000 -0.000
 -0.000  0.998  0.000 -0.000 -0.000
 -0.000  0.000  0.998 -0.000  0.000
  0.000 -0.000 -0.000  0.999 -0.000
 -0.000 -0.000  0.000 -0.000  0.998
atomic mag. moment =    -4.777996
atom    5   Tr[ns(na)] (up, down, total) =   4.99111  0.19338  5.18449
   spin  1
    eigenvalues: 
  0.998  0.998  0.998  0.998  0.998
    eigenvectors:
  0.052  0.015  0.337  0.405  0.191
  0.758  0.001  0.108  0.048  0.085
  0.034  0.129  0.146  0.366  0.324
  0.123  0.466  0.133  0.001  0.277
  0.034  0.388  0.275  0.180  0.123
    occupations:
  0.998 -0.000 -0.000 -0.000  0.000
 -0.000  0.998 -0.000 -0.000  0.000
 -0.000 -0.000  0.998  0.000  0.000
 -0.000 -0.000  0.000  0.998 -0.000
  0.000  0.000  0.000 -0.000  0.998
   spin  2
    eigenvalues: 
  0.020  0.023  0.026  0.061  0.064
    eigenvectors:
  0.000  0.001  0.000  0.414  0.586
  0.994  0.002  0.003  0.000  0.000
  0.003  0.001  0.996  0.000  0.000
  0.000  0.000  0.000  0.586  0.414
  0.003  0.996  0.001  0.000  0.001
    occupations:
  0.062 -0.000 -0.000  0.001  0.001
 -0.000  0.020 -0.000  0.000  0.000
 -0.000 -0.000  0.026 -0.001 -0.000
  0.001  0.000 -0.001  0.062  0.001
  0.001  0.000 -0.000  0.001  0.023
atomic mag. moment =     4.797724
atom    7   Tr[ns(na)] (up, down, total) =   0.20084  4.99167  5.19250
   spin  1
    eigenvalues: 
  0.024  0.026  0.027  0.061  0.063
    eigenvectors:
  0.000  0.000  0.000  0.094  0.905
  0.990  0.008  0.002  0.000  0.000
  0.002  0.000  0.997  0.000  0.000
  0.000  0.000  0.000  0.905  0.095
  0.008  0.991  0.000  0.000  0.000
    occupations:
  0.063  0.000  0.000  0.001  0.000
  0.000  0.024 -0.000 -0.000  0.000
  0.000 -0.000  0.027 -0.001  0.000
  0.001 -0.000 -0.001  0.061 -0.001
  0.000  0.000  0.000 -0.001  0.026
   spin  2
    eigenvalues: 
  0.998  0.998  0.998  0.998  0.999
    eigenvectors:
  0.905  0.055  0.002  0.000  0.039
  0.001  0.001  0.767  0.230  0.001
  0.085  0.410  0.028  0.104  0.373
  0.002  0.117  0.105  0.280  0.496
  0.007  0.418  0.099  0.385  0.091
    occupations:
  0.998  0.000 -0.000 -0.000 -0.000
  0.000  0.998  0.000 -0.000  0.000
 -0.000  0.000  0.998  0.000  0.000
 -0.000 -0.000  0.000  0.998  0.000
 -0.000  0.000  0.000  0.000  0.998
atomic mag. moment =    -4.790829
atom    9   Tr[ns(na)] (up, down, total) =   0.22661  4.98886  5.21547
   spin  1
    eigenvalues: 
  0.026  0.029  0.029  0.070  0.072
    eigenvectors:
  0.000  0.000  0.000  0.887  0.112
  0.998  0.000  0.001  0.000  0.000
  0.000  0.701  0.298  0.000  0.000
  0.000  0.001  0.000  0.112  0.887
  0.001  0.298  0.700  0.000  0.000
    occupations:
  0.070 -0.000 -0.001  0.001 -0.000
 -0.000  0.026  0.000 -0.000 -0.000
 -0.001  0.000  0.029  0.001 -0.000
  0.001 -0.000  0.001  0.072  0.001
 -0.000 -0.000 -0.000  0.001  0.029
   spin  2
    eigenvalues: 
  0.997  0.997  0.998  0.998  0.998
    eigenvectors:
  0.257  0.737  0.000  0.001  0.004
  0.008  0.001  0.008  0.420  0.563
  0.004  0.001  0.474  0.257  0.264
  0.729  0.257  0.004  0.005  0.005
  0.001  0.004  0.514  0.317  0.164
    occupations:
  0.997 -0.000 -0.000 -0.000  0.000
 -0.000  0.998  0.000 -0.000 -0.000
 -0.000  0.000  0.998 -0.000 -0.000
 -0.000 -0.000 -0.000  0.997 -0.000
  0.000 -0.000 -0.000 -0.000  0.998
atomic mag. moment =    -4.762255
atom   11   Tr[ns(na)] (up, down, total) =   4.98820  0.22150  5.20970
   spin  1
    eigenvalues: 
  0.997  0.997  0.998  0.998  0.998
    eigenvectors:
  0.349  0.648  0.001  0.000  0.002
  0.000  0.001  0.958  0.023  0.017
  0.001  0.000  0.016  0.949  0.033
  0.648  0.351  0.000  0.001  0.001
  0.002  0.000  0.024  0.026  0.948
    occupations:
  0.997 -0.000  0.000  0.000 -0.000
 -0.000  0.998 -0.000 -0.000 -0.000
  0.000 -0.000  0.998 -0.000 -0.000
  0.000 -0.000 -0.000  0.997  0.000
 -0.000 -0.000 -0.000  0.000  0.998
   spin  2
    eigenvalues: 
  0.024  0.026  0.028  0.071  0.072
    eigenvectors:
  0.000  0.000  0.000  0.845  0.154
  0.989  0.003  0.006  0.000  0.001
  0.004  0.053  0.942  0.000  0.000
  0.001  0.000  0.000  0.154  0.845
  0.005  0.943  0.051  0.000  0.000
    occupations:
  0.071 -0.000 -0.001 -0.001 -0.001
 -0.000  0.024  0.000 -0.001 -0.000
 -0.001  0.000  0.028  0.001 -0.000
 -0.001 -0.001  0.001  0.072 -0.000
 -0.001 -0.000 -0.000 -0.000  0.026
atomic mag. moment =     4.766703
atom   13   Tr[ns(na)] (up, down, total) =   4.99383  0.19538  5.18921
   spin  1
    eigenvalues: 
  0.998  0.998  0.998  0.999  1.000
    eigenvectors:
  0.004  0.001  0.000  0.203  0.792
  0.697  0.255  0.033  0.015  0.000
  0.087  0.507  0.406  0.000  0.000
  0.009  0.002  0.000  0.781  0.207
  0.203  0.235  0.561  0.001  0.000
    occupations:
  1.000 -0.000 -0.000 -0.000 -0.000
 -0.000  0.998 -0.000 -0.000 -0.000
 -0.000 -0.000  0.998  0.000 -0.000
 -0.000 -0.000  0.000  1.000 -0.000
 -0.000 -0.000 -0.000 -0.000  0.998
   spin  2
    eigenvalues: 
  0.022  0.022  0.025  0.061  0.066
    eigenvectors:
  0.000  0.000  0.000  0.828  0.171
  0.005  0.000  0.995  0.000  0.000
  0.841  0.154  0.004  0.000  0.000
  0.000  0.000  0.000  0.171  0.828
  0.153  0.846  0.000  0.000  0.001
    occupations:
  0.062 -0.001  0.001  0.002  0.001
 -0.001  0.025 -0.000 -0.001 -0.000
  0.001 -0.000  0.022  0.001 -0.000
  0.002 -0.001  0.001  0.065  0.001
  0.001 -0.000 -0.000  0.001  0.022
atomic mag. moment =     4.798453
atom   15   Tr[ns(na)] (up, down, total) =   4.98951  0.20901  5.19852
   spin  1
    eigenvalues: 
  0.997  0.998  0.998  0.998  0.998
    eigenvectors:
  0.935  0.040  0.023  0.001  0.001
  0.010  0.058  0.926  0.000  0.006
  0.004  0.004  0.008  0.058  0.926
  0.051  0.889  0.043  0.004  0.013
  0.000  0.009  0.000  0.936  0.055
    occupations:
  0.997  0.000  0.000  0.000  0.000
  0.000  0.998 -0.000  0.000 -0.000
  0.000 -0.000  0.998 -0.000 -0.000
  0.000  0.000 -0.000  0.998  0.000
  0.000 -0.000 -0.000  0.000  0.998
   spin  2
    eigenvalues: 
  0.024  0.025  0.027  0.064  0.070
    eigenvectors:
  0.001  0.000  0.000  0.109  0.890
  0.979  0.006  0.014  0.001  0.000
  0.010  0.935  0.054  0.001  0.000
  0.001  0.001  0.000  0.888  0.110
  0.009  0.058  0.932  0.000  0.000
    occupations:
  0.069 -0.001 -0.001 -0.002  0.001
 -0.001  0.024 -0.000 -0.001  0.000
 -0.001 -0.000  0.025 -0.001 -0.000
 -0.002 -0.001 -0.001  0.065  0.000
  0.001  0.000 -0.000  0.000  0.027
atomic mag. moment =     4.780499
N of occupied +U levels =   41.594886
 --- exit write_ns ---

     negative rho (up, down):  1.343E-04 4.190E-04

     Magnetic moment per site:
     atom:    1    charge:   12.6823    magn:   10.1344    constr:    0.0000
     atom:    2    charge:    5.6113    magn:    0.0037    constr:    0.0000
     atom:    3    charge:   12.6841    magn:  -10.1255    constr:    0.0000
     atom:    4    charge:    5.6252    magn:    0.0673    constr:    0.0000
     atom:    5    charge:   12.6759    magn:   10.1333    constr:    0.0000
     atom:    6    charge:    5.5944    magn:    0.0006    constr:    0.0000
     atom:    7    charge:   12.6733    magn:  -10.1106    constr:    0.0000
     atom:    8    charge:    5.6022    magn:    0.1145    constr:    0.0000
     atom:    9    charge:   12.6870    magn:  -10.1147    constr:    0.0000
     atom:   10    charge:    5.6166    magn:    0.1090    constr:    0.0000
     atom:   11    charge:   12.6897    magn:   10.1354    constr:    0.0000
     atom:   12    charge:    5.6231    magn:   -0.0043    constr:    0.0000
     atom:   13    charge:   12.6798    magn:   10.1459    constr:    0.0000
     atom:   14    charge:    5.5928    magn:    0.0422    constr:    0.0000
     atom:   15    charge:   12.6831    magn:   10.1335    constr:    0.0000
     atom:   16    charge:    5.6084    magn:   -0.0063    constr:    0.0000

     total cpu time spent up to now is      301.2 secs

     total energy              =   -1937.94527026 Ry
     Harris-Foulkes estimate   =   -1921.80541792 Ry
     estimated scf accuracy    <      25.43926273 Ry

     total magnetization       =    10.00 Bohr mag/cell
     absolute magnetization    =    40.69 Bohr mag/cell

     iteration #  2     ecut=    41.00 Ry     beta=0.30
     Davidson diagonalization with overlap
     ethr =  1.00E-02,  avg # of iterations =  1.1

     negative rho (up, down):  6.493E-04 1.722E-03

     Magnetic moment per site:
     atom:    1    charge:   12.5689    magn:    4.4326    constr:    0.0000
     atom:    2    charge:    5.8329    magn:   -0.0027    constr:    0.0000
     atom:    3    charge:   12.5713    magn:   -4.4380    constr:    0.0000
     atom:    4    charge:    5.8477    magn:   -0.0158    constr:    0.0000
     atom:    5    charge:   12.5650    magn:    4.4318    constr:    0.0000
     atom:    6    charge:    5.8148    magn:   -0.0021    constr:    0.0000
     atom:    7    charge:   12.5617    magn:   -4.4264    constr:    0.0000
     atom:    8    charge:    5.8238    magn:   -0.0398    constr:    0.0000
     atom:    9    charge:   12.5709    magn:   -4.4312    constr:    0.0000
     atom:   10    charge:    5.8398    magn:   -0.0365    constr:    0.0000
     atom:   11    charge:   12.5738    magn:    4.4348    constr:    0.0000
     atom:   12    charge:    5.8458    magn:   -0.0025    constr:    0.0000
     atom:   13    charge:   12.5696    magn:    4.4378    constr:    0.0000
     atom:   14    charge:    5.8124    magn:   -0.0166    constr:    0.0000
     atom:   15    charge:   12.5692    magn:    4.4327    constr:    0.0000
     atom:   16    charge:    5.8303    magn:   -0.0035    constr:    0.0000

     total cpu time spent up to now is      425.6 secs

     total energy              =   -1945.61252172 Ry
     Harris-Foulkes estimate   =   -1938.20465309 Ry
     estimated scf accuracy    <      12.63690670 Ry

     total magnetization       =    10.00 Bohr mag/cell
     absolute magnetization    =    40.35 Bohr mag/cell

     iteration #  3     ecut=    41.00 Ry     beta=0.30
     Davidson diagonalization with overlap
     ethr =  7.52E-03,  avg # of iterations =  3.9

     negative rho (up, down):  6.929E-04 1.861E-03

     Magnetic moment per site:
     atom:    1    charge:   12.4968    magn:    4.2381    constr:    0.0000
     atom:    2    charge:    5.7999    magn:    0.0033    constr:    0.0000
     atom:    3    charge:   12.5004    magn:   -4.2049    constr:    0.0000
     atom:    4    charge:    5.8169    magn:    0.0312    constr:    0.0000
     atom:    5    charge:   12.4899    magn:    4.2433    constr:    0.0000
     atom:    6    charge:    5.7812    magn:    0.0043    constr:    0.0000
     atom:    7    charge:   12.4844    magn:   -4.2278    constr:    0.0000
     atom:    8    charge:    5.7894    magn:    0.0429    constr:    0.0000
     atom:    9    charge:   12.4990    magn:   -4.2185    constr:    0.0000
     atom:   10    charge:    5.8058    magn:    0.0442    constr:    0.0000
     atom:   11    charge:   12.5042    magn:    4.2332    constr:    0.0000
     atom:   12    charge:    5.8132    magn:    0.0020    constr:    0.0000
     atom:   13    charge:   12.4984    magn:    4.2190    constr:    0.0000
     atom:   14    charge:    5.7799    magn:    0.0223    constr:    0.0000
     atom:   15    charge:   12.4971    magn:    4.2370    constr:    0.0000
     atom:   16    charge:    5.7971    magn:    0.0006    constr:    0.0000

     total cpu time spent up to now is      638.1 secs

     total energy              =   -1946.16071714 Ry
     Harris-Foulkes estimate   =   -1946.29328920 Ry
     estimated scf accuracy    <       0.38784391 Ry

     total magnetization       =    10.00 Bohr mag/cell
     absolute magnetization    =    38.49 Bohr mag/cell

     iteration #  4     ecut=    41.00 Ry     beta=0.30
     Davidson diagonalization with overlap
     ethr =  2.31E-04,  avg # of iterations =  3.8

     negative rho (up, down):  7.215E-04 1.916E-03

     Magnetic moment per site:
     atom:    1    charge:   12.4879    magn:    4.1351    constr:    0.0000
     atom:    2    charge:    5.8102    magn:    0.0028    constr:    0.0000
     atom:    3    charge:   12.4920    magn:   -4.1001    constr:    0.0000
     atom:    4    charge:    5.8271    magn:    0.0342    constr:    0.0000
     atom:    5    charge:   12.4807    magn:    4.1409    constr:    0.0000
     atom:    6    charge:    5.7916    magn:    0.0038    constr:    0.0000
     atom:    7    charge:   12.4752    magn:   -4.1263    constr:    0.0000
     atom:    8    charge:    5.7999    magn:    0.0500    constr:    0.0000
     atom:    9    charge:   12.4904    magn:   -4.1161    constr:    0.0000
     atom:   10    charge:    5.8162    magn:    0.0509    constr:    0.0000
     atom:   11    charge:   12.4956    magn:    4.1298    constr:    0.0000
     atom:   12    charge:    5.8235    magn:    0.0014    constr:    0.0000
     atom:   13    charge:   12.4897    magn:    4.1143    constr:    0.0000
     atom:   14    charge:    5.7903    magn:    0.0246    constr:    0.0000
     atom:   15    charge:   12.4881    magn:    4.1340    constr:    0.0000
     atom:   16    charge:    5.8074    magn:   -0.0001    constr:    0.0000

     total cpu time spent up to now is      880.1 secs

     total energy              =   -1946.23286420 Ry
     Harris-Foulkes estimate   =   -1946.24015076 Ry
     estimated scf accuracy    <       0.03403462 Ry

     total magnetization       =    10.00 Bohr mag/cell
     absolute magnetization    =    38.45 Bohr mag/cell

     iteration #  5     ecut=    41.00 Ry     beta=0.30
     Davidson diagonalization with overlap
     ethr =  2.03E-05,  avg # of iterations =  3.4

     negative rho (up, down):  7.638E-04 1.995E-03

     Magnetic moment per site:
     atom:    1    charge:   12.4557    magn:    4.1976    constr:    0.0000
     atom:    2    charge:    5.8182    magn:    0.0027    constr:    0.0000
     atom:    3    charge:   12.4619    magn:   -4.1469    constr:    0.0000
     atom:    4    charge:    5.8355    magn:    0.0597    constr:    0.0000
     atom:    5    charge:   12.4467    magn:    4.2064    constr:    0.0000
     atom:    6    charge:    5.7998    magn:    0.0036    constr:    0.0000
     atom:    7    charge:   12.4411    magn:   -4.1920    constr:    0.0000
     atom:    8    charge:    5.8080    magn:    0.1020    constr:    0.0000
     atom:    9    charge:   12.4599    magn:   -4.1759    constr:    0.0000
     atom:   10    charge:    5.8240    magn:    0.1002    constr:    0.0000
     atom:   11    charge:   12.4652    magn:    4.1894    constr:    0.0000
     atom:   12    charge:    5.8314    magn:   -0.0001    constr:    0.0000
     atom:   13    charge:   12.4588    magn:    4.1656    constr:    0.0000
     atom:   14    charge:    5.7988    magn:    0.0444    constr:    0.0000
     atom:   15    charge:   12.4561    magn:    4.1963    constr:    0.0000
     atom:   16    charge:    5.8155    magn:   -0.0020    constr:    0.0000

     total cpu time spent up to now is     1067.0 secs

     total energy              =   -1946.23248131 Ry
     Harris-Foulkes estimate   =   -1946.23494475 Ry
     estimated scf accuracy    <       0.01192303 Ry

     total magnetization       =    10.00 Bohr mag/cell
     absolute magnetization    =    38.38 Bohr mag/cell
 kfg - setting two_fermi_energies to FALSE

     iteration #  6     ecut=    41.00 Ry     beta=0.30
     Davidson diagonalization with overlap
     ethr =  7.10E-06,  avg # of iterations =  2.9

     negative rho (up, down):  7.623E-04 1.992E-03

     Magnetic moment per site:
     atom:    1    charge:   12.4516    magn:    4.2055    constr:    0.0000
     atom:    2    charge:    5.8180    magn:    0.0025    constr:    0.0000
     atom:    3    charge:   12.4584    magn:   -4.1539    constr:    0.0000
     atom:    4    charge:    5.8355    magn:    0.0642    constr:    0.0000
     atom:    5    charge:   12.4420    magn:    4.2144    constr:    0.0000
     atom:    6    charge:    5.7994    magn:    0.0033    constr:    0.0000
     atom:    7    charge:   12.4363    magn:   -4.2004    constr:    0.0000
     atom:    8    charge:    5.8075    magn:    0.1114    constr:    0.0000
     atom:    9    charge:   12.4562    magn:   -4.1836    constr:    0.0000
     atom:   10    charge:    5.8237    magn:    0.1090    constr:    0.0000
     atom:   11    charge:   12.4616    magn:    4.1973    constr:    0.0000
     atom:   12    charge:    5.8313    magn:   -0.0007    constr:    0.0000
     atom:   13    charge:   12.4552    magn:    4.1715    constr:    0.0000
     atom:   14    charge:    5.7985    magn:    0.0482    constr:    0.0000
     atom:   15    charge:   12.4520    magn:    4.2042    constr:    0.0000
     atom:   16    charge:    5.8153    magn:   -0.0025    constr:    0.0000

     total cpu time spent up to now is     1273.8 secs

     total energy              =   -1946.23454060 Ry
     Harris-Foulkes estimate   =   -1946.23463409 Ry
     estimated scf accuracy    <       0.00051752 Ry

     total magnetization       =    10.01 Bohr mag/cell
     absolute magnetization    =    38.34 Bohr mag/cell

     iteration #  7     ecut=    41.00 Ry     beta=0.30
     Davidson diagonalization with overlap
     ethr =  3.08E-07,  avg # of iterations =  1.7

     negative rho (up, down):  7.571E-04 1.982E-03

     Magnetic moment per site:
     atom:    1    charge:   12.4497    magn:    4.1931    constr:    0.0000
     atom:    2    charge:    5.8184    magn:    0.0022    constr:    0.0000
     atom:    3    charge:   12.4571    magn:   -4.1418    constr:    0.0000
     atom:    4    charge:    5.8360    magn:    0.0663    constr:    0.0000
     atom:    5    charge:   12.4397    magn:    4.2020    constr:    0.0000
     atom:    6    charge:    5.7997    magn:    0.0031    constr:    0.0000
     atom:    7    charge:   12.4339    magn:   -4.1884    constr:    0.0000
     atom:    8    charge:    5.8078    magn:    0.1161    constr:    0.0000
     atom:    9    charge:   12.4545    magn:   -4.1716    constr:    0.0000
     atom:   10    charge:    5.8240    magn:    0.1132    constr:    0.0000
     atom:   11    charge:   12.4602    magn:    4.1850    constr:    0.0000
     atom:   12    charge:    5.8317    magn:   -0.0010    constr:    0.0000
     atom:   13    charge:   12.4537    magn:    4.1584    constr:    0.0000
     atom:   14    charge:    5.7989    magn:    0.0501    constr:    0.0000
     atom:   15    charge:   12.4502    magn:    4.1918    constr:    0.0000
     atom:   16    charge:    5.8156    magn:   -0.0028    constr:    0.0000

     total cpu time spent up to now is     1418.8 secs

     total energy              =   -1946.23459362 Ry
     Harris-Foulkes estimate   =   -1946.23458176 Ry
     estimated scf accuracy    <       0.00010158 Ry

     total magnetization       =    10.01 Bohr mag/cell
     absolute magnetization    =    38.34 Bohr mag/cell

     iteration #  8     ecut=    41.00 Ry     beta=0.30
     Davidson diagonalization with overlap
     ethr =  6.05E-08,  avg # of iterations =  2.0

     negative rho (up, down):  7.474E-04 1.964E-03

     Magnetic moment per site:
     atom:    1    charge:   12.4499    magn:    4.1929    constr:    0.0000
     atom:    2    charge:    5.8181    magn:    0.0020    constr:    0.0000
     atom:    3    charge:   12.4574    magn:   -4.1419    constr:    0.0000
     atom:    4    charge:    5.8357    magn:    0.0673    constr:    0.0000
     atom:    5    charge:   12.4397    magn:    4.2016    constr:    0.0000
     atom:    6    charge:    5.7995    magn:    0.0030    constr:    0.0000
     atom:    7    charge:   12.4337    magn:   -4.1884    constr:    0.0000
     atom:    8    charge:    5.8075    magn:    0.1181    constr:    0.0000
     atom:    9    charge:   12.4547    magn:   -4.1717    constr:    0.0000
     atom:   10    charge:    5.8236    magn:    0.1151    constr:    0.0000
     atom:   11    charge:   12.4606    magn:    4.1848    constr:    0.0000
     atom:   12    charge:    5.8314    magn:   -0.0012    constr:    0.0000
     atom:   13    charge:   12.4541    magn:    4.1580    constr:    0.0000
     atom:   14    charge:    5.7986    magn:    0.0509    constr:    0.0000
     atom:   15    charge:   12.4504    magn:    4.1915    constr:    0.0000
     atom:   16    charge:    5.8154    magn:   -0.0029    constr:    0.0000

     total cpu time spent up to now is     1584.3 secs

     total energy              =   -1946.23461024 Ry
     Harris-Foulkes estimate   =   -1946.23460946 Ry
     estimated scf accuracy    <       0.00001268 Ry

     total magnetization       =    10.01 Bohr mag/cell
     absolute magnetization    =    38.33 Bohr mag/cell

     iteration #  9     ecut=    41.00 Ry     beta=0.30
     Davidson diagonalization with overlap
     ethr =  7.55E-09,  avg # of iterations =  2.0

     negative rho (up, down):  7.403E-04 1.951E-03

     Magnetic moment per site:
     atom:    1    charge:   12.4499    magn:    4.1929    constr:    0.0000
     atom:    2    charge:    5.8180    magn:    0.0019    constr:    0.0000
     atom:    3    charge:   12.4575    magn:   -4.1421    constr:    0.0000
     atom:    4    charge:    5.8355    magn:    0.0683    constr:    0.0000
     atom:    5    charge:   12.4394    magn:    4.2016    constr:    0.0000
     atom:    6    charge:    5.7994    magn:    0.0029    constr:    0.0000
     atom:    7    charge:   12.4333    magn:   -4.1886    constr:    0.0000
     atom:    8    charge:    5.8073    magn:    0.1203    constr:    0.0000
     atom:    9    charge:   12.4546    magn:   -4.1720    constr:    0.0000
     atom:   10    charge:    5.8234    magn:    0.1171    constr:    0.0000
     atom:   11    charge:   12.4607    magn:    4.1849    constr:    0.0000
     atom:   12    charge:    5.8312    magn:   -0.0013    constr:    0.0000
     atom:   13    charge:   12.4543    magn:    4.1579    constr:    0.0000
     atom:   14    charge:    5.7985    magn:    0.0518    constr:    0.0000
     atom:   15    charge:   12.4503    magn:    4.1915    constr:    0.0000
     atom:   16    charge:    5.8152    magn:   -0.0030    constr:    0.0000

     total cpu time spent up to now is     1733.5 secs

     total energy              =   -1946.23461044 Ry
     Harris-Foulkes estimate   =   -1946.23461131 Ry
     estimated scf accuracy    <       0.00000402 Ry

     total magnetization       =    10.01 Bohr mag/cell
     absolute magnetization    =    38.34 Bohr mag/cell

     iteration # 10     ecut=    41.00 Ry     beta=0.30
     Davidson diagonalization with overlap
     ethr =  2.39E-09,  avg # of iterations =  2.0

     negative rho (up, down):  7.436E-04 1.957E-03

     Magnetic moment per site:
     atom:    1    charge:   12.4499    magn:    4.1929    constr:    0.0000
     atom:    2    charge:    5.8180    magn:    0.0018    constr:    0.0000
     atom:    3    charge:   12.4575    magn:   -4.1423    constr:    0.0000
     atom:    4    charge:    5.8356    magn:    0.0683    constr:    0.0000
     atom:    5    charge:   12.4394    magn:    4.2016    constr:    0.0000
     atom:    6    charge:    5.7994    magn:    0.0028    constr:    0.0000
     atom:    7    charge:   12.4333    magn:   -4.1887    constr:    0.0000
     atom:    8    charge:    5.8073    magn:    0.1205    constr:    0.0000
     atom:    9    charge:   12.4546    magn:   -4.1721    constr:    0.0000
     atom:   10    charge:    5.8235    magn:    0.1172    constr:    0.0000
     atom:   11    charge:   12.4607    magn:    4.1850    constr:    0.0000
     atom:   12    charge:    5.8313    magn:   -0.0014    constr:    0.0000
     atom:   13    charge:   12.4544    magn:    4.1581    constr:    0.0000
     atom:   14    charge:    5.7985    magn:    0.0518    constr:    0.0000
     atom:   15    charge:   12.4503    magn:    4.1915    constr:    0.0000
     atom:   16    charge:    5.8153    magn:   -0.0030    constr:    0.0000

     total cpu time spent up to now is     1903.3 secs

     total energy              =   -1946.23461140 Ry
     Harris-Foulkes estimate   =   -1946.23461130 Ry
     estimated scf accuracy    <       0.00000049 Ry

     total magnetization       =    10.01 Bohr mag/cell
     absolute magnetization    =    38.34 Bohr mag/cell

     iteration # 11     ecut=    41.00 Ry     beta=0.30
     Davidson diagonalization with overlap
     ethr =  2.94E-10,  avg # of iterations =  2.0

     negative rho (up, down):  7.435E-04 1.956E-03

     Magnetic moment per site:
     atom:    1    charge:   12.4499    magn:    4.1929    constr:    0.0000
     atom:    2    charge:    5.8180    magn:    0.0018    constr:    0.0000
     atom:    3    charge:   12.4575    magn:   -4.1423    constr:    0.0000
     atom:    4    charge:    5.8355    magn:    0.0683    constr:    0.0000
     atom:    5    charge:   12.4394    magn:    4.2016    constr:    0.0000
     atom:    6    charge:    5.7994    magn:    0.0028    constr:    0.0000
     atom:    7    charge:   12.4333    magn:   -4.1887    constr:    0.0000
     atom:    8    charge:    5.8073    magn:    0.1205    constr:    0.0000
     atom:    9    charge:   12.4546    magn:   -4.1721    constr:    0.0000
     atom:   10    charge:    5.8235    magn:    0.1172    constr:    0.0000
     atom:   11    charge:   12.4607    magn:    4.1849    constr:    0.0000
     atom:   12    charge:    5.8313    magn:   -0.0014    constr:    0.0000
     atom:   13    charge:   12.4544    magn:    4.1581    constr:    0.0000
     atom:   14    charge:    5.7985    magn:    0.0518    constr:    0.0000
     atom:   15    charge:   12.4504    magn:    4.1915    constr:    0.0000
     atom:   16    charge:    5.8153    magn:   -0.0031    constr:    0.0000

     total cpu time spent up to now is     2071.5 secs

     total energy              =   -1946.23461158 Ry
     Harris-Foulkes estimate   =   -1946.23461148 Ry
     estimated scf accuracy    <       0.00000011 Ry

     total magnetization       =    10.01 Bohr mag/cell
     absolute magnetization    =    38.34 Bohr mag/cell

     iteration # 12     ecut=    41.00 Ry     beta=0.30
     Davidson diagonalization with overlap
     ethr =  6.50E-11,  avg # of iterations =  1.0

     negative rho (up, down):  7.446E-04 1.959E-03

     Magnetic moment per site:
     atom:    1    charge:   12.4499    magn:    4.1929    constr:    0.0000
     atom:    2    charge:    5.8180    magn:    0.0017    constr:    0.0000
     atom:    3    charge:   12.4575    magn:   -4.1423    constr:    0.0000
     atom:    4    charge:    5.8355    magn:    0.0682    constr:    0.0000
     atom:    5    charge:   12.4395    magn:    4.2016    constr:    0.0000
     atom:    6    charge:    5.7994    magn:    0.0028    constr:    0.0000
     atom:    7    charge:   12.4333    magn:   -4.1887    constr:    0.0000
     atom:    8    charge:    5.8073    magn:    0.1203    constr:    0.0000
     atom:    9    charge:   12.4546    magn:   -4.1721    constr:    0.0000
     atom:   10    charge:    5.8235    magn:    0.1170    constr:    0.0000
     atom:   11    charge:   12.4608    magn:    4.1849    constr:    0.0000
     atom:   12    charge:    5.8313    magn:   -0.0014    constr:    0.0000
     atom:   13    charge:   12.4545    magn:    4.1581    constr:    0.0000
     atom:   14    charge:    5.7985    magn:    0.0517    constr:    0.0000
     atom:   15    charge:   12.4504    magn:    4.1915    constr:    0.0000
     atom:   16    charge:    5.8153    magn:   -0.0031    constr:    0.0000

     total cpu time spent up to now is     2199.9 secs

     total energy              =   -1946.23461162 Ry
     Harris-Foulkes estimate   =   -1946.23461158 Ry
     estimated scf accuracy    <       0.00000007 Ry

     total magnetization       =    10.01 Bohr mag/cell
     absolute magnetization    =    38.34 Bohr mag/cell

     iteration # 13     ecut=    41.00 Ry     beta=0.30
     Davidson diagonalization with overlap
     ethr =  4.45E-11,  avg # of iterations =  2.1

     negative rho (up, down):  7.437E-04 1.957E-03

     Magnetic moment per site:
     atom:    1    charge:   12.4499    magn:    4.1929    constr:    0.0000
     atom:    2    charge:    5.8180    magn:    0.0017    constr:    0.0000
     atom:    3    charge:   12.4575    magn:   -4.1422    constr:    0.0000
     atom:    4    charge:    5.8356    magn:    0.0681    constr:    0.0000
     atom:    5    charge:   12.4395    magn:    4.2016    constr:    0.0000
     atom:    6    charge:    5.7994    magn:    0.0028    constr:    0.0000
     atom:    7    charge:   12.4333    magn:   -4.1887    constr:    0.0000
     atom:    8    charge:    5.8074    magn:    0.1202    constr:    0.0000
     atom:    9    charge:   12.4546    magn:   -4.1721    constr:    0.0000
     atom:   10    charge:    5.8235    magn:    0.1170    constr:    0.0000
     atom:   11    charge:   12.4607    magn:    4.1849    constr:    0.0000
     atom:   12    charge:    5.8313    magn:   -0.0014    constr:    0.0000
     atom:   13    charge:   12.4545    magn:    4.1581    constr:    0.0000
     atom:   14    charge:    5.7985    magn:    0.0517    constr:    0.0000
     atom:   15    charge:   12.4504    magn:    4.1915    constr:    0.0000
     atom:   16    charge:    5.8153    magn:   -0.0031    constr:    0.0000

     total cpu time spent up to now is     2375.4 secs

     End of self-consistent calculation
 --- enter write_ns ---
 LDA+U parameters:
U( 1)     =  3.00000000
alpha( 1) =  0.00000000
U( 2)     =  3.00000000
alpha( 2) =  0.00000000
atom    1   Tr[ns(na)] (up, down, total) =   4.98621  0.48083  5.46704
   spin  1
    eigenvalues: 
  0.996  0.996  0.997  0.998  0.999
    eigenvectors:
  0.198  0.002  0.632  0.167  0.001
  0.000  0.000  0.000  0.002  0.998
  0.004  0.011  0.236  0.748  0.002
  0.715  0.085  0.116  0.083  0.000
  0.082  0.902  0.016  0.001  0.000
    occupations:
  0.997 -0.000 -0.000 -0.001  0.000
 -0.000  0.999  0.000 -0.000 -0.000
 -0.000  0.000  0.998  0.000  0.000
 -0.001 -0.000  0.000  0.996  0.000
  0.000 -0.000  0.000  0.000  0.996
   spin  2
    eigenvalues: 
  0.050  0.059  0.063  0.147  0.162
    eigenvectors:
  0.000  0.000  0.000  0.787  0.212
  0.999  0.000  0.001  0.000  0.000
  0.000  0.999  0.000  0.001  0.000
  0.000  0.000  0.000  0.212  0.788
  0.001  0.000  0.999  0.000  0.000
    occupations:
  0.150  0.001  0.002  0.006 -0.001
  0.001  0.050  0.000 -0.000  0.000
  0.002  0.000  0.059 -0.001 -0.000
  0.006 -0.000 -0.001  0.159 -0.000
 -0.001  0.000 -0.000 -0.000  0.063
atomic mag. moment =     4.505384
atom    3   Tr[ns(na)] (up, down, total) =   0.52751  4.97903  5.50653
   spin  1
    eigenvalues: 
  0.058  0.062  0.062  0.167  0.178
    eigenvectors:
  0.000  0.000  0.001  0.123  0.876
  0.997  0.003  0.000  0.000  0.000
  0.000  0.021  0.978  0.000  0.001
  0.000  0.000  0.000  0.877  0.123
  0.003  0.977  0.021  0.000  0.000
    occupations:
  0.177  0.001 -0.004 -0.004 -0.001
  0.001  0.058  0.000  0.000 -0.000
 -0.004  0.000  0.063 -0.001 -0.000
 -0.004  0.000 -0.001  0.169 -0.001
 -0.001 -0.000 -0.000 -0.001  0.062
   spin  2
    eigenvalues: 
  0.995  0.995  0.995  0.996  0.998
    eigenvectors:
  0.341  0.194  0.292  0.171  0.001
  0.000  0.001  0.000  0.001  0.998
  0.458  0.021  0.478  0.043  0.000
  0.037  0.000  0.204  0.759  0.000
  0.164  0.784  0.026  0.026  0.000
    occupations:
  0.995 -0.000 -0.000  0.000  0.000
 -0.000  0.998  0.000 -0.000 -0.000
 -0.000  0.000  0.995 -0.000  0.000
  0.000 -0.000 -0.000  0.996 -0.000
  0.000 -0.000  0.000 -0.000  0.995
atomic mag. moment =    -4.451521
atom    5   Tr[ns(na)] (up, down, total) =   4.98923  0.46150  5.45073
   spin  1
    eigenvalues: 
  0.997  0.997  0.998  0.998  0.999
    eigenvectors:
  0.004  0.508  0.010  0.478  0.000
  0.000  0.000  0.001  0.002  0.998
  0.975  0.016  0.009  0.000  0.000
  0.021  0.287  0.474  0.216  0.002
  0.000  0.190  0.506  0.304  0.000
    occupations:
  0.998  0.000  0.000 -0.000  0.000
  0.000  0.999 -0.000 -0.000  0.000
  0.000 -0.000  0.997  0.000  0.000
 -0.000 -0.000  0.000  0.998  0.000
  0.000  0.000  0.000  0.000  0.998
   spin  2
    eigenvalues: 
  0.050  0.055  0.060  0.145  0.151
    eigenvectors:
  0.000  0.001  0.000  0.413  0.586
  0.998  0.000  0.001  0.000  0.000
  0.001  0.000  0.998  0.000  0.000
  0.000  0.000  0.000  0.586  0.414
  0.000  0.999  0.000  0.001  0.000
    occupations:
  0.148 -0.000 -0.001  0.003 -0.002
 -0.000  0.050  0.000  0.000  0.000
 -0.001  0.000  0.060 -0.001  0.000
  0.003  0.000 -0.001  0.147  0.001
 -0.002  0.000  0.000  0.001  0.056
atomic mag. moment =     4.527727
atom    7   Tr[ns(na)] (up, down, total) =   0.47198  4.98547  5.45745
   spin  1
    eigenvalues: 
  0.056  0.058  0.061  0.146  0.151
    eigenvectors:
  0.000  0.000  0.000  0.042  0.958
  0.992  0.004  0.002  0.001  0.000
  0.001  0.063  0.937  0.000  0.000
  0.002  0.000  0.000  0.957  0.041
  0.005  0.933  0.062  0.000  0.000
    occupations:
  0.150 -0.001 -0.000  0.001  0.001
 -0.001  0.056 -0.000 -0.004  0.000
 -0.000 -0.000  0.061 -0.001 -0.001
  0.001 -0.004 -0.001  0.146 -0.001
  0.001  0.000 -0.001 -0.001  0.059
   spin  2
    eigenvalues: 
  0.996  0.996  0.997  0.998  0.998
    eigenvectors:
  0.013  0.003  0.574  0.293  0.117
  0.002  0.001  0.302  0.689  0.006
  0.769  0.207  0.010  0.000  0.014
  0.014  0.005  0.113  0.017  0.852
  0.202  0.784  0.001  0.000  0.012
    occupations:
  0.997  0.000 -0.000 -0.000  0.000
  0.000  0.997  0.000  0.000 -0.000
 -0.000  0.000  0.997  0.000 -0.000
 -0.000  0.000  0.000  0.998 -0.000
  0.000 -0.000 -0.000 -0.000  0.997
atomic mag. moment =    -4.513496
atom    9   Tr[ns(na)] (up, down, total) =   0.51081  4.97888  5.48969
   spin  1
    eigenvalues: 
  0.058  0.063  0.064  0.161  0.164
    eigenvectors:
  0.000  0.000  0.000  0.935  0.065
  0.999  0.000  0.000  0.000  0.001
  0.000  0.914  0.086  0.000  0.000
  0.000  0.000  0.000  0.065  0.934
  0.000  0.086  0.914  0.000  0.000
    occupations:
  0.161  0.001 -0.001  0.001 -0.000
  0.001  0.058  0.000  0.002 -0.000
 -0.001  0.000  0.063  0.000  0.000
  0.001  0.002  0.000  0.164  0.002
 -0.000 -0.000  0.000  0.002  0.064
   spin  2
    eigenvalues: 
  0.995  0.995  0.996  0.996  0.997
    eigenvectors:
  0.236  0.285  0.199  0.272  0.008
  0.047  0.012  0.002  0.001  0.937
  0.014  0.404  0.000  0.575  0.006
  0.697  0.165  0.038  0.054  0.046
  0.006  0.133  0.760  0.097  0.003
    occupations:
  0.995 -0.000 -0.000 -0.000  0.000
 -0.000  0.997  0.000 -0.001 -0.000
 -0.000  0.000  0.996 -0.000  0.000
 -0.000 -0.001 -0.000  0.995  0.000
  0.000 -0.000  0.000  0.000  0.996
atomic mag. moment =    -4.468075
atom   11   Tr[ns(na)] (up, down, total) =   4.98280  0.50221  5.48501
   spin  1
    eigenvalues: 
  0.995  0.996  0.996  0.998  0.998
    eigenvectors:
  0.636  0.305  0.006  0.052  0.000
  0.000  0.001  0.001  0.005  0.992
  0.011  0.000  0.988  0.000  0.001
  0.322  0.673  0.004  0.000  0.001
  0.031  0.021  0.001  0.942  0.005
    occupations:
  0.996 -0.000 -0.000 -0.000 -0.000
 -0.000  0.998 -0.000  0.000 -0.000
 -0.000 -0.000  0.996 -0.000  0.000
 -0.000  0.000 -0.000  0.996  0.000
 -0.000 -0.000  0.000  0.000  0.997
   spin  2
    eigenvalues: 
  0.056  0.060  0.062  0.159  0.164
    eigenvectors:
  0.000  0.001  0.001  0.686  0.313
  0.993  0.002  0.004  0.000  0.000
  0.005  0.044  0.951  0.000  0.000
  0.001  0.000  0.000  0.313  0.686
  0.001  0.953  0.045  0.000  0.001
    occupations:
  0.161 -0.000 -0.002 -0.002  0.003
 -0.000  0.056 -0.000 -0.003 -0.000
 -0.002 -0.000  0.062  0.000 -0.001
 -0.002 -0.003  0.000  0.163 -0.001
  0.003 -0.000 -0.001 -0.001  0.060
atomic mag. moment =     4.480592
atom   13   Tr[ns(na)] (up, down, total) =   4.98640  0.50239  5.48879
   spin  1
    eigenvalues: 
  0.995  0.997  0.997  0.999  0.999
    eigenvectors:
  0.027  0.121  0.846  0.006  0.000
  0.910  0.086  0.004  0.000  0.000
  0.001  0.001  0.001  0.433  0.564
  0.061  0.788  0.148  0.003  0.000
  0.001  0.005  0.001  0.557  0.436
    occupations:
  0.997 -0.000 -0.000 -0.000 -0.000
 -0.000  0.995 -0.000 -0.000 -0.000
 -0.000 -0.000  0.999 -0.000 -0.000
 -0.000 -0.000 -0.000  0.997 -0.000
 -0.000 -0.000 -0.000 -0.000  0.999
   spin  2
    eigenvalues: 
  0.055  0.055  0.058  0.159  0.175
    eigenvectors:
  0.000  0.000  0.000  0.814  0.185
  0.005  0.001  0.994  0.000  0.000
  0.969  0.025  0.005  0.000  0.000
  0.000  0.000  0.000  0.186  0.814
  0.025  0.974  0.000  0.000  0.000
    occupations:
  0.162 -0.001  0.002  0.006  0.002
 -0.001  0.058 -0.000 -0.002 -0.000
  0.002 -0.000  0.055  0.002 -0.000
  0.006 -0.002  0.002  0.172  0.002
  0.002 -0.000 -0.000  0.002  0.055
atomic mag. moment =     4.484010
atom   15   Tr[ns(na)] (up, down, total) =   4.98562  0.48464  5.47025
   spin  1
    eigenvalues: 
  0.996  0.997  0.997  0.998  0.999
    eigenvectors:
  0.004  0.892  0.051  0.047  0.007
  0.003  0.005  0.010  0.003  0.979
  0.000  0.070  0.050  0.878  0.002
  0.003  0.030  0.885  0.072  0.010
  0.991  0.003  0.004  0.000  0.002
    occupations:
  0.997  0.000  0.000 -0.000  0.000
  0.000  0.999 -0.000  0.000 -0.000
  0.000 -0.000  0.998 -0.000 -0.000
 -0.000  0.000 -0.000  0.997  0.000
  0.000 -0.000 -0.000  0.000  0.996
   spin  2
    eigenvalues: 
  0.056  0.058  0.060  0.148  0.163
    eigenvectors:
  0.000  0.001  0.000  0.120  0.878
  0.993  0.001  0.005  0.001  0.000
  0.001  0.970  0.028  0.000  0.002
  0.000  0.000  0.000  0.879  0.120
  0.006  0.028  0.966  0.000  0.000
    occupations:
  0.161 -0.002 -0.004 -0.005  0.001
 -0.002  0.056  0.000 -0.002 -0.000
 -0.004  0.000  0.058  0.001 -0.000
 -0.005 -0.002  0.001  0.150  0.000
  0.001 -0.000 -0.000  0.000  0.060
atomic mag. moment =     4.500980
N of occupied +U levels =   43.815500
 --- exit write_ns ---

 ------ SPIN UP ------------


          k = 0.0000 0.0000 0.0000 (  5297 PWs)   bands (ev):

   -68.9705 -68.7705 -68.7593 -68.7133 -68.5651 -63.8451 -63.4724 -63.4629
   -37.8484 -37.8371 -37.8304 -37.6579 -37.6533 -37.6517 -37.6338 -37.6223
   -37.6106 -37.6036 -37.5804 -37.5570 -37.4559 -37.4375 -37.4236 -32.8350
   -32.8239 -32.8074 -32.4852 -32.4814 -32.4576 -32.4488 -32.4376 -32.4313
    -6.7498  -6.1346  -6.0010  -5.8361  -5.7506  -5.6604  -5.5685  -5.4997
     4.6556   4.6738   4.6866   4.7153   5.9922   6.0691   6.1152   6.2567
     6.3665   6.3677   6.3852   6.6962   6.9384   7.2869   7.5698   7.6152
     7.6797   7.8910   8.3991   8.4653   8.4745   8.5799   8.5908   8.6353
     8.6618   8.6994   8.7862   8.9835   9.0050   9.0494   9.1495   9.1694
     9.2580   9.2651   9.3490   9.4907   9.6153   9.6305   9.6624   9.7156
     9.7439   9.8414   9.9805  11.1938  11.2461  12.4675  12.5408  12.6059
    12.6651  12.7765  14.8650  15.3012  15.3195  15.7117  15.7538  15.9262
    15.9735  16.0164  16.1279  16.1580  16.3770  16.5349  16.5682  16.6144
    16.7667  16.8178  16.8722

          k =-0.1780 0.1766 0.1761 (  5330 PWs)   bands (ev):

   -68.9706 -68.7706 -68.7589 -68.7130 -68.5647 -63.8442 -63.4720 -63.4627
   -37.8479 -37.8368 -37.8302 -37.6575 -37.6530 -37.6515 -37.6338 -37.6222
   -37.6094 -37.6042 -37.5812 -37.5577 -37.4566 -37.4385 -37.4238 -32.8356
   -32.8244 -32.8077 -32.4855 -32.4754 -32.4579 -32.4490 -32.4384 -32.4370
    -6.6231  -6.1287  -5.9957  -5.8720  -5.8154  -5.6859  -5.6165  -5.5100
     4.9393   4.9653   5.0077   5.1344   6.0930   6.1436   6.2062   6.2377
     6.2859   6.3284   6.3625   6.7409   6.9383   7.0487   7.1887   7.3624
     7.6191   7.7023   7.7655   7.8526   7.9707   8.2754   8.3438   8.4061
     8.4992   8.7468   8.8057   8.9107   9.0261   9.1218   9.1403   9.3033
     9.3514   9.4477   9.4962   9.5287   9.6911   9.7004   9.8637   9.9574
    10.0918  10.2492  10.3674  11.2120  11.2345  11.9212  12.1898  12.2255
    12.2535  13.7228  14.9463  15.3437  15.3693  15.7285  15.8834  15.9092
    15.9315  15.9579  15.9884  16.0103  16.3457  16.4146  16.5323  16.6441
    16.8775  16.9386  17.5889

          k = 0.3560-0.3532-0.3523 (  5344 PWs)   bands (ev):

   -68.9708 -68.7707 -68.7585 -68.7127 -68.5644 -63.8433 -63.4716 -63.4624
   -37.8475 -37.8366 -37.8300 -37.6570 -37.6528 -37.6513 -37.6337 -37.6221
   -37.6072 -37.6058 -37.5821 -37.5583 -37.4574 -37.4396 -37.4241 -32.8362
   -32.8248 -32.8080 -32.4858 -32.4662 -32.4575 -32.4515 -32.4440 -32.4390
    -6.3685  -6.2467  -6.0165  -5.9316  -5.8628  -5.7110  -5.6385  -5.5179
     5.5069   5.5538   5.6215   5.7621   5.7803   5.9198   6.0847   6.1742
     6.4199   6.4409   6.5556   6.6930   6.7812   6.8434   6.8703   6.9259
     6.9979   7.0505   7.4446   7.6070   7.7420   8.0414   8.2086   8.4418
     8.4471   8.4953   8.8176   8.9506   9.0312   9.2019   9.2351   9.3132
     9.3885   9.4802   9.5042   9.5626   9.5844   9.6377   9.6983  10.7416
    10.9864  11.0044  11.1236  11.2049  11.2591  11.2946  11.4485  11.4915
    11.5429  14.8956  15.1535  15.3411  15.4243  15.4822  15.8394  15.8559
    15.9046  15.9516  15.9956  16.1772  16.2160  16.2910  16.4471  16.5139
    16.6017  16.6167  18.3391

          k = 0.1738-0.1765 0.1764 (  5319 PWs)   bands (ev):

   -68.9707 -68.7701 -68.7595 -68.7129 -68.5648 -63.8447 -63.4720 -63.4620
   -37.8482 -37.8368 -37.8301 -37.6572 -37.6531 -37.6518 -37.6336 -37.6209
   -37.6108 -37.6045 -37.5808 -37.5575 -37.4558 -37.4383 -37.4245 -32.8352
   -32.8241 -32.8072 -32.4857 -32.4818 -32.4583 -32.4491 -32.4379 -32.4314
    -6.6292  -6.1105  -5.9976  -5.8852  -5.8123  -5.7115  -5.5919  -5.5076
     4.9354   4.9664   4.9979   5.1192   6.0538   6.1597   6.1860   6.2468
     6.2717   6.3033   6.4471   6.7410   6.9269   6.9807   7.1868   7.3731
     7.6493   7.7548   7.8269   7.8594   7.9449   8.2879   8.3408   8.3583
     8.4953   8.6113   8.7949   8.9651   9.0248   9.0707   9.1639   9.3591
     9.4141   9.4354   9.5018   9.6149   9.6617   9.7153   9.8520   9.9965
    10.0580  10.2940  10.3233  11.1949  11.2423  11.9859  12.1492  12.2076
    12.2329  13.7187  14.9907  15.3615  15.3744  15.7516  15.7702  15.8190
    15.8842  15.8910  15.9624  16.1256  16.4309  16.4984  16.5602  16.6728
    16.8925  16.9217  17.5265

          k =-0.0042 0.0001 0.3526 (  5333 PWs)   bands (ev):

   -68.9704 -68.7698 -68.7586 -68.7132 -68.5650 -63.8444 -63.4722 -63.4624
   -37.8480 -37.8366 -37.8302 -37.6568 -37.6529 -37.6520 -37.6340 -37.6208
   -37.6101 -37.6051 -37.5817 -37.5590 -37.4564 -37.4376 -37.4242 -32.8356
   -32.8243 -32.8072 -32.4855 -32.4755 -32.4580 -32.4491 -32.4386 -32.4370
    -6.5909  -6.1350  -5.9937  -5.8852  -5.8126  -5.6885  -5.6332  -5.5171
     5.0247   5.0433   5.1004   5.1714   5.9735   6.1009   6.1490   6.2981
     6.3696   6.4278   6.4842   6.6945   6.9130   6.9689   7.0786   7.1451
     7.3915   7.6894   7.7061   7.9909   8.2161   8.2523   8.3618   8.4703
     8.5147   8.6670   8.9573   8.9849   9.0263   9.1525   9.2168   9.2233
     9.2751   9.4635   9.5484   9.6051   9.6713   9.7371   9.7718   9.8558
     9.9966  10.2494  10.3063  11.0760  11.2011  11.4513  11.5149  12.5902
    12.6079  14.0567  15.1119  15.3297  15.4163  15.7181  15.7766  15.7966
    15.9093  15.9717  16.0183  16.1053  16.1752  16.3919  16.4823  16.7816
    17.2092  17.2800  17.4312

          k = 0.5297-0.5298-0.1759 (  5337 PWs)   bands (ev):

   -68.9705 -68.7699 -68.7583 -68.7129 -68.5647 -63.8435 -63.4718 -63.4621
   -37.8475 -37.8364 -37.8300 -37.6563 -37.6527 -37.6518 -37.6339 -37.6207
   -37.6078 -37.6067 -37.5824 -37.5598 -37.4572 -37.4386 -37.4245 -32.8361
   -32.8247 -32.8075 -32.4858 -32.4666 -32.4575 -32.4514 -32.4442 -32.4393
    -6.3711  -6.2099  -6.0141  -5.9415  -5.8759  -5.7359  -5.6323  -5.5152
     5.4441   5.4758   5.5894   5.7717   5.8804   6.0596   6.1500   6.2365
     6.3019   6.3742   6.4567   6.6100   6.6765   6.8246   6.8962   7.0249
     7.1908   7.3478   7.4876   7.5726   7.8211   8.0314   8.1140   8.4371
     8.4982   8.6555   8.7604   9.0007   9.0762   9.2153   9.2484   9.3283
     9.3891   9.5015   9.5942   9.6280   9.7001   9.7401   9.9195  10.1732
    10.3505  10.4916  10.5794  10.8548  11.0683  11.1876  11.2222  12.1410
    12.2344  15.1437  15.2313  15.3973  15.4655  15.7438  15.8107  15.8519
    15.8872  15.9234  15.9612  16.0001  16.0537  16.1528  16.5654  16.6579
    16.7928  17.0135  17.9148

          k = 0.3517-0.3532 0.0003 (  5336 PWs)   bands (ev):

   -68.9709 -68.7703 -68.7591 -68.7126 -68.5645 -63.8438 -63.4716 -63.4618
   -37.8478 -37.8366 -37.8299 -37.6568 -37.6528 -37.6517 -37.6336 -37.6208
   -37.6096 -37.6052 -37.5815 -37.5583 -37.4565 -37.4394 -37.4248 -32.8358
   -32.8246 -32.8075 -32.4860 -32.4759 -32.4586 -32.4493 -32.4386 -32.4371
    -6.4634  -6.1210  -6.0156  -5.9424  -5.8918  -5.7237  -5.6197  -5.5080
     5.2594   5.3512   5.5043   5.5278   5.8774   6.0275   6.1948   6.3023
     6.4080   6.4795   6.5738   6.6432   6.8885   6.9438   6.9658   7.0415
     7.1088   7.2086   7.3093   7.6018   7.7914   7.9535   8.1477   8.5155
     8.5595   8.6501   8.9556   9.0102   9.1446   9.2183   9.2630   9.3369
     9.4330   9.4874   9.5387   9.5930   9.6399   9.6973   9.8046   9.8872
     9.9862  10.9029  10.9971  11.1354  11.2847  11.3855  11.4585  11.8784
    11.9442  14.7905  15.1017  15.4218  15.4373  15.6320  15.7647  15.8446
    15.8762  15.9364  16.0248  16.1497  16.2711  16.3430  16.4566  16.5080
    16.6508  17.2102  17.4792

          k =-0.3475 0.3531-0.3528 (  5326 PWs)   bands (ev):

   -68.9710 -68.7698 -68.7597 -68.7125 -68.5646 -63.8443 -63.4716 -63.4611
   -37.8480 -37.8365 -37.8297 -37.6565 -37.6529 -37.6520 -37.6335 -37.6185
   -37.6121 -37.6053 -37.5812 -37.5580 -37.4557 -37.4392 -37.4255 -32.8354
   -32.8243 -32.8070 -32.4862 -32.4823 -32.4591 -32.4495 -32.4382 -32.4316
    -6.4222  -6.1243  -6.0684  -5.9778  -5.8225  -5.7557  -5.6045  -5.5147
     5.4764   5.4810   5.5731   5.7808   5.8912   5.9021   6.0213   6.1850
     6.4147   6.4600   6.5200   6.6731   6.7363   6.8187   6.8444   6.9489
     7.0079   7.1965   7.3673   7.7311   7.7694   8.0852   8.2070   8.3331
     8.4032   8.4485   8.7792   8.9138   9.0647   9.2275   9.3137   9.3327
     9.5027   9.5142   9.5416   9.5458   9.5825   9.6253   9.6905  10.8259
    10.9596  11.0155  11.0369  11.2084  11.3285  11.3671  11.4117  11.4357
    11.4675  15.0285  15.1680  15.3757  15.5056  15.5466  15.5563  15.5863
    15.6651  16.0890  16.1598  16.1603  16.2060  16.4346  16.4684  16.4949
    16.6157  16.7168  18.4555

          k =-0.5255 0.5297-0.1767 (  5326 PWs)   bands (ev):

   -68.9706 -68.7695 -68.7589 -68.7128 -68.5648 -63.8440 -63.4718 -63.4615
   -37.8478 -37.8364 -37.8298 -37.6561 -37.6527 -37.6521 -37.6338 -37.6185
   -37.6115 -37.6057 -37.5820 -37.5596 -37.4563 -37.4384 -37.4252 -32.8357
   -32.8245 -32.8070 -32.4860 -32.4760 -32.4587 -32.4495 -32.4388 -32.4371
    -6.4012  -6.1394  -6.0339  -5.9837  -5.8500  -5.7594  -5.6125  -5.5142
     5.4199   5.4649   5.5697   5.7837   5.8684   6.0385   6.1601   6.2585
     6.3136   6.3671   6.4717   6.5569   6.6963   6.8294   6.9060   7.0332
     7.1984   7.3461   7.4615   7.5708   7.8594   8.0154   8.1497   8.3984
     8.4392   8.6589   8.8198   8.9666   9.0579   9.2301   9.2675   9.3683
     9.4584   9.5582   9.5932   9.6256   9.6605   9.7232   9.9193  10.1934
    10.3201  10.4808  10.6007  10.8395  11.0626  11.1958  11.2273  12.1368
    12.2166  15.1869  15.3840  15.4223  15.5037  15.5234  15.6690  15.7380
    15.8010  15.9168  15.9713  16.0669  16.1582  16.3271  16.5439  16.6589
    16.7941  17.0215  17.9403

          k = 0.0084-0.0002-0.7051 (  5338 PWs)   bands (ev):

   -68.9703 -68.7691 -68.7580 -68.7131 -68.5650 -63.8436 -63.4720 -63.4619
   -37.8476 -37.8362 -37.8299 -37.6557 -37.6526 -37.6522 -37.6341 -37.6185
   -37.6105 -37.6065 -37.5828 -37.5612 -37.4570 -37.4377 -37.4249 -32.8361
   -32.8246 -32.8070 -32.4858 -32.4669 -32.4575 -32.4512 -32.4445 -32.4395
    -6.3221  -6.2554  -6.0073  -5.9736  -5.8107  -5.7211  -5.6958  -5.5125
     5.3802   5.3998   5.7161   5.7664   5.9178   5.9661   6.1745   6.2384
     6.3586   6.4503   6.5599   6.6018   6.7627   6.7812   6.8656   6.9842
     7.0024   7.0863   7.6514   7.8444   8.0622   8.1413   8.2091   8.4443
     8.5106   8.5871   8.9949   9.0670   9.0885   9.1580   9.1898   9.4596
     9.6075   9.6418   9.6831   9.6956   9.7351   9.8040   9.8309   9.8834
     9.9347  10.1080  10.2037  10.3724  10.6933  10.9012  11.1724  12.5766
    12.5823  15.3612  15.4229  15.5003  15.5157  15.6563  15.7668  15.7868
    15.7964  15.8168  15.8520  15.8776  15.9500  16.0843  16.7850  17.1049
    17.3281  17.3727  17.8754

          k = 0.1781 0.1776-0.1797 (  5341 PWs)   bands (ev):

   -68.9701 -68.7701 -68.7594 -68.7130 -68.5653 -63.8441 -63.4720 -63.4626
   -37.8480 -37.8369 -37.8302 -37.6568 -37.6531 -37.6513 -37.6346 -37.6208
   -37.6111 -37.6048 -37.5814 -37.5581 -37.4562 -37.4377 -37.4235 -32.8357
   -32.8242 -32.8078 -32.4855 -32.4756 -32.4579 -32.4491 -32.4383 -32.4368
    -6.6204  -6.1287  -6.0071  -5.8703  -5.7971  -5.7014  -5.5850  -5.5395
     4.9428   4.9707   4.9844   5.1687   6.0938   6.1606   6.2111   6.2615
     6.2843   6.3436   6.3581   6.7450   6.9037   7.0555   7.2007   7.3525
     7.6153   7.7018   7.7604   7.8124   7.9763   8.2371   8.3133   8.4468
     8.5783   8.7252   8.8316   8.8998   9.0752   9.1202   9.1906   9.2314
     9.3096   9.4201   9.4777   9.5509   9.6707   9.7008   9.8642   9.9541
    10.0666  10.2438  10.3409  11.2081  11.2584  11.9319  12.1910  12.2232
    12.2513  13.7330  14.9455  15.3466  15.3577  15.7074  15.8659  15.9053
    15.9318  15.9547  15.9892  16.0191  16.3446  16.4144  16.5152  16.6274
    16.8945  16.9554  17.6391

          k = 0.0001 0.3542-0.0036 (  5339 PWs)   bands (ev):

   -68.9709 -68.7709 -68.7597 -68.7121 -68.5656 -63.8439 -63.4712 -63.4616
   -37.8481 -37.8368 -37.8299 -37.6570 -37.6524 -37.6512 -37.6329 -37.6207
   -37.6101 -37.6054 -37.5821 -37.5589 -37.4556 -37.4381 -37.4236 -32.8355
   -32.8246 -32.8079 -32.4860 -32.4822 -32.4584 -32.4492 -32.4382 -32.4315
    -6.5949  -6.1079  -6.0584  -5.8322  -5.8019  -5.7533  -5.5837  -5.5239
     4.9065   4.9368   5.1543   5.2028   5.9878   6.0632   6.2453   6.3308
     6.3512   6.5023   6.5566   6.7800   6.8484   7.0656   7.2037   7.2178
     7.3156   7.4987   7.7988   7.8939   8.0110   8.1201   8.2068   8.5374
     8.6740   8.7827   8.8587   9.0609   9.0803   9.1420   9.1840   9.2553
     9.3426   9.3527   9.4378   9.5723   9.6682   9.6819   9.8494   9.9660
    10.0270  10.1216  10.5306  11.0951  11.1231  11.5294  11.5737  12.4820
    12.5556  14.1118  14.8375  15.3632  15.3912  15.6908  15.7523  15.8632
    15.8801  15.9677  16.0109  16.1026  16.2562  16.3469  16.5986  16.8180
    17.2650  17.4364  17.5186

          k = 0.5340-0.1756-0.5320 (  5324 PWs)   bands (ev):

   -68.9711 -68.7710 -68.7593 -68.7118 -68.5652 -63.8430 -63.4708 -63.4614
   -37.8477 -37.8365 -37.8297 -37.6565 -37.6522 -37.6510 -37.6329 -37.6205
   -37.6082 -37.6068 -37.5829 -37.5596 -37.4563 -37.4392 -37.4238 -32.8361
   -32.8251 -32.8082 -32.4863 -32.4763 -32.4586 -32.4494 -32.4390 -32.4371
    -6.3911  -6.1494  -6.0768  -5.9402  -5.8585  -5.7729  -5.6098  -5.4967
     5.2347   5.3386   5.7066   5.8370   5.9094   6.0432   6.1352   6.2981
     6.3141   6.3763   6.4874   6.6758   6.7029   6.8522   7.0526   7.1024
     7.1637   7.2776   7.4795   7.6869   7.7865   7.8483   8.1811   8.2868
     8.4062   8.6063   8.9441   8.9833   9.0283   9.0869   9.2448   9.3283
     9.3848   9.4392   9.5437   9.7804   9.8335   9.8608   9.9417  10.0487
    10.1898  10.5690  10.6517  10.9002  11.0828  11.1505  11.3410  11.9919
    12.2317  14.8588  15.2676  15.4113  15.4474  15.6358  15.8051  15.8768
    15.8903  15.9340  15.9834  15.9977  16.2188  16.3704  16.4088  16.6244
    16.8778  17.0039  18.0175

          k = 0.3561 0.0010-0.3559 (  5332 PWs)   bands (ev):

   -68.9703 -68.7702 -68.7591 -68.7127 -68.5649 -63.8432 -63.4716 -63.4624
   -37.8475 -37.8367 -37.8300 -37.6563 -37.6528 -37.6511 -37.6346 -37.6205
   -37.6100 -37.6054 -37.5821 -37.5589 -37.4570 -37.4387 -37.4237 -32.8363
   -32.8247 -32.8080 -32.4858 -32.4666 -32.4576 -32.4513 -32.4439 -32.4390
    -6.4388  -6.1717  -6.0134  -5.9234  -5.8713  -5.7374  -5.6221  -5.5105
     5.2848   5.4358   5.5514   5.5933   5.7673   6.0804   6.1568   6.2673
     6.3152   6.4301   6.5680   6.5870   6.6894   6.8827   6.9472   7.0025
     7.2693   7.3995   7.5688   7.7437   7.8954   7.9608   8.2824   8.4913
     8.5196   8.5668   8.6005   8.7734   9.0613   9.1964   9.2225   9.2616
     9.4054   9.5084   9.5585   9.7180   9.7579   9.7934   9.9124   9.9427
     9.9920  10.7247  10.9884  11.0953  11.1309  11.2646  11.5665  11.9573
    12.0825  14.7642  14.9970  15.3900  15.4137  15.7697  15.7880  15.8782
    15.9074  15.9517  15.9961  16.1751  16.2115  16.2888  16.4351  16.5965
    16.7537  16.8550  17.6873

          k = 0.3518 0.0011-0.0033 (  5331 PWs)   bands (ev):

   -68.9698 -68.7704 -68.7592 -68.7132 -68.5645 -63.8444 -63.4722 -63.4624
   -37.8479 -37.8368 -37.8302 -37.6577 -37.6533 -37.6519 -37.6345 -37.6221
   -37.6102 -37.6037 -37.5804 -37.5569 -37.4566 -37.4387 -37.4245 -32.8357
   -32.8242 -32.8071 -32.4855 -32.4755 -32.4580 -32.4493 -32.4385 -32.4369
    -6.5915  -6.1369  -5.9922  -5.8785  -5.8243  -5.7055  -5.5908  -5.5357
     5.0180   5.0481   5.0964   5.1652   5.9717   6.1082   6.1386   6.3052
     6.3690   6.4261   6.4642   6.6935   6.9190   6.9792   7.0710   7.1657
     7.3721   7.6976   7.7247   7.9972   8.2169   8.2538   8.3659   8.4732
     8.5299   8.6528   8.9606   8.9901   9.0460   9.1534   9.1849   9.2180
     9.2826   9.4466   9.5404   9.6187   9.6731   9.7383   9.8106   9.8406
     9.9730  10.2395  10.3100  11.0878  11.1793  11.4424  11.5083  12.5923
    12.6286  14.0610  15.1092  15.3390  15.4021  15.7209  15.7821  15.8067
    15.9169  15.9719  16.0079  16.1035  16.1752  16.3524  16.4861  16.8083
    17.2008  17.2752  17.4445

          k = 0.1739 0.1777 0.1728 (  5311 PWs)   bands (ev):

   -68.9702 -68.7707 -68.7590 -68.7129 -68.5653 -63.8447 -63.4720 -63.4620
   -37.8483 -37.8367 -37.8303 -37.6579 -37.6528 -37.6522 -37.6331 -37.6222
   -37.6094 -37.6044 -37.5814 -37.5583 -37.4558 -37.4373 -37.4241 -32.8352
   -32.8243 -32.8069 -32.4855 -32.4818 -32.4579 -32.4493 -32.4384 -32.4314
    -6.6259  -6.1107  -6.0451  -5.8415  -5.8052  -5.7139  -5.5833  -5.5194
     4.9509   4.9660   5.0002   5.0962   6.0525   6.1561   6.1844   6.2323
     6.2679   6.3035   6.4490   6.7285   6.9406   6.9792   7.1623   7.3877
     7.6393   7.7373   7.8368   7.8577   8.0100   8.2728   8.3259   8.3763
     8.5564   8.5989   8.7719   8.9221   9.0297   9.1438   9.1870   9.3026
     9.3568   9.4422   9.4528   9.6398   9.6876   9.7115   9.8597   9.9900
    10.0735  10.2905  10.3319  11.2133  11.2537  11.9880  12.1522  12.2061
    12.2394  13.7154  14.9893  15.3603  15.3735  15.7590  15.7795  15.8262
    15.8856  15.9202  15.9774  16.1268  16.3993  16.4983  16.5083  16.6512
    16.8797  16.9141  17.5068

[...]
   -37.4430 -32.7827 -32.7736 -32.7657 -32.6153 -32.6026 -32.6012 -32.5990
   -32.5858 -32.5666 -32.5636 -32.5532 -32.5317 -32.4175 -32.3987 -32.3742
    -6.3466  -5.9692  -5.8923  -5.7921  -5.7245  -5.5927  -5.4516  -5.3729
     5.6635   5.7165   5.8821   5.9097   6.1854   6.3137   6.4974   6.6764
     6.7289   6.8361   6.8837   7.0249   7.2539   7.3611   7.6592   7.7198
     7.9220   7.9482   8.1300   8.2980   8.3638   8.4958   8.6175   8.8375
     9.2192   9.2904   9.3232   9.4422   9.5366   9.5779   9.6581   9.7057
     9.7975   9.9249  10.9956  11.1774  11.4125  11.5033  11.9105  14.7031
    14.9161  14.9469  14.9978  15.4802  15.5635  15.6147  15.7236  15.7876
    15.8507  15.8937  15.9202  15.9847  16.0382  16.0760  16.2003  16.2570
    16.3016  16.3310  16.4178  16.4368  16.4862  16.5334  16.6404  16.7240
    16.8246  17.5767  17.7370

          k =-0.1737 0.5308-0.1800 (  5334 PWs)   bands (ev):

   -69.0082 -68.6085 -68.5842 -63.7901 -63.6005 -63.5909 -63.5834 -63.4049
   -37.8878 -37.8743 -37.8597 -37.4949 -37.4845 -37.4749 -37.4731 -37.4501
   -37.4409 -32.7841 -32.7743 -32.7661 -32.6122 -32.6038 -32.6026 -32.5993
   -32.5835 -32.5675 -32.5641 -32.5507 -32.5346 -32.4171 -32.3993 -32.3744
    -6.2930  -5.9892  -5.9150  -5.8157  -5.7126  -5.6110  -5.4914  -5.3213
     5.5817   5.6437   5.9928   6.0555   6.2546   6.2995   6.5690   6.6096
     6.7236   6.9196   7.0546   7.1819   7.2391   7.3800   7.5154   7.5448
     7.6894   8.1277   8.1806   8.2729   8.3427   8.5022   8.5557   8.8018
     8.8308   9.1963   9.2302   9.3238   9.5482   9.6155   9.8309   9.9853
    10.0361  10.1501  10.4395  11.0498  11.2766  11.4068  12.1520  14.4660
    15.0674  15.1518  15.2487  15.5060  15.5464  15.5679  15.6863  15.8049
    15.8204  15.8456  15.9179  15.9687  16.0046  16.0385  16.0762  16.1088
    16.1772  16.2169  16.3346  16.4548  16.5759  16.6907  16.8182  16.9605
    17.0703  17.0998  18.4423

          k = 0.3603 0.0009-0.7084 (  5331 PWs)   bands (ev):

   -69.0085 -68.6081 -68.5839 -63.7904 -63.6009 -63.5917 -63.5832 -63.4046
   -37.8876 -37.8741 -37.8597 -37.4928 -37.4838 -37.4748 -37.4732 -37.4520
   -37.4427 -32.7827 -32.7743 -32.7658 -32.6074 -32.6068 -32.6017 -32.5992
   -32.5824 -32.5692 -32.5642 -32.5479 -32.5399 -32.4176 -32.3992 -32.3744
    -6.1686  -6.0422  -5.9573  -5.8548  -5.7278  -5.5612  -5.5171  -5.3311
     5.7489   5.8314   5.9792   6.0729   6.3525   6.4550   6.4674   6.6358
     6.7811   6.8483   6.9183   7.0183   7.1517   7.2638   7.2927   7.6637
     7.9429   8.0046   8.0567   8.3384   8.3811   8.5134   8.6027   8.7709
     9.0628   9.1727   9.2423   9.3059   9.5695   9.6655   9.7139   9.8435
     9.9824  10.0540  10.1332  10.8884  11.3917  11.6928  11.8712  14.7162
    15.0295  15.3801  15.5007  15.5466  15.5705  15.5887  15.6350  15.6781
    15.7442  15.8206  15.8605  15.8756  15.9836  16.0398  16.0606  16.0795
    16.1280  16.2593  16.3279  16.3998  16.4442  16.5201  16.7692  17.0344
    17.2825  17.6277  17.8506

          k = 0.1823 0.1775-0.5323 (  5338 PWs)   bands (ev):

   -69.0083 -68.6073 -68.5831 -63.7913 -63.6017 -63.5921 -63.5823 -63.4049
   -37.8875 -37.8744 -37.8598 -37.4909 -37.4825 -37.4748 -37.4737 -37.4551
   -37.4443 -32.7814 -32.7735 -32.7655 -32.6127 -32.6037 -32.5999 -32.5989
   -32.5851 -32.5680 -32.5638 -32.5519 -32.5354 -32.4181 -32.3985 -32.3742
    -6.2480  -6.0364  -5.9380  -5.8156  -5.6476  -5.6032  -5.4756  -5.3885
     5.8133   5.8698   5.9584   6.0819   6.2821   6.3473   6.3958   6.5102
     6.5526   6.8084   6.8780   7.0285   7.2671   7.3885   7.5631   7.6201
     7.8850   7.9729   8.0241   8.3635   8.4854   8.5225   8.6374   8.7112
     9.0463   9.2089   9.3144   9.4687   9.5795   9.6461   9.6970   9.8161
     9.8394  10.1992  10.4082  11.0470  11.1836  11.3526  12.1964  14.8608
    15.0816  15.2066  15.2856  15.3134  15.4864  15.5492  15.6570  15.7345
    15.8495  15.8935  15.9444  15.9670  16.0131  16.0519  16.0682  16.0818
    16.1501  16.2158  16.2972  16.3886  16.5320  16.5547  16.9130  16.9976
    17.0546  17.1264  18.2788

          k =-0.3561-0.3552 0.3595 (  5344 PWs)   bands (ev):

   -69.0085 -68.6071 -68.5834 -63.7916 -63.6014 -63.5914 -63.5825 -63.4047
   -37.8874 -37.8744 -37.8598 -37.4909 -37.4826 -37.4748 -37.4738 -37.4548
   -37.4441 -32.7806 -32.7733 -32.7657 -32.6157 -32.6028 -32.5999 -32.5983
   -32.5870 -32.5668 -32.5637 -32.5549 -32.5323 -32.4182 -32.3983 -32.3736
    -6.2139  -6.1716  -5.8537  -5.8010  -5.6605  -5.5873  -5.4480  -5.4121
     5.8618   5.9159   5.9270   6.1470   6.1834   6.2125   6.3629   6.6378
     6.7431   6.8210   6.8777   6.9453   7.0026   7.0814   7.4549   7.9080
     7.9843   8.0305   8.0728   8.2461   8.4984   8.5941   8.6763   8.7347
     8.8540   9.1614   9.3405   9.4398   9.4956   9.5521   9.6457   9.6504
     9.7332  10.8625  11.0751  11.3005  11.4128  11.4400  11.4957  14.8955
    14.9624  15.0672  15.1354  15.2688  15.3959  15.4409  15.5162  15.8701
    15.9003  15.9300  15.9696  16.1724  16.1815  16.2143  16.2617  16.2752
    16.3065  16.3528  16.3974  16.4168  16.4498  16.5392  16.5563  16.5781
    16.7225  16.7358  18.6902

          k =-0.5341-0.1786 0.5356 (  5342 PWs)   bands (ev):

   -69.0087 -68.6079 -68.5841 -63.7907 -63.6006 -63.5910 -63.5834 -63.4044
   -37.8875 -37.8742 -37.8597 -37.4928 -37.4839 -37.4748 -37.4733 -37.4517
   -37.4426 -32.7820 -32.7740 -32.7661 -32.6127 -32.6038 -32.6017 -32.5986
   -32.5847 -32.5676 -32.5642 -32.5526 -32.5351 -32.4176 -32.3990 -32.3738
    -6.2578  -6.0548  -5.8848  -5.8273  -5.6706  -5.6068  -5.5247  -5.3254
     5.5628   5.6957   6.0258   6.1162   6.2371   6.3118   6.4848   6.6153
     6.7107   6.8803   7.0601   7.2319   7.2656   7.4219   7.5489   7.5925
     7.6555   8.0340   8.1841   8.2978   8.3407   8.4283   8.6633   8.6984
     8.7620   9.1461   9.3207   9.3336   9.6000   9.6316   9.7874   9.9562
     9.9838  10.1521  10.4886  11.0228  11.2618  11.3844  12.1341  14.4544
    15.1683  15.2358  15.2794  15.3975  15.4876  15.5630  15.6179  15.8147
    15.8392  15.8811  15.9202  15.9393  15.9675  16.0252  16.0969  16.1468
    16.1931  16.2058  16.3000  16.4751  16.5178  16.7411  16.7877  16.9515
    17.0595  17.1370  18.3969

          k =-0.0002-0.7085 0.0072 (  5352 PWs)   bands (ev):

   -69.0089 -68.6087 -68.5849 -63.7898 -63.5997 -63.5905 -63.5843 -63.4040
   -37.8876 -37.8739 -37.8596 -37.4948 -37.4845 -37.4747 -37.4728 -37.4496
   -37.4406 -32.7835 -32.7747 -32.7665 -32.6077 -32.6066 -32.6035 -32.5989
   -32.5820 -32.5688 -32.5646 -32.5492 -32.5390 -32.4172 -32.3996 -32.3741
    -6.2282  -6.0823  -5.8767  -5.7638  -5.7178  -5.6447  -5.5546  -5.2879
     5.4134   5.4522   5.9905   6.2345   6.3692   6.4871   6.6959   6.8199
     6.8622   6.9298   6.9578   7.0336   7.2361   7.2719   7.3050   7.8721
     7.9606   7.9985   8.1192   8.1722   8.2413   8.5742   8.7603   8.8994
     9.0505   9.1284   9.1544   9.2689   9.2902   9.4771   9.8120   9.9437
    10.0330  10.2312  10.2766  10.4776  11.0252  11.3904  12.5539  14.2125
    15.2934  15.3316  15.3639  15.5235  15.5743  15.5919  15.6495  15.7242
    15.7415  15.7577  15.7681  15.8009  15.8344  15.8530  16.0372  16.0851
    16.0928  16.1470  16.2762  16.5939  16.6074  16.7334  17.1566  17.3190
    17.3942  18.1022  18.2640

          k =-0.1824-0.5318 0.5359 (  5338 PWs)   bands (ev):

   -69.0082 -68.6073 -68.5831 -63.7918 -63.6011 -63.5917 -63.5822 -63.4055
   -37.8874 -37.8744 -37.8599 -37.4911 -37.4823 -37.4748 -37.4737 -37.4549
   -37.4445 -32.7805 -32.7728 -32.7653 -32.6179 -32.6068 -32.6002 -32.5961
   -32.5870 -32.5690 -32.5614 -32.5515 -32.5309 -32.4179 -32.3991 -32.3744
    -6.2403  -6.0894  -5.8469  -5.8006  -5.7487  -5.5779  -5.4445  -5.4042
     5.8025   5.8860   5.9689   6.0450   6.2865   6.3493   6.4132   6.5015
     6.5448   6.8105   6.8899   7.0289   7.2596   7.3945   7.5344   7.6271
     7.9049   7.9821   8.0235   8.3520   8.4670   8.5434   8.6529   8.7157
     9.0186   9.2217   9.3172   9.4684   9.5924   9.6538   9.6829   9.8073
     9.8412  10.1951  10.4125  11.0105  11.1610  11.4043  12.2065  14.8518
    15.0900  15.2455  15.2718  15.3122  15.4747  15.5152  15.6158  15.8080
    15.8464  15.8790  15.9108  15.9536  15.9957  16.0350  16.0946  16.1255
    16.1866  16.2725  16.2859  16.3792  16.4660  16.5401  16.9116  17.0020
    17.0946  17.1166  18.3122

          k =-0.3604-0.3551 0.7120 (  5334 PWs)   bands (ev):

   -69.0080 -68.6076 -68.5834 -63.7916 -63.6009 -63.5918 -63.5826 -63.4047
   -37.8877 -37.8744 -37.8600 -37.4930 -37.4841 -37.4751 -37.4734 -37.4519
   -37.4429 -32.7817 -32.7733 -32.7651 -32.6155 -32.6072 -32.6015 -32.5964
   -32.5844 -32.5700 -32.5617 -32.5504 -32.5343 -32.4173 -32.3981 -32.3743
    -6.3327  -6.0331  -5.8791  -5.7977  -5.6511  -5.5777  -5.5097  -5.3596
     5.6846   5.7154   5.8645   5.9100   6.1677   6.2878   6.4799   6.6618
     6.7311   6.8377   6.9134   7.0386   7.2045   7.4077   7.6296   7.7477
     7.9115   7.9570   8.1311   8.2799   8.4398   8.5201   8.5842   8.8226
     9.1844   9.2775   9.3469   9.4423   9.5073   9.5985   9.6539   9.7420
     9.8052   9.9477  10.9991  11.2180  11.3874  11.4569  11.9155  14.7038
    14.9267  14.9775  15.0514  15.4102  15.5088  15.5985  15.6848  15.8086
    15.8564  15.9123  15.9450  15.9895  16.0213  16.0639  16.2267  16.2678
    16.2906  16.3964  16.4131  16.4378  16.4905  16.5354  16.5973  16.7167
    16.8021  17.5585  17.7748

          k = 0.1736-0.8850 0.1836 (  5327 PWs)   bands (ev):

   -69.0082 -68.6085 -68.5842 -63.7907 -63.6000 -63.5914 -63.5835 -63.4043
   -37.8878 -37.8741 -37.8599 -37.4950 -37.4847 -37.4750 -37.4730 -37.4500
   -37.4409 -32.7832 -32.7740 -32.7655 -32.6135 -32.6072 -32.6031 -32.5964
   -32.5816 -32.5711 -32.5622 -32.5477 -32.5379 -32.4168 -32.3988 -32.3745
    -6.2615  -6.0942  -5.8621  -5.7872  -5.7164  -5.5903  -5.5167  -5.3197
     5.5808   5.6521   6.0039   6.0565   6.2371   6.3286   6.5031   6.5907
     6.6971   6.9187   7.0386   7.2145   7.2571   7.3663   7.5074   7.5775
     7.6897   8.1609   8.1780   8.2567   8.3240   8.5340   8.5567   8.7867
     8.8620   9.1954   9.2278   9.3167   9.5536   9.6289   9.8199  10.0124
    10.0331  10.1373  10.4689  11.0124  11.2650  11.4155  12.1553  14.4681
    15.1660  15.2099  15.2739  15.3641  15.4912  15.5413  15.6500  15.8093
    15.8454  15.8661  15.9070  15.9229  15.9978  16.0440  16.0734  16.1094
    16.2349  16.2957  16.3363  16.4638  16.5796  16.6586  16.7679  16.9595
    17.0739  17.1170  18.4689

          k =-0.0044-0.7084 0.3597 (  5337 PWs)   bands (ev):

   -69.0085 -68.6081 -68.5839 -63.7910 -63.6003 -63.5912 -63.5830 -63.4052
   -37.8875 -37.8742 -37.8598 -37.4929 -37.4836 -37.4748 -37.4732 -37.4518
   -37.4429 -32.7819 -32.7735 -32.7657 -32.6158 -32.6070 -32.6017 -32.5960
   -32.5848 -32.5697 -32.5618 -32.5497 -32.5334 -32.4174 -32.3998 -32.3746
    -6.1537  -6.0881  -5.9301  -5.8222  -5.7423  -5.6140  -5.4774  -5.3320
     5.7553   5.8293   5.9823   6.0701   6.3754   6.4344   6.4798   6.6055
     6.7480   6.8706   6.9518   7.0042   7.1347   7.2625   7.3013   7.6926
     7.9149   7.9738   8.0660   8.3440   8.4057   8.5234   8.5985   8.7630
     9.0694   9.1685   9.2581   9.3410   9.5503   9.6469   9.7026   9.8433
     9.9770  10.0554  10.1309  10.8493  11.4322  11.7352  11.8399  14.7222
    15.0496  15.4060  15.4299  15.5108  15.5611  15.5866  15.6030  15.7042
    15.7594  15.8259  15.8453  15.9087  15.9847  16.0422  16.0781  16.1072
    16.1779  16.2457  16.2817  16.3644  16.4468  16.5831  16.7584  17.0287
    17.2812  17.6455  17.8168

          k =-0.7037-0.0021 0.0066 (  5342 PWs)   bands (ev):

   -69.0080 -68.6075 -68.5828 -63.7921 -63.6008 -63.5919 -63.5818 -63.4063
   -37.8874 -37.8744 -37.8600 -37.4912 -37.4820 -37.4749 -37.4736 -37.4550
   -37.4449 -32.7803 -32.7723 -32.7647 -32.6208 -32.6083 -32.6007 -32.5950
   -32.5869 -32.5700 -32.5603 -32.5485 -32.5293 -32.4176 -32.3999 -32.3751
    -6.1721  -6.1417  -5.8336  -5.8059  -5.7526  -5.5914  -5.4544  -5.4052
     5.7846   5.7904   6.0040   6.0948   6.1646   6.2456   6.6115   6.7466
     6.7769   6.8516   6.9130   6.9875   7.0422   7.0757   7.6858   7.7256
     7.8262   7.8402   8.1245   8.5369   8.5752   8.6414   8.6853   8.8073
     8.9669   9.1847   9.2044   9.6050   9.6306   9.7251   9.7314   9.8605
     9.9346   9.9609   9.9689  10.6300  10.7487  11.3319  12.6184  14.7654
    15.2667  15.3946  15.3967  15.4613  15.5348  15.5656  15.6901  15.7149
    15.7441  15.7957  15.8267  15.8488  15.8806  15.9138  15.9711  15.9997
    16.0249  16.0962  16.1352  16.3795  16.4735  16.6964  17.3711  17.3906
    17.4138  17.7523  18.2255

          k =-0.8817 0.1745 0.1828 (  5324 PWs)   bands (ev):

   -69.0077 -68.6078 -68.5831 -63.7918 -63.6006 -63.5921 -63.5822 -63.4055
   -37.8877 -37.8744 -37.8601 -37.4932 -37.4839 -37.4751 -37.4733 -37.4521
   -37.4433 -32.7815 -32.7728 -32.7645 -32.6193 -32.6078 -32.6018 -32.5952
   -32.5845 -32.5710 -32.5604 -32.5478 -32.5327 -32.4170 -32.3989 -32.3751
    -6.2567  -6.0842  -5.8998  -5.7627  -5.7135  -5.5749  -5.4900  -5.3666
     5.7801   5.8825   5.9735   6.0513   6.2064   6.3136   6.4334   6.4798
     6.5327   6.7880   6.9069   7.0162   7.2825   7.3847   7.5692   7.6224
     7.9090   7.9807   8.0532   8.3608   8.4881   8.5737   8.6455   8.7087
     9.0628   9.2176   9.2798   9.4494   9.6145   9.7158   9.7221   9.7662
     9.8325  10.2202  10.4128  11.0184  11.1828  11.4166  12.2132  14.8556
    15.0971  15.2201  15.2705  15.3078  15.4537  15.5081  15.6583  15.8070
    15.8392  15.8573  15.9061  15.9429  15.9977  16.0527  16.1012  16.1643
    16.1870  16.2809  16.3288  16.3953  16.4663  16.5318  16.8553  17.0017
    17.0723  17.1411  18.2816

          k =-0.3477-0.3554-0.3457 (  5332 PWs)   bands (ev):

   -69.0074 -68.6082 -68.5834 -63.7915 -63.6003 -63.5923 -63.5826 -63.4046
   -37.8880 -37.8743 -37.8602 -37.4953 -37.4849 -37.4752 -37.4731 -37.4503
   -37.4411 -32.7828 -32.7733 -32.7644 -32.6181 -32.6068 -32.6033 -32.5955
   -32.5813 -32.5725 -32.5608 -32.5462 -32.5369 -32.4165 -32.3980 -32.3750
    -6.2299  -6.2007  -5.8587  -5.7627  -5.6618  -5.5517  -5.5188  -5.3559
     5.8212   5.8490   5.9131   6.1628   6.1847   6.2098   6.2683   6.6187
     6.7158   6.7885   6.8591   6.9640   6.9929   7.0826   7.4740   7.8977
     7.9619   8.0064   8.1555   8.3275   8.5233   8.6748   8.6906   8.7355
     8.9226   9.1172   9.3493   9.3941   9.4526   9.5885   9.6743   9.7077
     9.7803  10.9322  11.0437  11.1978  11.4294  11.4794  11.6197  14.8805
    14.9487  15.0449  15.1080  15.3310  15.4138  15.4594  15.5079  15.8377
    15.9191  15.9556  16.0119  16.0475  16.2067  16.2347  16.2648  16.3120
    16.3182  16.3847  16.4461  16.4541  16.4660  16.4852  16.5210  16.5405
    16.6941  16.7340  18.9080

     the Fermi energy is    12.7982 ev

!    total energy              =   -1946.23461168 Ry
     Harris-Foulkes estimate   =   -1946.23461164 Ry
     estimated scf accuracy    <          8.1E-09 Ry

     The total energy is the sum of the following terms:

     one-electron contribution =    -886.23339195 Ry
     hartree contribution      =     528.74355015 Ry
     xc contribution           =    -270.04059680 Ry
     ewald contribution        =   -1319.09871956 Ry
     Hubbard energy            =       0.39474021 Ry
     smearing contrib. (-TS)   =      -0.00019373 Ry

     total magnetization       =    10.01 Bohr mag/cell
     absolute magnetization    =    38.34 Bohr mag/cell

     convergence has been achieved in  13 iterations

     Forces acting on atoms (Ry/au):


     negative rho (up, down):  7.437E-04 1.957E-03
     atom    1 type  1   force =  -0.16891078E-01  0.10954860E-01 -0.15009999E-02
     atom    2 type  3   force =   0.19357206E-02 -0.15278540E-01  0.51814210E-02
     atom    3 type  2   force =   0.88393850E-02  0.81516017E-02 -0.15381727E-01
     atom    4 type  3   force =   0.22037841E-02 -0.13350256E-01  0.13159215E-01
     atom    5 type  1   force =   0.23415611E-02 -0.15739334E-02  0.15035068E-01
     atom    6 type  3   force =  -0.14740755E-01  0.21915500E-02 -0.59276214E-02
     atom    7 type  2   force =   0.86844286E-02 -0.38161679E-02  0.11279037E-01
     atom    8 type  3   force =  -0.16918745E-01  0.46427047E-02  0.31505241E-02
     atom    9 type  2   force =  -0.16283182E-01  0.15414227E-01  0.61232574E-02
     atom   10 type  3   force =   0.14723950E-01 -0.12073241E-01 -0.50853997E-02
     atom   11 type  1   force =  -0.70784095E-02  0.36942583E-02 -0.17060012E-01
     atom   12 type  3   force =   0.13968314E-01 -0.45487859E-02  0.11257956E-01
     atom   13 type  1   force =   0.71136741E-02 -0.95764091E-02  0.53885976E-02
     atom   14 type  3   force =   0.55086397E-02  0.16632406E-01 -0.13914775E-01
     atom   15 type  1   force =   0.19253240E-01 -0.12900511E-01  0.69484554E-02
     atom   16 type  3   force =  -0.12660528E-01  0.11436236E-01 -0.18652996E-01

     Total force =     0.077185     Total SCF correction =     0.000161


     entering subroutine stress ...


     negative rho (up, down):  7.437E-04 1.957E-03
          total   stress  (Ry/bohr**3)                   (kbar)     P=    5.95
   0.0000395161   0.0000162571  -0.0001055329          5.81      2.39    -15.52
   0.0000162571   0.0000344354  -0.0000381070          2.39      5.07     -5.61
  -0.0001055329  -0.0000381070   0.0000473577        -15.52     -5.61      6.97


     Writing output data file mno_fm.scf.in.super.222.sub.044.save

     init_run     :     71.40s CPU     68.54s WALL (       1 calls)
     electrons    :   2260.29s CPU   2306.62s WALL (       1 calls)
     forces       :    170.17s CPU    189.85s WALL (       1 calls)
     stress       :    487.43s CPU    524.46s WALL (       1 calls)

     Called by init_run:
     wfcinit      :     67.94s CPU     65.05s WALL (       1 calls)
     potinit      :      0.92s CPU      0.92s WALL (       1 calls)

     Called by electrons:
     c_bands      :   2018.83s CPU   2072.73s WALL (      13 calls)
     sum_band     :    232.23s CPU    224.61s WALL (      13 calls)
     v_of_rho     :      2.32s CPU      2.33s WALL (      14 calls)
     newd         :      6.18s CPU      6.18s WALL (      14 calls)
     mix_rho      :      1.04s CPU      1.05s WALL (      13 calls)

     Called by c_bands:
     init_us_2    :     10.15s CPU     10.32s WALL (    2880 calls)
     cegterg      :   1981.22s CPU   2033.26s WALL (     936 calls)

     Called by *egterg:
     h_psi        :   1031.12s CPU   1020.39s WALL (    3380 calls)
     s_psi        :    144.20s CPU    109.50s WALL (    4172 calls)
     g_psi        :      1.37s CPU      1.35s WALL (    2372 calls)
     cdiaghg      :    458.22s CPU    578.19s WALL (    3308 calls)

     Called by h_psi:
     add_vuspsi   :    107.37s CPU     84.45s WALL (    3380 calls)
     vhpsi        :     96.11s CPU    118.93s WALL (    3380 calls)

     General routines
     calbec       :    802.28s CPU    840.63s WALL (   52408 calls)
     fft          :      2.15s CPU      2.20s WALL (     468 calls)
     ffts         :      0.62s CPU      0.56s WALL (     328 calls)
     fftw         :    766.82s CPU    776.87s WALL (  581756 calls)
     interpolate  :      0.27s CPU      0.26s WALL (      54 calls)
     davcio       :      0.01s CPU      0.03s WALL (      72 calls)

     Parallel routines
     fft_scatter  :    334.28s CPU    339.89s WALL (  582552 calls)
     Hubbard U routines
     new_ns       :     19.91s CPU     20.61s WALL (      13 calls)
     vhpsi        :     96.11s CPU    118.93s WALL (    3380 calls)
     force_hub    :    148.80s CPU    172.20s WALL (       1 calls)
     stres_hub    :    441.97s CPU    479.67s WALL (       1 calls)

     PWSCF        : 49m54.96s CPU    51m36.21s WALL


   This run was terminated on:  10:49:14  17Aug2017            

=------------------------------------------------------------------------------=
   JOB DONE.
=------------------------------------------------------------------------------=
