
     Program PWSCF v.5.1 starts on 16Aug2017 at 22:40:37 

     This program is part of the open-source Quantum ESPRESSO suite
     for quantum simulation of materials; please cite
         "P. Giannozzi et al., J. Phys.:Condens. Matter 21 395502 (2009);
          URL http://www.quantum-espresso.org", 
     in publications or presentations arising from this work. More details at
     http://www.quantum-espresso.org/quote

     Parallel version (MPI), running on     8 processors
     R & G space division:  proc/nbgrp/npool/nimage =       8
     Reading input from /tmp/mno_fm.scf.in.super.222.03.5980/mno_fm.scf.in.super.222.03.t
Warning: card &IONS ignored
Warning: card   ION_DYNAMICS='BFGS', ignored
Warning: card / ignored
Warning: card &CELL ignored
Warning: card  CELL_DYNAMICS = 'BFGS' ignored
Warning: card / ignored

     Current dimensions of program PWSCF are:
     Max number of different atomic species (ntypx) = 10
     Max number of k-points (npk) =  40000
     Max angular momentum in pseudopotentials (lmaxx) =  3
 kfg - two_fermi_energies  T

     Subspace diagonalization in iterative solution of the eigenvalue problem:
     a serial algorithm will be used


     Parallelization info
     --------------------
     sticks:   dense  smooth     PW     G-vecs:    dense   smooth      PW
     Min         246     204     56                 7264     5421     802
     Max         247     205     57                 7267     5438     805
     Sum        1969    1639    451                58119    43407    6423

     Generating pointlists ...
     new r_m :   0.1395 (alat units)  1.6737 (a.u.) for type    1
     new r_m :   0.1395 (alat units)  1.6737 (a.u.) for type    2


     bravais-lattice index     =            0
     lattice parameter (alat)  =    11.996146938  a.u.
     unit-cell volume          =    1220.7039 (a.u.)^3
     number of atoms/cell      =           16
     number of atomic types    =            2
     number of electrons       =       168.00 (up: 104.00, down:  64.00)
     number of Kohn-Sham states=          125
     kinetic-energy cutoff     =      41.0000  Ry
     charge density cutoff     =     200.0000  Ry
     convergence threshold     =      1.0E-08
     mixing beta               =       0.3000
     number of iterations used =            8  local-TF  mixing
     Exchange-correlation      = SLA  PW   PSX  PSC ( 1  4 10  8 0)
     A smooth kinetic-energy cutoff is imposed at      40.0000 Ry
     height of the smooth step-function =             800.0000 Ry
     width of the smooth step-function  =               1.0000 Ry


     celldm(1)=  11.996147  celldm(2)=   0.000000  celldm(3)=   0.000000
     celldm(4)=   0.000000  celldm(5)=   0.000000  celldm(6)=   0.000000

     crystal axes: (cart. coord. in units of alat)
               a(1) = (   0.707106781187   0.707106781187   0.000000000000 )  
               a(2) = (   0.707106781187   0.000000000000   0.707106781187 )  
               a(3) = (   0.000000000000   0.707106781187   0.707106781187 )  

     reciprocal axes: (cart. coord. in units 2 pi/alat)
               b(1) = (  0.707107  0.707107 -0.707107 )  
               b(2) = (  0.707107 -0.707107  0.707107 )  
               b(3) = ( -0.707107  0.707107  0.707107 )  


     PseudoPot. # 1 for Mn read from file:
     /users/kfg/psuedo/gbrv_1.5/mn.pbesol.UPF
     MD5 check sum: 0716d5f563e6e95a34f9080f4c78c109
     Pseudo is Ultrasoft + core correction, Zval = 15.0
     Generated by new atomic code, or converted to UPF format
     Using radial grid of  859 points,  6 beta functions with: 
                l(1) =   0
                l(2) =   0
                l(3) =   1
                l(4) =   1
                l(5) =   2
                l(6) =   2
     Q(r) pseudized with  8 coefficients,  rinner =    0.950   0.950   0.950
                                                       0.950   0.950

     PseudoPot. # 2 for O  read from file:
     /users/kfg/psuedo/gbrv_1.5/o.pbesol.UPF
     MD5 check sum: 501638753501ef6325af9037351f7734
     Pseudo is Ultrasoft + core correction, Zval =  6.0
     Generated by new atomic code, or converted to UPF format
     Using radial grid of  737 points,  5 beta functions with: 
                l(1) =   0
                l(2) =   0
                l(3) =   1
                l(4) =   1
                l(5) =   2
     Q(r) pseudized with  8 coefficients,  rinner =    0.900   0.900   0.900
                                                       0.900   0.900

     atomic species   valence    mass     pseudopotential
        Mn            15.00    54.90000     Mn( 1.00)
        O              6.00    15.99900     O ( 1.00)

     Starting magnetic structure 
     atomic species   magnetization
        Mn           1.000
        O            0.000


     Simplified LDA+U calculation (l_max = 2) with parameters (eV):
     atomic species    L          U    alpha       J0     beta
        Mn             2     3.0000   0.0000   0.0000   0.0000



     No symmetry found



   Cartesian axes

     site n.     atom                  positions (alat units)
         1           Mn  tau(   1) = (   -0.00529632110    0.00221835410    0.00379780328  )
         2           O   tau(   2) = (    0.35830539602    0.34631427425    0.34534231568  )
         3           Mn  tau(   3) = (   -0.00363398126    0.35192315577    0.34821198290  )
         4           O   tau(   4) = (    0.34647739730    0.70184363457    0.70871123843  )
         5           Mn  tau(   5) = (    0.34903102924   -0.00040818605    0.35085264903  )
         6           O   tau(   6) = (    0.71042546735    0.35342247906    0.70027934802  )
         7           Mn  tau(   7) = (    0.35774843617    0.34640900950    0.70569140011  )
         8           O   tau(   8) = (    0.69938321722    0.70288747933    1.05856596162  )
         9           Mn  tau(   9) = (    0.35079277544    0.35556760913    0.00732262702  )
        10           O   tau(  10) = (    0.70208832270    0.70251924302    0.35146228760  )
        11           Mn  tau(  11) = (    0.34615584527    0.70221743688    0.35764689882  )
        12           O   tau(  12) = (    0.70174000666    1.06367300289    0.70060215474  )
        13           Mn  tau(  13) = (    0.71105901196    0.35284549433    0.35747474521  )
        14           O   tau(  14) = (    1.05775577133    0.71513503111    0.70388572527  )
        15           Mn  tau(  15) = (    0.71176304064    0.70749992665    0.70450481040  )
        16           O   tau(  16) = (    1.06103633370    1.06097280765    1.05288307204  )

     number of k points=    72  gaussian smearing, width (Ry)=  0.0100
                       cart. coord. in units 2pi/alat
        k(    1) = (   0.0000000   0.0000000   0.0000000), wk =   0.0156250
        k(    2) = (  -0.1767767   0.1767767   0.1767767), wk =   0.0312500
        k(    3) = (   0.3535534  -0.3535534  -0.3535534), wk =   0.0156250
        k(    4) = (   0.0000000   0.0000000   0.3535534), wk =   0.0312500
        k(    5) = (   0.5303301  -0.5303301  -0.1767767), wk =   0.0312500
        k(    6) = (   0.3535534  -0.3535534   0.0000000), wk =   0.0312500
        k(    7) = (   0.0000000   0.0000000  -0.7071068), wk =   0.0156250
        k(    8) = (   0.0000000   0.3535534  -0.7071068), wk =   0.0312500
        k(    9) = (   0.1767767  -0.1767767   0.1767767), wk =   0.0312500
        k(   10) = (   0.1767767   0.1767767  -0.1767767), wk =   0.0312500
        k(   11) = (  -0.1767767  -0.1767767  -0.1767767), wk =   0.0312500
        k(   12) = (  -0.3535534   0.3535534  -0.3535534), wk =   0.0156250
        k(   13) = (  -0.3535534  -0.3535534   0.3535534), wk =   0.0156250
        k(   14) = (   0.3535534   0.3535534   0.3535534), wk =   0.0156250
        k(   15) = (   0.3535534   0.0000000   0.0000000), wk =   0.0312500
        k(   16) = (   0.0000000   0.3535534   0.0000000), wk =   0.0312500
        k(   17) = (  -0.5303301   0.5303301  -0.1767767), wk =   0.0312500
        k(   18) = (  -0.5303301  -0.5303301   0.1767767), wk =   0.0312500
        k(   19) = (   0.5303301   0.5303301   0.1767767), wk =   0.0312500
        k(   20) = (  -0.1767767   0.5303301   0.5303301), wk =   0.0312500
        k(   21) = (   0.1767767   0.5303301  -0.5303301), wk =   0.0312500
        k(   22) = (  -0.1767767  -0.5303301  -0.5303301), wk =   0.0312500
        k(   23) = (   0.1767767  -0.5303301   0.5303301), wk =   0.0312500
        k(   24) = (  -0.5303301  -0.1767767  -0.5303301), wk =   0.0312500
        k(   25) = (  -0.5303301   0.1767767   0.5303301), wk =   0.0312500
        k(   26) = (   0.5303301  -0.1767767   0.5303301), wk =   0.0312500
        k(   27) = (   0.5303301   0.1767767  -0.5303301), wk =   0.0312500
        k(   28) = (  -0.3535534  -0.3535534   0.0000000), wk =   0.0312500
        k(   29) = (   0.0000000   0.3535534   0.3535534), wk =   0.0312500
        k(   30) = (   0.0000000   0.3535534  -0.3535534), wk =   0.0312500
        k(   31) = (  -0.3535534   0.0000000  -0.3535534), wk =   0.0312500
        k(   32) = (  -0.3535534   0.0000000   0.3535534), wk =   0.0312500
        k(   33) = (  -0.7071068   0.0000000   0.0000000), wk =   0.0156250
        k(   34) = (   0.0000000  -0.7071068   0.0000000), wk =   0.0156250
        k(   35) = (   0.3535534  -0.0000000   0.7071068), wk =   0.0312500
        k(   36) = (   0.0000000  -0.7071068   0.3535534), wk =   0.0312500
        k(   37) = (   0.0000000   0.0000000   0.0000000), wk =   0.0156250
        k(   38) = (  -0.1767767   0.1767767   0.1767767), wk =   0.0312500
        k(   39) = (   0.3535534  -0.3535534  -0.3535534), wk =   0.0156250
        k(   40) = (   0.0000000   0.0000000   0.3535534), wk =   0.0312500
        k(   41) = (   0.5303301  -0.5303301  -0.1767767), wk =   0.0312500
        k(   42) = (   0.3535534  -0.3535534   0.0000000), wk =   0.0312500
        k(   43) = (   0.0000000   0.0000000  -0.7071068), wk =   0.0156250
        k(   44) = (   0.0000000   0.3535534  -0.7071068), wk =   0.0312500
        k(   45) = (   0.1767767  -0.1767767   0.1767767), wk =   0.0312500
        k(   46) = (   0.1767767   0.1767767  -0.1767767), wk =   0.0312500
        k(   47) = (  -0.1767767  -0.1767767  -0.1767767), wk =   0.0312500
        k(   48) = (  -0.3535534   0.3535534  -0.3535534), wk =   0.0156250
        k(   49) = (  -0.3535534  -0.3535534   0.3535534), wk =   0.0156250
        k(   50) = (   0.3535534   0.3535534   0.3535534), wk =   0.0156250
        k(   51) = (   0.3535534   0.0000000   0.0000000), wk =   0.0312500
        k(   52) = (   0.0000000   0.3535534   0.0000000), wk =   0.0312500
        k(   53) = (  -0.5303301   0.5303301  -0.1767767), wk =   0.0312500
        k(   54) = (  -0.5303301  -0.5303301   0.1767767), wk =   0.0312500
        k(   55) = (   0.5303301   0.5303301   0.1767767), wk =   0.0312500
        k(   56) = (  -0.1767767   0.5303301   0.5303301), wk =   0.0312500
        k(   57) = (   0.1767767   0.5303301  -0.5303301), wk =   0.0312500
        k(   58) = (  -0.1767767  -0.5303301  -0.5303301), wk =   0.0312500
        k(   59) = (   0.1767767  -0.5303301   0.5303301), wk =   0.0312500
        k(   60) = (  -0.5303301  -0.1767767  -0.5303301), wk =   0.0312500
        k(   61) = (  -0.5303301   0.1767767   0.5303301), wk =   0.0312500
        k(   62) = (   0.5303301  -0.1767767   0.5303301), wk =   0.0312500
        k(   63) = (   0.5303301   0.1767767  -0.5303301), wk =   0.0312500
        k(   64) = (  -0.3535534  -0.3535534   0.0000000), wk =   0.0312500
        k(   65) = (   0.0000000   0.3535534   0.3535534), wk =   0.0312500
        k(   66) = (   0.0000000   0.3535534  -0.3535534), wk =   0.0312500
        k(   67) = (  -0.3535534   0.0000000  -0.3535534), wk =   0.0312500
        k(   68) = (  -0.3535534   0.0000000   0.3535534), wk =   0.0312500
        k(   69) = (  -0.7071068   0.0000000   0.0000000), wk =   0.0156250
        k(   70) = (   0.0000000  -0.7071068   0.0000000), wk =   0.0156250
        k(   71) = (   0.3535534  -0.0000000   0.7071068), wk =   0.0312500
        k(   72) = (   0.0000000  -0.7071068   0.3535534), wk =   0.0312500

     Dense  grid:    58119 G-vectors     FFT dimensions: (  54,  54,  54)

     Smooth grid:    43407 G-vectors     FFT dimensions: (  50,  50,  50)

     Largest allocated arrays     est. size (Mb)     dimensions
        Kohn-Sham Wavefunctions         1.31 Mb     (     688,  125)
        Atomic Hubbard wavefuncts       0.42 Mb     (     688,   40)
        NL pseudopotentials             2.60 Mb     (     688,  248)
        Each V/rho on FFT grid          0.62 Mb     (   20412,   2)
        Each G-vector array             0.06 Mb     (    7265)
        G-vector shells                 0.00 Mb     (     487)
     Largest temporary arrays     est. size (Mb)     dimensions
        Auxiliary wavefunctions         5.25 Mb     (     688,  500)
        Each subspace H/S matrix        3.81 Mb     (     500,  500)
        Each <psi_i|beta_j> matrix      0.47 Mb     (     248,  125)
        Arrays for rho mixing           2.49 Mb     (   20412,    8)

     Check: negative/imaginary core charge=   -0.000059    0.000000

     Initial potential from superposition of free atoms

     starting charge  163.99935, renormalised to  168.00000
     Number of +U iterations with fixed ns =  0
     Starting occupations:
 --- enter write_ns ---
 LDA+U parameters:
U( 1)     =  3.00000000
alpha( 1) =  0.00000000
atom    1   Tr[ns(na)] (up, down, total) =   5.00000  0.00000  5.00000
   spin  1
    eigenvalues: 
  1.000  1.000  1.000  1.000  1.000
    eigenvectors:
  1.000  0.000  0.000  0.000  0.000
  0.000  1.000  0.000  0.000  0.000
  0.000  0.000  1.000  0.000  0.000
  0.000  0.000  0.000  1.000  0.000
  0.000  0.000  0.000  0.000  1.000
    occupations:
  1.000  0.000  0.000  0.000  0.000
  0.000  1.000  0.000  0.000  0.000
  0.000  0.000  1.000  0.000  0.000
  0.000  0.000  0.000  1.000  0.000
  0.000  0.000  0.000  0.000  1.000
   spin  2
    eigenvalues: 
  0.000  0.000  0.000  0.000  0.000
    eigenvectors:
  1.000  0.000  0.000  0.000  0.000
  0.000  1.000  0.000  0.000  0.000
  0.000  0.000  1.000  0.000  0.000
  0.000  0.000  0.000  1.000  0.000
  0.000  0.000  0.000  0.000  1.000
    occupations:
  0.000  0.000  0.000  0.000  0.000
  0.000  0.000  0.000  0.000  0.000
  0.000  0.000  0.000  0.000  0.000
  0.000  0.000  0.000  0.000  0.000
  0.000  0.000  0.000  0.000  0.000
atomic mag. moment =     5.000000
atom    3   Tr[ns(na)] (up, down, total) =   5.00000  0.00000  5.00000
   spin  1
    eigenvalues: 
  1.000  1.000  1.000  1.000  1.000
    eigenvectors:
  1.000  0.000  0.000  0.000  0.000
  0.000  1.000  0.000  0.000  0.000
  0.000  0.000  1.000  0.000  0.000
  0.000  0.000  0.000  1.000  0.000
  0.000  0.000  0.000  0.000  1.000
    occupations:
  1.000  0.000  0.000  0.000  0.000
  0.000  1.000  0.000  0.000  0.000
  0.000  0.000  1.000  0.000  0.000
  0.000  0.000  0.000  1.000  0.000
  0.000  0.000  0.000  0.000  1.000
   spin  2
    eigenvalues: 
  0.000  0.000  0.000  0.000  0.000
    eigenvectors:
  1.000  0.000  0.000  0.000  0.000
  0.000  1.000  0.000  0.000  0.000
  0.000  0.000  1.000  0.000  0.000
  0.000  0.000  0.000  1.000  0.000
  0.000  0.000  0.000  0.000  1.000
    occupations:
  0.000  0.000  0.000  0.000  0.000
  0.000  0.000  0.000  0.000  0.000
  0.000  0.000  0.000  0.000  0.000
  0.000  0.000  0.000  0.000  0.000
  0.000  0.000  0.000  0.000  0.000
atomic mag. moment =     5.000000
atom    5   Tr[ns(na)] (up, down, total) =   5.00000  0.00000  5.00000
   spin  1
    eigenvalues: 
  1.000  1.000  1.000  1.000  1.000
    eigenvectors:
  1.000  0.000  0.000  0.000  0.000
  0.000  1.000  0.000  0.000  0.000
  0.000  0.000  1.000  0.000  0.000
  0.000  0.000  0.000  1.000  0.000
  0.000  0.000  0.000  0.000  1.000
    occupations:
  1.000  0.000  0.000  0.000  0.000
  0.000  1.000  0.000  0.000  0.000
  0.000  0.000  1.000  0.000  0.000
  0.000  0.000  0.000  1.000  0.000
  0.000  0.000  0.000  0.000  1.000
   spin  2
    eigenvalues: 
  0.000  0.000  0.000  0.000  0.000
    eigenvectors:
  1.000  0.000  0.000  0.000  0.000
  0.000  1.000  0.000  0.000  0.000
  0.000  0.000  1.000  0.000  0.000
  0.000  0.000  0.000  1.000  0.000
  0.000  0.000  0.000  0.000  1.000
    occupations:
  0.000  0.000  0.000  0.000  0.000
  0.000  0.000  0.000  0.000  0.000
  0.000  0.000  0.000  0.000  0.000
  0.000  0.000  0.000  0.000  0.000
  0.000  0.000  0.000  0.000  0.000
atomic mag. moment =     5.000000
atom    7   Tr[ns(na)] (up, down, total) =   5.00000  0.00000  5.00000
   spin  1
    eigenvalues: 
  1.000  1.000  1.000  1.000  1.000
    eigenvectors:
  1.000  0.000  0.000  0.000  0.000
  0.000  1.000  0.000  0.000  0.000
  0.000  0.000  1.000  0.000  0.000
  0.000  0.000  0.000  1.000  0.000
  0.000  0.000  0.000  0.000  1.000
    occupations:
  1.000  0.000  0.000  0.000  0.000
  0.000  1.000  0.000  0.000  0.000
  0.000  0.000  1.000  0.000  0.000
  0.000  0.000  0.000  1.000  0.000
  0.000  0.000  0.000  0.000  1.000
   spin  2
    eigenvalues: 
  0.000  0.000  0.000  0.000  0.000
    eigenvectors:
  1.000  0.000  0.000  0.000  0.000
  0.000  1.000  0.000  0.000  0.000
  0.000  0.000  1.000  0.000  0.000
  0.000  0.000  0.000  1.000  0.000
  0.000  0.000  0.000  0.000  1.000
    occupations:
  0.000  0.000  0.000  0.000  0.000
  0.000  0.000  0.000  0.000  0.000
  0.000  0.000  0.000  0.000  0.000
  0.000  0.000  0.000  0.000  0.000
  0.000  0.000  0.000  0.000  0.000
atomic mag. moment =     5.000000
atom    9   Tr[ns(na)] (up, down, total) =   5.00000  0.00000  5.00000
   spin  1
    eigenvalues: 
  1.000  1.000  1.000  1.000  1.000
    eigenvectors:
  1.000  0.000  0.000  0.000  0.000
  0.000  1.000  0.000  0.000  0.000
  0.000  0.000  1.000  0.000  0.000
  0.000  0.000  0.000  1.000  0.000
  0.000  0.000  0.000  0.000  1.000
    occupations:
  1.000  0.000  0.000  0.000  0.000
  0.000  1.000  0.000  0.000  0.000
  0.000  0.000  1.000  0.000  0.000
  0.000  0.000  0.000  1.000  0.000
  0.000  0.000  0.000  0.000  1.000
   spin  2
    eigenvalues: 
  0.000  0.000  0.000  0.000  0.000
    eigenvectors:
  1.000  0.000  0.000  0.000  0.000
  0.000  1.000  0.000  0.000  0.000
  0.000  0.000  1.000  0.000  0.000
  0.000  0.000  0.000  1.000  0.000
  0.000  0.000  0.000  0.000  1.000
    occupations:
  0.000  0.000  0.000  0.000  0.000
  0.000  0.000  0.000  0.000  0.000
  0.000  0.000  0.000  0.000  0.000
  0.000  0.000  0.000  0.000  0.000
  0.000  0.000  0.000  0.000  0.000
atomic mag. moment =     5.000000
atom   11   Tr[ns(na)] (up, down, total) =   5.00000  0.00000  5.00000
   spin  1
    eigenvalues: 
  1.000  1.000  1.000  1.000  1.000
    eigenvectors:
  1.000  0.000  0.000  0.000  0.000
  0.000  1.000  0.000  0.000  0.000
  0.000  0.000  1.000  0.000  0.000
  0.000  0.000  0.000  1.000  0.000
  0.000  0.000  0.000  0.000  1.000
    occupations:
  1.000  0.000  0.000  0.000  0.000
  0.000  1.000  0.000  0.000  0.000
  0.000  0.000  1.000  0.000  0.000
  0.000  0.000  0.000  1.000  0.000
  0.000  0.000  0.000  0.000  1.000
   spin  2
    eigenvalues: 
  0.000  0.000  0.000  0.000  0.000
    eigenvectors:
  1.000  0.000  0.000  0.000  0.000
  0.000  1.000  0.000  0.000  0.000
  0.000  0.000  1.000  0.000  0.000
  0.000  0.000  0.000  1.000  0.000
  0.000  0.000  0.000  0.000  1.000
    occupations:
  0.000  0.000  0.000  0.000  0.000
  0.000  0.000  0.000  0.000  0.000
  0.000  0.000  0.000  0.000  0.000
  0.000  0.000  0.000  0.000  0.000
  0.000  0.000  0.000  0.000  0.000
atomic mag. moment =     5.000000
atom   13   Tr[ns(na)] (up, down, total) =   5.00000  0.00000  5.00000
   spin  1
    eigenvalues: 
  1.000  1.000  1.000  1.000  1.000
    eigenvectors:
  1.000  0.000  0.000  0.000  0.000
  0.000  1.000  0.000  0.000  0.000
  0.000  0.000  1.000  0.000  0.000
  0.000  0.000  0.000  1.000  0.000
  0.000  0.000  0.000  0.000  1.000
    occupations:
  1.000  0.000  0.000  0.000  0.000
  0.000  1.000  0.000  0.000  0.000
  0.000  0.000  1.000  0.000  0.000
  0.000  0.000  0.000  1.000  0.000
  0.000  0.000  0.000  0.000  1.000
   spin  2
    eigenvalues: 
  0.000  0.000  0.000  0.000  0.000
    eigenvectors:
  1.000  0.000  0.000  0.000  0.000
  0.000  1.000  0.000  0.000  0.000
  0.000  0.000  1.000  0.000  0.000
  0.000  0.000  0.000  1.000  0.000
  0.000  0.000  0.000  0.000  1.000
    occupations:
  0.000  0.000  0.000  0.000  0.000
  0.000  0.000  0.000  0.000  0.000
  0.000  0.000  0.000  0.000  0.000
  0.000  0.000  0.000  0.000  0.000
  0.000  0.000  0.000  0.000  0.000
atomic mag. moment =     5.000000
atom   15   Tr[ns(na)] (up, down, total) =   5.00000  0.00000  5.00000
   spin  1
    eigenvalues: 
  1.000  1.000  1.000  1.000  1.000
    eigenvectors:
  1.000  0.000  0.000  0.000  0.000
  0.000  1.000  0.000  0.000  0.000
  0.000  0.000  1.000  0.000  0.000
  0.000  0.000  0.000  1.000  0.000
  0.000  0.000  0.000  0.000  1.000
    occupations:
  1.000  0.000  0.000  0.000  0.000
  0.000  1.000  0.000  0.000  0.000
  0.000  0.000  1.000  0.000  0.000
  0.000  0.000  0.000  1.000  0.000
  0.000  0.000  0.000  0.000  1.000
   spin  2
    eigenvalues: 
  0.000  0.000  0.000  0.000  0.000
    eigenvectors:
  1.000  0.000  0.000  0.000  0.000
  0.000  1.000  0.000  0.000  0.000
  0.000  0.000  1.000  0.000  0.000
  0.000  0.000  0.000  1.000  0.000
  0.000  0.000  0.000  0.000  1.000
    occupations:
  0.000  0.000  0.000  0.000  0.000
  0.000  0.000  0.000  0.000  0.000
  0.000  0.000  0.000  0.000  0.000
  0.000  0.000  0.000  0.000  0.000
  0.000  0.000  0.000  0.000  0.000
atomic mag. moment =     5.000000
N of occupied +U levels =   40.000000
 --- exit write_ns ---
 Atomic wfc used for LDA+U Projector are NOT orthogonalized
     Starting wfc are  136 randomized atomic wfcs

     total cpu time spent up to now is       59.5 secs

     per-process dynamical memory:   144.9 Mb

     Self-consistent Calculation

     iteration #  1     ecut=    41.00 Ry     beta=0.30
     Davidson diagonalization with overlap
     ethr =  1.00E-02,  avg # of iterations =  3.3
 --- enter write_ns ---
 LDA+U parameters:
U( 1)     =  3.00000000
alpha( 1) =  0.00000000
atom    1   Tr[ns(na)] (up, down, total) =   4.98735  0.19716  5.18451
   spin  1
    eigenvalues: 
  0.996  0.997  0.998  0.998  0.998
    eigenvectors:
  0.138  0.860  0.002  0.000  0.000
  0.000  0.000  0.000  0.038  0.961
  0.000  0.002  0.821  0.168  0.009
  0.860  0.139  0.000  0.001  0.001
  0.001  0.000  0.177  0.793  0.029
    occupations:
  0.997 -0.000 -0.000  0.000 -0.000
 -0.000  0.998 -0.000  0.000  0.000
 -0.000 -0.000  0.998 -0.000 -0.000
  0.000  0.000 -0.000  0.997  0.000
 -0.000  0.000 -0.000  0.000  0.998
   spin  2
    eigenvalues: 
  0.021  0.021  0.021  0.066  0.068
    eigenvectors:
  0.000  0.000  0.000  0.957  0.043
  0.284  0.673  0.043  0.000  0.000
  0.701  0.226  0.073  0.000  0.000
  0.000  0.000  0.001  0.043  0.955
  0.015  0.101  0.883  0.000  0.001
    occupations:
  0.066 -0.000  0.000 -0.000  0.000
 -0.000  0.021 -0.000 -0.000  0.000
  0.000 -0.000  0.021 -0.000 -0.000
 -0.000 -0.000 -0.000  0.067 -0.001
  0.000  0.000 -0.000 -0.001  0.021
atomic mag. moment =     4.790195
atom    3   Tr[ns(na)] (up, down, total) =   4.98803  0.19096  5.17899
   spin  1
    eigenvalues: 
  0.997  0.997  0.998  0.998  0.998
    eigenvectors:
  0.860  0.139  0.000  0.000  0.001
  0.000  0.000  0.208  0.613  0.179
  0.000  0.002  0.001  0.241  0.756
  0.139  0.859  0.001  0.000  0.001
  0.001  0.000  0.790  0.146  0.063
    occupations:
  0.997 -0.000  0.000 -0.000 -0.000
 -0.000  0.998 -0.000  0.000  0.000
  0.000 -0.000  0.998 -0.000 -0.000
 -0.000  0.000 -0.000  0.997 -0.000
 -0.000  0.000 -0.000 -0.000  0.998
   spin  2
    eigenvalues: 
  0.020  0.020  0.021  0.064  0.066
    eigenvectors:
  0.000  0.000  0.000  0.274  0.725
  0.596  0.328  0.075  0.000  0.000
  0.001  0.151  0.847  0.000  0.000
  0.000  0.000  0.000  0.726  0.274
  0.402  0.520  0.078  0.000  0.000
    occupations:
  0.065  0.001 -0.000  0.001  0.000
  0.001  0.020 -0.000  0.000 -0.000
 -0.000 -0.000  0.021  0.000  0.000
  0.001  0.000  0.000  0.065 -0.000
  0.000 -0.000  0.000 -0.000  0.020
atomic mag. moment =     4.797072
atom    5   Tr[ns(na)] (up, down, total) =   4.98680  0.20135  5.18815
   spin  1
    eigenvalues: 
  0.996  0.996  0.998  0.998  0.998
    eigenvectors:
  0.236  0.763  0.000  0.000  0.001
  0.000  0.000  0.265  0.730  0.005
  0.000  0.001  0.078  0.008  0.914
  0.763  0.236  0.001  0.000  0.000
  0.001  0.000  0.657  0.262  0.080
    occupations:
  0.996  0.000  0.000 -0.000  0.000
  0.000  0.998 -0.000  0.000 -0.000
  0.000 -0.000  0.998 -0.000 -0.000
 -0.000  0.000 -0.000  0.996  0.000
  0.000 -0.000 -0.000  0.000  0.998
   spin  2
    eigenvalues: 
  0.021  0.022  0.022  0.068  0.069
    eigenvectors:
  0.000  0.000  0.000  0.528  0.471
  0.877  0.080  0.043  0.000  0.000
  0.009  0.138  0.853  0.000  0.000
  0.000  0.000  0.000  0.471  0.529
  0.114  0.782  0.103  0.000  0.000
    occupations:
  0.068 -0.000 -0.001  0.001 -0.000
 -0.000  0.021  0.000 -0.000 -0.000
 -0.001  0.000  0.022  0.000 -0.000
  0.001 -0.000  0.000  0.068 -0.000
 -0.000 -0.000 -0.000 -0.000  0.022
atomic mag. moment =     4.785454
atom    7   Tr[ns(na)] (up, down, total) =   4.98659  0.19708  5.18367
   spin  1
    eigenvalues: 
  0.996  0.997  0.998  0.998  0.998
    eigenvectors:
  0.241  0.758  0.000  0.000  0.001
  0.000  0.001  0.945  0.044  0.010
  0.001  0.003  0.008  0.003  0.986
  0.759  0.239  0.001  0.000  0.002
  0.000  0.000  0.046  0.953  0.001
    occupations:
  0.996 -0.000  0.000 -0.001  0.000
 -0.000  0.998  0.000  0.000 -0.000
  0.000  0.000  0.998 -0.000 -0.000
 -0.001  0.000 -0.000  0.996 -0.000
  0.000 -0.000 -0.000 -0.000  0.998
   spin  2
    eigenvalues: 
  0.020  0.021  0.022  0.063  0.070
    eigenvectors:
  0.000  0.000  0.000  0.564  0.435
  0.994  0.006  0.000  0.000  0.000
  0.000  0.011  0.988  0.000  0.000
  0.000  0.000  0.000  0.435  0.564
  0.006  0.983  0.011  0.000  0.000
    occupations:
  0.066  0.000 -0.001  0.004  0.000
  0.000  0.020 -0.000  0.000 -0.000
 -0.001 -0.000  0.022  0.000  0.000
  0.004  0.000  0.000  0.067  0.000
  0.000 -0.000  0.000  0.000  0.021
atomic mag. moment =     4.789504
atom    9   Tr[ns(na)] (up, down, total) =   4.98697  0.19327  5.18024
   spin  1
    eigenvalues: 
  0.996  0.997  0.998  0.998  0.998
    eigenvectors:
  0.800  0.185  0.009  0.000  0.005
  0.003  0.004  0.014  0.024  0.954
  0.003  0.010  0.887  0.094  0.006
  0.194  0.799  0.006  0.000  0.000
  0.000  0.001  0.083  0.881  0.034
    occupations:
  0.996  0.000 -0.000  0.000  0.000
  0.000  0.998  0.000  0.000  0.000
 -0.000  0.000  0.998 -0.000 -0.000
  0.000  0.000 -0.000  0.996 -0.000
  0.000  0.000 -0.000 -0.000  0.998
   spin  2
    eigenvalues: 
  0.020  0.020  0.022  0.062  0.069
    eigenvectors:
  0.000  0.000  0.000  0.352  0.647
  0.003  0.005  0.991  0.000  0.000
  0.796  0.203  0.000  0.000  0.000
  0.000  0.000  0.000  0.648  0.352
  0.201  0.791  0.008  0.000  0.000
    occupations:
  0.066 -0.001  0.001 -0.003 -0.000
 -0.001  0.022  0.000 -0.000  0.000
  0.001  0.000  0.020 -0.000 -0.000
 -0.003 -0.000 -0.000  0.065 -0.000
 -0.000  0.000 -0.000 -0.000  0.020
atomic mag. moment =     4.793702
atom   11   Tr[ns(na)] (up, down, total) =   4.98869  0.18505  5.17374
   spin  1
    eigenvalues: 
  0.997  0.997  0.998  0.998  0.998
    eigenvectors:
  0.711  0.288  0.000  0.001  0.000
  0.001  0.000  0.026  0.049  0.924
  0.001  0.000  0.969  0.000  0.029
  0.287  0.712  0.001  0.000  0.000
  0.000  0.000  0.003  0.949  0.046
    occupations:
  0.997  0.000  0.000  0.000 -0.000
  0.000  0.998 -0.000 -0.000  0.000
  0.000 -0.000  0.998 -0.000 -0.000
  0.000 -0.000 -0.000  0.997 -0.000
 -0.000  0.000 -0.000 -0.000  0.998
   spin  2
    eigenvalues: 
  0.019  0.020  0.020  0.062  0.064
    eigenvectors:
  0.000  0.000  0.000  0.416  0.583
  0.034  0.042  0.924  0.000  0.000
  0.660  0.339  0.001  0.000  0.000
  0.000  0.000  0.000  0.584  0.416
  0.306  0.619  0.075  0.000  0.000
    occupations:
  0.063  0.000  0.001 -0.001  0.000
  0.000  0.020 -0.000 -0.000  0.000
  0.001 -0.000  0.020 -0.000  0.000
 -0.001 -0.000 -0.000  0.063  0.000
  0.000  0.000  0.000  0.000  0.020
atomic mag. moment =     4.803639
atom   13   Tr[ns(na)] (up, down, total) =   4.98727  0.19660  5.18388
   spin  1
    eigenvalues: 
  0.996  0.997  0.998  0.998  0.998
    eigenvectors:
  0.930  0.069  0.000  0.000  0.000
  0.000  0.000  0.054  0.094  0.851
  0.000  0.000  0.007  0.881  0.111
  0.069  0.929  0.002  0.000  0.000
  0.001  0.002  0.936  0.024  0.037
    occupations:
  0.996 -0.000  0.000  0.000  0.000
 -0.000  0.998  0.000 -0.000  0.000
  0.000  0.000  0.998  0.000  0.000
  0.000 -0.000  0.000  0.997 -0.000
  0.000  0.000  0.000 -0.000  0.998
   spin  2
    eigenvalues: 
  0.021  0.021  0.021  0.066  0.067
    eigenvectors:
  0.000  0.000  0.000  0.518  0.481
  0.024  0.017  0.959  0.000  0.000
  0.790  0.172  0.038  0.000  0.000
  0.000  0.000  0.000  0.482  0.518
  0.186  0.811  0.003  0.000  0.000
    occupations:
  0.067 -0.001  0.000 -0.001 -0.000
 -0.001  0.021  0.000 -0.000  0.000
  0.000  0.000  0.021 -0.000 -0.000
 -0.001 -0.000 -0.000  0.067  0.000
 -0.000  0.000 -0.000  0.000  0.021
atomic mag. moment =     4.790668
atom   15   Tr[ns(na)] (up, down, total) =   4.98823  0.18986  5.17809
   spin  1
    eigenvalues: 
  0.997  0.997  0.998  0.998  0.998
    eigenvectors:
  0.454  0.545  0.000  0.000  0.000
  0.000  0.001  0.204  0.756  0.039
  0.000  0.000  0.121  0.142  0.737
  0.545  0.453  0.002  0.000  0.000
  0.001  0.001  0.673  0.102  0.223
    occupations:
  0.997 -0.000  0.000  0.000  0.000
 -0.000  0.998 -0.000 -0.000 -0.000
  0.000 -0.000  0.998 -0.000  0.000
  0.000 -0.000 -0.000  0.997 -0.000
  0.000 -0.000  0.000 -0.000  0.998
   spin  2
    eigenvalues: 
  0.020  0.020  0.020  0.064  0.065
    eigenvectors:
  0.000  0.000  0.000  0.000  1.000
  0.010  0.155  0.835  0.000  0.000
  0.091  0.745  0.164  0.000  0.000
  0.001  0.000  0.000  0.999  0.000
  0.898  0.100  0.001  0.001  0.000
    occupations:
  0.065  0.000 -0.000 -0.000 -0.000
  0.000  0.020  0.000  0.000  0.000
 -0.000  0.000  0.020  0.000  0.000
 -0.000  0.000  0.000  0.064  0.001
 -0.000  0.000  0.000  0.001  0.020
atomic mag. moment =     4.798362
N of occupied +U levels =   41.451273
 --- exit write_ns ---

     negative rho (up, down):  0.000E+00 5.499E-04

     Magnetic moment per site:
     atom:    1    charge:   12.6441    magn:   10.1343    constr:    0.0000
     atom:    2    charge:    5.5780    magn:    0.1643    constr:    0.0000
     atom:    3    charge:   12.6414    magn:   10.1339    constr:    0.0000
     atom:    4    charge:    5.5627    magn:    0.1528    constr:    0.0000
     atom:    5    charge:   12.6459    magn:   10.1344    constr:    0.0000
     atom:    6    charge:    5.5862    magn:    0.1706    constr:    0.0000
     atom:    7    charge:   12.6444    magn:   10.1337    constr:    0.0000
     atom:    8    charge:    5.5678    magn:    0.1566    constr:    0.0000
     atom:    9    charge:   12.6427    magn:   10.1331    constr:    0.0000
     atom:   10    charge:    5.5746    magn:    0.1620    constr:    0.0000
     atom:   11    charge:   12.6385    magn:   10.1332    constr:    0.0000
     atom:   12    charge:    5.5577    magn:    0.1492    constr:    0.0000
     atom:   13    charge:   12.6441    magn:   10.1341    constr:    0.0000
     atom:   14    charge:    5.5837    magn:    0.1684    constr:    0.0000
     atom:   15    charge:   12.6411    magn:   10.1338    constr:    0.0000
     atom:   16    charge:    5.5687    magn:    0.1574    constr:    0.0000

     total cpu time spent up to now is      290.4 secs

     total energy              =   -1937.82045007 Ry
     Harris-Foulkes estimate   =   -1921.01134850 Ry
     estimated scf accuracy    <      25.66365061 Ry

     total magnetization       =    40.00 Bohr mag/cell
     absolute magnetization    =    41.80 Bohr mag/cell

     iteration #  2     ecut=    41.00 Ry     beta=0.30
     Davidson diagonalization with overlap
     ethr =  1.00E-02,  avg # of iterations =  1.1

     negative rho (up, down):  0.000E+00 2.352E-03

     Magnetic moment per site:
     atom:    1    charge:   12.5355    magn:    4.4787    constr:    0.0000
     atom:    2    charge:    5.7937    magn:   -0.0538    constr:    0.0000
     atom:    3    charge:   12.5338    magn:    4.4784    constr:    0.0000
     atom:    4    charge:    5.7766    magn:   -0.0593    constr:    0.0000
     atom:    5    charge:   12.5366    magn:    4.4787    constr:    0.0000
     atom:    6    charge:    5.8024    magn:   -0.0511    constr:    0.0000
     atom:    7    charge:   12.5357    magn:    4.4773    constr:    0.0000
     atom:    8    charge:    5.7821    magn:   -0.0575    constr:    0.0000
     atom:    9    charge:   12.5347    magn:    4.4767    constr:    0.0000
     atom:   10    charge:    5.7896    magn:   -0.0551    constr:    0.0000
     atom:   11    charge:   12.5318    magn:    4.4781    constr:    0.0000
     atom:   12    charge:    5.7712    magn:   -0.0605    constr:    0.0000
     atom:   13    charge:   12.5356    magn:    4.4783    constr:    0.0000
     atom:   14    charge:    5.7997    magn:   -0.0524    constr:    0.0000
     atom:   15    charge:   12.5337    magn:    4.4784    constr:    0.0000
     atom:   16    charge:    5.7834    magn:   -0.0569    constr:    0.0000

     total cpu time spent up to now is      423.4 secs

     total energy              =   -1945.63252459 Ry
     Harris-Foulkes estimate   =   -1938.08467737 Ry
     estimated scf accuracy    <      12.66145752 Ry

     total magnetization       =    40.00 Bohr mag/cell
     absolute magnetization    =    41.22 Bohr mag/cell

     iteration #  3     ecut=    41.00 Ry     beta=0.30
     Davidson diagonalization with overlap
     ethr =  7.54E-03,  avg # of iterations =  2.0

     negative rho (up, down):  0.000E+00 2.666E-03

     Magnetic moment per site:
     atom:    1    charge:   12.4698    magn:    4.2194    constr:    0.0000
     atom:    2    charge:    5.7676    magn:    0.0598    constr:    0.0000
     atom:    3    charge:   12.4670    magn:    4.2211    constr:    0.0000
     atom:    4    charge:    5.7497    magn:    0.0533    constr:    0.0000
     atom:    5    charge:   12.4715    magn:    4.2181    constr:    0.0000
     atom:    6    charge:    5.7771    magn:    0.0631    constr:    0.0000
     atom:    7    charge:   12.4700    magn:    4.2180    constr:    0.0000
     atom:    8    charge:    5.7556    magn:    0.0556    constr:    0.0000
     atom:    9    charge:   12.4683    magn:    4.2185    constr:    0.0000
     atom:   10    charge:    5.7636    magn:    0.0585    constr:    0.0000
     atom:   11    charge:   12.4640    magn:    4.2230    constr:    0.0000
     atom:   12    charge:    5.7440    magn:    0.0520    constr:    0.0000
     atom:   13    charge:   12.4698    magn:    4.2193    constr:    0.0000
     atom:   14    charge:    5.7742    magn:    0.0615    constr:    0.0000
     atom:   15    charge:   12.4668    magn:    4.2217    constr:    0.0000
     atom:   16    charge:    5.7568    magn:    0.0563    constr:    0.0000

     total cpu time spent up to now is      594.8 secs

     total energy              =   -1946.14767932 Ry
     Harris-Foulkes estimate   =   -1946.24911547 Ry
     estimated scf accuracy    <       0.36743811 Ry

     total magnetization       =    40.00 Bohr mag/cell
     absolute magnetization    =    40.00 Bohr mag/cell

     iteration #  4     ecut=    41.00 Ry     beta=0.30
     Davidson diagonalization with overlap
     ethr =  2.19E-04,  avg # of iterations =  2.9

     negative rho (up, down):  0.000E+00 2.747E-03

     Magnetic moment per site:
     atom:    1    charge:   12.4574    magn:    4.1343    constr:    0.0000
     atom:    2    charge:    5.7753    magn:    0.0780    constr:    0.0000
     atom:    3    charge:   12.4544    magn:    4.1362    constr:    0.0000
     atom:    4    charge:    5.7575    magn:    0.0714    constr:    0.0000
     atom:    5    charge:   12.4593    magn:    4.1328    constr:    0.0000
     atom:    6    charge:    5.7847    magn:    0.0813    constr:    0.0000
     atom:    7    charge:   12.4576    magn:    4.1328    constr:    0.0000
     atom:    8    charge:    5.7633    magn:    0.0738    constr:    0.0000
     atom:    9    charge:   12.4558    magn:    4.1335    constr:    0.0000
     atom:   10    charge:    5.7713    magn:    0.0767    constr:    0.0000
     atom:   11    charge:   12.4512    magn:    4.1384    constr:    0.0000
     atom:   12    charge:    5.7517    magn:    0.0701    constr:    0.0000
     atom:   13    charge:   12.4574    magn:    4.1343    constr:    0.0000
     atom:   14    charge:    5.7819    magn:    0.0796    constr:    0.0000
     atom:   15    charge:   12.4541    magn:    4.1369    constr:    0.0000
     atom:   16    charge:    5.7646    magn:    0.0745    constr:    0.0000

     total cpu time spent up to now is      795.2 secs

     total energy              =   -1946.20173755 Ry
     Harris-Foulkes estimate   =   -1946.20564244 Ry
     estimated scf accuracy    <       0.02811517 Ry

     total magnetization       =    40.00 Bohr mag/cell
     absolute magnetization    =    40.00 Bohr mag/cell

     iteration #  5     ecut=    41.00 Ry     beta=0.30
     Davidson diagonalization with overlap
     ethr =  1.67E-05,  avg # of iterations =  2.4

     negative rho (up, down):  0.000E+00 2.871E-03

     Magnetic moment per site:
     atom:    1    charge:   12.4242    magn:    4.2023    constr:    0.0000
     atom:    2    charge:    5.7810    magn:    0.1547    constr:    0.0000
     atom:    3    charge:   12.4205    magn:    4.2052    constr:    0.0000
     atom:    4    charge:    5.7632    magn:    0.1479    constr:    0.0000
     atom:    5    charge:   12.4267    magn:    4.2002    constr:    0.0000
     atom:    6    charge:    5.7903    magn:    0.1581    constr:    0.0000
     atom:    7    charge:   12.4245    magn:    4.2007    constr:    0.0000
     atom:    8    charge:    5.7690    magn:    0.1504    constr:    0.0000
     atom:    9    charge:   12.4222    magn:    4.2019    constr:    0.0000
     atom:   10    charge:    5.7770    magn:    0.1533    constr:    0.0000
     atom:   11    charge:   12.4165    magn:    4.2085    constr:    0.0000
     atom:   12    charge:    5.7574    magn:    0.1466    constr:    0.0000
     atom:   13    charge:   12.4242    magn:    4.2025    constr:    0.0000
     atom:   14    charge:    5.7875    magn:    0.1563    constr:    0.0000
     atom:   15    charge:   12.4200    magn:    4.2062    constr:    0.0000
     atom:   16    charge:    5.7702    magn:    0.1510    constr:    0.0000

     total cpu time spent up to now is      958.8 secs

     total energy              =   -1946.20256963 Ry
     Harris-Foulkes estimate   =   -1946.20316917 Ry
     estimated scf accuracy    <       0.01253629 Ry

     total magnetization       =    40.00 Bohr mag/cell
     absolute magnetization    =    40.00 Bohr mag/cell
 kfg - setting two_fermi_energies to FALSE

     iteration #  6     ecut=    41.00 Ry     beta=0.30
     Davidson diagonalization with overlap
     ethr =  7.46E-06,  avg # of iterations =  2.2

     negative rho (up, down):  0.000E+00 2.867E-03

     Magnetic moment per site:
     atom:    1    charge:   12.4187    magn:    4.2028    constr:    0.0000
     atom:    2    charge:    5.7817    magn:    0.1699    constr:    0.0000
     atom:    3    charge:   12.4146    magn:    4.2057    constr:    0.0000
     atom:    4    charge:    5.7637    magn:    0.1635    constr:    0.0000
     atom:    5    charge:   12.4213    magn:    4.2007    constr:    0.0000
     atom:    6    charge:    5.7911    magn:    0.1730    constr:    0.0000
     atom:    7    charge:   12.4189    magn:    4.2012    constr:    0.0000
     atom:    8    charge:    5.7695    magn:    0.1658    constr:    0.0000
     atom:    9    charge:   12.4165    magn:    4.2024    constr:    0.0000
     atom:   10    charge:    5.7776    magn:    0.1686    constr:    0.0000
     atom:   11    charge:   12.4103    magn:    4.2091    constr:    0.0000
     atom:   12    charge:    5.7579    magn:    0.1623    constr:    0.0000
     atom:   13    charge:   12.4185    magn:    4.2030    constr:    0.0000
     atom:   14    charge:    5.7883    magn:    0.1714    constr:    0.0000
     atom:   15    charge:   12.4141    magn:    4.2067    constr:    0.0000
     atom:   16    charge:    5.7708    magn:    0.1664    constr:    0.0000

     total cpu time spent up to now is     1133.3 secs

     total energy              =   -1946.20532535 Ry
     Harris-Foulkes estimate   =   -1946.20520351 Ry
     estimated scf accuracy    <       0.00050795 Ry

     total magnetization       =    40.00 Bohr mag/cell
     absolute magnetization    =    40.00 Bohr mag/cell

     iteration #  7     ecut=    41.00 Ry     beta=0.30
     Davidson diagonalization with overlap
     ethr =  3.02E-07,  avg # of iterations =  2.3

     negative rho (up, down):  0.000E+00 2.841E-03

     Magnetic moment per site:
     atom:    1    charge:   12.4185    magn:    4.1937    constr:    0.0000
     atom:    2    charge:    5.7812    magn:    0.1726    constr:    0.0000
     atom:    3    charge:   12.4143    magn:    4.1965    constr:    0.0000
     atom:    4    charge:    5.7632    magn:    0.1664    constr:    0.0000
     atom:    5    charge:   12.4212    magn:    4.1916    constr:    0.0000
     atom:    6    charge:    5.7907    magn:    0.1755    constr:    0.0000
     atom:    7    charge:   12.4187    magn:    4.1921    constr:    0.0000
     atom:    8    charge:    5.7690    magn:    0.1687    constr:    0.0000
     atom:    9    charge:   12.4162    magn:    4.1933    constr:    0.0000
     atom:   10    charge:    5.7772    magn:    0.1713    constr:    0.0000
     atom:   11    charge:   12.4099    magn:    4.1999    constr:    0.0000
     atom:   12    charge:    5.7573    magn:    0.1653    constr:    0.0000
     atom:   13    charge:   12.4184    magn:    4.1939    constr:    0.0000
     atom:   14    charge:    5.7878    magn:    0.1739    constr:    0.0000
     atom:   15    charge:   12.4138    magn:    4.1976    constr:    0.0000
     atom:   16    charge:    5.7703    magn:    0.1693    constr:    0.0000

     total cpu time spent up to now is     1305.5 secs

     total energy              =   -1946.20545837 Ry
     Harris-Foulkes estimate   =   -1946.20543817 Ry
     estimated scf accuracy    <       0.00011575 Ry

     total magnetization       =    40.00 Bohr mag/cell
     absolute magnetization    =    40.00 Bohr mag/cell

     iteration #  8     ecut=    41.00 Ry     beta=0.30
     Davidson diagonalization with overlap
     ethr =  6.89E-08,  avg # of iterations =  1.5

     negative rho (up, down):  0.000E+00 2.797E-03

     Magnetic moment per site:
     atom:    1    charge:   12.4196    magn:    4.1923    constr:    0.0000
     atom:    2    charge:    5.7806    magn:    0.1751    constr:    0.0000
     atom:    3    charge:   12.4153    magn:    4.1950    constr:    0.0000
     atom:    4    charge:    5.7627    magn:    0.1692    constr:    0.0000
     atom:    5    charge:   12.4224    magn:    4.1904    constr:    0.0000
     atom:    6    charge:    5.7901    magn:    0.1778    constr:    0.0000
     atom:    7    charge:   12.4198    magn:    4.1907    constr:    0.0000
     atom:    8    charge:    5.7685    magn:    0.1714    constr:    0.0000
     atom:    9    charge:   12.4173    magn:    4.1918    constr:    0.0000
     atom:   10    charge:    5.7766    magn:    0.1738    constr:    0.0000
     atom:   11    charge:   12.4108    magn:    4.1984    constr:    0.0000
     atom:   12    charge:    5.7569    magn:    0.1682    constr:    0.0000
     atom:   13    charge:   12.4194    magn:    4.1926    constr:    0.0000
     atom:   14    charge:    5.7872    magn:    0.1763    constr:    0.0000
     atom:   15    charge:   12.4147    magn:    4.1961    constr:    0.0000
     atom:   16    charge:    5.7698    magn:    0.1720    constr:    0.0000

     total cpu time spent up to now is     1454.2 secs

     total energy              =   -1946.20547958 Ry
     Harris-Foulkes estimate   =   -1946.20547722 Ry
     estimated scf accuracy    <       0.00001479 Ry

     total magnetization       =    40.00 Bohr mag/cell
     absolute magnetization    =    40.00 Bohr mag/cell

     iteration #  9     ecut=    41.00 Ry     beta=0.30
     Davidson diagonalization with overlap
     ethr =  8.80E-09,  avg # of iterations =  2.0

     negative rho (up, down):  0.000E+00 2.793E-03

     Magnetic moment per site:
     atom:    1    charge:   12.4195    magn:    4.1923    constr:    0.0000
     atom:    2    charge:    5.7806    magn:    0.1762    constr:    0.0000
     atom:    3    charge:   12.4152    magn:    4.1950    constr:    0.0000
     atom:    4    charge:    5.7626    magn:    0.1704    constr:    0.0000
     atom:    5    charge:   12.4223    magn:    4.1903    constr:    0.0000
     atom:    6    charge:    5.7900    magn:    0.1789    constr:    0.0000
     atom:    7    charge:   12.4197    magn:    4.1907    constr:    0.0000
     atom:    8    charge:    5.7684    magn:    0.1726    constr:    0.0000
     atom:    9    charge:   12.4172    magn:    4.1918    constr:    0.0000
     atom:   10    charge:    5.7765    magn:    0.1749    constr:    0.0000
     atom:   11    charge:   12.4107    magn:    4.1984    constr:    0.0000
     atom:   12    charge:    5.7568    magn:    0.1694    constr:    0.0000
     atom:   13    charge:   12.4194    magn:    4.1926    constr:    0.0000
     atom:   14    charge:    5.7872    magn:    0.1774    constr:    0.0000
     atom:   15    charge:   12.4147    magn:    4.1961    constr:    0.0000
     atom:   16    charge:    5.7697    magn:    0.1731    constr:    0.0000

     total cpu time spent up to now is     1621.9 secs

     total energy              =   -1946.20548321 Ry
     Harris-Foulkes estimate   =   -1946.20548365 Ry
     estimated scf accuracy    <       0.00000315 Ry

     total magnetization       =    40.00 Bohr mag/cell
     absolute magnetization    =    40.00 Bohr mag/cell

     iteration # 10     ecut=    41.00 Ry     beta=0.30
     Davidson diagonalization with overlap
     ethr =  1.88E-09,  avg # of iterations =  2.0

     negative rho (up, down):  0.000E+00 2.796E-03

     Magnetic moment per site:
     atom:    1    charge:   12.4196    magn:    4.1922    constr:    0.0000
     atom:    2    charge:    5.7805    magn:    0.1764    constr:    0.0000
     atom:    3    charge:   12.4153    magn:    4.1949    constr:    0.0000
     atom:    4    charge:    5.7625    magn:    0.1707    constr:    0.0000
     atom:    5    charge:   12.4224    magn:    4.1903    constr:    0.0000
     atom:    6    charge:    5.7899    magn:    0.1791    constr:    0.0000
     atom:    7    charge:   12.4198    magn:    4.1906    constr:    0.0000
     atom:    8    charge:    5.7684    magn:    0.1728    constr:    0.0000
     atom:    9    charge:   12.4173    magn:    4.1917    constr:    0.0000
     atom:   10    charge:    5.7765    magn:    0.1752    constr:    0.0000
     atom:   11    charge:   12.4107    magn:    4.1983    constr:    0.0000
     atom:   12    charge:    5.7567    magn:    0.1697    constr:    0.0000
     atom:   13    charge:   12.4195    magn:    4.1925    constr:    0.0000
     atom:   14    charge:    5.7871    magn:    0.1776    constr:    0.0000
     atom:   15    charge:   12.4147    magn:    4.1960    constr:    0.0000
     atom:   16    charge:    5.7697    magn:    0.1734    constr:    0.0000

     total cpu time spent up to now is     1800.0 secs

     total energy              =   -1946.20548403 Ry
     Harris-Foulkes estimate   =   -1946.20548391 Ry
     estimated scf accuracy    <       0.00000025 Ry

     total magnetization       =    40.00 Bohr mag/cell
     absolute magnetization    =    40.00 Bohr mag/cell

     iteration # 11     ecut=    41.00 Ry     beta=0.30
     Davidson diagonalization with overlap
     ethr =  1.46E-10,  avg # of iterations =  2.0

     negative rho (up, down):  0.000E+00 2.801E-03

     Magnetic moment per site:
     atom:    1    charge:   12.4196    magn:    4.1923    constr:    0.0000
     atom:    2    charge:    5.7805    magn:    0.1762    constr:    0.0000
     atom:    3    charge:   12.4153    magn:    4.1950    constr:    0.0000
     atom:    4    charge:    5.7626    magn:    0.1705    constr:    0.0000
     atom:    5    charge:   12.4224    magn:    4.1903    constr:    0.0000
     atom:    6    charge:    5.7900    magn:    0.1788    constr:    0.0000
     atom:    7    charge:   12.4198    magn:    4.1907    constr:    0.0000
     atom:    8    charge:    5.7684    magn:    0.1726    constr:    0.0000
     atom:    9    charge:   12.4173    magn:    4.1918    constr:    0.0000
     atom:   10    charge:    5.7765    magn:    0.1749    constr:    0.0000
     atom:   11    charge:   12.4108    magn:    4.1984    constr:    0.0000
     atom:   12    charge:    5.7567    magn:    0.1695    constr:    0.0000
     atom:   13    charge:   12.4195    magn:    4.1926    constr:    0.0000
     atom:   14    charge:    5.7872    magn:    0.1774    constr:    0.0000
     atom:   15    charge:   12.4147    magn:    4.1961    constr:    0.0000
     atom:   16    charge:    5.7697    magn:    0.1732    constr:    0.0000

     total cpu time spent up to now is     1971.6 secs

     total energy              =   -1946.20548418 Ry
     Harris-Foulkes estimate   =   -1946.20548407 Ry
     estimated scf accuracy    <       0.00000007 Ry

     total magnetization       =    40.00 Bohr mag/cell
     absolute magnetization    =    40.00 Bohr mag/cell

     iteration # 12     ecut=    41.00 Ry     beta=0.30
     Davidson diagonalization with overlap
     ethr =  4.10E-11,  avg # of iterations =  2.0

     negative rho (up, down):  0.000E+00 2.799E-03

     Magnetic moment per site:
     atom:    1    charge:   12.4196    magn:    4.1923    constr:    0.0000
     atom:    2    charge:    5.7805    magn:    0.1762    constr:    0.0000
     atom:    3    charge:   12.4153    magn:    4.1950    constr:    0.0000
     atom:    4    charge:    5.7626    magn:    0.1705    constr:    0.0000
     atom:    5    charge:   12.4224    magn:    4.1903    constr:    0.0000
     atom:    6    charge:    5.7899    magn:    0.1788    constr:    0.0000
     atom:    7    charge:   12.4198    magn:    4.1907    constr:    0.0000
     atom:    8    charge:    5.7684    magn:    0.1727    constr:    0.0000
     atom:    9    charge:   12.4173    magn:    4.1918    constr:    0.0000
     atom:   10    charge:    5.7765    magn:    0.1749    constr:    0.0000
     atom:   11    charge:   12.4107    magn:    4.1983    constr:    0.0000
     atom:   12    charge:    5.7568    magn:    0.1695    constr:    0.0000
     atom:   13    charge:   12.4194    magn:    4.1925    constr:    0.0000
     atom:   14    charge:    5.7871    magn:    0.1774    constr:    0.0000
     atom:   15    charge:   12.4147    magn:    4.1961    constr:    0.0000
     atom:   16    charge:    5.7697    magn:    0.1732    constr:    0.0000

     total cpu time spent up to now is     2150.8 secs

     End of self-consistent calculation
 --- enter write_ns ---
 LDA+U parameters:
U( 1)     =  3.00000000
alpha( 1) =  0.00000000
atom    1   Tr[ns(na)] (up, down, total) =   4.99094  0.46542  5.45637
   spin  1
    eigenvalues: 
  0.997  0.997  0.999  0.999  0.999
    eigenvectors:
  0.071  0.927  0.001  0.000  0.000
  0.000  0.000  0.009  0.060  0.931
  0.000  0.001  0.599  0.393  0.007
  0.927  0.072  0.000  0.001  0.001
  0.001  0.000  0.391  0.546  0.061
    occupations:
  0.997  0.000 -0.000  0.000 -0.000
  0.000  0.999  0.000  0.000  0.000
 -0.000  0.000  0.999 -0.000 -0.000
  0.000  0.000 -0.000  0.997  0.000
 -0.000  0.000 -0.000  0.000  0.999
   spin  2
    eigenvalues: 
  0.052  0.053  0.053  0.152  0.155
    eigenvectors:
  0.000  0.000  0.000  0.962  0.038
  0.239  0.744  0.018  0.000  0.000
  0.761  0.236  0.003  0.000  0.000
  0.000  0.000  0.001  0.038  0.961
  0.000  0.020  0.978  0.000  0.001
    occupations:
  0.153  0.000  0.000 -0.000  0.000
  0.000  0.053 -0.000 -0.001  0.000
  0.000 -0.000  0.052 -0.000 -0.000
 -0.000 -0.001 -0.000  0.155 -0.003
  0.000  0.000 -0.000 -0.003  0.053
atomic mag. moment =     4.525518
atom    3   Tr[ns(na)] (up, down, total) =   4.99200  0.45707  5.44907
   spin  1
    eigenvalues: 
  0.997  0.998  0.999  0.999  0.999
    eigenvectors:
  0.877  0.122  0.000  0.000  0.001
  0.000  0.000  0.025  0.753  0.223
  0.000  0.001  0.484  0.059  0.456
  0.123  0.876  0.001  0.000  0.000
  0.001  0.000  0.491  0.189  0.320
    occupations:
  0.997 -0.000  0.000 -0.000 -0.000
 -0.000  0.999 -0.000 -0.000  0.000
  0.000 -0.000  0.999 -0.000 -0.000
 -0.000 -0.000 -0.000  0.997 -0.000
 -0.000  0.000 -0.000 -0.000  0.999
   spin  2
    eigenvalues: 
  0.051  0.051  0.052  0.150  0.153
    eigenvectors:
  0.000  0.000  0.000  0.254  0.745
  0.046  0.939  0.014  0.000  0.000
  0.079  0.032  0.889  0.000  0.000
  0.000  0.000  0.000  0.745  0.255
  0.875  0.028  0.096  0.000  0.000
    occupations:
  0.152  0.001 -0.000  0.001  0.001
  0.001  0.051 -0.000 -0.000 -0.000
 -0.000 -0.000  0.052  0.000  0.000
  0.001 -0.000  0.000  0.150 -0.001
  0.001 -0.000  0.000 -0.001  0.051
atomic mag. moment =     4.534930
atom    5   Tr[ns(na)] (up, down, total) =   4.99009  0.47105  5.46114
   spin  1
    eigenvalues: 
  0.997  0.997  0.999  0.999  0.999
    eigenvectors:
  0.356  0.643  0.001  0.000  0.000
  0.000  0.000  0.077  0.922  0.001
  0.000  0.001  0.259  0.014  0.726
  0.643  0.356  0.000  0.000  0.000
  0.001  0.000  0.663  0.064  0.272
    occupations:
  0.997  0.000  0.000 -0.000  0.000
  0.000  0.999 -0.000  0.000 -0.000
  0.000 -0.000  0.999 -0.000 -0.000
 -0.000  0.000 -0.000  0.997  0.000
  0.000 -0.000 -0.000  0.000  0.999
   spin  2
    eigenvalues: 
  0.053  0.053  0.054  0.154  0.157
    eigenvectors:
  0.000  0.000  0.000  0.530  0.469
  0.872  0.105  0.024  0.000  0.000
  0.008  0.044  0.948  0.000  0.000
  0.000  0.000  0.000  0.470  0.530
  0.121  0.851  0.028  0.000  0.000
    occupations:
  0.155 -0.001 -0.002  0.002 -0.000
 -0.001  0.053  0.000 -0.000 -0.000
 -0.002  0.000  0.054 -0.000 -0.000
  0.002 -0.000 -0.000  0.156 -0.001
 -0.000 -0.000 -0.000 -0.001  0.053
atomic mag. moment =     4.519044
atom    7   Tr[ns(na)] (up, down, total) =   4.99038  0.46625  5.45663
   spin  1
    eigenvalues: 
  0.996  0.997  0.999  0.999  0.999
    eigenvectors:
  0.289  0.709  0.000  0.001  0.000
  0.000  0.001  0.602  0.278  0.119
  0.000  0.002  0.001  0.262  0.735
  0.711  0.288  0.000  0.001  0.001
  0.000  0.000  0.396  0.459  0.145
    occupations:
  0.997 -0.000  0.000 -0.001  0.000
 -0.000  0.999  0.000  0.000 -0.000
  0.000  0.000  0.999 -0.000 -0.000
 -0.001  0.000 -0.000  0.996  0.000
  0.000 -0.000 -0.000  0.000  0.999
   spin  2
    eigenvalues: 
  0.050  0.054  0.055  0.146  0.161
    eigenvectors:
  0.000  0.000  0.000  0.556  0.444
  0.998  0.002  0.000  0.000  0.000
  0.000  0.003  0.997  0.000  0.000
  0.000  0.000  0.000  0.444  0.556
  0.002  0.996  0.003  0.000  0.000
    occupations:
  0.153  0.001 -0.001  0.008  0.000
  0.001  0.050 -0.000  0.000 -0.000
 -0.001 -0.000  0.055  0.001  0.000
  0.008  0.000  0.001  0.155  0.000
  0.000 -0.000  0.000  0.000  0.054
atomic mag. moment =     4.524130
atom    9   Tr[ns(na)] (up, down, total) =   4.99103  0.46152  5.45255
   spin  1
    eigenvalues: 
  0.997  0.997  0.999  0.999  0.999
    eigenvectors:
  0.789  0.200  0.009  0.000  0.002
  0.003  0.003  0.163  0.116  0.715
  0.003  0.005  0.686  0.268  0.038
  0.206  0.792  0.003  0.000  0.000
  0.000  0.000  0.139  0.615  0.245
    occupations:
  0.997  0.000 -0.000  0.000  0.000
  0.000  0.999  0.000  0.000  0.000
 -0.000  0.000  0.999 -0.000 -0.000
  0.000  0.000 -0.000  0.997 -0.000
  0.000  0.000 -0.000 -0.000  0.999
   spin  2
    eigenvalues: 
  0.051  0.051  0.056  0.144  0.159
    eigenvectors:
  0.000  0.000  0.000  0.351  0.649
  0.001  0.002  0.997  0.000  0.000
  0.777  0.223  0.000  0.000  0.000
  0.000  0.000  0.000  0.649  0.351
  0.222  0.775  0.003  0.000  0.000
    occupations:
  0.154 -0.001  0.001 -0.007 -0.001
 -0.001  0.056  0.000 -0.000  0.000
  0.001  0.000  0.051 -0.001 -0.000
 -0.007 -0.000 -0.001  0.150 -0.000
 -0.001  0.000 -0.000 -0.000  0.051
atomic mag. moment =     4.529505
atom   11   Tr[ns(na)] (up, down, total) =   4.99305  0.44830  5.44136
   spin  1
    eigenvalues: 
  0.998  0.998  0.999  0.999  0.999
    eigenvectors:
  0.747  0.253  0.000  0.000  0.000
  0.000  0.000  0.097  0.039  0.864
  0.000  0.000  0.804  0.148  0.048
  0.253  0.747  0.000  0.000  0.000
  0.000  0.000  0.099  0.813  0.088
    occupations:
  0.998  0.000  0.000  0.000 -0.000
  0.000  0.999 -0.000 -0.000  0.000
  0.000 -0.000  0.999 -0.000  0.000
  0.000 -0.000 -0.000  0.998 -0.000
 -0.000  0.000  0.000 -0.000  0.999
   spin  2
    eigenvalues: 
  0.050  0.050  0.051  0.146  0.150
    eigenvectors:
  0.000  0.000  0.000  0.409  0.590
  0.022  0.016  0.962  0.000  0.000
  0.656  0.342  0.002  0.000  0.000
  0.000  0.000  0.000  0.590  0.410
  0.322  0.642  0.036  0.000  0.000
    occupations:
  0.148  0.001  0.002 -0.002  0.000
  0.001  0.051 -0.000 -0.000  0.000
  0.002 -0.000  0.050  0.000  0.000
 -0.002 -0.000  0.000  0.148  0.001
  0.000  0.000  0.000  0.001  0.050
atomic mag. moment =     4.544751
atom   13   Tr[ns(na)] (up, down, total) =   4.99098  0.46457  5.45555
   spin  1
    eigenvalues: 
  0.997  0.997  0.999  0.999  0.999
    eigenvectors:
  0.870  0.130  0.000  0.000  0.000
  0.000  0.000  0.056  0.468  0.475
  0.000  0.000  0.060  0.531  0.409
  0.129  0.869  0.001  0.000  0.000
  0.001  0.001  0.883  0.000  0.115
    occupations:
  0.997 -0.000  0.000  0.000  0.000
 -0.000  0.999  0.000 -0.000  0.000
  0.000  0.000  0.999  0.000  0.000
  0.000 -0.000  0.000  0.997 -0.000
  0.000  0.000  0.000 -0.000  0.999
   spin  2
    eigenvalues: 
  0.052  0.053  0.053  0.152  0.154
    eigenvectors:
  0.000  0.000  0.000  0.550  0.450
  0.000  0.023  0.977  0.000  0.000
  0.763  0.230  0.007  0.000  0.000
  0.000  0.000  0.000  0.450  0.550
  0.237  0.747  0.016  0.000  0.000
    occupations:
  0.153 -0.001  0.000 -0.001 -0.001
 -0.001  0.053  0.000  0.000 -0.000
  0.000  0.000  0.052 -0.000 -0.000
 -0.001  0.000 -0.000  0.153  0.001
 -0.001 -0.000 -0.000  0.001  0.053
atomic mag. moment =     4.526406
atom   15   Tr[ns(na)] (up, down, total) =   4.99233  0.45515  5.44748
   spin  1
    eigenvalues: 
  0.997  0.998  0.999  0.999  0.999
    eigenvectors:
  0.495  0.504  0.000  0.000  0.000
  0.000  0.001  0.375  0.615  0.009
  0.000  0.000  0.183  0.185  0.631
  0.503  0.494  0.002  0.000  0.001
  0.002  0.001  0.440  0.199  0.359
    occupations:
  0.998 -0.000  0.000  0.000  0.000
 -0.000  0.999  0.000 -0.000 -0.000
  0.000  0.000  0.999 -0.000  0.000
  0.000 -0.000 -0.000  0.998 -0.000
  0.000 -0.000  0.000 -0.000  0.999
   spin  2
    eigenvalues: 
  0.051  0.051  0.052  0.149  0.151
    eigenvectors:
  0.000  0.000  0.000  0.001  0.999
  0.002  0.090  0.908  0.000  0.000
  0.005  0.904  0.091  0.000  0.000
  0.001  0.000  0.000  0.998  0.001
  0.992  0.006  0.000  0.001  0.000
    occupations:
  0.151  0.000  0.000  0.000 -0.000
  0.000  0.052  0.000  0.000  0.000
  0.000  0.000  0.051  0.000 -0.000
  0.000  0.000  0.000  0.149  0.003
 -0.000  0.000 -0.000  0.003  0.051
atomic mag. moment =     4.537178
N of occupied +U levels =   43.620145
 --- exit write_ns ---

 ------ SPIN UP ------------


          k = 0.0000 0.0000 0.0000 (  5329 PWs)   bands (ev):

   -69.0944 -69.0299 -69.0118 -68.9959 -68.9418 -68.9386 -68.9273 -68.8668
   -37.9726 -37.9630 -37.9599 -37.9102 -37.9038 -37.8968 -37.8883 -37.8842
   -37.8797 -37.8708 -37.8576 -37.8464 -37.8348 -37.8184 -37.8155 -37.8033
   -37.8016 -37.7975 -37.7949 -37.7887 -37.7799 -37.7379 -37.7358 -37.7261
    -7.0278  -6.4768  -6.4288  -6.3923  -6.0009  -5.9927  -5.9599  -5.9020
     3.9593   3.9617   3.9644   3.9690   5.7727   5.7764   5.7803   5.7837
     5.7953   5.7995   5.8025   5.8054   5.9996   6.0017   6.0028   6.6778
     6.6834   6.6980   7.7517   7.7594   7.7626   8.1234   8.1728   8.2194
     8.2312   8.2516   8.2716   8.3989   8.4315   8.7193   8.7288   8.7477
     8.7540   8.7560   8.7608   8.7790   8.7901   8.8079   8.8324   8.8688
     9.0179   9.0226   9.0242   9.0279   9.0323   9.0377   9.2061   9.2175
     9.2284   9.3923   9.4149   9.4254   9.7011   9.7044   9.7090   9.7181
    11.9528  12.2998  12.3060  12.3098  12.3119  12.3165  12.3195  12.3234
    12.3366  15.9135  15.9234  15.9270  15.9311  17.2734  17.2757  17.2948
    20.1394  20.1680  20.1833  20.2078  20.3725  20.4032  20.4200  22.6119
    22.6223  22.6437  24.1038  24.1067  24.1118

          k =-0.1768 0.1768 0.1768 (  5402 PWs)   bands (ev):

   -69.0936 -69.0291 -69.0109 -68.9951 -68.9409 -68.9380 -68.9265 -68.8660
   -37.9717 -37.9628 -37.9592 -37.9083 -37.9026 -37.8961 -37.8870 -37.8847
   -37.8798 -37.8706 -37.8598 -37.8499 -37.8314 -37.8185 -37.8160 -37.8058
   -37.8006 -37.7995 -37.7961 -37.7893 -37.7830 -37.7393 -37.7362 -37.7276
    -6.9042  -6.4462  -6.3902  -6.3437  -6.1470  -6.0475  -6.0111  -5.9427
     4.2680   4.2815   4.2922   4.4622   5.7420   5.7499   5.7544   5.8467
     5.8599   5.8664   5.9580   5.9852   5.9895   6.0091   6.0193   6.4140
     6.4361   6.4462   7.1749   7.3820   7.3986   7.4247   7.4934   7.5139
     7.9850   8.0158   8.0253   8.0353   8.0756   8.5694   8.5889   8.5968
     8.6234   8.6359   8.7447   8.7820   8.7875   8.9268   8.9666   8.9743
     9.0132   9.1994   9.2154   9.2294   9.4779   9.6065   9.6176   9.6268
     9.6828   9.6998   9.7239   9.8258   9.8543   9.8669  10.1875  10.1977
    11.7101  11.7281  11.7384  11.9424  11.9537  11.9594  12.0287  12.0314
    13.0495  15.7146  16.7634  16.7763  16.7894  17.6483  17.6623  17.7045
    20.0578  20.0963  20.1155  20.3990  20.4367  20.4835  20.6571  21.9649
    22.0279  22.0643  23.0732  23.1160  23.1352

          k = 0.3536-0.3536-0.3536 (  5444 PWs)   bands (ev):

   -69.0928 -69.0283 -69.0101 -68.9943 -68.9400 -68.9373 -68.9257 -68.8652
   -37.9708 -37.9625 -37.9584 -37.9066 -37.9005 -37.8951 -37.8882 -37.8860
   -37.8764 -37.8703 -37.8630 -37.8538 -37.8266 -37.8201 -37.8135 -37.8116
   -37.8016 -37.8001 -37.7956 -37.7903 -37.7866 -37.7410 -37.7367 -37.7289
    -6.6815  -6.4332  -6.4012  -6.3154  -6.2612  -6.1332  -6.0717  -5.9854
     4.9301   4.9634   5.0047   5.1764   5.2278   5.2548   5.6174   5.8130
     5.8912   5.9486   5.9655   6.0094   6.0458   6.0682   6.3564   6.3966
     6.4421   6.5142   6.5579   6.6141   6.6516   6.7042   6.7538   6.7909
     8.1071   8.1241   8.1581   8.1988   8.2306   8.2671   8.3014   8.3319
     8.3581   8.3630   8.7951   8.8331   8.8444   8.8881   8.9104   8.9262
     9.0233   9.1375   9.3772   9.4161   9.4359   9.4828   9.5005   9.5417
    10.5755  10.6024  10.6128  10.7021  10.7222  10.7512  10.9083  10.9515
    11.0124  11.0207  11.1052  11.1308  11.1640  11.2501  11.2872  11.3316
    14.6114  14.7437  17.8094  17.8246  17.9002  17.9669  18.0262  18.1022
    20.0259  20.1206  20.1597  20.2181  20.2374  20.3425  21.5628  21.6721
    21.7269  21.7735  21.8819  21.9600  22.1740

          k = 0.0000 0.0000 0.3536 (  5425 PWs)   bands (ev):

   -69.0934 -69.0288 -69.0107 -68.9948 -68.9406 -68.9377 -68.9262 -68.8658
   -37.9715 -37.9616 -37.9592 -37.9091 -37.9028 -37.8967 -37.8866 -37.8831
   -37.8793 -37.8741 -37.8582 -37.8479 -37.8328 -37.8186 -37.8144 -37.8063
   -37.8021 -37.8007 -37.7965 -37.7919 -37.7801 -37.7391 -37.7379 -37.7280
    -6.8726  -6.4614  -6.4130  -6.3119  -6.0959  -6.0815  -6.0423  -5.9612
     4.3743   4.3765   4.4108   4.4214   5.5559   5.8395   5.8663   5.8874
     5.9010   5.9311   5.9546   5.9681   6.0014   6.0125   6.0270   6.3263
     6.3411   6.8006   6.8201   6.8503   6.8578   7.5904   7.6097   7.6213
     7.8591   7.8751   8.4065   8.5435   8.5827   8.6021   8.6133   8.6580
     8.6883   8.7072   8.7201   8.7377   8.7739   8.8216   9.0198   9.0233
     9.1072   9.1162   9.1436   9.1499   9.4424   9.4506   9.5416   9.5684
     9.5801   9.5858   9.6361   9.6535   9.6885   9.8663  10.2639  10.2723
    11.2930  11.3126  11.3507  11.3551  12.2613  12.2650  12.2678  12.2770
    13.5343  16.5908  16.6062  16.6820  16.7133  17.2546  18.0807  18.0974
    20.1810  20.2246  20.3047  20.3345  20.4336  20.4588  20.9218  21.6554
    21.6771  22.8489  23.0487  23.0776  23.1197

          k = 0.5303-0.5303-0.1768 (  5413 PWs)   bands (ev):

   -69.0926 -69.0280 -69.0098 -68.9940 -68.9397 -68.9370 -68.9254 -68.8650
   -37.9705 -37.9613 -37.9585 -37.9067 -37.9023 -37.8957 -37.8856 -37.8849
   -37.8767 -37.8739 -37.8617 -37.8513 -37.8291 -37.8167 -37.8138 -37.8122
   -37.8034 -37.8014 -37.7969 -37.7922 -37.7833 -37.7407 -37.7383 -37.7294
    -6.6791  -6.4483  -6.3947  -6.3112  -6.2602  -6.1324  -6.0691  -5.9852
     4.8470   4.8752   4.9120   5.2116   5.3355   5.5082   5.5496   5.8408
     5.9123   5.9517   5.9674   6.0334   6.0765   6.1222   6.1800   6.2328
     6.2761   6.4549   6.4918   6.5331   6.6064   6.8756   7.1515   7.2003
     7.8203   7.8723   8.2500   8.3384   8.3650   8.4769   8.5496   8.5821
     8.6216   8.6314   8.6992   8.7833   8.7976   8.8099   8.8826   8.9013
     9.2362   9.3296   9.3419   9.4131   9.4602   9.5373   9.5497   9.5783
     9.8480   9.8516  10.1590  10.2823  10.3509  10.4044  10.4349  10.5143
    10.5804  10.8448  10.9695  10.9944  11.7577  11.7679  11.8439  12.0054
    14.9456  15.7444  16.9340  17.4236  17.4525  18.4642  18.8127  18.9088
    19.8115  20.0595  20.1827  20.5821  20.6577  20.9954  21.0554  21.2642
    21.5886  21.6790  22.0086  22.0867  22.6080

          k = 0.3536-0.3536 0.0000 (  5416 PWs)   bands (ev):

   -69.0928 -69.0283 -69.0101 -68.9943 -68.9401 -68.9371 -68.9257 -68.8652
   -37.9713 -37.9613 -37.9587 -37.9043 -37.9017 -37.8965 -37.8871 -37.8860
   -37.8804 -37.8740 -37.8590 -37.8498 -37.8299 -37.8192 -37.8160 -37.8066
   -37.8014 -37.7987 -37.7950 -37.7919 -37.7885 -37.7402 -37.7383 -37.7282
    -6.7383  -6.4308  -6.3742  -6.3113  -6.2645  -6.1040  -6.0814  -5.9688
     4.6849   4.7045   4.9032   4.9289   5.4307   5.4485   5.6534   5.8860
     5.8991   5.9027   6.0599   6.0638   6.1005   6.1253   6.3212   6.3686
     6.3933   6.4399   6.4611   6.7062   6.7422   6.7657   6.8932   7.0926
     7.9770   8.1592   8.2105   8.2678   8.2990   8.3728   8.4392   8.6012
     8.6067   8.6916   8.7138   8.7338   8.7447   8.8776   8.8898   8.9023
     9.3323   9.3446   9.4032   9.4419   9.4625   9.4980   9.5404   9.5650
     9.6233   9.6435   9.7939   9.8470  10.6876  10.7085  10.8126  10.8487
    10.9185  11.1442  11.2175  11.2824  11.5831  11.5981  11.7261  11.7375
    14.2575  16.1837  16.2223  17.7332  17.7595  18.0754  18.1135  18.6827
    19.7948  19.8177  20.3804  20.4895  20.7328  20.8055  21.0337  21.1067
    21.7078  21.8538  21.8934  21.9560  23.4887

          k = 0.0000 0.0000-0.7071 (  5434 PWs)   bands (ev):

   -69.0923 -69.0278 -69.0096 -68.9937 -68.9395 -68.9367 -68.9251 -68.8647
   -37.9703 -37.9599 -37.9584 -37.9091 -37.9014 -37.8947 -37.8852 -37.8826
   -37.8786 -37.8768 -37.8605 -37.8485 -37.8317 -37.8148 -37.8131 -37.8106
   -37.8053 -37.8028 -37.8006 -37.7937 -37.7803 -37.7407 -37.7399 -37.7297
    -6.6334  -6.5568  -6.3970  -6.2631  -6.1860  -6.1334  -6.1198  -5.9883
     4.8810   4.8826   4.9089   4.9288   5.5251   5.5792   5.8781   5.9098
     5.9366   5.9490   5.9791   6.0115   6.0331   6.0510   6.0889   6.1100
     6.1600   6.2146   6.2223   6.3120   7.2042   7.2283   7.5420   7.5521
     7.5679   7.5829   8.4165   8.4332   8.4420   8.4679   8.5792   8.5881
     8.7797   8.7956   8.8064   8.8137   9.0261   9.0272   9.1147   9.1250
     9.1349   9.1520   9.1758   9.1938   9.6766   9.7086   9.7419   9.7758
     9.7785   9.7919   9.7991   9.8251   9.9084   9.9519   9.9708  10.0300
    10.0339  10.0566  10.8330  10.8500  12.2156  12.2214  12.2274  12.2387
    15.9358  15.9464  17.1839  17.2235  17.3392  17.3751  19.3155  19.3173
    20.6336  20.6749  20.6796  20.7105  21.0292  21.1202  21.2248  21.3019
    21.3794  21.3962  21.4504  21.5103  23.1797

          k = 0.0000 0.3536-0.7071 (  5400 PWs)   bands (ev):

   -69.0923 -69.0278 -69.0095 -68.9937 -68.9395 -68.9367 -68.9251 -68.8647
   -37.9705 -37.9603 -37.9577 -37.9075 -37.9017 -37.8975 -37.8861 -37.8836
   -37.8778 -37.8741 -37.8605 -37.8488 -37.8309 -37.8164 -37.8145 -37.8117
   -37.8048 -37.8015 -37.7966 -37.7929 -37.7837 -37.7413 -37.7395 -37.7292
    -6.5803  -6.4856  -6.4359  -6.3047  -6.2685  -6.1375  -6.0927  -5.9818
     5.1123   5.1669   5.2022   5.2668   5.3085   5.3320   5.3750   5.4035
     5.9457   5.9759   5.9943   6.0073   6.1479   6.1744   6.2073   6.2321
     6.4288   6.5500   6.5689   6.5966   6.6526   6.6790   6.7161   6.7680
     8.0523   8.0733   8.0905   8.1058   8.6287   8.6538   8.6784   8.6971
     8.7004   8.7170   8.7221   8.7325   8.7377   8.7501   8.7591   8.7923
     9.4883   9.5320   9.5651   9.5828   9.6187   9.6366   9.6554   9.6830
     9.7584   9.7870   9.8182   9.8396   9.8453   9.8858   9.9121   9.9561
    11.3051  11.3557  11.4159  11.4399  11.4735  11.5009  11.5493  11.6296
    16.1104  16.1743  16.2584  16.3214  18.9307  18.9636  19.0273  19.0869
    19.9912  20.0769  20.1038  20.1576  20.6657  20.7358  20.7763  20.9174
    22.2443  22.2695  22.2957  22.3470  22.7732

          k = 0.1768-0.1768 0.1768 (  5402 PWs)   bands (ev):

   -69.0936 -69.0291 -69.0109 -68.9951 -68.9410 -68.9378 -68.9265 -68.8660
   -37.9722 -37.9616 -37.9594 -37.9070 -37.9027 -37.8975 -37.8875 -37.8844
   -37.8813 -37.8741 -37.8568 -37.8464 -37.8335 -37.8200 -37.8144 -37.8046
   -37.8003 -37.7985 -37.7950 -37.7913 -37.7839 -37.7389 -37.7378 -37.7267
    -6.9023  -6.4488  -6.4010  -6.3436  -6.1153  -6.0497  -6.0272  -5.9446
     4.2559   4.2830   4.3154   4.4533   5.7442   5.7500   5.7616   5.8165
     5.8326   5.8508   5.9595   5.9967   6.0069   6.0190   6.0335   6.3884
     6.4345   6.4885   7.1795   7.3817   7.4036   7.4101   7.4758   7.4957
     7.9921   7.9993   8.0364   8.0537   8.0852   8.5761   8.5893   8.5948
     8.6227   8.6253   8.7662   8.7851   8.7914   8.9346   8.9629   8.9767
     8.9928   9.2095   9.2134   9.2334   9.4743   9.5999   9.6147   9.6217
     9.6894   9.7027   9.7249   9.8302   9.8457   9.8679  10.1810  10.1971
    11.6890  11.7299  11.7600  11.9444  11.9522  11.9611  12.0236  12.0324
    13.0492  15.7119  16.7650  16.7774  16.7828  17.6019  17.6804  17.7438
    20.0323  20.0833  20.1596  20.3252  20.4539  20.5158  20.6855  21.9101
    22.0160  22.1300  23.0185  23.1042  23.1717

          k = 0.1768 0.1768-0.1768 (  5402 PWs)   bands (ev):

   -69.0936 -69.0291 -69.0109 -68.9951 -68.9409 -68.9379 -68.9265 -68.8660
   -37.9720 -37.9626 -37.9589 -37.9086 -37.9016 -37.8960 -37.8885 -37.8830
   -37.8797 -37.8747 -37.8586 -37.8478 -37.8324 -37.8175 -37.8136 -37.8049
   -37.8031 -37.7990 -37.7967 -37.7929 -37.7806 -37.7397 -37.7365 -37.7269
    -6.9018  -6.4584  -6.3899  -6.3460  -6.1166  -6.0546  -6.0115  -5.9537
     4.2719   4.2815   4.2988   4.4563   5.7455   5.7544   5.7634   5.8135
     5.8239   5.8286   5.9798   5.9959   6.0090   6.0189   6.0372   6.4042
     6.4486   6.4585   7.1686   7.3849   7.3935   7.4154   7.4822   7.5101
     7.9899   7.9983   8.0369   8.0624   8.0813   8.5624   8.5902   8.5994
     8.6159   8.6257   8.7705   8.7853   8.7887   8.9251   8.9657   8.9718
     9.0043   9.2070   9.2143   9.2295   9.4730   9.6047   9.6144   9.6234
     9.6753   9.7077   9.7193   9.8294   9.8514   9.8799  10.1824  10.1951
    11.7072  11.7272  11.7452  11.9471  11.9525  11.9577  12.0230  12.0340
    13.0496  15.7158  16.7637  16.7719  16.7893  17.6381  17.6666  17.7135
    20.0507  20.0805  20.1221  20.3593  20.4703  20.5003  20.6660  21.9715
    22.0189  22.0654  23.0540  23.1164  23.1321

          k =-0.1768-0.1768-0.1768 (  5402 PWs)   bands (ev):

   -69.0936 -69.0291 -69.0109 -68.9951 -68.9410 -68.9378 -68.9264 -68.8660
   -37.9710 -37.9620 -37.9591 -37.9107 -37.9033 -37.8976 -37.8888 -37.8832
   -37.8799 -37.8709 -37.8568 -37.8454 -37.8361 -37.8194 -37.8162 -37.8055
   -37.8019 -37.7982 -37.7961 -37.7891 -37.7798 -37.7390 -37.7370 -37.7288
    -6.9015  -6.4585  -6.3892  -6.3464  -6.1184  -6.0555  -6.0100  -5.9529
     4.2565   4.2845   4.3167   4.4507   5.7404   5.7557   5.7720   5.7981
     5.8233   5.8418   5.9774   5.9945   6.0057   6.0224   6.0388   6.3794
     6.4424   6.4933   7.1683   7.3846   7.3989   7.4126   7.4855   7.5108
     7.9681   8.0038   8.0356   8.0577   8.0887   8.5714   8.5806   8.5905
     8.6209   8.6281   8.7599   8.7900   8.7924   8.9341   8.9607   8.9633
     9.0033   9.2050   9.2225   9.2317   9.4742   9.6068   9.6144   9.6248
     9.6848   9.7082   9.7251   9.8340   9.8522   9.8625  10.1822  10.1997
    11.6906  11.7227  11.7685  11.9458  11.9517  11.9611  12.0208  12.0269
    13.0483  15.7060  16.7630  16.7754  16.7899  17.5970  17.6863  17.7494
    20.0423  20.0911  20.1588  20.3085  20.4246  20.5349  20.6972  21.9071
    22.0128  22.1266  23.0209  23.1021  23.1710

          k =-0.3536 0.3536-0.3536 (  5444 PWs)   bands (ev):

   -69.0928 -69.0283 -69.0101 -68.9942 -68.9402 -68.9370 -68.9257 -68.8652
   -37.9718 -37.9605 -37.9584 -37.9034 -37.9022 -37.8961 -37.8872 -37.8856
   -37.8835 -37.8776 -37.8558 -37.8463 -37.8323 -37.8220 -37.8120 -37.8061
   -37.7991 -37.7987 -37.7963 -37.7927 -37.7895 -37.7413 -37.7385 -37.7272
    -6.6515  -6.5220  -6.3991  -6.2658  -6.2180  -6.1361  -6.1020  -5.9882
     4.9441   5.0077   5.0974   5.1003   5.1621   5.2334   5.6261   5.7288
     5.8544   5.9166   5.9900   6.0425   6.0853   6.1080   6.3663   6.4751
     6.5174   6.5239   6.5727   6.5978   6.6088   6.6397   6.6984   6.7763
     8.1151   8.1497   8.1594   8.2111   8.2528   8.2634   8.2879   8.3183
     8.3334   8.3666   8.8128   8.8445   8.8604   8.8858   8.8985   8.9299
     9.0332   9.1082   9.4134   9.4240   9.4309   9.4758   9.4977   9.5110
    10.5813  10.6028  10.6238  10.6911  10.7333  10.7503  10.9133  10.9615
    10.9920  11.0352  11.0725  11.0887  11.2024  11.2492  11.2711  11.3544
    14.6357  14.7132  17.7676  17.7738  17.9275  17.9339  18.0844  18.1935
    19.9380  19.9847  20.0587  20.2420  20.3575  20.5030  21.5700  21.6719
    21.7204  21.7714  21.8835  21.9850  22.1789

          k =-0.3536-0.3536 0.3536 (  5444 PWs)   bands (ev):

   -69.0928 -69.0282 -69.0101 -68.9943 -68.9400 -68.9372 -68.9257 -68.8652
   -37.9715 -37.9623 -37.9578 -37.9073 -37.8986 -37.8938 -37.8899 -37.8806
   -37.8803 -37.8793 -37.8606 -37.8487 -37.8300 -37.8139 -37.8102 -37.8090
   -37.8053 -37.8012 -37.7996 -37.7964 -37.7812 -37.7418 -37.7371 -37.7276
    -6.6237  -6.5768  -6.3449  -6.3051  -6.1910  -6.1664  -6.0722  -6.0026
     4.9867   5.0187   5.0539   5.1190   5.1646   5.1969   5.6427   5.6882
     5.8959   5.9017   5.9605   6.0164   6.0917   6.1231   6.4277   6.4803
     6.5189   6.5277   6.5596   6.5893   6.6298   6.6410   6.6905   6.7538
     8.1300   8.1468   8.1673   8.2108   8.2416   8.2697   8.2840   8.3058
     8.3320   8.3632   8.8141   8.8381   8.8619   8.8794   8.9081   8.9341
     9.0249   9.1006   9.4129   9.4214   9.4315   9.4900   9.4998   9.5063
    10.5634  10.6101  10.6464  10.6893  10.7027  10.7732  10.9137  10.9460
    10.9811  11.0347  11.0850  11.1082  11.1691  11.2535  11.2837  11.3680
    14.6470  14.7065  17.7718  17.7932  17.9416  17.9794  18.0422  18.1231
    19.9367  20.0250  20.1483  20.1976  20.3273  20.4445  21.6229  21.6718
    21.7282  21.8023  21.8364  21.9363  22.1697

          k = 0.3536 0.3536 0.3536 (  5444 PWs)   bands (ev):

   -69.0928 -69.0283 -69.0101 -68.9942 -68.9403 -68.9370 -68.9256 -68.8652
   -37.9693 -37.9609 -37.9580 -37.9121 -37.9027 -37.8980 -37.8894 -37.8822
   -37.8799 -37.8709 -37.8560 -37.8440 -37.8379 -37.8204 -37.8171 -37.8078
   -37.8023 -37.7989 -37.7971 -37.7894 -37.7798 -37.7404 -37.7382 -37.7313
    -6.6171  -6.5822  -6.3324  -6.3223  -6.1857  -6.1710  -6.0707  -6.0011
     4.9781   5.0135   5.0632   5.1283   5.1567   5.2003   5.6465   5.6804
     5.8813   5.9063   5.9796   6.0251   6.0752   6.1372   6.4255   6.4597
     6.5146   6.5383   6.5542   6.5663   6.6290   6.6690   6.7062   6.7510
     8.1117   8.1525   8.1725   8.2119   8.2311   8.2570   8.2930   8.3041
     8.3365   8.3603   8.8329   8.8360   8.8658   8.8844   8.8946   8.9039
     9.0618   9.0780   9.4046   9.4338   9.4622   9.4635   9.4928   9.5181
    10.6022  10.6259  10.6428  10.6594  10.7026  10.7513  10.9311  10.9662
    10.9972  11.0496  11.0735  11.0878  11.2324  11.2523  11.2679  11.2897
    14.6644  14.6762  17.7541  17.8104  17.8266  17.9849  18.1239  18.1993
    19.9422  19.9917  20.0835  20.2231  20.3978  20.4578  21.4920  21.6367
    21.6735  21.8127  21.9319  21.9978  22.2476

          k = 0.3536 0.0000 0.0000 (  5425 PWs)   bands (ev):

   -69.0934 -69.0288 -69.0106 -68.9948 -68.9406 -68.9377 -68.9262 -68.8658
   -37.9716 -37.9619 -37.9586 -37.9085 -37.9022 -37.8982 -37.8875 -37.8838
   -37.8803 -37.8707 -37.8583 -37.8482 -37.8324 -37.8193 -37.8160 -37.8061
   -37.8014 -37.8001 -37.7955 -37.7899 -37.7832 -37.7401 -37.7373 -37.7274
    -6.8726  -6.4784  -6.3671  -6.3428  -6.0956  -6.0850  -6.0329  -5.9656
     4.3884   4.3921   4.3988   4.4043   5.5548   5.8492   5.8545   5.8878
     5.8987   5.9363   5.9627   5.9717   5.9979   6.0077   6.0157   6.3165
     6.3418   6.8024   6.8215   6.8370   6.8928   7.5547   7.6290   7.6599
     7.8557   7.8849   8.3748   8.5528   8.5687   8.5986   8.6204   8.6504
     8.6832   8.7129   8.7188   8.7395   8.7785   8.8034   9.0203   9.0260
     9.1089   9.1165   9.1396   9.1500   9.4410   9.4479   9.5371   9.5574
     9.5807   9.6010   9.6322   9.6485   9.6825   9.8864  10.2644  10.2871
    11.3176  11.3228  11.3263  11.3340  12.2567  12.2635  12.2709  12.2881
    13.5353  16.6162  16.6415  16.6513  16.6719  17.2627  18.0883  18.1022
    20.2189  20.2551  20.2843  20.2864  20.4045  20.4673  20.9222  21.6686
    21.6840  22.8401  23.0635  23.0862  23.1054

          k = 0.0000 0.3536 0.0000 (  5425 PWs)   bands (ev):

   -69.0934 -69.0288 -69.0107 -68.9948 -68.9408 -68.9375 -68.9262 -68.8658
   -37.9711 -37.9624 -37.9591 -37.9066 -37.9016 -37.8956 -37.8893 -37.8841
   -37.8818 -37.8746 -37.8583 -37.8465 -37.8339 -37.8183 -37.8150 -37.8036
   -37.8007 -37.7986 -37.7966 -37.7922 -37.7840 -37.7392 -37.7371 -37.7285
    -6.8724  -6.4765  -6.3732  -6.3387  -6.1077  -6.0743  -6.0315  -5.9656
     4.3520   4.3918   4.3972   4.4405   5.5569   5.8457   5.8545   5.8839
     5.8977   5.9358   5.9513   5.9684   6.0010   6.0159   6.0293   6.3166
     6.3454   6.8052   6.8325   6.8495   6.8685   7.5545   7.6252   7.6628
     7.8423   7.8877   8.4119   8.5417   8.5691   8.6026   8.6178   8.6587
     8.6618   8.7020   8.7251   8.7443   8.7733   8.7860   9.0203   9.0237
     9.0999   9.1163   9.1408   9.1544   9.4270   9.4481   9.5374   9.5514
     9.5862   9.6085   9.6453   9.6691   9.6887   9.8881  10.2580  10.2723
    11.2710  11.3229  11.3344  11.3832  12.2617  12.2628  12.2678  12.2768
    13.5355  16.5962  16.6122  16.6818  16.7180  17.2634  18.0754  18.0839
    20.1792  20.2315  20.2782  20.3428  20.4617  20.4716  20.8805  21.6762
    21.6944  22.8283  23.0116  23.0744  23.0945

          k =-0.5303 0.5303-0.1768 (  5413 PWs)   bands (ev):

[...]
   -32.8927 -32.8836 -32.8787 -32.8301 -32.8245 -32.8190 -32.8171 -32.8150
   -32.8059 -32.7966 -32.7906 -32.7764 -32.7623 -32.7479 -32.7473 -32.7338
   -32.7284 -32.7265 -32.7251 -32.7195 -32.7151 -32.6715 -32.6679 -32.6585
    -6.2298  -5.9099  -5.8442  -5.7111  -5.6846  -5.5159  -5.4255  -5.3710
     6.5457   6.5664   6.6029   6.8301   6.9471   6.9899   7.0065   7.5855
     7.6620   7.6961   7.7519   8.1439   8.1633   8.3284   8.3434   8.4527
     8.5673   8.5910   8.6718   8.7250   8.7595   8.9055   9.1191   9.2274
    14.0739  14.5439  14.6967  14.7045  14.9435  14.9580  15.0521  15.1600
    15.2895  15.4065  15.5047  15.5791  15.6480  15.6716  15.7034  15.7242
    15.7489  15.7642  15.7925  15.8245  15.8602  15.8844  15.9776  15.9931
    16.0071  16.0407  16.0445  16.0866  16.1080  16.1256  16.1709  16.1962
    16.3260  16.3352  16.5151  16.5196  16.7850  16.7955  16.8190  16.9472
    17.0069  17.2480  18.7131  18.9866  19.0021  20.0666  20.6389  20.6551
    21.5710  21.7718  21.8166  22.3828  22.4267  22.7141  22.7858  22.8812
    23.3749  23.4915  23.8081  23.8335  24.5514

          k = 0.5303-0.1768 0.5303 (  5413 PWs)   bands (ev):

   -63.8961 -63.8345 -63.8178 -63.8057 -63.7532 -63.7477 -63.7366 -63.6785
   -32.8938 -32.8811 -32.8794 -32.8266 -32.8253 -32.8196 -32.8169 -32.8152
   -32.8117 -32.8017 -32.7857 -32.7710 -32.7660 -32.7513 -32.7405 -32.7310
   -32.7293 -32.7268 -32.7236 -32.7227 -32.7167 -32.6706 -32.6700 -32.6575
    -6.2131  -5.9622  -5.8595  -5.6601  -5.6164  -5.5812  -5.4391  -5.3604
     6.5250   6.6035   6.6460   6.8207   6.8937   6.9795   6.9979   7.5690
     7.6009   7.7131   7.8207   8.1254   8.2407   8.2996   8.3532   8.4758
     8.4996   8.5531   8.7222   8.7639   8.7772   8.8829   9.1212   9.1980
    14.0756  14.5386  14.6976  14.7221  14.9005  14.9782  15.0720  15.1510
    15.2810  15.4202  15.4824  15.5824  15.6348  15.6733  15.6992  15.7374
    15.7609  15.7763  15.8026  15.8168  15.8449  15.8771  15.9686  15.9964
    16.0147  16.0428  16.0451  16.0920  16.0988  16.1408  16.1741  16.1919
    16.3260  16.3325  16.5131  16.5193  16.7857  16.7950  16.8172  16.9444
    17.0088  17.2471  18.6965  18.9622  19.0561  20.0576  20.5224  20.8029
    21.5892  21.6012  21.9637  22.3100  22.4968  22.6966  22.7659  22.9143
    23.4211  23.4373  23.7131  23.9063  24.5597

          k = 0.5303 0.1768-0.5303 (  5413 PWs)   bands (ev):

   -63.8961 -63.8345 -63.8178 -63.8058 -63.7531 -63.7478 -63.7366 -63.6785
   -32.8937 -32.8833 -32.8778 -32.8318 -32.8214 -32.8189 -32.8162 -32.8117
   -32.8096 -32.8039 -32.7879 -32.7733 -32.7640 -32.7481 -32.7390 -32.7345
   -32.7311 -32.7297 -32.7253 -32.7244 -32.7105 -32.6722 -32.6679 -32.6577
    -6.2019  -6.0147  -5.7573  -5.7091  -5.6748  -5.5336  -5.4257  -5.3750
     6.5690   6.5886   6.6258   6.7956   6.9212   6.9732   6.9998   7.5008
     7.6678   7.6771   7.8124   8.1789   8.1941   8.3556   8.3898   8.4744
     8.5171   8.5517   8.6669   8.7053   8.7619   8.9629   9.0850   9.2073
    14.0766  14.5365  14.7070  14.7230  14.9258  14.9485  15.0659  15.1348
    15.2974  15.4207  15.4809  15.5731  15.6179  15.6547  15.7226  15.7458
    15.7633  15.7751  15.8044  15.8171  15.8483  15.8833  15.9820  15.9989
    16.0119  16.0387  16.0429  16.0958  16.1107  16.1285  16.1727  16.1793
    16.3249  16.3354  16.5140  16.5261  16.7841  16.7931  16.8224  16.9475
    17.0067  17.2458  18.7175  18.9813  19.0012  20.0607  20.6492  20.6611
    21.5842  21.7529  21.7897  22.3956  22.4465  22.7282  22.7729  22.8597
    23.3651  23.5209  23.8103  23.8192  24.5479

          k =-0.3536-0.3536 0.0000 (  5416 PWs)   bands (ev):

   -63.8959 -63.8344 -63.8175 -63.8055 -63.7529 -63.7476 -63.7363 -63.6783
   -32.8935 -32.8834 -32.8785 -32.8388 -32.8262 -32.8212 -32.8171 -32.8099
   -32.8068 -32.7975 -32.7857 -32.7715 -32.7680 -32.7491 -32.7440 -32.7350
   -32.7337 -32.7270 -32.7251 -32.7198 -32.7060 -32.6718 -32.6683 -32.6583
    -6.2976  -5.9310  -5.8531  -5.6363  -5.5750  -5.5367  -5.4946  -5.3565
     6.4529   6.4551   6.6013   6.6476   6.7304   6.7972   7.0500   7.4277
     7.8206   7.9516   8.1232   8.2969   8.3242   8.3956   8.4237   8.4789
     8.4987   8.5709   8.6212   8.7198   8.7993   8.8271   9.1772   9.2549
    14.1396  14.2102  14.4596  14.8324  14.8455  14.8613  14.9266  15.0992
    15.3872  15.4071  15.4507  15.5681  15.5773  15.7132  15.7245  15.8599
    15.8779  15.8922  15.9065  15.9832  15.9955  16.0669  16.1093  16.1260
    16.1425  16.1636  16.1780  16.1979  16.2136  16.2287  16.2460  16.2781
    16.2915  16.3147  16.3271  16.3436  16.3764  16.4181  16.4813  16.8585
    16.8635  17.8708  17.9166  19.4280  19.5032  19.6520  19.6850  20.6687
    21.5534  21.5646  21.7186  22.2467  22.3519  22.5317  22.8322  22.9115
    23.5729  23.5926  23.6928  23.8195  25.1853

          k = 0.0000 0.3536 0.3536 (  5416 PWs)   bands (ev):

   -63.8959 -63.8344 -63.8175 -63.8056 -63.7529 -63.7476 -63.7362 -63.6783
   -32.8924 -32.8838 -32.8793 -32.8378 -32.8300 -32.8200 -32.8149 -32.8130
   -32.8046 -32.7924 -32.7874 -32.7755 -32.7664 -32.7506 -32.7475 -32.7347
   -32.7303 -32.7278 -32.7246 -32.7159 -32.7086 -32.6712 -32.6680 -32.6593
    -6.3085  -5.8911  -5.8280  -5.6787  -5.6648  -5.4883  -5.4498  -5.3715
     6.4162   6.4375   6.6241   6.6656   6.7611   6.7718   7.0621   7.4712
     7.8836   7.9258   8.0061   8.2952   8.3154   8.4297   8.4500   8.4961
     8.5341   8.5621   8.6045   8.6426   8.7457   8.8693   9.2247   9.2496
    14.1657  14.1918  14.4500  14.8053  14.8604  14.8892  14.9325  15.1041
    15.3836  15.3974  15.4296  15.5652  15.5747  15.7144  15.7367  15.8518
    15.8829  15.8886  15.9061  16.0061  16.0318  16.0640  16.0943  16.1148
    16.1330  16.1630  16.1848  16.2079  16.2222  16.2378  16.2510  16.2667
    16.2881  16.3002  16.3200  16.3514  16.3710  16.4037  16.4718  16.8580
    16.8715  17.8590  17.9285  19.4249  19.4627  19.6822  19.6993  20.6709
    21.5463  21.5860  21.6860  22.2719  22.3858  22.5032  22.8314  22.8892
    23.5895  23.6056  23.7386  23.7639  25.1782

          k = 0.0000 0.3536-0.3536 (  5416 PWs)   bands (ev):

   -63.8959 -63.8343 -63.8176 -63.8055 -63.7529 -63.7475 -63.7363 -63.6783
   -32.8963 -32.8817 -32.8795 -32.8326 -32.8257 -32.8189 -32.8147 -32.8120
   -32.8101 -32.8035 -32.7856 -32.7731 -32.7636 -32.7505 -32.7393 -32.7332
   -32.7323 -32.7283 -32.7268 -32.7217 -32.7106 -32.6709 -32.6696 -32.6557
    -6.3007  -5.8991  -5.8783  -5.6362  -5.5886  -5.5447  -5.4751  -5.3581
     6.4358   6.4558   6.6159   6.6445   6.7594   6.7692   7.0570   7.4369
     7.8068   7.9791   8.0910   8.2897   8.3223   8.4046   8.4471   8.4749
     8.5081   8.5601   8.6546   8.6731   8.7922   8.8276   9.1824   9.2544
    14.1732  14.1863  14.4580  14.8204  14.8565  14.8771  14.9238  15.1093
    15.3827  15.3940  15.4395  15.5599  15.5817  15.7227  15.7256  15.8530
    15.8825  15.8894  15.9039  15.9595  16.0252  16.0601  16.1013  16.1185
    16.1326  16.1571  16.1792  16.2023  16.2226  16.2412  16.2648  16.2781
    16.2852  16.3062  16.3314  16.3477  16.3638  16.4226  16.4927  16.8562
    16.8617  17.8607  17.9264  19.4286  19.4732  19.6576  19.7000  20.6784
    21.5514  21.5645  21.6973  22.2398  22.4061  22.4945  22.8442  22.9189
    23.5705  23.6073  23.7382  23.7539  25.1738

          k =-0.3536 0.0000-0.3536 (  5416 PWs)   bands (ev):

   -63.8959 -63.8344 -63.8176 -63.8055 -63.7530 -63.7474 -63.7363 -63.6783
   -32.8937 -32.8819 -32.8789 -32.8365 -32.8286 -32.8236 -32.8162 -32.8122
   -32.8072 -32.7965 -32.7828 -32.7697 -32.7693 -32.7530 -32.7449 -32.7352
   -32.7302 -32.7261 -32.7225 -32.7180 -32.7101 -32.6713 -32.6696 -32.6580
    -6.3005  -5.9048  -5.8719  -5.6356  -5.5953  -5.5384  -5.4765  -5.3579
     6.4383   6.4625   6.6079   6.6374   6.7389   6.7974   7.0529   7.4419
     7.8135   7.9706   8.0880   8.2715   8.3389   8.4135   8.4533   8.4708
     8.5063   8.5430   8.6425   8.6803   8.7965   8.8352   9.1879   9.2557
    14.1253  14.2325  14.4615  14.8216  14.8478  14.8676  14.9261  15.1068
    15.3879  15.3959  15.4300  15.5614  15.5802  15.7170  15.7254  15.8596
    15.8691  15.8936  15.9068  16.0202  16.0360  16.0801  16.1125  16.1227
    16.1370  16.1654  16.1760  16.1946  16.2215  16.2348  16.2509  16.2614
    16.2936  16.3116  16.3350  16.3414  16.3633  16.3774  16.4672  16.8573
    16.8665  17.8866  17.8971  19.3851  19.5283  19.6530  19.7047  20.6700
    21.5677  21.5793  21.6978  22.2488  22.3533  22.5248  22.8554  22.8919
    23.5568  23.6042  23.6359  23.8860  25.1683

          k =-0.3536 0.0000 0.3536 (  5416 PWs)   bands (ev):

   -63.8959 -63.8343 -63.8175 -63.8056 -63.7527 -63.7477 -63.7363 -63.6783
   -32.8951 -32.8847 -32.8785 -32.8336 -32.8271 -32.8186 -32.8150 -32.8128
   -32.8031 -32.7971 -32.7917 -32.7789 -32.7599 -32.7472 -32.7425 -32.7402
   -32.7321 -32.7267 -32.7262 -32.7198 -32.7096 -32.6717 -32.6673 -32.6568
    -6.3091  -5.8892  -5.8265  -5.6879  -5.6585  -5.4896  -5.4483  -5.3718
     6.4199   6.4418   6.6266   6.6579   6.7549   6.7765   7.0636   7.4652
     7.8693   7.9405   8.0135   8.2908   8.3062   8.4381   8.4554   8.4905
     8.5340   8.5755   8.5937   8.6420   8.7638   8.8492   9.2199   9.2533
    14.1722  14.1863  14.4500  14.8174  14.8517  14.8869  14.9304  15.1094
    15.3853  15.4037  15.4343  15.5494  15.5756  15.7094  15.7360  15.8608
    15.8763  15.8868  15.9019  16.0024  16.0261  16.0713  16.0945  16.1101
    16.1262  16.1732  16.1946  16.2038  16.2336  16.2488  16.2580  16.2824
    16.2912  16.3031  16.3170  16.3427  16.3682  16.3920  16.4674  16.8566
    16.8637  17.8901  17.8962  19.4208  19.4601  19.6723  19.7106  20.6808
    21.5364  21.5474  21.6749  22.3093  22.4004  22.4702  22.8630  22.8860
    23.5932  23.6121  23.7222  23.7828  25.1745

          k =-0.7071 0.0000 0.0000 (  5434 PWs)   bands (ev):

   -63.8963 -63.8348 -63.8179 -63.8061 -63.7531 -63.7482 -63.7367 -63.6788
   -32.8937 -32.8813 -32.8754 -32.8337 -32.8253 -32.8233 -32.8153 -32.8129
   -32.8034 -32.7917 -32.7894 -32.7746 -32.7619 -32.7522 -32.7450 -32.7393
   -32.7305 -32.7275 -32.7227 -32.7206 -32.7119 -32.6737 -32.6697 -32.6569
    -6.0824  -6.0591  -5.7378  -5.7242  -5.6741  -5.6618  -5.4028  -5.3605
     6.6496   6.6714   6.6763   6.6834   7.1974   7.2067   7.4285   7.4393
     7.4649   7.4837   7.8833   7.9173   8.1085   8.1202   8.1839   8.2329
     8.5296   8.5376   8.5814   8.5839   9.0843   9.1138   9.1265   9.1579
    14.0407  14.0821  15.0909  15.1360  15.1432  15.2052  15.2604  15.2660
    15.4023  15.4168  15.4207  15.4283  15.4559  15.4812  15.5985  15.6062
    15.6221  15.6388  15.6640  15.6904  15.7020  15.7093  15.8462  15.8733
    15.8948  15.9078  15.9408  15.9480  15.9853  15.9914  15.9992  16.0064
    16.3980  16.4027  16.4828  16.4872  17.1218  17.1341  17.1359  17.1487
    17.9009  17.9703  18.7098  18.7214  18.7535  18.7970  21.3214  21.3332
    22.1732  22.2111  22.3142  22.3285  22.8277  22.8620  22.8645  22.8935
    23.2107  23.2371  23.3160  23.3359  24.8601

          k = 0.0000-0.7071 0.0000 (  5434 PWs)   bands (ev):

   -63.8963 -63.8347 -63.8181 -63.8060 -63.7533 -63.7479 -63.7369 -63.6788
   -32.8912 -32.8821 -32.8785 -32.8251 -32.8218 -32.8205 -32.8162 -32.8157
   -32.8116 -32.8017 -32.7884 -32.7707 -32.7669 -32.7487 -32.7401 -32.7323
   -32.7286 -32.7270 -32.7259 -32.7227 -32.7162 -32.6717 -32.6688 -32.6595
    -6.0853  -6.0541  -5.7418  -5.7262  -5.6975  -5.6324  -5.4024  -5.3630
     6.6162   6.6597   6.6717   6.7316   7.2065   7.2202   7.4340   7.4432
     7.4456   7.4679   7.8970   7.9108   8.0364   8.1693   8.2140   8.2396
     8.5099   8.5575   8.5647   8.5848   9.0941   9.1152   9.1206   9.1519
    14.0522  14.0732  15.1037  15.1390  15.1803  15.2060  15.2273  15.2463
    15.3541  15.3972  15.4153  15.4431  15.4721  15.5162  15.5875  15.5938
    15.6166  15.6387  15.6595  15.6900  15.7036  15.7352  15.8647  15.8728
    15.8960  15.9086  15.9437  15.9490  15.9759  15.9849  15.9973  16.0106
    16.3977  16.4043  16.4817  16.4886  17.1190  17.1220  17.1342  17.1471
    17.9327  17.9427  18.6624  18.7196  18.7852  18.8569  21.2854  21.3041
    22.2394  22.2511  22.2890  22.3186  22.6629  22.8441  22.8803  23.0447
    23.1711  23.2506  23.2782  23.3618  24.8676

          k = 0.3536-0.0000 0.7071 (  5400 PWs)   bands (ev):

   -63.8963 -63.8347 -63.8180 -63.8060 -63.7533 -63.7480 -63.7368 -63.6788
   -32.8917 -32.8811 -32.8786 -32.8332 -32.8240 -32.8171 -32.8146 -32.8123
   -32.8079 -32.8017 -32.7866 -32.7739 -32.7642 -32.7500 -32.7409 -32.7324
   -32.7308 -32.7303 -32.7277 -32.7229 -32.7099 -32.6714 -32.6695 -32.6592
    -6.0673  -5.9568  -5.9350  -5.8034  -5.6240  -5.4903  -5.4691  -5.3573
     6.7830   6.8681   6.8822   6.9683   6.9791   7.0123   7.0457   7.0685
     7.5885   7.6125   7.6456   7.6722   8.3023   8.3133   8.3610   8.3861
     8.6498   8.7179   8.7469   8.7753   8.8024   8.8333   8.8951   8.9932
    14.5274  14.5545  14.5648  14.6007  15.2155  15.2720  15.3123  15.3436
    15.3603  15.3825  15.3968  15.4013  15.4255  15.4425  15.4609  15.4895
    15.7565  15.7877  15.8307  15.8905  15.9065  15.9262  15.9402  15.9518
    15.9617  15.9811  15.9892  15.9950  16.1269  16.1844  16.2000  16.2357
    16.2440  16.2645  16.2770  16.3304  16.7490  16.7806  16.7891  16.8162
    17.9286  17.9488  17.9794  18.0391  20.5556  20.5999  20.6559  20.6741
    21.8708  21.8891  21.9812  22.0343  22.3019  22.3264  22.4263  22.4943
    24.0845  24.0980  24.1505  24.1895  24.6217

          k = 0.0000-0.7071 0.3536 (  5400 PWs)   bands (ev):

   -63.8963 -63.8347 -63.8180 -63.8060 -63.7533 -63.7481 -63.7368 -63.6788
   -32.8923 -32.8817 -32.8772 -32.8294 -32.8238 -32.8212 -32.8167 -32.8148
   -32.8070 -32.7972 -32.7873 -32.7736 -32.7638 -32.7491 -32.7461 -32.7344
   -32.7276 -32.7274 -32.7252 -32.7206 -32.7153 -32.6723 -32.6693 -32.6583
    -6.0550  -6.0017  -5.8930  -5.8113  -5.6159  -5.5309  -5.4282  -5.3672
     6.8000   6.8588   6.8809   6.9452   6.9946   7.0234   7.0422   7.0603
     7.5928   7.6210   7.6490   7.6627   8.3041   8.3309   8.3555   8.3720
     8.6429   8.7220   8.7412   8.7685   8.8185   8.8512   8.8828   8.9777
    14.5310  14.5497  14.5886  14.6064  15.1982  15.2617  15.3202  15.3413
    15.3619  15.3701  15.3964  15.4084  15.4283  15.4470  15.4608  15.4988
    15.7277  15.7834  15.8570  15.8877  15.9015  15.9250  15.9425  15.9504
    15.9568  15.9750  15.9803  16.0049  16.1461  16.1898  16.2200  16.2294
    16.2366  16.2569  16.2885  16.3069  16.7630  16.7751  16.7909  16.8044
    17.9106  17.9611  17.9987  18.0225  20.5320  20.6027  20.6398  20.7078
    21.8689  21.8956  22.0304  22.0684  22.2637  22.3554  22.4130  22.4517
    24.0734  24.1029  24.1450  24.1719  24.6246

     the Fermi energy is    12.4679 ev

!    total energy              =   -1946.20548430 Ry
     Harris-Foulkes estimate   =   -1946.20548420 Ry
     estimated scf accuracy    <          7.6E-09 Ry

     The total energy is the sum of the following terms:

     one-electron contribution =    -896.04850480 Ry
     hartree contribution      =     532.42810292 Ry
     xc contribution           =    -270.01912093 Ry
     ewald contribution        =   -1312.93193421 Ry
     Hubbard energy            =       0.36622142 Ry
     smearing contrib. (-TS)   =      -0.00024871 Ry

     total magnetization       =    40.00 Bohr mag/cell
     absolute magnetization    =    40.00 Bohr mag/cell

     convergence has been achieved in  12 iterations

     Forces acting on atoms (Ry/au):


     negative rho (up, down):  0.000E+00 2.799E-03
     atom    1 type  1   force =   0.75088910E-02 -0.16031158E-01 -0.89048566E-02
     atom    2 type  2   force =  -0.91683985E-02  0.10752666E-01  0.10772357E-01
     atom    3 type  1   force =  -0.30590211E-02  0.26195508E-02  0.14930276E-01
     atom    4 type  2   force =   0.60720735E-02  0.24561202E-02 -0.92856411E-02
     atom    5 type  1   force =   0.72766893E-02 -0.63654710E-02 -0.50193909E-02
     atom    6 type  2   force =  -0.69396411E-03  0.14839589E-02  0.86537008E-02
     atom    7 type  1   force =  -0.15200245E-01  0.19505135E-01 -0.11512816E-02
     atom    8 type  2   force =   0.12021858E-01  0.24725876E-02 -0.24801331E-02
     atom    9 type  1   force =   0.14390688E-01 -0.80976966E-02 -0.17877505E-01
     atom   10 type  2   force =  -0.18214558E-02  0.64573097E-02  0.38651117E-02
     atom   11 type  1   force =   0.43465061E-02  0.56904725E-02  0.45982888E-02
     atom   12 type  2   force =   0.21242520E-02 -0.66125438E-02  0.23494680E-02
     atom   13 type  1   force =  -0.25376476E-02 -0.42571515E-02 -0.18071917E-01
     atom   14 type  2   force =  -0.58378397E-03 -0.12765528E-01  0.52507788E-02
     atom   15 type  1   force =  -0.17644205E-01  0.92658504E-02  0.32124108E-02
     atom   16 type  2   force =  -0.30322363E-02 -0.65741027E-02  0.91583338E-02

     Total force =     0.062504     Total SCF correction =     0.000744


     entering subroutine stress ...


     negative rho (up, down):  0.000E+00 2.799E-03
          total   stress  (Ry/bohr**3)                   (kbar)     P=    2.76
   0.0000100807   0.0000023226   0.0000033399          1.48      0.34      0.49
   0.0000023226   0.0000157226  -0.0000012355          0.34      2.31     -0.18
   0.0000033399  -0.0000012355   0.0000304413          0.49     -0.18      4.48


     Writing output data file mno_fm.scf.in.super.222.033.save

     init_run     :     62.40s CPU     59.32s WALL (       1 calls)
     electrons    :   2086.21s CPU   2091.39s WALL (       1 calls)
     forces       :    150.81s CPU    167.15s WALL (       1 calls)
     stress       :    475.15s CPU    516.48s WALL (       1 calls)

     Called by init_run:
     wfcinit      :     61.37s CPU     58.25s WALL (       1 calls)
     potinit      :      0.21s CPU      0.22s WALL (       1 calls)

     Called by electrons:
     c_bands      :   1874.35s CPU   1885.87s WALL (      12 calls)
     sum_band     :    205.73s CPU    199.36s WALL (      12 calls)
     v_of_rho     :      1.70s CPU      1.72s WALL (      13 calls)
     newd         :      3.83s CPU      3.83s WALL (      13 calls)
     mix_rho      :      0.82s CPU      0.82s WALL (      12 calls)

     Called by c_bands:
     init_us_2    :      7.26s CPU      7.47s WALL (    2736 calls)
     cegterg      :   1842.46s CPU   1852.97s WALL (     864 calls)

     Called by *egterg:
     h_psi        :    905.45s CPU    885.10s WALL (    2786 calls)
     s_psi        :    138.72s CPU    102.66s WALL (    3578 calls)
     g_psi        :      1.29s CPU      1.30s WALL (    1850 calls)
     cdiaghg      :    467.63s CPU    562.01s WALL (    2714 calls)

     Called by h_psi:
     add_vuspsi   :    100.65s CPU     75.77s WALL (    2786 calls)
     vhpsi        :     81.81s CPU     96.53s WALL (    2786 calls)

     General routines
     calbec       :    742.35s CPU    787.31s WALL (   51076 calls)
     fft          :      1.39s CPU      1.40s WALL (     437 calls)
     ffts         :      0.50s CPU      0.46s WALL (     299 calls)
     fftw         :    670.62s CPU    676.16s WALL (  615446 calls)
     interpolate  :      0.20s CPU      0.20s WALL (      50 calls)
     davcio       :      0.00s CPU      0.03s WALL (      72 calls)

     Parallel routines
     fft_scatter  :    232.22s CPU    235.64s WALL (  616182 calls)
     Hubbard U routines
     new_ns       :     15.44s CPU     16.73s WALL (      12 calls)
     vhpsi        :     81.81s CPU     96.53s WALL (    2786 calls)
     force_hub    :    132.14s CPU    151.33s WALL (       1 calls)
     stres_hub    :    434.92s CPU    476.87s WALL (       1 calls)

     PWSCF        : 46m20.51s CPU    47m21.56s WALL


   This run was terminated on:  23:27:59  16Aug2017            

=------------------------------------------------------------------------------=
   JOB DONE.
=------------------------------------------------------------------------------=
