
     Program PWSCF v.5.1 starts on 14Aug2017 at 14:18:52 

     This program is part of the open-source Quantum ESPRESSO suite
     for quantum simulation of materials; please cite
         "P. Giannozzi et al., J. Phys.:Condens. Matter 21 395502 (2009);
          URL http://www.quantum-espresso.org", 
     in publications or presentations arising from this work. More details at
     http://www.quantum-espresso.org/quote

     Parallel version (MPI), running on     8 processors
     R & G space division:  proc/nbgrp/npool/nimage =       8
     Reading input from /tmp/mno_afmG.scf.in.19484/mno_afmG.scf.in.t
Warning: card &IONS ignored
Warning: card   ION_DYNAMICS='BFGS', ignored
Warning: card / ignored
Warning: card &CELL ignored
Warning: card  CELL_DYNAMICS = 'BFGS' ignored
Warning: card / ignored

     Current dimensions of program PWSCF are:
     Max number of different atomic species (ntypx) = 10
     Max number of k-points (npk) =  40000
     Max angular momentum in pseudopotentials (lmaxx) =  3

     Subspace diagonalization in iterative solution of the eigenvalue problem:
     a serial algorithm will be used


     Parallelization info
     --------------------
     sticks:   dense  smooth     PW     G-vecs:    dense   smooth      PW
     Min         115      94     32                 1793     1316     257
     Max         116      95     33                 1794     1327     258
     Sum         927     759    257                14347    10563    2057

     Generating pointlists ...
     new r_m :   0.1708 (alat units)  1.7370 (a.u.) for type    1
     new r_m :   0.1708 (alat units)  1.7370 (a.u.) for type    2
     new r_m :   0.1708 (alat units)  1.7370 (a.u.) for type    3


     bravais-lattice index     =            0
     lattice parameter (alat)  =    10.169455231  a.u.
     unit-cell volume          =     298.5399 (a.u.)^3
     number of atoms/cell      =            4
     number of atomic types    =            3
     number of electrons       =        42.00
     number of Kohn-Sham states=           25
     kinetic-energy cutoff     =      41.0000  Ry
     charge density cutoff     =     200.0000  Ry
     convergence threshold     =      1.0E-08
     mixing beta               =       0.3000
     number of iterations used =            8  local-TF  mixing
     Exchange-correlation      = SLA  PW   PSX  PSC ( 1  4 10  8 0)
     A smooth kinetic-energy cutoff is imposed at      40.0000 Ry
     height of the smooth step-function =             800.0000 Ry
     width of the smooth step-function  =               1.0000 Ry


     celldm(1)=  10.169455  celldm(2)=   0.000000  celldm(3)=   0.000000
     celldm(4)=   0.000000  celldm(5)=   0.000000  celldm(6)=   0.000000

     crystal axes: (cart. coord. in units of alat)
               a(1) = (   0.821117968384   0.403587216099   0.403587216099 )  
               a(2) = (   0.403587216099   0.821117968384   0.403587216099 )  
               a(3) = (   0.403587216099   0.403587216099   0.821117968384 )  

     reciprocal axes: (cart. coord. in units 2 pi/alat)
               b(1) = (  1.801402 -0.593631 -0.593631 )  
               b(2) = ( -0.593631  1.801402 -0.593631 )  
               b(3) = ( -0.593631 -0.593631  1.801402 )  


     PseudoPot. # 1 for Mn read from file:
     /users/kfg/psuedo/gbrv_1.5/mn.pbesol.UPF
     MD5 check sum: 0716d5f563e6e95a34f9080f4c78c109
     Pseudo is Ultrasoft + core correction, Zval = 15.0
     Generated by new atomic code, or converted to UPF format
     Using radial grid of  859 points,  6 beta functions with: 
                l(1) =   0
                l(2) =   0
                l(3) =   1
                l(4) =   1
                l(5) =   2
                l(6) =   2
     Q(r) pseudized with  8 coefficients,  rinner =    0.950   0.950   0.950
                                                       0.950   0.950

     PseudoPot. # 2 for Mn read from file:
     /users/kfg/psuedo/gbrv_1.5/mn.pbesol.UPF
     MD5 check sum: 0716d5f563e6e95a34f9080f4c78c109
     Pseudo is Ultrasoft + core correction, Zval = 15.0
     Generated by new atomic code, or converted to UPF format
     Using radial grid of  859 points,  6 beta functions with: 
                l(1) =   0
                l(2) =   0
                l(3) =   1
                l(4) =   1
                l(5) =   2
                l(6) =   2
     Q(r) pseudized with  8 coefficients,  rinner =    0.950   0.950   0.950
                                                       0.950   0.950

     PseudoPot. # 3 for O  read from file:
     /users/kfg/psuedo/gbrv_1.5/o.pbesol.UPF
     MD5 check sum: 501638753501ef6325af9037351f7734
     Pseudo is Ultrasoft + core correction, Zval =  6.0
     Generated by new atomic code, or converted to UPF format
     Using radial grid of  737 points,  5 beta functions with: 
                l(1) =   0
                l(2) =   0
                l(3) =   1
                l(4) =   1
                l(5) =   2
     Q(r) pseudized with  8 coefficients,  rinner =    0.900   0.900   0.900
                                                       0.900   0.900

     atomic species   valence    mass     pseudopotential
        Mn            15.00    54.90000     Mn( 1.00)
        Fe            15.00    54.90000     Mn( 1.00)
        O              6.00    15.99900     O ( 1.00)

     Starting magnetic structure 
     atomic species   magnetization
        Mn           1.000
        Fe          -1.000
        O            0.000


     Simplified LDA+U calculation (l_max = 2) with parameters (eV):
     atomic species    L          U    alpha       J0     beta
        Mn             2     3.0000   0.0000   0.0000   0.0000
        Fe             2     3.0000   0.0000   0.0000   0.0000



     12 Sym. Ops., with inversion, found



   Cartesian axes

     site n.     atom                  positions (alat units)
         1           Mn  tau(   1) = (    0.00000000000    0.00000000000    0.00000000000  )
         2           O   tau(   2) = (    0.40707310177    0.40707310177    0.40707310177  )
         3           Fe  tau(   3) = (    0.81414620029    0.81414620029    0.81414620029  )
         4           O   tau(   4) = (    1.22121929881    1.22121929881    1.22121929881  )

     number of k points=    64  gaussian smearing, width (Ry)=  0.0100
                       cart. coord. in units 2pi/alat
        k(    1) = (   0.0000000   0.0000000   0.0000000), wk =   0.0046296
        k(    2) = (  -0.0989385  -0.0989385   0.3002337), wk =   0.0277778
        k(    3) = (  -0.1978770  -0.1978770   0.6004674), wk =   0.0277778
        k(    4) = (   0.2968155   0.2968155  -0.9007011), wk =   0.0138889
        k(    5) = (  -0.1978770   0.2012952   0.2012952), wk =   0.0277778
        k(    6) = (  -0.2968155   0.1023567   0.5015289), wk =   0.0555556
        k(    7) = (   0.1978770   0.5970492  -0.9996396), wk =   0.0555556
        k(    8) = (   0.0989385   0.4981107  -0.6994059), wk =   0.0555556
        k(    9) = (  -0.0000000   0.3991722  -0.3991722), wk =   0.0277778
        k(   10) = (  -0.3957540   0.4025904   0.4025904), wk =   0.0277778
        k(   11) = (   0.0989385   0.8972829  -1.0985781), wk =   0.0555556
        k(   12) = (   0.0000000   0.7983444  -0.7983444), wk =   0.0277778
        k(   13) = (   0.5936310  -0.6038856  -0.6038856), wk =   0.0138889
        k(   14) = (   0.1023567   0.1023567   0.1023567), wk =   0.0092593
        k(   15) = (   0.0034182   0.0034182   0.4025904), wk =   0.0277778
        k(   16) = (   0.4981107   0.4981107  -1.0985781), wk =   0.0277778
        k(   17) = (   0.3991722   0.3991722  -0.7983444), wk =   0.0277778
        k(   18) = (   0.3002337   0.3002337  -0.4981107), wk =   0.0277778
        k(   19) = (  -0.0955203   0.3036519   0.3036519), wk =   0.0277778
        k(   20) = (   0.3991722   0.7983444  -1.1975166), wk =   0.0555556
        k(   21) = (   0.3002337   0.6994059  -0.8972829), wk =   0.0555556
        k(   22) = (   0.2012952   0.6004674  -0.5970492), wk =   0.0555556
        k(   23) = (   0.8938647  -0.7028241  -0.7028241), wk =   0.0277778
        k(   24) = (   0.7949262  -0.8017626  -0.4025904), wk =   0.0555556
        k(   25) = (   0.6959877  -0.9007011  -0.1023567), wk =   0.0277778
        k(   26) = (   0.6959877  -0.5015289  -0.5015289), wk =   0.0277778
        k(   27) = (   0.2047134   0.2047134   0.2047134), wk =   0.0092593
        k(   28) = (   0.6994059   0.6994059  -1.2964551), wk =   0.0277778
        k(   29) = (   0.6004674   0.6004674  -0.9962214), wk =   0.0277778
        k(   30) = (   1.1940984  -0.8017626  -0.8017626), wk =   0.0277778
        k(   31) = (   1.0951599  -0.9007011  -0.5015289), wk =   0.0277778
        k(   32) = (  -0.3070702  -0.3070702  -0.3070702), wk =   0.0046296
        k(   33) = (   0.0000000   0.0000000   0.0000000), wk =   0.0046296
        k(   34) = (  -0.0989385  -0.0989385   0.3002337), wk =   0.0277778
        k(   35) = (  -0.1978770  -0.1978770   0.6004674), wk =   0.0277778
        k(   36) = (   0.2968155   0.2968155  -0.9007011), wk =   0.0138889
        k(   37) = (  -0.1978770   0.2012952   0.2012952), wk =   0.0277778
        k(   38) = (  -0.2968155   0.1023567   0.5015289), wk =   0.0555556
        k(   39) = (   0.1978770   0.5970492  -0.9996396), wk =   0.0555556
        k(   40) = (   0.0989385   0.4981107  -0.6994059), wk =   0.0555556
        k(   41) = (  -0.0000000   0.3991722  -0.3991722), wk =   0.0277778
        k(   42) = (  -0.3957540   0.4025904   0.4025904), wk =   0.0277778
        k(   43) = (   0.0989385   0.8972829  -1.0985781), wk =   0.0555556
        k(   44) = (   0.0000000   0.7983444  -0.7983444), wk =   0.0277778
        k(   45) = (   0.5936310  -0.6038856  -0.6038856), wk =   0.0138889
        k(   46) = (   0.1023567   0.1023567   0.1023567), wk =   0.0092593
        k(   47) = (   0.0034182   0.0034182   0.4025904), wk =   0.0277778
        k(   48) = (   0.4981107   0.4981107  -1.0985781), wk =   0.0277778
        k(   49) = (   0.3991722   0.3991722  -0.7983444), wk =   0.0277778
        k(   50) = (   0.3002337   0.3002337  -0.4981107), wk =   0.0277778
        k(   51) = (  -0.0955203   0.3036519   0.3036519), wk =   0.0277778
        k(   52) = (   0.3991722   0.7983444  -1.1975166), wk =   0.0555556
        k(   53) = (   0.3002337   0.6994059  -0.8972829), wk =   0.0555556
        k(   54) = (   0.2012952   0.6004674  -0.5970492), wk =   0.0555556
        k(   55) = (   0.8938647  -0.7028241  -0.7028241), wk =   0.0277778
        k(   56) = (   0.7949262  -0.8017626  -0.4025904), wk =   0.0555556
        k(   57) = (   0.6959877  -0.9007011  -0.1023567), wk =   0.0277778
        k(   58) = (   0.6959877  -0.5015289  -0.5015289), wk =   0.0277778
        k(   59) = (   0.2047134   0.2047134   0.2047134), wk =   0.0092593
        k(   60) = (   0.6994059   0.6994059  -1.2964551), wk =   0.0277778
        k(   61) = (   0.6004674   0.6004674  -0.9962214), wk =   0.0277778
        k(   62) = (   1.1940984  -0.8017626  -0.8017626), wk =   0.0277778
        k(   63) = (   1.0951599  -0.9007011  -0.5015289), wk =   0.0277778
        k(   64) = (  -0.3070702  -0.3070702  -0.3070702), wk =   0.0046296

     Dense  grid:    14347 G-vectors     FFT dimensions: (  45,  45,  45)

     Smooth grid:    10563 G-vectors     FFT dimensions: (  45,  45,  45)

     Largest allocated arrays     est. size (Mb)     dimensions
        Kohn-Sham Wavefunctions         0.07 Mb     (     171,   25)
        Atomic Hubbard wavefuncts       0.03 Mb     (     171,   10)
        NL pseudopotentials             0.16 Mb     (     171,   62)
        Each V/rho on FFT grid          0.37 Mb     (   12150,   2)
        Each G-vector array             0.01 Mb     (    1794)
        G-vector shells                 0.01 Mb     (     899)
     Largest temporary arrays     est. size (Mb)     dimensions
        Auxiliary wavefunctions         0.26 Mb     (     171,  100)
        Each subspace H/S matrix        0.15 Mb     (     100,  100)
        Each <psi_i|beta_j> matrix      0.02 Mb     (      62,   25)
        Arrays for rho mixing           1.48 Mb     (   12150,    8)

     Check: negative/imaginary core charge=   -0.000060    0.000000

     Initial potential from superposition of free atoms

     starting charge   40.99984, renormalised to   42.00000
     Number of +U iterations with fixed ns =  0
     Starting occupations:
 --- enter write_ns ---
 LDA+U parameters:
U( 1)     =  3.00000000
alpha( 1) =  0.00000000
U( 2)     =  3.00000000
alpha( 2) =  0.00000000
atom    1   Tr[ns(na)] (up, down, total) =   5.00000  0.00000  5.00000
   spin  1
    eigenvalues: 
  1.000  1.000  1.000  1.000  1.000
    eigenvectors:
  1.000  0.000  0.000  0.000  0.000
  0.000  1.000  0.000  0.000  0.000
  0.000  0.000  1.000  0.000  0.000
  0.000  0.000  0.000  1.000  0.000
  0.000  0.000  0.000  0.000  1.000
    occupations:
  1.000  0.000  0.000  0.000  0.000
  0.000  1.000  0.000  0.000  0.000
  0.000  0.000  1.000  0.000  0.000
  0.000  0.000  0.000  1.000  0.000
  0.000  0.000  0.000  0.000  1.000
   spin  2
    eigenvalues: 
  0.000  0.000  0.000  0.000  0.000
    eigenvectors:
  1.000  0.000  0.000  0.000  0.000
  0.000  1.000  0.000  0.000  0.000
  0.000  0.000  1.000  0.000  0.000
  0.000  0.000  0.000  1.000  0.000
  0.000  0.000  0.000  0.000  1.000
    occupations:
  0.000  0.000  0.000  0.000  0.000
  0.000  0.000  0.000  0.000  0.000
  0.000  0.000  0.000  0.000  0.000
  0.000  0.000  0.000  0.000  0.000
  0.000  0.000  0.000  0.000  0.000
atomic mag. moment =     5.000000
atom    3   Tr[ns(na)] (up, down, total) =   0.00000  5.00000  5.00000
   spin  1
    eigenvalues: 
  0.000  0.000  0.000  0.000  0.000
    eigenvectors:
  1.000  0.000  0.000  0.000  0.000
  0.000  1.000  0.000  0.000  0.000
  0.000  0.000  1.000  0.000  0.000
  0.000  0.000  0.000  1.000  0.000
  0.000  0.000  0.000  0.000  1.000
    occupations:
  0.000  0.000  0.000  0.000  0.000
  0.000  0.000  0.000  0.000  0.000
  0.000  0.000  0.000  0.000  0.000
  0.000  0.000  0.000  0.000  0.000
  0.000  0.000  0.000  0.000  0.000
   spin  2
    eigenvalues: 
  1.000  1.000  1.000  1.000  1.000
    eigenvectors:
  1.000  0.000  0.000  0.000  0.000
  0.000  1.000  0.000  0.000  0.000
  0.000  0.000  1.000  0.000  0.000
  0.000  0.000  0.000  1.000  0.000
  0.000  0.000  0.000  0.000  1.000
    occupations:
  1.000  0.000  0.000  0.000  0.000
  0.000  1.000  0.000  0.000  0.000
  0.000  0.000  1.000  0.000  0.000
  0.000  0.000  0.000  1.000  0.000
  0.000  0.000  0.000  0.000  1.000
atomic mag. moment =    -5.000000
N of occupied +U levels =   10.000000
 --- exit write_ns ---
 Atomic wfc used for LDA+U Projector are NOT orthogonalized
     Starting wfc are   34 randomized atomic wfcs

     total cpu time spent up to now is        4.2 secs

     per-process dynamical memory:    18.2 Mb

     Self-consistent Calculation

     iteration #  1     ecut=    41.00 Ry     beta=0.30
     Davidson diagonalization with overlap
     ethr =  1.00E-02,  avg # of iterations =  3.9
 --- enter write_ns ---
 LDA+U parameters:
U( 1)     =  3.00000000
alpha( 1) =  0.00000000
U( 2)     =  3.00000000
alpha( 2) =  0.00000000
atom    1   Tr[ns(na)] (up, down, total) =   4.99455  0.20755  5.20210
   spin  1
    eigenvalues: 
  0.998  0.998  0.999  1.000  1.000
    eigenvectors:
  0.000  0.000  0.000  0.066  0.934
  0.383  0.284  0.333  0.000  0.000
  0.023  0.643  0.333  0.000  0.000
  0.000  0.000  0.000  0.934  0.066
  0.594  0.072  0.333  0.000  0.000
    occupations:
  1.000 -0.000 -0.000  0.000 -0.000
 -0.000  0.998  0.000 -0.000 -0.000
 -0.000  0.000  0.998  0.000 -0.000
  0.000 -0.000  0.000  1.000 -0.000
 -0.000 -0.000 -0.000 -0.000  0.998
   spin  2
    eigenvalues: 
  0.025  0.025  0.025  0.066  0.066
    eigenvectors:
  0.000  0.000  0.000  0.054  0.946
  0.666  0.000  0.333  0.000  0.000
  0.152  0.515  0.333  0.000  0.000
  0.000  0.000  0.000  0.946  0.054
  0.182  0.485  0.333  0.000  0.000
    occupations:
  0.066 -0.000 -0.000  0.000 -0.000
 -0.000  0.025  0.000 -0.000 -0.000
 -0.000  0.000  0.025  0.000 -0.000
  0.000 -0.000  0.000  0.066 -0.000
 -0.000 -0.000 -0.000 -0.000  0.025
atomic mag. moment =     4.787006
atom    3   Tr[ns(na)] (up, down, total) =   0.20767  4.99451  5.20217
   spin  1
    eigenvalues: 
  0.025  0.025  0.025  0.066  0.066
    eigenvectors:
  0.000  0.000  0.000  0.040  0.960
  0.524  0.143  0.333  0.000  0.000
  0.001  0.665  0.333  0.000  0.000
  0.000  0.000  0.000  0.960  0.040
  0.475  0.192  0.333  0.000  0.000
    occupations:
  0.066 -0.000 -0.000  0.000 -0.000
 -0.000  0.025  0.000 -0.000 -0.000
 -0.000  0.000  0.025  0.000 -0.000
  0.000 -0.000  0.000  0.066 -0.000
 -0.000 -0.000 -0.000 -0.000  0.025
   spin  2
    eigenvalues: 
  0.998  0.998  0.999  1.000  1.000
    eigenvectors:
  0.000  0.000  0.000  0.057  0.943
  0.431  0.235  0.333  0.000  0.000
  0.008  0.658  0.333  0.000  0.000
  0.000  0.000  0.000  0.943  0.057
  0.560  0.106  0.333  0.000  0.000
    occupations:
  1.000 -0.000 -0.000  0.000 -0.000
 -0.000  0.998  0.000 -0.000 -0.000
 -0.000  0.000  0.998  0.000 -0.000
  0.000 -0.000  0.000  1.000 -0.000
 -0.000 -0.000 -0.000 -0.000  0.998
atomic mag. moment =    -4.786842
N of occupied +U levels =   10.404271
 --- exit write_ns ---

     negative rho (up, down):  0.000E+00 9.737E-05

     Magnetic moment per site:
     atom:    1    charge:   12.8170    magn:   10.2342    constr:    0.0000
     atom:    2    charge:    5.7334    magn:    0.0000    constr:    0.0000
     atom:    3    charge:   12.8157    magn:  -10.2332    constr:    0.0000
     atom:    4    charge:    5.7334    magn:    0.0000    constr:    0.0000

     total cpu time spent up to now is       12.6 secs

     total energy              =    -484.47757306 Ry
     Harris-Foulkes estimate   =    -480.45254437 Ry
     estimated scf accuracy    <       6.33967185 Ry

     total magnetization       =    -0.00 Bohr mag/cell
     absolute magnetization    =    10.16 Bohr mag/cell

     iteration #  2     ecut=    41.00 Ry     beta=0.30
     Davidson diagonalization with overlap
     ethr =  1.00E-02,  avg # of iterations =  1.1

     negative rho (up, down):  0.000E+00 3.533E-04

     Magnetic moment per site:
     atom:    1    charge:   12.6982    magn:    4.4966    constr:    0.0000
     atom:    2    charge:    5.9655    magn:   -0.0002    constr:    0.0000
     atom:    3    charge:   12.6969    magn:   -4.4956    constr:    0.0000
     atom:    4    charge:    5.9655    magn:   -0.0002    constr:    0.0000

     total cpu time spent up to now is       18.6 secs

     total energy              =    -486.39813467 Ry
     Harris-Foulkes estimate   =    -484.54448775 Ry
     estimated scf accuracy    <       3.15236615 Ry

     total magnetization       =     0.00 Bohr mag/cell
     absolute magnetization    =    10.05 Bohr mag/cell

     iteration #  3     ecut=    41.00 Ry     beta=0.30
     Davidson diagonalization with overlap
     ethr =  7.51E-03,  avg # of iterations =  3.3

     negative rho (up, down):  0.000E+00 3.714E-04

     Magnetic moment per site:
     atom:    1    charge:   12.6218    magn:    4.2907    constr:    0.0000
     atom:    2    charge:    5.9380    magn:   -0.0000    constr:    0.0000
     atom:    3    charge:   12.6205    magn:   -4.2905    constr:    0.0000
     atom:    4    charge:    5.9380    magn:   -0.0000    constr:    0.0000

     total cpu time spent up to now is       27.2 secs

     total energy              =    -486.53827810 Ry
     Harris-Foulkes estimate   =    -486.57494774 Ry
     estimated scf accuracy    <       0.10357503 Ry

     total magnetization       =    -0.00 Bohr mag/cell
     absolute magnetization    =     9.48 Bohr mag/cell

     iteration #  4     ecut=    41.00 Ry     beta=0.30
     Davidson diagonalization with overlap
     ethr =  2.47E-04,  avg # of iterations =  4.0

     negative rho (up, down):  0.000E+00 3.787E-04

     Magnetic moment per site:
     atom:    1    charge:   12.6156    magn:    4.1719    constr:    0.0000
     atom:    2    charge:    5.9501    magn:   -0.0000    constr:    0.0000
     atom:    3    charge:   12.6142    magn:   -4.1716    constr:    0.0000
     atom:    4    charge:    5.9501    magn:   -0.0000    constr:    0.0000

     total cpu time spent up to now is       38.4 secs

     total energy              =    -486.56492192 Ry
     Harris-Foulkes estimate   =    -486.56706849 Ry
     estimated scf accuracy    <       0.00891966 Ry

     total magnetization       =     0.00 Bohr mag/cell
     absolute magnetization    =     9.44 Bohr mag/cell

     iteration #  5     ecut=    41.00 Ry     beta=0.30
     Davidson diagonalization with overlap
     ethr =  2.12E-05,  avg # of iterations =  5.0

     negative rho (up, down):  0.000E+00 3.811E-04

     Magnetic moment per site:
     atom:    1    charge:   12.5902    magn:    4.2089    constr:    0.0000
     atom:    2    charge:    5.9556    magn:   -0.0001    constr:    0.0000
     atom:    3    charge:   12.5890    magn:   -4.2083    constr:    0.0000
     atom:    4    charge:    5.9556    magn:   -0.0001    constr:    0.0000

     total cpu time spent up to now is       49.6 secs

     total energy              =    -486.56591453 Ry
     Harris-Foulkes estimate   =    -486.56594058 Ry
     estimated scf accuracy    <       0.00207962 Ry

     total magnetization       =     0.00 Bohr mag/cell
     absolute magnetization    =     9.41 Bohr mag/cell

     iteration #  6     ecut=    41.00 Ry     beta=0.30
     Davidson diagonalization with overlap
     ethr =  4.95E-06,  avg # of iterations =  3.8

     negative rho (up, down):  0.000E+00 3.802E-04

     Magnetic moment per site:
     atom:    1    charge:   12.5834    magn:    4.2202    constr:    0.0000
     atom:    2    charge:    5.9566    magn:   -0.0001    constr:    0.0000
     atom:    3    charge:   12.5822    magn:   -4.2195    constr:    0.0000
     atom:    4    charge:    5.9566    magn:   -0.0001    constr:    0.0000

     total cpu time spent up to now is       60.1 secs

     total energy              =    -486.56624085 Ry
     Harris-Foulkes estimate   =    -486.56623771 Ry
     estimated scf accuracy    <       0.00011974 Ry

     total magnetization       =    -0.00 Bohr mag/cell
     absolute magnetization    =     9.39 Bohr mag/cell

     iteration #  7     ecut=    41.00 Ry     beta=0.30
     Davidson diagonalization with overlap
     ethr =  2.85E-07,  avg # of iterations =  2.8

     negative rho (up, down):  0.000E+00 3.787E-04

     Magnetic moment per site:
     atom:    1    charge:   12.5824    magn:    4.2082    constr:    0.0000
     atom:    2    charge:    5.9563    magn:   -0.0000    constr:    0.0000
     atom:    3    charge:   12.5812    magn:   -4.2075    constr:    0.0000
     atom:    4    charge:    5.9563    magn:   -0.0000    constr:    0.0000

     total cpu time spent up to now is       69.0 secs

     total energy              =    -486.56625566 Ry
     Harris-Foulkes estimate   =    -486.56625696 Ry
     estimated scf accuracy    <       0.00003037 Ry

     total magnetization       =    -0.00 Bohr mag/cell
     absolute magnetization    =     9.38 Bohr mag/cell

     iteration #  8     ecut=    41.00 Ry     beta=0.30
     Davidson diagonalization with overlap
     ethr =  7.23E-08,  avg # of iterations =  2.1

     negative rho (up, down):  0.000E+00 3.768E-04

     Magnetic moment per site:
     atom:    1    charge:   12.5825    magn:    4.2078    constr:    0.0000
     atom:    2    charge:    5.9559    magn:    0.0000    constr:    0.0000
     atom:    3    charge:   12.5814    magn:   -4.2071    constr:    0.0000
     atom:    4    charge:    5.9559    magn:    0.0000    constr:    0.0000

     total cpu time spent up to now is       77.4 secs

     total energy              =    -486.56626015 Ry
     Harris-Foulkes estimate   =    -486.56625983 Ry
     estimated scf accuracy    <       0.00000067 Ry

     total magnetization       =     0.00 Bohr mag/cell
     absolute magnetization    =     9.38 Bohr mag/cell

     iteration #  9     ecut=    41.00 Ry     beta=0.30
     Davidson diagonalization with overlap
     ethr =  1.60E-09,  avg # of iterations =  3.3

     negative rho (up, down):  0.000E+00 3.762E-04

     Magnetic moment per site:
     atom:    1    charge:   12.5823    magn:    4.2078    constr:    0.0000
     atom:    2    charge:    5.9558    magn:    0.0000    constr:    0.0000
     atom:    3    charge:   12.5811    magn:   -4.2072    constr:    0.0000
     atom:    4    charge:    5.9558    magn:    0.0000    constr:    0.0000

     total cpu time spent up to now is       89.1 secs

     total energy              =    -486.56626046 Ry
     Harris-Foulkes estimate   =    -486.56626051 Ry
     estimated scf accuracy    <       0.00000046 Ry

     total magnetization       =    -0.00 Bohr mag/cell
     absolute magnetization    =     9.38 Bohr mag/cell

     iteration # 10     ecut=    41.00 Ry     beta=0.30
     Davidson diagonalization with overlap
     ethr =  1.10E-09,  avg # of iterations =  3.0

     negative rho (up, down):  0.000E+00 3.762E-04

     Magnetic moment per site:
     atom:    1    charge:   12.5823    magn:    4.2079    constr:    0.0000
     atom:    2    charge:    5.9558    magn:    0.0000    constr:    0.0000
     atom:    3    charge:   12.5811    magn:   -4.2072    constr:    0.0000
     atom:    4    charge:    5.9558    magn:    0.0000    constr:    0.0000

     total cpu time spent up to now is       99.2 secs

     End of self-consistent calculation
 --- enter write_ns ---
 LDA+U parameters:
U( 1)     =  3.00000000
alpha( 1) =  0.00000000
U( 2)     =  3.00000000
alpha( 2) =  0.00000000
atom    1   Tr[ns(na)] (up, down, total) =   4.98330  0.51855  5.50185
   spin  1
    eigenvalues: 
  0.996  0.996  0.997  0.997  0.997
    eigenvectors:
  0.000  0.759  0.000  0.187  0.054
  0.121  0.040  0.333  0.000  0.505
  0.120  0.040  0.333  0.367  0.139
  0.759  0.000  0.000  0.054  0.187
  0.000  0.161  0.333  0.392  0.114
    occupations:
  0.996 -0.000 -0.000  0.000 -0.000
 -0.000  0.997 -0.000 -0.000  0.000
 -0.000 -0.000  0.997  0.000  0.000
  0.000 -0.000  0.000  0.996 -0.000
 -0.000  0.000  0.000 -0.000  0.997
   spin  2
    eigenvalues: 
  0.058  0.060  0.060  0.171  0.171
    eigenvectors:
  0.000  0.001  0.000  0.041  0.958
  0.333  0.558  0.108  0.001  0.000
  0.333  0.008  0.658  0.001  0.000
  0.000  0.000  0.001  0.958  0.041
  0.333  0.433  0.233  0.000  0.001
    occupations:
  0.171  0.002  0.002  0.000  0.003
  0.002  0.059 -0.001  0.003  0.001
  0.002 -0.001  0.059 -0.003  0.001
  0.000  0.003 -0.003  0.171 -0.000
  0.003  0.001  0.001 -0.000  0.059
atomic mag. moment =     4.464752
atom    3   Tr[ns(na)] (up, down, total) =   0.51855  4.98330  5.50185
   spin  1
    eigenvalues: 
  0.058  0.060  0.060  0.171  0.171
    eigenvectors:
  0.000  0.001  0.000  0.040  0.959
  0.333  0.437  0.229  0.001  0.000
  0.333  0.007  0.659  0.001  0.000
  0.000  0.000  0.001  0.959  0.040
  0.333  0.555  0.111  0.000  0.001
    occupations:
  0.171  0.002  0.002  0.000  0.003
  0.002  0.059 -0.001  0.003  0.001
  0.002 -0.001  0.059 -0.003  0.001
  0.000  0.003 -0.003  0.171 -0.000
  0.003  0.001  0.001 -0.000  0.059
   spin  2
    eigenvalues: 
  0.996  0.996  0.997  0.997  0.997
    eigenvectors:
  0.000  0.759  0.000  0.199  0.042
  0.120  0.041  0.333  0.004  0.502
  0.121  0.040  0.333  0.338  0.168
  0.759  0.000  0.000  0.042  0.199
  0.000  0.161  0.333  0.417  0.089
    occupations:
  0.996 -0.000 -0.000  0.000 -0.000
 -0.000  0.997 -0.000 -0.000  0.000
 -0.000 -0.000  0.997  0.000  0.000
  0.000 -0.000  0.000  0.996 -0.000
 -0.000  0.000  0.000 -0.000  0.997
atomic mag. moment =    -4.464755
N of occupied +U levels =   11.003696
 --- exit write_ns ---

 ------ SPIN UP ------------


          k = 0.0000 0.0000 0.0000 (  1303 PWs)   bands (ev):

   -68.5463 -63.4251 -37.4390 -37.3899 -37.3899 -32.4311 -32.3809 -32.3809
    -6.6113  -5.5495   5.0249   6.7560   6.7560   8.6739   8.6739   9.3444
     9.7263   9.7263   9.8791  11.1178  11.1178  13.1309  15.7659  15.7659
    15.7826

          k =-0.0989-0.0989 0.3002 (  1317 PWs)   bands (ev):

   -68.5451 -63.4241 -37.4370 -37.4007 -37.3925 -32.4293 -32.3948 -32.3842
    -6.4064  -5.5675   5.4383   6.6723   6.8895   7.7329   8.3426   8.9338
     9.2161   9.7703   9.8557  11.1916  11.2799  14.5034  15.5014  15.8539
    15.9312

          k =-0.1979-0.1979 0.6005 (  1327 PWs)   bands (ev):

   -68.5441 -63.4209 -37.4331 -37.4214 -37.3976 -32.4262 -32.4230 -32.3911
    -5.9930  -5.5708   6.0171   6.1818   6.8661   6.9684   8.1064   8.2701
     8.8416   9.6324   9.9584  11.1453  11.4247  15.0185  15.9217  16.2006
    16.2927

          k = 0.2968 0.2968-0.9007 (  1330 PWs)   bands (ev):

   -68.5443 -63.4187 -37.4316 -37.4307 -37.4001 -32.4383 -32.4238 -32.3946
    -5.8119  -5.5276   5.5550   6.4836   6.5837   6.8915   8.0037   8.5701
     8.6760   9.2990   9.8775  11.2614  11.5520  14.8459  16.3056  16.4730
    16.5885

          k =-0.1979 0.2013 0.2013 (  1320 PWs)   bands (ev):

   -68.5450 -63.4242 -37.4371 -37.4007 -37.3925 -32.4293 -32.3948 -32.3841
    -6.3833  -5.5957   5.5119   6.6509   6.9387   7.7009   8.3085   9.0184
     9.0581   9.6528   9.7059  11.4163  11.4450  14.5751  15.4094  15.8956
    15.9480

          k =-0.2968 0.1024 0.5015 (  1318 PWs)   bands (ev):

   -68.5437 -63.4224 -37.4343 -37.4144 -37.3988 -32.4263 -32.4134 -32.3916
    -6.0583  -5.6163   5.9978   6.4922   6.7476   7.2472   7.5437   8.5219
     9.0817   9.7193   9.9673  11.0162  11.4486  15.4967  15.6666  15.7486
    16.3397

          k = 0.1979 0.5970-0.9996 (  1331 PWs)   bands (ev):

   -68.5430 -63.4199 -37.4314 -37.4266 -37.4063 -32.4303 -32.4233 -32.4011
    -5.7814  -5.5594   5.9121   6.0654   6.6914   7.3711   7.5049   7.8633
     9.2410   9.5062   9.9732  11.0873  11.3343  15.3357  16.0337  16.3246
    16.5324

          k = 0.0989 0.4981-0.6994 (  1329 PWs)   bands (ev):

   -68.5431 -63.4198 -37.4313 -37.4266 -37.4063 -32.4304 -32.4234 -32.4010
    -5.7632  -5.5795   5.7938   6.3620   6.7013   7.2572   7.5217   7.7069
     9.2561   9.5197   9.9779  11.0344  11.4209  15.3146  16.0733  16.2456
    16.5164

          k =-0.0000 0.3992-0.3992 (  1316 PWs)   bands (ev):

   -68.5438 -63.4222 -37.4342 -37.4143 -37.3988 -32.4265 -32.4135 -32.3916
    -6.0893  -5.5830   6.0913   6.5518   6.5791   7.2719   7.5570   8.4021
     9.0968   9.7076  10.0633  10.9434  11.5414  15.4914  15.6638  15.8122
    16.3496

          k =-0.3958 0.4026 0.4026 (  1317 PWs)   bands (ev):

   -68.5432 -63.4221 -37.4339 -37.4218 -37.3978 -32.4252 -32.4222 -32.3908
    -5.8854  -5.6830   5.7298   6.3499   6.9141   7.0355   8.1955   8.2033
     8.9214   9.5576   9.7083  11.5206  11.5652  15.0630  16.0760  16.3036
    16.5931

          k = 0.0989 0.8973-1.0986 (  1326 PWs)   bands (ev):

   -68.5421 -63.4211 -37.4321 -37.4271 -37.4063 -32.4295 -32.4223 -32.4010
    -5.6845  -5.6551   5.4407   6.4283   6.8952   7.1882   7.3063   8.3163
     9.2501   9.5063   9.6899  11.3033  11.4559  15.3877  15.9979  16.3650
    16.5715

          k = 0.0000 0.7983-0.7983 (  1332 PWs)   bands (ev):

   -68.5416 -63.4203 -37.4309 -37.4206 -37.4203 -32.4218 -32.4195 -32.4190
    -5.6133  -5.6131   5.9404   6.3578   6.3911   7.0732   7.3401   7.8205
     9.2250   9.6907   9.8133  11.1494  11.3751  15.9464  15.9469  16.0238
    16.6035

          k = 0.5936-0.6039-0.6039 (  1320 PWs)   bands (ev):

   -68.5426 -63.4209 -37.4329 -37.4316 -37.4003 -32.4369 -32.4218 -32.3942
    -5.7250  -5.6087   4.9751   6.4994   6.8863   7.0300   8.3010   8.6425
     8.8108   9.2973   9.7158  11.3916  11.5061  15.1182  16.4341  16.4981
    16.8874

          k = 0.1024 0.1024 0.1024 (  1324 PWs)   bands (ev):

   -68.5466 -63.4247 -37.4388 -37.3898 -37.3898 -32.4313 -32.3809 -32.3809
    -6.5482  -5.6303   5.2240   6.7957   6.7957   8.6795   8.6795   9.0389
     9.5214   9.5214   9.6698  11.3161  11.3161  13.6329  15.6031  15.7460
    15.7460

          k = 0.0034 0.0034 0.4026 (  1326 PWs)   bands (ev):

   -68.5453 -63.4239 -37.4370 -37.4007 -37.3924 -32.4294 -32.3947 -32.3843
    -6.3264  -5.6625   5.6097   6.7132   6.9119   7.6036   8.3280   8.8262
     9.0414   9.8613  10.1091  10.9101  11.1459  14.7948  15.5785  15.7488
    15.9090

          k = 0.4981 0.4981-1.0986 (  1332 PWs)   bands (ev):

   -68.5439 -63.4211 -37.4333 -37.4215 -37.3976 -32.4258 -32.4229 -32.3911
    -5.9713  -5.5913   5.7118   6.2100   6.9513   7.0991   8.3225   8.3668
     8.7584   9.6704  10.1606  10.7565  11.2849  15.1439  15.7656  16.1716
    16.2952

          k = 0.3992 0.3992-0.7983 (  1326 PWs)   bands (ev):

   -68.5439 -63.4192 -37.4319 -37.4309 -37.4001 -32.4380 -32.4233 -32.3945
    -5.7953  -5.5427   5.3697   6.3843   6.8792   6.8902   8.0357   8.5877
     8.6980   9.2986   9.8543  11.3101  11.5118  14.9017  16.3343  16.4807
    16.5944

          k = 0.3002 0.3002-0.4981 (  1316 PWs)   bands (ev):

   -68.5437 -63.4214 -37.4334 -37.4215 -37.3977 -32.4259 -32.4226 -32.3910
    -5.9610  -5.6057   5.9868   6.3735   6.6800   7.0107   8.0635   8.2066
     8.8978   9.5795   9.7878  11.4901  11.5402  14.9685  16.1127  16.2949
    16.3228

          k =-0.0955 0.3037 0.3037 (  1312 PWs)   bands (ev):

   -68.5452 -63.4240 -37.4371 -37.4007 -37.3925 -32.4292 -32.3947 -32.3842
    -6.2618  -5.7370   5.8012   6.6210   7.0201   7.5883   8.2451   8.6589
     9.0054   9.4972   9.9676  11.1843  11.6159  15.0862  15.3625  15.8432
    15.9418

          k = 0.3992 0.7983-1.1975 (  1321 PWs)   bands (ev):

   -68.5435 -63.4227 -37.4346 -37.4146 -37.3988 -32.4259 -32.4131 -32.3916
    -5.9749  -5.7040   5.8886   6.3721   6.9861   7.2905   7.4992   8.7321
     9.0283   9.6358   9.9776  10.9129  11.4137  15.5284  15.6486  15.7411
    16.3231

          k = 0.3002 0.6994-0.8973 (  1327 PWs)   bands (ev):

   -68.5425 -63.4206 -37.4319 -37.4269 -37.4063 -32.4298 -32.4227 -32.4011
    -5.7696  -5.5687   5.6523   6.1132   6.7478   7.3409   7.5041   8.2116
     9.2045   9.4961   9.8394  11.2053  11.3422  15.3795  16.0036  16.4077
    16.5065

          k = 0.2013 0.6005-0.5970 (  1325 PWs)   bands (ev):

   -68.5426 -63.4204 -37.4317 -37.4268 -37.4063 -32.4299 -32.4229 -32.4010
    -5.7198  -5.6224   5.5857   6.5104   6.8247   7.1375   7.3689   7.9851
     9.2703   9.5205   9.8292  11.1739  11.4561  15.3322  16.0573  16.2782
    16.5302

          k = 0.8939-0.7028-0.7028 (  1325 PWs)   bands (ev):

   -68.5430 -63.4223 -37.4341 -37.4220 -37.3977 -32.4247 -32.4222 -32.3909
    -5.8263  -5.7409   5.5523   6.2401   7.0150   7.1904   8.2523   8.3909
     8.8930   9.5860   9.7530  11.3076  11.3884  15.2113  15.9507  16.2838
    16.3076

          k = 0.7949-0.8018-0.4026 (  1324 PWs)   bands (ev):

   -68.5421 -63.4211 -37.4322 -37.4271 -37.4063 -32.4294 -32.4222 -32.4010
    -5.7325  -5.6051   5.4553   6.2602   6.8321   7.2633   7.4292   8.4392
     9.1813   9.4952   9.7079  11.2545  11.4588  15.4140  15.9805  16.4145
    16.5449

          k = 0.6960-0.9007-0.1024 (  1332 PWs)   bands (ev):

   -68.5416 -63.4203 -37.4309 -37.4206 -37.4203 -32.4219 -32.4194 -32.4190
    -5.6134  -5.6130   5.9426   6.3192   6.4321   7.0616   7.3487   7.8186
     9.2250   9.6970   9.8065  11.1514  11.3739  15.9165  15.9952  16.0067
    16.5941

          k = 0.6960-0.5015-0.5015 (  1329 PWs)   bands (ev):

   -68.5430 -63.4204 -37.4326 -37.4314 -37.4002 -32.4372 -32.4223 -32.3943
    -5.7543  -5.5808   5.0892   6.4417   6.8876   7.0375   8.1973   8.6239
     8.7536   9.2978   9.7777  11.4316  11.4325  15.0341  16.3999  16.4929
    16.6462

          k = 0.2047 0.2047 0.2047 (  1322 PWs)   bands (ev):

   -68.5472 -63.4240 -37.4386 -37.3898 -37.3898 -32.4317 -32.3810 -32.3810
    -6.3716  -5.8420   5.7501   6.8834   6.8834   8.1712   8.6929   8.6929
     9.1881   9.1881   9.5452  11.6287  11.6287  14.5856  15.3877  15.7049
    15.7049

          k = 0.6994 0.6994-1.2965 (  1315 PWs)   bands (ev):

   -68.5455 -63.4236 -37.4370 -37.4008 -37.3924 -32.4294 -32.3946 -32.3843
    -6.1603  -5.8484   5.9575   6.5807   6.9888   7.5855   8.2712   8.6411
     8.8359   9.6590  10.2061  10.8318  11.3584  15.1283  15.5343  15.7300
    15.9030

          k = 0.6005 0.6005-0.9962 (  1324 PWs)   bands (ev):

   -68.5434 -63.4219 -37.4338 -37.4218 -37.3977 -32.4250 -32.4225 -32.3910
    -5.9034  -5.6609   5.5422   6.1998   6.9733   7.2444   8.3156   8.5337
     8.7622   9.6457   9.9913  10.8890  11.2684  15.2374  15.7970  16.1800
    16.3020

          k = 1.1941-0.8018-0.8018 (  1308 PWs)   bands (ev):

   -68.5455 -63.4237 -37.4371 -37.4008 -37.3925 -32.4293 -32.3946 -32.3842
    -6.0689  -5.9447   6.1709   6.4063   7.0487   7.6350   8.2213   8.4180
     8.9047   9.5002  10.1517  10.9502  11.5727  15.3301  15.4572  15.7718
    15.9190

          k = 1.0952-0.9007-0.5015 (  1326 PWs)   bands (ev):

   -68.5434 -63.4228 -37.4347 -37.4147 -37.3988 -32.4257 -32.4129 -32.3916
    -5.8961  -5.7850   5.8513   6.3099   7.0692   7.3652   7.4702   8.8294
     8.9813   9.5640  10.0800  10.7337  11.4572  15.5731  15.6331  15.7718
    16.3157

          k =-0.3071-0.3071-0.3071 (  1310 PWs)   bands (ev):

   -68.5476 -63.4236 -37.4385 -37.3897 -37.3897 -32.4319 -32.3810 -32.3810
    -6.1439  -6.0869   6.1870   6.9326   6.9326   7.5804   8.7027   8.7027
     9.0365   9.0365   9.5117  11.7633  11.7633  15.0140  15.5543  15.6835
    15.6835

 ------ SPIN DOWN ----------


          k = 0.0000 0.0000 0.0000 (  1303 PWs)   bands (ev):

   -68.5462 -63.4252 -37.4389 -37.3898 -37.3898 -32.4312 -32.3809 -32.3809
    -6.6113  -5.5495   5.0249   6.7560   6.7560   8.6740   8.6740   9.3444
     9.7262   9.7262   9.8791  11.1178  11.1178  13.1310  15.7658  15.7658
    15.7826

          k =-0.0989-0.0989 0.3002 (  1317 PWs)   bands (ev):

   -68.5450 -63.4242 -37.4370 -37.4006 -37.3924 -32.4294 -32.3949 -32.3843
    -6.4064  -5.5675   5.4383   6.6724   6.8895   7.7330   8.3427   8.9339
     9.2161   9.7703   9.8557  11.1916  11.2799  14.5035  15.5014  15.8539
    15.9312

          k =-0.1979-0.1979 0.6005 (  1327 PWs)   bands (ev):

   -68.5440 -63.4210 -37.4330 -37.4213 -37.3975 -32.4263 -32.4231 -32.3912
    -5.9930  -5.5709   6.0171   6.1818   6.8661   6.9685   8.1064   8.2701
     8.8416   9.6324   9.9584  11.1454  11.4248  15.0185  15.9217  16.2006
    16.2926

          k = 0.2968 0.2968-0.9007 (  1330 PWs)   bands (ev):

   -68.5443 -63.4187 -37.4316 -37.4306 -37.4000 -32.4384 -32.4239 -32.3947
    -5.8119  -5.5276   5.5551   6.4836   6.5837   6.8915   8.0037   8.5701
     8.6760   9.2991   9.8775  11.2615  11.5520  14.8458  16.3056  16.4729
    16.5884

          k =-0.1979 0.2013 0.2013 (  1320 PWs)   bands (ev):

   -68.5450 -63.4243 -37.4370 -37.4006 -37.3925 -32.4293 -32.3948 -32.3842
    -6.3833  -5.5957   5.5119   6.6509   6.9387   7.7010   8.3085   9.0185
     9.0581   9.6528   9.7059  11.4163  11.4450  14.5751  15.4094  15.8956
    15.9479

          k =-0.2968 0.1024 0.5015 (  1318 PWs)   bands (ev):

   -68.5436 -63.4225 -37.4343 -37.4143 -37.3987 -32.4264 -32.4134 -32.3917
    -6.0583  -5.6163   5.9978   6.4923   6.7476   7.2473   7.5437   8.5220
     9.0818   9.7193   9.9673  11.0162  11.4487  15.4966  15.6666  15.7486
    16.3397

          k = 0.1979 0.5970-0.9996 (  1331 PWs)   bands (ev):

   -68.5429 -63.4200 -37.4314 -37.4266 -37.4062 -32.4304 -32.4234 -32.4012
    -5.7814  -5.5594   5.9122   6.0654   6.6914   7.3711   7.5049   7.8633
     9.2410   9.5062   9.9732  11.0873  11.3344  15.3356  16.0336  16.3246
    16.5323

          k = 0.0989 0.4981-0.6994 (  1329 PWs)   bands (ev):

   -68.5430 -63.4199 -37.4313 -37.4265 -37.4062 -32.4304 -32.4235 -32.4011
    -5.7633  -5.5795   5.7938   6.3621   6.7013   7.2572   7.5217   7.7070
     9.2560   9.5197   9.9779  11.0344  11.4209  15.3146  16.0732  16.2456
    16.5163

          k =-0.0000 0.3992-0.3992 (  1316 PWs)   bands (ev):

   -68.5437 -63.4223 -37.4341 -37.4142 -37.3987 -32.4266 -32.4136 -32.3916
    -6.0893  -5.5830   6.0913   6.5519   6.5791   7.2719   7.5571   8.4021
     9.0968   9.7075  10.0633  10.9434  11.5414  15.4913  15.6637  15.8122
    16.3495

          k =-0.3958 0.4026 0.4026 (  1317 PWs)   bands (ev):

   -68.5431 -63.4222 -37.4338 -37.4217 -37.3977 -32.4252 -32.4223 -32.3909
    -5.8854  -5.6830   5.7299   6.3499   6.9141   7.0356   8.1955   8.2033
     8.9215   9.5576   9.7083  11.5206  11.5653  15.0629  16.0760  16.3035
    16.5931

          k = 0.0989 0.8973-1.0986 (  1326 PWs)   bands (ev):

   -68.5421 -63.4211 -37.4321 -37.4270 -37.4063 -32.4295 -32.4224 -32.4011
    -5.6845  -5.6551   5.4407   6.4284   6.8952   7.1882   7.3063   8.3163
     9.2501   9.5064   9.6899  11.3033  11.4560  15.3876  15.9979  16.3649
    16.5714

          k = 0.0000 0.7983-0.7983 (  1332 PWs)   bands (ev):

   -68.5415 -63.4204 -37.4308 -37.4206 -37.4202 -32.4219 -32.4196 -32.4191
    -5.6133  -5.6131   5.9404   6.3578   6.3911   7.0732   7.3401   7.8205
     9.2249   9.6908   9.8134  11.1494  11.3752  15.9463  15.9469  16.0238
    16.6034

          k = 0.5936-0.6039-0.6039 (  1320 PWs)   bands (ev):

   -68.5425 -63.4210 -37.4329 -37.4316 -37.4002 -32.4370 -32.4219 -32.3943
    -5.7250  -5.6087   4.9751   6.4994   6.8864   7.0300   8.3011   8.6425
     8.8108   9.2974   9.7158  11.3917  11.5061  15.1182  16.4341  16.4980
    16.8834

          k = 0.1024 0.1024 0.1024 (  1324 PWs)   bands (ev):

   -68.5465 -63.4248 -37.4388 -37.3898 -37.3898 -32.4314 -32.3810 -32.3810
    -6.5483  -5.6304   5.2240   6.7957   6.7957   8.6796   8.6796   9.0389
     9.5214   9.5214   9.6697  11.3162  11.3162  13.6330  15.6031  15.7459
    15.7459

          k = 0.0034 0.0034 0.4026 (  1326 PWs)   bands (ev):

   -68.5452 -63.4239 -37.4369 -37.4007 -37.3924 -32.4295 -32.3948 -32.3844
    -6.3264  -5.6626   5.6097   6.7132   6.9120   7.6037   8.3280   8.8263
     9.0414   9.8613  10.1091  10.9101  11.1460  14.7948  15.5785  15.7488
    15.9090

          k = 0.4981 0.4981-1.0986 (  1332 PWs)   bands (ev):

   -68.5439 -63.4212 -37.4332 -37.4214 -37.3975 -32.4258 -32.4230 -32.3912
    -5.9713  -5.5913   5.7118   6.2101   6.9513   7.0992   8.3225   8.3668
     8.7584   9.6704  10.1606  10.7566  11.2850  15.1438  15.7656  16.1716
    16.2951

          k = 0.3992 0.3992-0.7983 (  1326 PWs)   bands (ev):

   -68.5438 -63.4193 -37.4319 -37.4309 -37.4000 -32.4380 -32.4234 -32.3946
    -5.7953  -5.5427   5.3697   6.3843   6.8792   6.8902   8.0357   8.5877
     8.6980   9.2987   9.8543  11.3102  11.5118  14.9017  16.3342  16.4806
    16.5943

          k = 0.3002 0.3002-0.4981 (  1316 PWs)   bands (ev):

   -68.5436 -63.4214 -37.4333 -37.4215 -37.3976 -32.4260 -32.4227 -32.3910
    -5.9610  -5.6057   5.9868   6.3735   6.6800   7.0108   8.0635   8.2067
     8.8979   9.5796   9.7878  11.4901  11.5403  14.9684  16.1127  16.2949
    16.3228

          k =-0.0955 0.3037 0.3037 (  1312 PWs)   bands (ev):

   -68.5452 -63.4240 -37.4371 -37.4007 -37.3925 -32.4293 -32.3947 -32.3842
    -6.2618  -5.7370   5.8013   6.6210   7.0202   7.5883   8.2452   8.6589
     9.0054   9.4972   9.9676  11.1844  11.6159  15.0862  15.3625  15.8432
    15.9417

          k = 0.3992 0.7983-1.1975 (  1321 PWs)   bands (ev):

   -68.5434 -63.4228 -37.4345 -37.4145 -37.3987 -32.4260 -32.4131 -32.3917
    -5.9749  -5.7040   5.8887   6.3721   6.9861   7.2905   7.4993   8.7321
     9.0283   9.6358   9.9776  10.9129  11.4138  15.5284  15.6486  15.7411
    16.3230

          k = 0.3002 0.6994-0.8973 (  1327 PWs)   bands (ev):

   -68.5424 -63.4207 -37.4318 -37.4268 -37.4062 -32.4299 -32.4228 -32.4011
    -5.7696  -5.5687   5.6523   6.1132   6.7479   7.3410   7.5041   8.2116
     9.2045   9.4962   9.8394  11.2053  11.3423  15.3795  16.0036  16.4076
    16.5065

          k = 0.2013 0.6005-0.5970 (  1325 PWs)   bands (ev):

   -68.5426 -63.4205 -37.4316 -37.4267 -37.4062 -32.4300 -32.4230 -32.4011
    -5.7198  -5.6224   5.5858   6.5105   6.8247   7.1375   7.3689   7.9851
     9.2703   9.5206   9.8293  11.1740  11.4562  15.3321  16.0572  16.2782
    16.5301

          k = 0.8939-0.7028-0.7028 (  1325 PWs)   bands (ev):

   -68.5429 -63.4224 -37.4340 -37.4219 -37.3977 -32.4248 -32.4222 -32.3909
    -5.8263  -5.7409   5.5523   6.2402   7.0151   7.1904   8.2523   8.3910
     8.8931   9.5860   9.7530  11.3076  11.3885  15.2113  15.9507  16.2837
    16.3075

          k = 0.7949-0.8018-0.4026 (  1324 PWs)   bands (ev):

   -68.5420 -63.4212 -37.4322 -37.4271 -37.4062 -32.4294 -32.4223 -32.4011
    -5.7326  -5.6052   5.4553   6.2602   6.8321   7.2633   7.4292   8.4392
     9.1813   9.4952   9.7080  11.2545  11.4589  15.4140  15.9805  16.4145
    16.5448

          k = 0.6960-0.9007-0.1024 (  1332 PWs)   bands (ev):

   -68.5415 -63.4204 -37.4308 -37.4206 -37.4202 -32.4219 -32.4195 -32.4191
    -5.6134  -5.6130   5.9426   6.3193   6.4321   7.0616   7.3488   7.8186
     9.2250   9.6970   9.8065  11.1515  11.3740  15.9165  15.9951  16.0066
    16.5940

          k = 0.6960-0.5015-0.5015 (  1329 PWs)   bands (ev):

   -68.5429 -63.4204 -37.4325 -37.4313 -37.4001 -32.4373 -32.4224 -32.3944
    -5.7543  -5.5808   5.0892   6.4417   6.8877   7.0376   8.1974   8.6238
     8.7536   9.2979   9.7777  11.4317  11.4325  15.0340  16.3999  16.4928
    16.6461

          k = 0.2047 0.2047 0.2047 (  1322 PWs)   bands (ev):

   -68.5472 -63.4240 -37.4385 -37.3897 -37.3897 -32.4318 -32.3810 -32.3810
    -6.3716  -5.8420   5.7501   6.8835   6.8835   8.1712   8.6930   8.6930
     9.1881   9.1881   9.5452  11.6287  11.6287  14.5856  15.3877  15.7048
    15.7048

          k = 0.6994 0.6994-1.2965 (  1315 PWs)   bands (ev):

   -68.5454 -63.4237 -37.4370 -37.4007 -37.3924 -32.4295 -32.3947 -32.3844
    -6.1603  -5.8484   5.9575   6.5807   6.9888   7.5855   8.2713   8.6411
     8.8359   9.6590  10.2061  10.8318  11.3584  15.1283  15.5343  15.7299
    15.9030

          k = 0.6005 0.6005-0.9962 (  1324 PWs)   bands (ev):

   -68.5433 -63.4219 -37.4337 -37.4217 -37.3976 -32.4251 -32.4226 -32.3911
    -5.9034  -5.6609   5.5422   6.1998   6.9733   7.2444   8.3156   8.5337
     8.7622   9.6457   9.9913  10.8890  11.2684  15.2373  15.7969  16.1799
    16.3020

          k = 1.1941-0.8018-0.8018 (  1308 PWs)   bands (ev):

   -68.5454 -63.4238 -37.4370 -37.4007 -37.3924 -32.4294 -32.3947 -32.3843
    -6.0689  -5.9447   6.1709   6.4063   7.0487   7.6350   8.2213   8.4180
     8.9048   9.5002  10.1517  10.9502  11.5727  15.3301  15.4572  15.7718
    15.9190

          k = 1.0952-0.9007-0.5015 (  1326 PWs)   bands (ev):

   -68.5433 -63.4229 -37.4347 -37.4146 -37.3987 -32.4258 -32.4130 -32.3917
    -5.8961  -5.7850   5.8514   6.3100   7.0693   7.3653   7.4701   8.8294
     8.9813   9.5641  10.0800  10.7338  11.4573  15.5731  15.6330  15.7717
    16.3156

          k =-0.3071-0.3071-0.3071 (  1310 PWs)   bands (ev):

   -68.5475 -63.4237 -37.4384 -37.3897 -37.3897 -32.4320 -32.3811 -32.3811
    -6.1439  -6.0869   6.1870   6.9326   6.9326   7.5804   8.7028   8.7028
     9.0365   9.0365   9.5117  11.7633  11.7633  15.0140  15.5543  15.6835
    15.6835

     the Fermi energy is    12.4575 ev

!    total energy              =    -486.56626066 Ry
     Harris-Foulkes estimate   =    -486.56626056 Ry
     estimated scf accuracy    <          9.0E-09 Ry

     The total energy is the sum of the following terms:

     one-electron contribution =    -219.93213596 Ry
     hartree contribution      =     131.59102464 Ry
     xc contribution           =     -67.51632430 Ry
     ewald contribution        =    -330.81167819 Ry
     Hubbard energy            =       0.10285314 Ry
     smearing contrib. (-TS)   =      -0.00000000 Ry

     total magnetization       =    -0.00 Bohr mag/cell
     absolute magnetization    =     9.38 Bohr mag/cell

     convergence has been achieved in  10 iterations

     Forces acting on atoms (Ry/au):


     negative rho (up, down):  0.000E+00 3.762E-04
     atom    1 type  1   force =   0.10162811E-28 -0.99902347E-29  0.10162811E-28
     atom    2 type  3   force =   0.12059478E-05  0.12059478E-05  0.12059478E-05
     atom    3 type  2   force =   0.00000000E+00  0.00000000E+00  0.00000000E+00
     atom    4 type  3   force =  -0.12059478E-05 -0.12059478E-05 -0.12059478E-05

     Total force =     0.000003     Total SCF correction =     0.000010
     SCF correction compared to forces is large: reduce conv_thr to get better values


     entering subroutine stress ...


     negative rho (up, down):  0.000E+00 3.762E-04
          total   stress  (Ry/bohr**3)                   (kbar)     P=    0.10
   0.0000006952  -0.0000003732  -0.0000003732          0.10     -0.05     -0.05
  -0.0000003732   0.0000006952  -0.0000003732         -0.05      0.10     -0.05
  -0.0000003732  -0.0000003732   0.0000006952         -0.05     -0.05      0.10


     Writing output data file mno_afmG.scf.in.save

     init_run     :      4.06s CPU      3.95s WALL (       1 calls)
     electrons    :     96.22s CPU     95.07s WALL (       1 calls)
     forces       :      2.07s CPU      1.96s WALL (       1 calls)
     stress       :      9.48s CPU      9.20s WALL (       1 calls)

     Called by init_run:
     wfcinit      :      3.31s CPU      3.19s WALL (       1 calls)
     potinit      :      0.15s CPU      0.15s WALL (       1 calls)

     Called by electrons:
     c_bands      :     83.37s CPU     82.28s WALL (      10 calls)
     sum_band     :     11.50s CPU     11.42s WALL (      10 calls)
     v_of_rho     :      0.62s CPU      0.63s WALL (      11 calls)
     newd         :      0.55s CPU      0.55s WALL (      11 calls)
     mix_rho      :      0.23s CPU      0.22s WALL (      10 calls)

     Called by c_bands:
     init_us_2    :      0.94s CPU      0.99s WALL (    2176 calls)
     cegterg      :     81.60s CPU     80.39s WALL (     640 calls)

     Called by *egterg:
     h_psi        :     60.18s CPU     59.34s WALL (    2766 calls)
     s_psi        :      3.69s CPU      2.79s WALL (    3470 calls)
     g_psi        :      0.09s CPU      0.10s WALL (    2062 calls)
     cdiaghg      :     12.83s CPU     13.23s WALL (    2702 calls)

     Called by h_psi:
     add_vuspsi   :      3.11s CPU      2.09s WALL (    2766 calls)
     vhpsi        :      1.86s CPU      1.91s WALL (    2766 calls)

     General routines
     calbec       :     12.42s CPU     11.56s WALL (   18076 calls)
     fft          :      0.34s CPU      0.32s WALL (     375 calls)
     ffts         :      0.14s CPU      0.16s WALL (     249 calls)
     fftw         :     57.27s CPU     57.89s WALL (   99812 calls)
     interpolate  :      0.07s CPU      0.07s WALL (      42 calls)
     davcio       :      0.00s CPU      0.09s WALL (      64 calls)

     Parallel routines
     fft_scatter  :     20.93s CPU     21.04s WALL (  100436 calls)
     Hubbard U routines
     new_ns       :      0.21s CPU      0.22s WALL (      10 calls)
     vhpsi        :      1.86s CPU      1.91s WALL (    2766 calls)
     force_hub    :      1.01s CPU      0.97s WALL (       1 calls)
     stres_hub    :      7.81s CPU      7.53s WALL (       1 calls)

     PWSCF        :  1m52.68s CPU     1m51.20s WALL


   This run was terminated on:  14:20:43  14Aug2017            

=------------------------------------------------------------------------------=
   JOB DONE.
=------------------------------------------------------------------------------=
