
     Program PWSCF v.5.1 starts on 17Aug2017 at 10:47:37 

     This program is part of the open-source Quantum ESPRESSO suite
     for quantum simulation of materials; please cite
         "P. Giannozzi et al., J. Phys.:Condens. Matter 21 395502 (2009);
          URL http://www.quantum-espresso.org", 
     in publications or presentations arising from this work. More details at
     http://www.quantum-espresso.org/quote

     Parallel version (MPI), running on     8 processors
     R & G space division:  proc/nbgrp/npool/nimage =       8
     Reading input from /tmp/mno_fm.scf.in.super.222.sub_frozen.01.12153/mno_fm.scf.in.super.222.sub_frozen.01.t
Warning: card &IONS ignored
Warning: card   ION_DYNAMICS='BFGS', ignored
Warning: card / ignored
Warning: card &CELL ignored
Warning: card  CELL_DYNAMICS = 'BFGS' ignored
Warning: card / ignored

     Current dimensions of program PWSCF are:
     Max number of different atomic species (ntypx) = 10
     Max number of k-points (npk) =  40000
     Max angular momentum in pseudopotentials (lmaxx) =  3
 kfg - two_fermi_energies  T

     Subspace diagonalization in iterative solution of the eigenvalue problem:
     a serial algorithm will be used


     Parallelization info
     --------------------
     sticks:   dense  smooth     PW     G-vecs:    dense   smooth      PW
     Min         246     204     56                 7264     5421     802
     Max         247     205     57                 7267     5438     805
     Sum        1969    1639    451                58119    43407    6423

     Generating pointlists ...
     new r_m :   0.1458 (alat units)  1.7495 (a.u.) for type    1
     new r_m :   0.1458 (alat units)  1.7495 (a.u.) for type    2
     new r_m :   0.1458 (alat units)  1.7495 (a.u.) for type    3


     bravais-lattice index     =            0
     lattice parameter (alat)  =    11.996146938  a.u.
     unit-cell volume          =    1220.7039 (a.u.)^3
     number of atoms/cell      =           16
     number of atomic types    =            3
     number of electrons       =       168.00 (up:  89.00, down:  79.00)
     number of Kohn-Sham states=          107
     kinetic-energy cutoff     =      41.0000  Ry
     charge density cutoff     =     200.0000  Ry
     convergence threshold     =      1.0E-08
     mixing beta               =       0.3000
     number of iterations used =            8  local-TF  mixing
     Exchange-correlation      = SLA  PW   PSX  PSC ( 1  4 10  8 0)
     A smooth kinetic-energy cutoff is imposed at      40.0000 Ry
     height of the smooth step-function =             800.0000 Ry
     width of the smooth step-function  =               1.0000 Ry


     celldm(1)=  11.996147  celldm(2)=   0.000000  celldm(3)=   0.000000
     celldm(4)=   0.000000  celldm(5)=   0.000000  celldm(6)=   0.000000

     crystal axes: (cart. coord. in units of alat)
               a(1) = (   0.707106781187   0.707106781187   0.000000000000 )  
               a(2) = (   0.707106781187   0.000000000000   0.707106781187 )  
               a(3) = (   0.000000000000   0.707106781187   0.707106781187 )  

     reciprocal axes: (cart. coord. in units 2 pi/alat)
               b(1) = (  0.707107  0.707107 -0.707107 )  
               b(2) = (  0.707107 -0.707107  0.707107 )  
               b(3) = ( -0.707107  0.707107  0.707107 )  


     PseudoPot. # 1 for Mn read from file:
     /users/kfg/psuedo/gbrv_1.5/mn.pbesol.UPF
     MD5 check sum: 0716d5f563e6e95a34f9080f4c78c109
     Pseudo is Ultrasoft + core correction, Zval = 15.0
     Generated by new atomic code, or converted to UPF format
     Using radial grid of  859 points,  6 beta functions with: 
                l(1) =   0
                l(2) =   0
                l(3) =   1
                l(4) =   1
                l(5) =   2
                l(6) =   2
     Q(r) pseudized with  8 coefficients,  rinner =    0.950   0.950   0.950
                                                       0.950   0.950

     PseudoPot. # 2 for Mn read from file:
     /users/kfg/psuedo/gbrv_1.5/mn.pbesol.UPF
     MD5 check sum: 0716d5f563e6e95a34f9080f4c78c109
     Pseudo is Ultrasoft + core correction, Zval = 15.0
     Generated by new atomic code, or converted to UPF format
     Using radial grid of  859 points,  6 beta functions with: 
                l(1) =   0
                l(2) =   0
                l(3) =   1
                l(4) =   1
                l(5) =   2
                l(6) =   2
     Q(r) pseudized with  8 coefficients,  rinner =    0.950   0.950   0.950
                                                       0.950   0.950

     PseudoPot. # 3 for O  read from file:
     /users/kfg/psuedo/gbrv_1.5/o.pbesol.UPF
     MD5 check sum: 501638753501ef6325af9037351f7734
     Pseudo is Ultrasoft + core correction, Zval =  6.0
     Generated by new atomic code, or converted to UPF format
     Using radial grid of  737 points,  5 beta functions with: 
                l(1) =   0
                l(2) =   0
                l(3) =   1
                l(4) =   1
                l(5) =   2
     Q(r) pseudized with  8 coefficients,  rinner =    0.900   0.900   0.900
                                                       0.900   0.900

     atomic species   valence    mass     pseudopotential
        Mn            15.00    54.90000     Mn( 1.00)
        Fe            15.00    54.90000     Mn( 1.00)
        O              6.00    15.99900     O ( 1.00)

     Starting magnetic structure 
     atomic species   magnetization
        Mn           1.000
        Fe          -1.000
        O            0.000


     Simplified LDA+U calculation (l_max = 2) with parameters (eV):
     atomic species    L          U    alpha       J0     beta
        Mn             2     3.0000   0.0000   0.0000   0.0000
        Fe             2     3.0000   0.0000   0.0000   0.0000



     12 Sym. Ops., with inversion, found ( 8 have fractional translation)



   Cartesian axes

     site n.     atom                  positions (alat units)
         1           Mn  tau(   1) = (    0.00000000000    0.00000000000    0.00000000000  )
         2           O   tau(   2) = (    0.35355339059    0.35355339059    0.35355339059  )
         3           Mn  tau(   3) = (    0.00000000000    0.35355339059    0.35355339059  )
         4           O   tau(   4) = (    0.35355339059    0.70710678119    0.70710678119  )
         5           Fe  tau(   5) = (    0.35355339059    0.00000000000    0.35355339059  )
         6           O   tau(   6) = (    0.70710678119    0.35355339059    0.70710678119  )
         7           Fe  tau(   7) = (    0.35355339059    0.35355339059    0.70710678119  )
         8           O   tau(   8) = (    0.70710678119    0.70710678119    1.06066017178  )
         9           Mn  tau(   9) = (    0.35355339059    0.35355339059    0.00000000000  )
        10           O   tau(  10) = (    0.70710678119    0.70710678119    0.35355339059  )
        11           Mn  tau(  11) = (    0.35355339059    0.70710678119    0.35355339059  )
        12           O   tau(  12) = (    0.70710678119    1.06066017178    0.70710678119  )
        13           Mn  tau(  13) = (    0.70710678119    0.35355339059    0.35355339059  )
        14           O   tau(  14) = (    1.06066017178    0.70710678119    0.70710678119  )
        15           Fe  tau(  15) = (    0.70710678119    0.70710678119    0.70710678119  )
        16           O   tau(  16) = (    1.06066017178    1.06066017178    1.06066017178  )

     number of k points=    26  gaussian smearing, width (Ry)=  0.0100
                       cart. coord. in units 2pi/alat
        k(    1) = (   0.0000000   0.0000000   0.0000000), wk =   0.0156250
        k(    2) = (  -0.1767767   0.1767767   0.1767767), wk =   0.0937500
        k(    3) = (   0.3535534  -0.3535534  -0.3535534), wk =   0.0468750
        k(    4) = (   0.0000000   0.0000000   0.3535534), wk =   0.0937500
        k(    5) = (   0.5303301  -0.5303301  -0.1767767), wk =   0.0937500
        k(    6) = (   0.3535534  -0.3535534   0.0000000), wk =   0.0937500
        k(    7) = (   0.0000000   0.0000000  -0.7071068), wk =   0.0468750
        k(    8) = (   0.0000000   0.3535534  -0.7071068), wk =   0.0937500
        k(    9) = (  -0.1767767   0.1767767  -0.1767767), wk =   0.0312500
        k(   10) = (   0.3535534  -0.3535534   0.3535534), wk =   0.0156250
        k(   11) = (   0.5303301   0.5303301   0.1767767), wk =   0.1875000
        k(   12) = (   0.5303301  -0.1767767   0.5303301), wk =   0.0937500
        k(   13) = (   0.3535534   0.3535534   0.0000000), wk =   0.0937500
        k(   14) = (   0.0000000   0.0000000   0.0000000), wk =   0.0156250
        k(   15) = (  -0.1767767   0.1767767   0.1767767), wk =   0.0937500
        k(   16) = (   0.3535534  -0.3535534  -0.3535534), wk =   0.0468750
        k(   17) = (   0.0000000   0.0000000   0.3535534), wk =   0.0937500
        k(   18) = (   0.5303301  -0.5303301  -0.1767767), wk =   0.0937500
        k(   19) = (   0.3535534  -0.3535534   0.0000000), wk =   0.0937500
        k(   20) = (   0.0000000   0.0000000  -0.7071068), wk =   0.0468750
        k(   21) = (   0.0000000   0.3535534  -0.7071068), wk =   0.0937500
        k(   22) = (  -0.1767767   0.1767767  -0.1767767), wk =   0.0312500
        k(   23) = (   0.3535534  -0.3535534   0.3535534), wk =   0.0156250
        k(   24) = (   0.5303301   0.5303301   0.1767767), wk =   0.1875000
        k(   25) = (   0.5303301  -0.1767767   0.5303301), wk =   0.0937500
        k(   26) = (   0.3535534   0.3535534   0.0000000), wk =   0.0937500

     Dense  grid:    58119 G-vectors     FFT dimensions: (  54,  54,  54)

     Smooth grid:    43407 G-vectors     FFT dimensions: (  50,  50,  50)

     Largest allocated arrays     est. size (Mb)     dimensions
        Kohn-Sham Wavefunctions         1.12 Mb     (     687,  107)
        Atomic Hubbard wavefuncts       0.42 Mb     (     687,   40)
        NL pseudopotentials             2.60 Mb     (     687,  248)
        Each V/rho on FFT grid          0.62 Mb     (   20412,   2)
        Each G-vector array             0.06 Mb     (    7265)
        G-vector shells                 0.00 Mb     (     487)
     Largest temporary arrays     est. size (Mb)     dimensions
        Auxiliary wavefunctions         4.49 Mb     (     687,  428)
        Each subspace H/S matrix        2.80 Mb     (     428,  428)
        Each <psi_i|beta_j> matrix      0.40 Mb     (     248,  107)
        Arrays for rho mixing           2.49 Mb     (   20412,    8)

     Check: negative/imaginary core charge=   -0.000056    0.000000

     Initial potential from superposition of free atoms

     starting charge  163.99935, renormalised to  168.00000
     Number of +U iterations with fixed ns =  0
     Starting occupations:
 --- enter write_ns ---
 LDA+U parameters:
U( 1)     =  3.00000000
alpha( 1) =  0.00000000
U( 2)     =  3.00000000
alpha( 2) =  0.00000000
atom    1   Tr[ns(na)] (up, down, total) =   5.00000  0.00000  5.00000
   spin  1
    eigenvalues: 
  1.000  1.000  1.000  1.000  1.000
    eigenvectors:
  1.000  0.000  0.000  0.000  0.000
  0.000  1.000  0.000  0.000  0.000
  0.000  0.000  1.000  0.000  0.000
  0.000  0.000  0.000  1.000  0.000
  0.000  0.000  0.000  0.000  1.000
    occupations:
  1.000  0.000  0.000  0.000  0.000
  0.000  1.000  0.000  0.000  0.000
  0.000  0.000  1.000  0.000  0.000
  0.000  0.000  0.000  1.000  0.000
  0.000  0.000  0.000  0.000  1.000
   spin  2
    eigenvalues: 
  0.000  0.000  0.000  0.000  0.000
    eigenvectors:
  1.000  0.000  0.000  0.000  0.000
  0.000  1.000  0.000  0.000  0.000
  0.000  0.000  1.000  0.000  0.000
  0.000  0.000  0.000  1.000  0.000
  0.000  0.000  0.000  0.000  1.000
    occupations:
  0.000  0.000  0.000  0.000  0.000
  0.000  0.000  0.000  0.000  0.000
  0.000  0.000  0.000  0.000  0.000
  0.000  0.000  0.000  0.000  0.000
  0.000  0.000  0.000  0.000  0.000
atomic mag. moment =     5.000000
atom    3   Tr[ns(na)] (up, down, total) =   5.00000  0.00000  5.00000
   spin  1
    eigenvalues: 
  1.000  1.000  1.000  1.000  1.000
    eigenvectors:
  1.000  0.000  0.000  0.000  0.000
  0.000  1.000  0.000  0.000  0.000
  0.000  0.000  1.000  0.000  0.000
  0.000  0.000  0.000  1.000  0.000
  0.000  0.000  0.000  0.000  1.000
    occupations:
  1.000  0.000  0.000  0.000  0.000
  0.000  1.000  0.000  0.000  0.000
  0.000  0.000  1.000  0.000  0.000
  0.000  0.000  0.000  1.000  0.000
  0.000  0.000  0.000  0.000  1.000
   spin  2
    eigenvalues: 
  0.000  0.000  0.000  0.000  0.000
    eigenvectors:
  1.000  0.000  0.000  0.000  0.000
  0.000  1.000  0.000  0.000  0.000
  0.000  0.000  1.000  0.000  0.000
  0.000  0.000  0.000  1.000  0.000
  0.000  0.000  0.000  0.000  1.000
    occupations:
  0.000  0.000  0.000  0.000  0.000
  0.000  0.000  0.000  0.000  0.000
  0.000  0.000  0.000  0.000  0.000
  0.000  0.000  0.000  0.000  0.000
  0.000  0.000  0.000  0.000  0.000
atomic mag. moment =     5.000000
atom    5   Tr[ns(na)] (up, down, total) =   0.00000  5.00000  5.00000
   spin  1
    eigenvalues: 
  0.000  0.000  0.000  0.000  0.000
    eigenvectors:
  1.000  0.000  0.000  0.000  0.000
  0.000  1.000  0.000  0.000  0.000
  0.000  0.000  1.000  0.000  0.000
  0.000  0.000  0.000  1.000  0.000
  0.000  0.000  0.000  0.000  1.000
    occupations:
  0.000  0.000  0.000  0.000  0.000
  0.000  0.000  0.000  0.000  0.000
  0.000  0.000  0.000  0.000  0.000
  0.000  0.000  0.000  0.000  0.000
  0.000  0.000  0.000  0.000  0.000
   spin  2
    eigenvalues: 
  1.000  1.000  1.000  1.000  1.000
    eigenvectors:
  1.000  0.000  0.000  0.000  0.000
  0.000  1.000  0.000  0.000  0.000
  0.000  0.000  1.000  0.000  0.000
  0.000  0.000  0.000  1.000  0.000
  0.000  0.000  0.000  0.000  1.000
    occupations:
  1.000  0.000  0.000  0.000  0.000
  0.000  1.000  0.000  0.000  0.000
  0.000  0.000  1.000  0.000  0.000
  0.000  0.000  0.000  1.000  0.000
  0.000  0.000  0.000  0.000  1.000
atomic mag. moment =    -5.000000
atom    7   Tr[ns(na)] (up, down, total) =   0.00000  5.00000  5.00000
   spin  1
    eigenvalues: 
  0.000  0.000  0.000  0.000  0.000
    eigenvectors:
  1.000  0.000  0.000  0.000  0.000
  0.000  1.000  0.000  0.000  0.000
  0.000  0.000  1.000  0.000  0.000
  0.000  0.000  0.000  1.000  0.000
  0.000  0.000  0.000  0.000  1.000
    occupations:
  0.000  0.000  0.000  0.000  0.000
  0.000  0.000  0.000  0.000  0.000
  0.000  0.000  0.000  0.000  0.000
  0.000  0.000  0.000  0.000  0.000
  0.000  0.000  0.000  0.000  0.000
   spin  2
    eigenvalues: 
  1.000  1.000  1.000  1.000  1.000
    eigenvectors:
  1.000  0.000  0.000  0.000  0.000
  0.000  1.000  0.000  0.000  0.000
  0.000  0.000  1.000  0.000  0.000
  0.000  0.000  0.000  1.000  0.000
  0.000  0.000  0.000  0.000  1.000
    occupations:
  1.000  0.000  0.000  0.000  0.000
  0.000  1.000  0.000  0.000  0.000
  0.000  0.000  1.000  0.000  0.000
  0.000  0.000  0.000  1.000  0.000
  0.000  0.000  0.000  0.000  1.000
atomic mag. moment =    -5.000000
atom    9   Tr[ns(na)] (up, down, total) =   5.00000  0.00000  5.00000
   spin  1
    eigenvalues: 
  1.000  1.000  1.000  1.000  1.000
    eigenvectors:
  1.000  0.000  0.000  0.000  0.000
  0.000  1.000  0.000  0.000  0.000
  0.000  0.000  1.000  0.000  0.000
  0.000  0.000  0.000  1.000  0.000
  0.000  0.000  0.000  0.000  1.000
    occupations:
  1.000  0.000  0.000  0.000  0.000
  0.000  1.000  0.000  0.000  0.000
  0.000  0.000  1.000  0.000  0.000
  0.000  0.000  0.000  1.000  0.000
  0.000  0.000  0.000  0.000  1.000
   spin  2
    eigenvalues: 
  0.000  0.000  0.000  0.000  0.000
    eigenvectors:
  1.000  0.000  0.000  0.000  0.000
  0.000  1.000  0.000  0.000  0.000
  0.000  0.000  1.000  0.000  0.000
  0.000  0.000  0.000  1.000  0.000
  0.000  0.000  0.000  0.000  1.000
    occupations:
  0.000  0.000  0.000  0.000  0.000
  0.000  0.000  0.000  0.000  0.000
  0.000  0.000  0.000  0.000  0.000
  0.000  0.000  0.000  0.000  0.000
  0.000  0.000  0.000  0.000  0.000
atomic mag. moment =     5.000000
atom   11   Tr[ns(na)] (up, down, total) =   5.00000  0.00000  5.00000
   spin  1
    eigenvalues: 
  1.000  1.000  1.000  1.000  1.000
    eigenvectors:
  1.000  0.000  0.000  0.000  0.000
  0.000  1.000  0.000  0.000  0.000
  0.000  0.000  1.000  0.000  0.000
  0.000  0.000  0.000  1.000  0.000
  0.000  0.000  0.000  0.000  1.000
    occupations:
  1.000  0.000  0.000  0.000  0.000
  0.000  1.000  0.000  0.000  0.000
  0.000  0.000  1.000  0.000  0.000
  0.000  0.000  0.000  1.000  0.000
  0.000  0.000  0.000  0.000  1.000
   spin  2
    eigenvalues: 
  0.000  0.000  0.000  0.000  0.000
    eigenvectors:
  1.000  0.000  0.000  0.000  0.000
  0.000  1.000  0.000  0.000  0.000
  0.000  0.000  1.000  0.000  0.000
  0.000  0.000  0.000  1.000  0.000
  0.000  0.000  0.000  0.000  1.000
    occupations:
  0.000  0.000  0.000  0.000  0.000
  0.000  0.000  0.000  0.000  0.000
  0.000  0.000  0.000  0.000  0.000
  0.000  0.000  0.000  0.000  0.000
  0.000  0.000  0.000  0.000  0.000
atomic mag. moment =     5.000000
atom   13   Tr[ns(na)] (up, down, total) =   5.00000  0.00000  5.00000
   spin  1
    eigenvalues: 
  1.000  1.000  1.000  1.000  1.000
    eigenvectors:
  1.000  0.000  0.000  0.000  0.000
  0.000  1.000  0.000  0.000  0.000
  0.000  0.000  1.000  0.000  0.000
  0.000  0.000  0.000  1.000  0.000
  0.000  0.000  0.000  0.000  1.000
    occupations:
  1.000  0.000  0.000  0.000  0.000
  0.000  1.000  0.000  0.000  0.000
  0.000  0.000  1.000  0.000  0.000
  0.000  0.000  0.000  1.000  0.000
  0.000  0.000  0.000  0.000  1.000
   spin  2
    eigenvalues: 
  0.000  0.000  0.000  0.000  0.000
    eigenvectors:
  1.000  0.000  0.000  0.000  0.000
  0.000  1.000  0.000  0.000  0.000
  0.000  0.000  1.000  0.000  0.000
  0.000  0.000  0.000  1.000  0.000
  0.000  0.000  0.000  0.000  1.000
    occupations:
  0.000  0.000  0.000  0.000  0.000
  0.000  0.000  0.000  0.000  0.000
  0.000  0.000  0.000  0.000  0.000
  0.000  0.000  0.000  0.000  0.000
  0.000  0.000  0.000  0.000  0.000
atomic mag. moment =     5.000000
atom   15   Tr[ns(na)] (up, down, total) =   0.00000  5.00000  5.00000
   spin  1
    eigenvalues: 
  0.000  0.000  0.000  0.000  0.000
    eigenvectors:
  1.000  0.000  0.000  0.000  0.000
  0.000  1.000  0.000  0.000  0.000
  0.000  0.000  1.000  0.000  0.000
  0.000  0.000  0.000  1.000  0.000
  0.000  0.000  0.000  0.000  1.000
    occupations:
  0.000  0.000  0.000  0.000  0.000
  0.000  0.000  0.000  0.000  0.000
  0.000  0.000  0.000  0.000  0.000
  0.000  0.000  0.000  0.000  0.000
  0.000  0.000  0.000  0.000  0.000
   spin  2
    eigenvalues: 
  1.000  1.000  1.000  1.000  1.000
    eigenvectors:
  1.000  0.000  0.000  0.000  0.000
  0.000  1.000  0.000  0.000  0.000
  0.000  0.000  1.000  0.000  0.000
  0.000  0.000  0.000  1.000  0.000
  0.000  0.000  0.000  0.000  1.000
    occupations:
  1.000  0.000  0.000  0.000  0.000
  0.000  1.000  0.000  0.000  0.000
  0.000  0.000  1.000  0.000  0.000
  0.000  0.000  0.000  1.000  0.000
  0.000  0.000  0.000  0.000  1.000
atomic mag. moment =    -5.000000
N of occupied +U levels =   40.000000
 --- exit write_ns ---
 Atomic wfc used for LDA+U Projector are NOT orthogonalized
     Starting wfc are  136 randomized atomic wfcs

     total cpu time spent up to now is       25.0 secs

     per-process dynamical memory:    68.1 Mb

     Self-consistent Calculation

     iteration #  1     ecut=    41.00 Ry     beta=0.30
     Davidson diagonalization with overlap
     ethr =  1.00E-02,  avg # of iterations =  4.7
 --- enter write_ns ---
 LDA+U parameters:
U( 1)     =  3.00000000
alpha( 1) =  0.00000000
U( 2)     =  3.00000000
alpha( 2) =  0.00000000
atom    1   Tr[ns(na)] (up, down, total) =   4.99439  0.19570  5.19009
   spin  1
    eigenvalues: 
  0.998  0.998  0.998  1.000  1.000
    eigenvectors:
  0.000  0.002  0.000  0.748  0.250
  0.199  0.499  0.301  0.001  0.000
  0.602  0.000  0.398  0.000  0.000
  0.000  0.001  0.000  0.249  0.750
  0.199  0.499  0.301  0.001  0.000
    occupations:
  1.000 -0.000  0.000 -0.000  0.000
 -0.000  0.998 -0.000 -0.000  0.000
  0.000 -0.000  0.998 -0.000 -0.000
 -0.000 -0.000 -0.000  1.000  0.000
  0.000  0.000 -0.000  0.000  0.998
   spin  2
    eigenvalues: 
  0.021  0.023  0.023  0.064  0.064
    eigenvectors:
  0.000  0.000  0.000  0.250  0.750
  0.018  0.500  0.482  0.000  0.000
  0.964  0.000  0.036  0.000  0.000
  0.000  0.000  0.000  0.750  0.250
  0.018  0.500  0.482  0.000  0.000
    occupations:
  0.064 -0.000  0.000  0.000  0.001
 -0.000  0.023 -0.000 -0.001 -0.000
  0.000 -0.000  0.021 -0.000 -0.000
  0.000 -0.001 -0.000  0.064  0.000
  0.001 -0.000 -0.000  0.000  0.023
atomic mag. moment =     4.798685
atom    3   Tr[ns(na)] (up, down, total) =   4.99056  0.20058  5.19115
   spin  1
    eigenvalues: 
  0.998  0.998  0.998  0.998  0.999
    eigenvectors:
  0.554  0.416  0.006  0.023  0.000
  0.001  0.019  0.646  0.001  0.333
  0.018  0.002  0.188  0.459  0.333
  0.416  0.554  0.023  0.006  0.000
  0.011  0.008  0.137  0.510  0.333
    occupations:
  0.998 -0.000  0.000  0.000  0.000
 -0.000  0.998 -0.000 -0.000  0.000
  0.000 -0.000  0.998 -0.000 -0.000
  0.000 -0.000 -0.000  0.998 -0.000
  0.000  0.000 -0.000 -0.000  0.998
   spin  2
    eigenvalues: 
  0.023  0.023  0.024  0.065  0.065
    eigenvectors:
  0.000  0.000  0.000  0.258  0.741
  0.655  0.011  0.333  0.000  0.000
  0.098  0.568  0.333  0.000  0.000
  0.000  0.000  0.000  0.741  0.258
  0.246  0.421  0.333  0.000  0.000
    occupations:
  0.065 -0.000  0.000  0.000  0.001
 -0.000  0.024 -0.000 -0.001  0.000
  0.000 -0.000  0.024 -0.001 -0.000
  0.000 -0.001 -0.001  0.065 -0.000
  0.001  0.000 -0.000 -0.000  0.024
atomic mag. moment =     4.789977
atom    5   Tr[ns(na)] (up, down, total) =   0.20081  4.99474  5.19555
   spin  1
    eigenvalues: 
  0.024  0.024  0.026  0.063  0.064
    eigenvectors:
  0.000  0.000  0.000  0.000  1.000
  0.480  0.500  0.020  0.000  0.000
  0.480  0.500  0.020  0.000  0.000
  0.000  0.000  0.000  1.000  0.000
  0.040  0.000  0.960  0.000  0.000
    occupations:
  0.064 -0.000  0.000  0.000 -0.000
 -0.000  0.024  0.000 -0.001  0.000
  0.000  0.000  0.024 -0.001 -0.000
  0.000 -0.001 -0.001  0.063 -0.000
 -0.000  0.000 -0.000 -0.000  0.026
   spin  2
    eigenvalues: 
  0.998  0.998  0.999  1.000  1.000
    eigenvectors:
  0.000  0.000  0.001  0.999  0.000
  0.219  0.499  0.280  0.000  0.001
  0.219  0.499  0.280  0.000  0.001
  0.000  0.002  0.000  0.000  0.998
  0.561  0.000  0.439  0.000  0.000
    occupations:
  1.000 -0.000  0.000  0.000 -0.000
 -0.000  0.998 -0.000 -0.000  0.000
  0.000 -0.000  0.998 -0.000 -0.000
  0.000 -0.000 -0.000  1.000 -0.000
 -0.000  0.000 -0.000 -0.000  0.998
atomic mag. moment =    -4.793933
atom    7   Tr[ns(na)] (up, down, total) =   0.20081  4.99474  5.19555
   spin  1
    eigenvalues: 
  0.024  0.024  0.026  0.063  0.064
    eigenvectors:
  0.000  0.000  0.000  0.750  0.250
  0.040  0.000  0.960  0.000  0.000
  0.480  0.500  0.020  0.000  0.000
  0.000  0.000  0.000  0.250  0.750
  0.480  0.500  0.020  0.000  0.000
    occupations:
  0.063  0.000  0.000  0.000  0.001
  0.000  0.026 -0.000  0.000  0.000
  0.000 -0.000  0.024 -0.001  0.000
  0.000  0.000 -0.001  0.064 -0.000
  0.001  0.000  0.000 -0.000  0.024
   spin  2
    eigenvalues: 
  0.998  0.998  0.999  1.000  1.000
    eigenvectors:
  0.000  0.001  0.000  0.250  0.749
  0.561  0.000  0.439  0.000  0.000
  0.219  0.499  0.280  0.000  0.001
  0.000  0.000  0.001  0.749  0.250
  0.219  0.499  0.280  0.000  0.001
    occupations:
  1.000  0.000  0.000 -0.000  0.000
  0.000  0.998 -0.000  0.000  0.000
  0.000 -0.000  0.998 -0.000 -0.000
 -0.000  0.000 -0.000  1.000  0.000
  0.000  0.000 -0.000  0.000  0.998
atomic mag. moment =    -4.793933
atom    9   Tr[ns(na)] (up, down, total) =   4.99439  0.19570  5.19009
   spin  1
    eigenvalues: 
  0.998  0.998  0.998  1.000  1.000
    eigenvectors:
  0.000  0.002  0.000  0.748  0.250
  0.602  0.000  0.398  0.000  0.000
  0.199  0.499  0.301  0.001  0.000
  0.000  0.001  0.000  0.249  0.750
  0.199  0.499  0.301  0.001  0.000
    occupations:
  1.000 -0.000  0.000  0.000  0.000
 -0.000  0.998 -0.000 -0.000  0.000
  0.000 -0.000  0.998 -0.000 -0.000
  0.000 -0.000 -0.000  1.000 -0.000
  0.000  0.000 -0.000 -0.000  0.998
   spin  2
    eigenvalues: 
  0.021  0.023  0.023  0.064  0.064
    eigenvectors:
  0.000  0.000  0.000  0.250  0.750
  0.964  0.000  0.036  0.000  0.000
  0.018  0.500  0.482  0.000  0.000
  0.000  0.000  0.000  0.750  0.250
  0.018  0.500  0.482  0.000  0.000
    occupations:
  0.064 -0.000  0.000 -0.000  0.001
 -0.000  0.021 -0.000 -0.000  0.000
  0.000 -0.000  0.023 -0.001  0.000
 -0.000 -0.000 -0.001  0.064 -0.000
  0.001  0.000  0.000 -0.000  0.023
atomic mag. moment =     4.798685
atom   11   Tr[ns(na)] (up, down, total) =   4.99439  0.19570  5.19009
   spin  1
    eigenvalues: 
  0.998  0.998  0.998  1.000  1.000
    eigenvectors:
  0.000  0.000  0.000  0.000  0.999
  0.199  0.499  0.301  0.001  0.000
  0.199  0.499  0.301  0.001  0.000
  0.000  0.003  0.000  0.997  0.000
  0.602  0.000  0.398  0.000  0.000
    occupations:
  1.000 -0.000  0.000  0.000  0.000
 -0.000  0.998 -0.000 -0.000  0.000
  0.000 -0.000  0.998 -0.000 -0.000
  0.000 -0.000 -0.000  1.000 -0.000
  0.000  0.000 -0.000 -0.000  0.998
   spin  2
    eigenvalues: 
  0.021  0.023  0.023  0.064  0.064
    eigenvectors:
  0.000  0.000  0.000  1.000  0.000
  0.018  0.500  0.482  0.000  0.000
  0.018  0.500  0.482  0.000  0.000
  0.000  0.000  0.000  0.000  1.000
  0.964  0.000  0.036  0.000  0.000
    occupations:
  0.064 -0.000  0.000  0.000  0.000
 -0.000  0.023  0.000 -0.001  0.000
  0.000  0.000  0.023 -0.001 -0.000
  0.000 -0.001 -0.001  0.064 -0.000
  0.000  0.000 -0.000 -0.000  0.021
atomic mag. moment =     4.798685
atom   13   Tr[ns(na)] (up, down, total) =   4.99057  0.20080  5.19137
   spin  1
    eigenvalues: 
  0.998  0.998  0.998  0.998  0.998
    eigenvectors:
  0.123  0.858  0.000  0.010  0.009
  0.005  0.008  0.333  0.598  0.056
  0.012  0.000  0.333  0.033  0.621
  0.858  0.123  0.000  0.009  0.010
  0.002  0.011  0.333  0.350  0.303
    occupations:
  0.998  0.000 -0.000  0.000 -0.000
  0.000  0.998  0.000  0.000 -0.000
 -0.000  0.000  0.998  0.000  0.000
  0.000  0.000  0.000  0.998 -0.000
 -0.000 -0.000  0.000 -0.000  0.998
   spin  2
    eigenvalues: 
  0.023  0.024  0.024  0.065  0.065
    eigenvectors:
  0.000  0.000  0.000  0.296  0.703
  0.333  0.666  0.001  0.000  0.000
  0.333  0.148  0.518  0.000  0.000
  0.000  0.000  0.000  0.703  0.296
  0.333  0.186  0.481  0.000  0.000
    occupations:
  0.065  0.000 -0.000  0.000 -0.001
  0.000  0.024  0.000  0.001 -0.000
 -0.000  0.000  0.024  0.001  0.000
  0.000  0.001  0.001  0.065 -0.000
 -0.001 -0.000  0.000 -0.000  0.024
atomic mag. moment =     4.789763
atom   15   Tr[ns(na)] (up, down, total) =   0.20081  4.99474  5.19555
   spin  1
    eigenvalues: 
  0.024  0.024  0.026  0.063  0.064
    eigenvectors:
  0.000  0.000  0.000  0.750  0.250
  0.480  0.500  0.020  0.000  0.000
  0.040  0.000  0.960  0.000  0.000
  0.000  0.000  0.000  0.250  0.750
  0.480  0.500  0.020  0.000  0.000
    occupations:
  0.063 -0.000 -0.000 -0.000  0.001
 -0.000  0.024 -0.000 -0.001 -0.000
 -0.000 -0.000  0.026  0.000 -0.000
 -0.000 -0.001  0.000  0.064  0.000
  0.001 -0.000 -0.000  0.000  0.024
   spin  2
    eigenvalues: 
  0.998  0.998  0.999  1.000  1.000
    eigenvectors:
  0.000  0.001  0.000  0.250  0.749
  0.219  0.499  0.280  0.000  0.001
  0.561  0.000  0.439  0.000  0.000
  0.000  0.000  0.001  0.749  0.250
  0.219  0.499  0.280  0.000  0.001
    occupations:
  1.000 -0.000 -0.000  0.000  0.000
 -0.000  0.998 -0.000 -0.000  0.000
 -0.000 -0.000  0.998  0.000 -0.000
  0.000 -0.000  0.000  1.000 -0.000
  0.000  0.000 -0.000 -0.000  0.998
atomic mag. moment =    -4.793933
N of occupied +U levels =   41.539436
 --- exit write_ns ---

     negative rho (up, down):  6.925E-04 1.152E-03

     Magnetic moment per site:
     atom:    1    charge:   12.8389    magn:   10.2695    constr:    0.0000
     atom:    2    charge:    5.7471    magn:    0.0657    constr:    0.0000
     atom:    3    charge:   12.8382    magn:   10.2564    constr:    0.0000
     atom:    4    charge:    5.7471    magn:    0.0019    constr:    0.0000
     atom:    5    charge:   12.8387    magn:  -10.2479    constr:    0.0000
     atom:    6    charge:    5.7471    magn:    0.0657    constr:    0.0000
     atom:    7    charge:   12.8387    magn:  -10.2479    constr:    0.0000
     atom:    8    charge:    5.7471    magn:    0.0657    constr:    0.0000
     atom:    9    charge:   12.8389    magn:   10.2695    constr:    0.0000
     atom:   10    charge:    5.7471    magn:    0.0657    constr:    0.0000
     atom:   11    charge:   12.8389    magn:   10.2695    constr:    0.0000
     atom:   12    charge:    5.7471    magn:    0.0657    constr:    0.0000
     atom:   13    charge:   12.8381    magn:   10.2563    constr:    0.0000
     atom:   14    charge:    5.7471    magn:    0.0019    constr:    0.0000
     atom:   15    charge:   12.8387    magn:  -10.2479    constr:    0.0000
     atom:   16    charge:    5.7471    magn:    0.0657    constr:    0.0000

     total cpu time spent up to now is      103.4 secs

     total energy              =   -1937.93687673 Ry
     Harris-Foulkes estimate   =   -1921.68372615 Ry
     estimated scf accuracy    <      25.41320264 Ry

     total magnetization       =    10.00 Bohr mag/cell
     absolute magnetization    =    40.80 Bohr mag/cell

     iteration #  2     ecut=    41.00 Ry     beta=0.30
     Davidson diagonalization with overlap
     ethr =  1.00E-02,  avg # of iterations =  1.1

     negative rho (up, down):  2.510E-03 4.176E-03

     Magnetic moment per site:
     atom:    1    charge:   12.7196    magn:    4.5245    constr:    0.0000
     atom:    2    charge:    5.9775    magn:   -0.0165    constr:    0.0000
     atom:    3    charge:   12.7168    magn:    4.5173    constr:    0.0000
     atom:    4    charge:    5.9781    magn:   -0.0016    constr:    0.0000
     atom:    5    charge:   12.7187    magn:   -4.5214    constr:    0.0000
     atom:    6    charge:    5.9775    magn:   -0.0165    constr:    0.0000
     atom:    7    charge:   12.7187    magn:   -4.5214    constr:    0.0000
     atom:    8    charge:    5.9775    magn:   -0.0165    constr:    0.0000
     atom:    9    charge:   12.7196    magn:    4.5245    constr:    0.0000
     atom:   10    charge:    5.9775    magn:   -0.0165    constr:    0.0000
     atom:   11    charge:   12.7196    magn:    4.5245    constr:    0.0000
     atom:   12    charge:    5.9775    magn:   -0.0165    constr:    0.0000
     atom:   13    charge:   12.7168    magn:    4.5172    constr:    0.0000
     atom:   14    charge:    5.9781    magn:   -0.0016    constr:    0.0000
     atom:   15    charge:   12.7187    magn:   -4.5214    constr:    0.0000
     atom:   16    charge:    5.9775    magn:   -0.0165    constr:    0.0000

     total cpu time spent up to now is      146.4 secs

     total energy              =   -1945.61850679 Ry
     Harris-Foulkes estimate   =   -1938.19534457 Ry
     estimated scf accuracy    <      12.62154833 Ry

     total magnetization       =    10.00 Bohr mag/cell
     absolute magnetization    =    40.38 Bohr mag/cell

     iteration #  3     ecut=    41.00 Ry     beta=0.30
     Davidson diagonalization with overlap
     ethr =  7.51E-03,  avg # of iterations =  4.0

     negative rho (up, down):  2.631E-03 4.415E-03

     Magnetic moment per site:
     atom:    1    charge:   12.6508    magn:    4.2959    constr:    0.0000
     atom:    2    charge:    5.9541    magn:    0.0240    constr:    0.0000
     atom:    3    charge:   12.6455    magn:    4.3126    constr:    0.0000
     atom:    4    charge:    5.9540    magn:    0.0044    constr:    0.0000
     atom:    5    charge:   12.6473    magn:   -4.2866    constr:    0.0000
     atom:    6    charge:    5.9541    magn:    0.0240    constr:    0.0000
     atom:    7    charge:   12.6473    magn:   -4.2866    constr:    0.0000
     atom:    8    charge:    5.9541    magn:    0.0240    constr:    0.0000
     atom:    9    charge:   12.6508    magn:    4.2959    constr:    0.0000
     atom:   10    charge:    5.9541    magn:    0.0240    constr:    0.0000
     atom:   11    charge:   12.6508    magn:    4.2959    constr:    0.0000
     atom:   12    charge:    5.9541    magn:    0.0240    constr:    0.0000
     atom:   13    charge:   12.6456    magn:    4.3124    constr:    0.0000
     atom:   14    charge:    5.9540    magn:    0.0044    constr:    0.0000
     atom:   15    charge:   12.6473    magn:   -4.2866    constr:    0.0000
     atom:   16    charge:    5.9541    magn:    0.0240    constr:    0.0000

     total cpu time spent up to now is      222.4 secs

     total energy              =   -1946.18030352 Ry
     Harris-Foulkes estimate   =   -1946.30766743 Ry
     estimated scf accuracy    <       0.39932572 Ry

     total magnetization       =    10.00 Bohr mag/cell
     absolute magnetization    =    38.26 Bohr mag/cell

     iteration #  4     ecut=    41.00 Ry     beta=0.30
     Davidson diagonalization with overlap
     ethr =  2.38E-04,  avg # of iterations =  4.5

     negative rho (up, down):  2.686E-03 4.512E-03

     Magnetic moment per site:
     atom:    1    charge:   12.6394    magn:    4.1878    constr:    0.0000
     atom:    2    charge:    5.9637    magn:    0.0282    constr:    0.0000
     atom:    3    charge:   12.6337    magn:    4.2077    constr:    0.0000
     atom:    4    charge:    5.9635    magn:    0.0037    constr:    0.0000
     atom:    5    charge:   12.6360    magn:   -4.1783    constr:    0.0000
     atom:    6    charge:    5.9637    magn:    0.0282    constr:    0.0000
     atom:    7    charge:   12.6360    magn:   -4.1783    constr:    0.0000
     atom:    8    charge:    5.9637    magn:    0.0282    constr:    0.0000
     atom:    9    charge:   12.6394    magn:    4.1878    constr:    0.0000
     atom:   10    charge:    5.9637    magn:    0.0282    constr:    0.0000
     atom:   11    charge:   12.6394    magn:    4.1878    constr:    0.0000
     atom:   12    charge:    5.9637    magn:    0.0282    constr:    0.0000
     atom:   13    charge:   12.6338    magn:    4.2075    constr:    0.0000
     atom:   14    charge:    5.9635    magn:    0.0037    constr:    0.0000
     atom:   15    charge:   12.6360    magn:   -4.1783    constr:    0.0000
     atom:   16    charge:    5.9637    magn:    0.0282    constr:    0.0000

     total cpu time spent up to now is      314.5 secs

     total energy              =   -1946.25309087 Ry
     Harris-Foulkes estimate   =   -1946.25855890 Ry
     estimated scf accuracy    <       0.03014426 Ry

     total magnetization       =    10.00 Bohr mag/cell
     absolute magnetization    =    38.19 Bohr mag/cell

     iteration #  5     ecut=    41.00 Ry     beta=0.30
     Davidson diagonalization with overlap
     ethr =  1.79E-05,  avg # of iterations =  3.9

     negative rho (up, down):  2.713E-03 4.588E-03

     Magnetic moment per site:
     atom:    1    charge:   12.6088    magn:    4.2414    constr:    0.0000
     atom:    2    charge:    5.9731    magn:    0.0513    constr:    0.0000
     atom:    3    charge:   12.6011    magn:    4.2743    constr:    0.0000
     atom:    4    charge:    5.9722    magn:    0.0024    constr:    0.0000
     atom:    5    charge:   12.6052    magn:   -4.2301    constr:    0.0000
     atom:    6    charge:    5.9731    magn:    0.0513    constr:    0.0000
     atom:    7    charge:   12.6052    magn:   -4.2301    constr:    0.0000
     atom:    8    charge:    5.9731    magn:    0.0513    constr:    0.0000
     atom:    9    charge:   12.6088    magn:    4.2414    constr:    0.0000
     atom:   10    charge:    5.9731    magn:    0.0513    constr:    0.0000
     atom:   11    charge:   12.6088    magn:    4.2414    constr:    0.0000
     atom:   12    charge:    5.9731    magn:    0.0513    constr:    0.0000
     atom:   13    charge:   12.6011    magn:    4.2743    constr:    0.0000
     atom:   14    charge:    5.9722    magn:    0.0024    constr:    0.0000
     atom:   15    charge:   12.6052    magn:   -4.2301    constr:    0.0000
     atom:   16    charge:    5.9731    magn:    0.0513    constr:    0.0000

     total cpu time spent up to now is      385.4 secs

     total energy              =   -1946.25299093 Ry
     Harris-Foulkes estimate   =   -1946.25481620 Ry
     estimated scf accuracy    <       0.01112503 Ry

     total magnetization       =    10.00 Bohr mag/cell
     absolute magnetization    =    38.10 Bohr mag/cell
 kfg - setting two_fermi_energies to FALSE

     iteration #  6     ecut=    41.00 Ry     beta=0.30
     Davidson diagonalization with overlap
     ethr =  6.62E-06,  avg # of iterations =  3.2

     negative rho (up, down):  2.709E-03 4.586E-03

     Magnetic moment per site:
     atom:    1    charge:   12.6035    magn:    4.2464    constr:    0.0000
     atom:    2    charge:    5.9736    magn:    0.0561    constr:    0.0000
     atom:    3    charge:   12.5951    magn:    4.2819    constr:    0.0000
     atom:    4    charge:    5.9724    magn:    0.0014    constr:    0.0000
     atom:    5    charge:   12.5999    magn:   -4.2356    constr:    0.0000
     atom:    6    charge:    5.9736    magn:    0.0561    constr:    0.0000
     atom:    7    charge:   12.5999    magn:   -4.2356    constr:    0.0000
     atom:    8    charge:    5.9736    magn:    0.0561    constr:    0.0000
     atom:    9    charge:   12.6035    magn:    4.2464    constr:    0.0000
     atom:   10    charge:    5.9736    magn:    0.0561    constr:    0.0000
     atom:   11    charge:   12.6035    magn:    4.2464    constr:    0.0000
     atom:   12    charge:    5.9736    magn:    0.0561    constr:    0.0000
     atom:   13    charge:   12.5951    magn:    4.2819    constr:    0.0000
     atom:   14    charge:    5.9724    magn:    0.0014    constr:    0.0000
     atom:   15    charge:   12.5999    magn:   -4.2356    constr:    0.0000
     atom:   16    charge:    5.9736    magn:    0.0561    constr:    0.0000

     total cpu time spent up to now is      457.3 secs

     total energy              =   -1946.25488808 Ry
     Harris-Foulkes estimate   =   -1946.25495383 Ry
     estimated scf accuracy    <       0.00046917 Ry

     total magnetization       =    10.00 Bohr mag/cell
     absolute magnetization    =    38.05 Bohr mag/cell

     iteration #  7     ecut=    41.00 Ry     beta=0.30
     Davidson diagonalization with overlap
     ethr =  2.79E-07,  avg # of iterations =  2.1

     negative rho (up, down):  2.702E-03 4.574E-03

     Magnetic moment per site:
     atom:    1    charge:   12.6024    magn:    4.2345    constr:    0.0000
     atom:    2    charge:    5.9738    magn:    0.0575    constr:    0.0000
     atom:    3    charge:   12.5936    magn:    4.2705    constr:    0.0000
     atom:    4    charge:    5.9726    magn:    0.0008    constr:    0.0000
     atom:    5    charge:   12.5988    magn:   -4.2244    constr:    0.0000
     atom:    6    charge:    5.9738    magn:    0.0575    constr:    0.0000
     atom:    7    charge:   12.5988    magn:   -4.2244    constr:    0.0000
     atom:    8    charge:    5.9738    magn:    0.0575    constr:    0.0000
     atom:    9    charge:   12.6024    magn:    4.2345    constr:    0.0000
     atom:   10    charge:    5.9738    magn:    0.0575    constr:    0.0000
     atom:   11    charge:   12.6024    magn:    4.2345    constr:    0.0000
     atom:   12    charge:    5.9738    magn:    0.0575    constr:    0.0000
     atom:   13    charge:   12.5936    magn:    4.2706    constr:    0.0000
     atom:   14    charge:    5.9726    magn:    0.0008    constr:    0.0000
     atom:   15    charge:   12.5988    magn:   -4.2244    constr:    0.0000
     atom:   16    charge:    5.9738    magn:    0.0575    constr:    0.0000

     total cpu time spent up to now is      513.1 secs

     total energy              =   -1946.25493914 Ry
     Harris-Foulkes estimate   =   -1946.25492820 Ry
     estimated scf accuracy    <       0.00007367 Ry

     total magnetization       =    10.00 Bohr mag/cell
     absolute magnetization    =    38.05 Bohr mag/cell

     iteration #  8     ecut=    41.00 Ry     beta=0.30
     Davidson diagonalization with overlap
     ethr =  4.39E-08,  avg # of iterations =  2.1

     negative rho (up, down):  2.691E-03 4.556E-03

     Magnetic moment per site:
     atom:    1    charge:   12.6026    magn:    4.2342    constr:    0.0000
     atom:    2    charge:    5.9736    magn:    0.0583    constr:    0.0000
     atom:    3    charge:   12.5935    magn:    4.2703    constr:    0.0000
     atom:    4    charge:    5.9723    magn:    0.0005    constr:    0.0000
     atom:    5    charge:   12.5989    magn:   -4.2244    constr:    0.0000
     atom:    6    charge:    5.9736    magn:    0.0583    constr:    0.0000
     atom:    7    charge:   12.5989    magn:   -4.2244    constr:    0.0000
     atom:    8    charge:    5.9736    magn:    0.0583    constr:    0.0000
     atom:    9    charge:   12.6026    magn:    4.2342    constr:    0.0000
     atom:   10    charge:    5.9736    magn:    0.0583    constr:    0.0000
     atom:   11    charge:   12.6026    magn:    4.2342    constr:    0.0000
     atom:   12    charge:    5.9736    magn:    0.0583    constr:    0.0000
     atom:   13    charge:   12.5935    magn:    4.2703    constr:    0.0000
     atom:   14    charge:    5.9723    magn:    0.0005    constr:    0.0000
     atom:   15    charge:   12.5989    magn:   -4.2244    constr:    0.0000
     atom:   16    charge:    5.9736    magn:    0.0583    constr:    0.0000

     total cpu time spent up to now is      575.2 secs

     total energy              =   -1946.25495306 Ry
     Harris-Foulkes estimate   =   -1946.25495101 Ry
     estimated scf accuracy    <       0.00000535 Ry

     total magnetization       =    10.00 Bohr mag/cell
     absolute magnetization    =    38.04 Bohr mag/cell

     iteration #  9     ecut=    41.00 Ry     beta=0.30
     Davidson diagonalization with overlap
     ethr =  3.19E-09,  avg # of iterations =  2.1

     negative rho (up, down):  2.682E-03 4.540E-03

     Magnetic moment per site:
     atom:    1    charge:   12.6026    magn:    4.2341    constr:    0.0000
     atom:    2    charge:    5.9735    magn:    0.0594    constr:    0.0000
     atom:    3    charge:   12.5932    magn:    4.2702    constr:    0.0000
     atom:    4    charge:    5.9722    magn:    0.0002    constr:    0.0000
     atom:    5    charge:   12.5987    magn:   -4.2245    constr:    0.0000
     atom:    6    charge:    5.9735    magn:    0.0594    constr:    0.0000
     atom:    7    charge:   12.5987    magn:   -4.2245    constr:    0.0000
     atom:    8    charge:    5.9735    magn:    0.0594    constr:    0.0000
     atom:    9    charge:   12.6026    magn:    4.2341    constr:    0.0000
     atom:   10    charge:    5.9735    magn:    0.0594    constr:    0.0000
     atom:   11    charge:   12.6026    magn:    4.2341    constr:    0.0000
     atom:   12    charge:    5.9735    magn:    0.0594    constr:    0.0000
     atom:   13    charge:   12.5932    magn:    4.2702    constr:    0.0000
     atom:   14    charge:    5.9722    magn:    0.0002    constr:    0.0000
     atom:   15    charge:   12.5987    magn:   -4.2245    constr:    0.0000
     atom:   16    charge:    5.9735    magn:    0.0594    constr:    0.0000

     total cpu time spent up to now is      633.1 secs

     total energy              =   -1946.25495386 Ry
     Harris-Foulkes estimate   =   -1946.25495375 Ry
     estimated scf accuracy    <       0.00000217 Ry

     total magnetization       =    10.00 Bohr mag/cell
     absolute magnetization    =    38.04 Bohr mag/cell

     iteration # 10     ecut=    41.00 Ry     beta=0.30
     Davidson diagonalization with overlap
     ethr =  1.29E-09,  avg # of iterations =  2.3

     negative rho (up, down):  2.684E-03 4.543E-03

     Magnetic moment per site:
     atom:    1    charge:   12.6026    magn:    4.2341    constr:    0.0000
     atom:    2    charge:    5.9735    magn:    0.0595    constr:    0.0000
     atom:    3    charge:   12.5932    magn:    4.2701    constr:    0.0000
     atom:    4    charge:    5.9722    magn:    0.0001    constr:    0.0000
     atom:    5    charge:   12.5987    magn:   -4.2245    constr:    0.0000
     atom:    6    charge:    5.9735    magn:    0.0595    constr:    0.0000
     atom:    7    charge:   12.5987    magn:   -4.2245    constr:    0.0000
     atom:    8    charge:    5.9735    magn:    0.0595    constr:    0.0000
     atom:    9    charge:   12.6026    magn:    4.2341    constr:    0.0000
     atom:   10    charge:    5.9735    magn:    0.0595    constr:    0.0000
     atom:   11    charge:   12.6026    magn:    4.2341    constr:    0.0000
     atom:   12    charge:    5.9735    magn:    0.0595    constr:    0.0000
     atom:   13    charge:   12.5931    magn:    4.2701    constr:    0.0000
     atom:   14    charge:    5.9722    magn:    0.0001    constr:    0.0000
     atom:   15    charge:   12.5987    magn:   -4.2245    constr:    0.0000
     atom:   16    charge:    5.9735    magn:    0.0595    constr:    0.0000

     total cpu time spent up to now is      697.7 secs

     total energy              =   -1946.25495456 Ry
     Harris-Foulkes estimate   =   -1946.25495437 Ry
     estimated scf accuracy    <       0.00000020 Ry

     total magnetization       =    10.00 Bohr mag/cell
     absolute magnetization    =    38.04 Bohr mag/cell

     iteration # 11     ecut=    41.00 Ry     beta=0.30
     Davidson diagonalization with overlap
     ethr =  1.20E-10,  avg # of iterations =  2.1

     negative rho (up, down):  2.686E-03 4.546E-03

     Magnetic moment per site:
     atom:    1    charge:   12.6027    magn:    4.2341    constr:    0.0000
     atom:    2    charge:    5.9735    magn:    0.0595    constr:    0.0000
     atom:    3    charge:   12.5932    magn:    4.2701    constr:    0.0000
     atom:    4    charge:    5.9722    magn:    0.0001    constr:    0.0000
     atom:    5    charge:   12.5987    magn:   -4.2245    constr:    0.0000
     atom:    6    charge:    5.9735    magn:    0.0595    constr:    0.0000
     atom:    7    charge:   12.5987    magn:   -4.2245    constr:    0.0000
     atom:    8    charge:    5.9735    magn:    0.0595    constr:    0.0000
     atom:    9    charge:   12.6027    magn:    4.2341    constr:    0.0000
     atom:   10    charge:    5.9735    magn:    0.0595    constr:    0.0000
     atom:   11    charge:   12.6027    magn:    4.2341    constr:    0.0000
     atom:   12    charge:    5.9735    magn:    0.0595    constr:    0.0000
     atom:   13    charge:   12.5932    magn:    4.2701    constr:    0.0000
     atom:   14    charge:    5.9722    magn:    0.0001    constr:    0.0000
     atom:   15    charge:   12.5987    magn:   -4.2245    constr:    0.0000
     atom:   16    charge:    5.9735    magn:    0.0595    constr:    0.0000

     total cpu time spent up to now is      757.3 secs

     total energy              =   -1946.25495469 Ry
     Harris-Foulkes estimate   =   -1946.25495459 Ry
     estimated scf accuracy    <       0.00000006 Ry

     total magnetization       =    10.00 Bohr mag/cell
     absolute magnetization    =    38.04 Bohr mag/cell

     iteration # 12     ecut=    41.00 Ry     beta=0.30
     Davidson diagonalization with overlap
     ethr =  3.85E-11,  avg # of iterations =  2.0

     negative rho (up, down):  2.685E-03 4.545E-03

     Magnetic moment per site:
     atom:    1    charge:   12.6027    magn:    4.2341    constr:    0.0000
     atom:    2    charge:    5.9735    magn:    0.0594    constr:    0.0000
     atom:    3    charge:   12.5932    magn:    4.2701    constr:    0.0000
     atom:    4    charge:    5.9722    magn:    0.0001    constr:    0.0000
     atom:    5    charge:   12.5987    magn:   -4.2245    constr:    0.0000
     atom:    6    charge:    5.9735    magn:    0.0594    constr:    0.0000
     atom:    7    charge:   12.5987    magn:   -4.2245    constr:    0.0000
     atom:    8    charge:    5.9735    magn:    0.0594    constr:    0.0000
     atom:    9    charge:   12.6027    magn:    4.2341    constr:    0.0000
     atom:   10    charge:    5.9735    magn:    0.0594    constr:    0.0000
     atom:   11    charge:   12.6027    magn:    4.2341    constr:    0.0000
     atom:   12    charge:    5.9735    magn:    0.0594    constr:    0.0000
     atom:   13    charge:   12.5932    magn:    4.2701    constr:    0.0000
     atom:   14    charge:    5.9722    magn:    0.0001    constr:    0.0000
     atom:   15    charge:   12.5987    magn:   -4.2245    constr:    0.0000
     atom:   16    charge:    5.9735    magn:    0.0594    constr:    0.0000

     total cpu time spent up to now is      821.5 secs

     total energy              =   -1946.25495475 Ry
     Harris-Foulkes estimate   =   -1946.25495470 Ry
     estimated scf accuracy    <       0.00000002 Ry

     total magnetization       =    10.00 Bohr mag/cell
     absolute magnetization    =    38.04 Bohr mag/cell

     iteration # 13     ecut=    41.00 Ry     beta=0.30
     Davidson diagonalization with overlap
     ethr =  9.04E-12,  avg # of iterations =  3.0

     negative rho (up, down):  2.685E-03 4.544E-03

     Magnetic moment per site:
     atom:    1    charge:   12.6027    magn:    4.2341    constr:    0.0000
     atom:    2    charge:    5.9735    magn:    0.0594    constr:    0.0000
     atom:    3    charge:   12.5932    magn:    4.2701    constr:    0.0000
     atom:    4    charge:    5.9722    magn:    0.0001    constr:    0.0000
     atom:    5    charge:   12.5987    magn:   -4.2245    constr:    0.0000
     atom:    6    charge:    5.9735    magn:    0.0594    constr:    0.0000
     atom:    7    charge:   12.5987    magn:   -4.2245    constr:    0.0000
     atom:    8    charge:    5.9735    magn:    0.0594    constr:    0.0000
     atom:    9    charge:   12.6027    magn:    4.2341    constr:    0.0000
     atom:   10    charge:    5.9735    magn:    0.0594    constr:    0.0000
     atom:   11    charge:   12.6027    magn:    4.2341    constr:    0.0000
     atom:   12    charge:    5.9735    magn:    0.0594    constr:    0.0000
     atom:   13    charge:   12.5932    magn:    4.2702    constr:    0.0000
     atom:   14    charge:    5.9722    magn:    0.0001    constr:    0.0000
     atom:   15    charge:   12.5987    magn:   -4.2245    constr:    0.0000
     atom:   16    charge:    5.9735    magn:    0.0594    constr:    0.0000

     total cpu time spent up to now is      894.5 secs

     End of self-consistent calculation
 --- enter write_ns ---
 LDA+U parameters:
U( 1)     =  3.00000000
alpha( 1) =  0.00000000
U( 2)     =  3.00000000
alpha( 2) =  0.00000000
atom    1   Tr[ns(na)] (up, down, total) =   4.98694  0.49614  5.48308
   spin  1
    eigenvalues: 
  0.996  0.997  0.998  0.998  0.999
    eigenvectors:
  0.629  0.228  0.022  0.121  0.000
  0.081  0.043  0.457  0.419  0.000
  0.000  0.000  0.000  0.000  1.000
  0.210  0.685  0.065  0.040  0.000
  0.081  0.043  0.457  0.419  0.000
    occupations:
  0.997 -0.000  0.000 -0.000  0.000
 -0.000  0.997  0.000 -0.000  0.000
  0.000  0.000  0.999 -0.000  0.000
 -0.000 -0.000 -0.000  0.997 -0.000
  0.000  0.000  0.000 -0.000  0.997
   spin  2
    eigenvalues: 
  0.053  0.056  0.056  0.164  0.166
    eigenvectors:
  0.000  0.001  0.000  0.250  0.749
  0.019  0.500  0.481  0.000  0.000
  0.963  0.000  0.037  0.000  0.000
  0.000  0.000  0.000  0.750  0.250
  0.019  0.500  0.481  0.000  0.000
    occupations:
  0.166  0.001  0.000  0.001 -0.002
  0.001  0.056  0.000  0.002  0.000
  0.000  0.000  0.053 -0.000  0.000
  0.001  0.002 -0.000  0.165 -0.000
 -0.002  0.000  0.000 -0.000  0.056
atomic mag. moment =     4.490797
atom    3   Tr[ns(na)] (up, down, total) =   4.98757  0.46944  5.45701
   spin  1
    eigenvalues: 
  0.997  0.997  0.998  0.998  0.998
    eigenvectors:
  0.695  0.191  0.000  0.014  0.100
  0.000  0.076  0.333  0.576  0.015
  0.054  0.022  0.333  0.236  0.354
  0.191  0.695  0.000  0.100  0.014
  0.060  0.016  0.333  0.074  0.517
    occupations:
  0.997 -0.000  0.000  0.000  0.000
 -0.000  0.998  0.000 -0.000 -0.000
  0.000  0.000  0.998 -0.000  0.000
  0.000 -0.000 -0.000  0.997 -0.000
  0.000 -0.000  0.000 -0.000  0.998
   spin  2
    eigenvalues: 
  0.055  0.056  0.056  0.151  0.151
    eigenvectors:
  0.000  0.000  0.001  0.350  0.649
  0.333  0.660  0.006  0.000  0.001
  0.333  0.113  0.553  0.001  0.000
  0.000  0.001  0.000  0.649  0.350
  0.333  0.226  0.440  0.000  0.000
    occupations:
  0.151  0.001 -0.001  0.000 -0.002
  0.001  0.056  0.000  0.002 -0.000
 -0.001  0.000  0.056  0.002  0.000
  0.000  0.002  0.002  0.151 -0.000
 -0.002 -0.000  0.000 -0.000  0.056
atomic mag. moment =     4.518135
atom    5   Tr[ns(na)] (up, down, total) =   0.50275  4.98351  5.48626
   spin  1
    eigenvalues: 
  0.056  0.056  0.059  0.165  0.167
    eigenvectors:
  0.000  0.000  0.000  0.000  1.000
  0.500  0.484  0.016  0.000  0.000
  0.500  0.484  0.016  0.000  0.000
  0.001  0.000  0.000  0.999  0.000
  0.000  0.032  0.968  0.000  0.000
    occupations:
  0.167  0.001 -0.001  0.000  0.000
  0.001  0.056 -0.000  0.002 -0.000
 -0.001 -0.000  0.056  0.002  0.000
  0.000  0.002  0.002  0.165 -0.000
  0.000 -0.000  0.000 -0.000  0.059
   spin  2
    eigenvalues: 
  0.996  0.996  0.997  0.997  0.998
    eigenvectors:
  0.000  0.000  0.912  0.088  0.000
  0.000  0.083  0.044  0.456  0.417
  0.000  0.083  0.044  0.456  0.417
  0.000  0.834  0.000  0.000  0.166
  1.000  0.000  0.000  0.000  0.000
    occupations:
  0.997 -0.000  0.000  0.000  0.000
 -0.000  0.997 -0.000 -0.000 -0.000
  0.000 -0.000  0.997 -0.000  0.000
  0.000 -0.000 -0.000  0.997 -0.000
  0.000 -0.000  0.000 -0.000  0.996
atomic mag. moment =    -4.480768
atom    7   Tr[ns(na)] (up, down, total) =   0.50275  4.98351  5.48626
   spin  1
    eigenvalues: 
  0.056  0.056  0.059  0.165  0.167
    eigenvectors:
  0.001  0.000  0.000  0.749  0.250
  0.000  0.032  0.968  0.000  0.000
  0.500  0.484  0.016  0.000  0.000
  0.000  0.000  0.000  0.250  0.750
  0.500  0.484  0.016  0.000  0.000
    occupations:
  0.165 -0.000 -0.001  0.001 -0.002
 -0.000  0.059  0.000 -0.000 -0.000
 -0.001  0.000  0.056  0.002 -0.000
  0.001 -0.000  0.002  0.166 -0.000
 -0.002 -0.000 -0.000 -0.000  0.056
   spin  2
    eigenvalues: 
  0.996  0.996  0.997  0.997  0.998
    eigenvectors:
  0.000  0.625  0.228  0.022  0.125
  1.000  0.000  0.000  0.000  0.000
  0.000  0.083  0.044  0.456  0.417
  0.000  0.208  0.684  0.066  0.042
  0.000  0.083  0.044  0.456  0.417
    occupations:
  0.997 -0.000  0.000  0.000  0.000
 -0.000  0.996  0.000 -0.000 -0.000
  0.000  0.000  0.997 -0.000 -0.000
  0.000 -0.000 -0.000  0.997 -0.000
  0.000 -0.000 -0.000 -0.000  0.997
atomic mag. moment =    -4.480768
atom    9   Tr[ns(na)] (up, down, total) =   4.98694  0.49614  5.48308
   spin  1
    eigenvalues: 
  0.996  0.997  0.998  0.998  0.999
    eigenvectors:
  0.629  0.228  0.022  0.121  0.000
  0.000  0.000  0.000  0.000  1.000
  0.081  0.043  0.457  0.419  0.000
  0.210  0.685  0.065  0.040  0.000
  0.081  0.043  0.457  0.419  0.000
    occupations:
  0.997 -0.000  0.000  0.000  0.000
 -0.000  0.999  0.000 -0.000 -0.000
  0.000  0.000  0.997 -0.000 -0.000
  0.000 -0.000 -0.000  0.997  0.000
  0.000 -0.000 -0.000  0.000  0.997
   spin  2
    eigenvalues: 
  0.053  0.056  0.056  0.164  0.166
    eigenvectors:
  0.000  0.001  0.000  0.250  0.749
  0.963  0.000  0.037  0.000  0.000
  0.019  0.500  0.481  0.000  0.000
  0.000  0.000  0.000  0.750  0.250
  0.019  0.500  0.481  0.000  0.000
    occupations:
  0.166 -0.000 -0.001 -0.001 -0.002
 -0.000  0.053  0.000 -0.000 -0.000
 -0.001  0.000  0.056  0.002 -0.000
 -0.001 -0.000  0.002  0.165  0.000
 -0.002 -0.000 -0.000  0.000  0.056
atomic mag. moment =     4.490797
atom   11   Tr[ns(na)] (up, down, total) =   4.98694  0.49614  5.48308
   spin  1
    eigenvalues: 
  0.996  0.997  0.998  0.998  0.999
    eigenvectors:
  0.000  0.914  0.086  0.000  0.000
  0.081  0.043  0.457  0.419  0.000
  0.081  0.043  0.457  0.419  0.000
  0.839  0.000  0.000  0.161  0.000
  0.000  0.000  0.000  0.000  1.000
    occupations:
  0.997 -0.000  0.000  0.000  0.000
 -0.000  0.997 -0.000 -0.000 -0.000
  0.000 -0.000  0.997 -0.000  0.000
  0.000 -0.000 -0.000  0.997 -0.000
  0.000 -0.000  0.000 -0.000  0.999
   spin  2
    eigenvalues: 
  0.053  0.056  0.056  0.164  0.166
    eigenvectors:
  0.000  0.000  0.000  1.000  0.000
  0.019  0.500  0.481  0.000  0.000
  0.019  0.500  0.481  0.000  0.000
  0.000  0.001  0.000  0.000  0.999
  0.963  0.000  0.037  0.000  0.000
    occupations:
  0.164  0.001 -0.001  0.000  0.000
  0.001  0.056 -0.000  0.002 -0.000
 -0.001 -0.000  0.056  0.002  0.000
  0.000  0.002  0.002  0.166 -0.000
  0.000 -0.000  0.000 -0.000  0.053
atomic mag. moment =     4.490797
atom   13   Tr[ns(na)] (up, down, total) =   4.98757  0.46941  5.45698
   spin  1
    eigenvalues: 
  0.997  0.997  0.998  0.998  0.998
    eigenvectors:
  0.016  0.868  0.000  0.100  0.016
  0.048  0.029  0.333  0.362  0.227
  0.066  0.011  0.333  0.013  0.577
  0.868  0.016  0.000  0.016  0.100
  0.001  0.076  0.333  0.509  0.080
    occupations:
  0.997  0.000 -0.000  0.000 -0.000
  0.000  0.998 -0.000  0.000  0.000
 -0.000 -0.000  0.998  0.000 -0.000
  0.000  0.000  0.000  0.997 -0.000
 -0.000  0.000 -0.000 -0.000  0.998
   spin  2
    eigenvalues: 
  0.055  0.055  0.056  0.151  0.151
    eigenvectors:
  0.000  0.001  0.000  0.270  0.729
  0.651  0.015  0.333  0.000  0.000
  0.088  0.578  0.333  0.001  0.000
  0.001  0.000  0.000  0.729  0.270
  0.261  0.406  0.333  0.000  0.000
    occupations:
  0.151 -0.001  0.001  0.000  0.002
 -0.001  0.056 -0.000 -0.002  0.000
  0.001 -0.000  0.056 -0.002 -0.000
  0.000 -0.002 -0.002  0.151 -0.000
  0.002  0.000 -0.000 -0.000  0.056
atomic mag. moment =     4.518157
atom   15   Tr[ns(na)] (up, down, total) =   0.50275  4.98351  5.48626
   spin  1
    eigenvalues: 
  0.056  0.056  0.059  0.165  0.167
    eigenvectors:
  0.001  0.000  0.000  0.749  0.250
  0.500  0.484  0.016  0.000  0.000
  0.000  0.032  0.968  0.000  0.000
  0.000  0.000  0.000  0.250  0.750
  0.500  0.484  0.016  0.000  0.000
    occupations:
  0.165  0.001  0.000 -0.001 -0.002
  0.001  0.056  0.000  0.002  0.000
  0.000  0.000  0.059 -0.000  0.000
 -0.001  0.002 -0.000  0.166  0.000
 -0.002  0.000  0.000  0.000  0.056
   spin  2
    eigenvalues: 
  0.996  0.996  0.997  0.997  0.998
    eigenvectors:
  0.000  0.625  0.228  0.022  0.125
  0.000  0.083  0.044  0.456  0.417
  1.000  0.000  0.000  0.000  0.000
  0.000  0.208  0.684  0.066  0.042
  0.000  0.083  0.044  0.456  0.417
    occupations:
  0.997 -0.000  0.000 -0.000  0.000
 -0.000  0.997  0.000 -0.000  0.000
  0.000  0.000  0.996 -0.000  0.000
 -0.000 -0.000 -0.000  0.997  0.000
  0.000  0.000  0.000  0.000  0.997
atomic mag. moment =    -4.480768
N of occupied +U levels =   43.822015
 --- exit write_ns ---

 ------ SPIN UP ------------


          k = 0.0000 0.0000 0.0000 (  5329 PWs)   bands (ev):

   -69.0503 -69.0500 -68.9123 -68.9100 -68.9100 -63.8405 -63.8375 -63.8375
   -37.9222 -37.9220 -37.9220 -37.9193 -37.9193 -37.9183 -37.8026 -37.7878
   -37.7878 -37.7842 -37.7825 -37.7825 -37.7712 -37.7634 -37.7634 -32.8536
   -32.8390 -32.8390 -32.8245 -32.8194 -32.8194 -32.8145 -32.8014 -32.8014
    -6.8735  -6.1250  -6.1250  -5.9849  -5.9100  -5.9100  -5.9100  -5.8504
     4.5013   4.5574   4.5574   4.5623   5.8993   5.8993   6.1860   6.1860
     6.1880   6.4980   6.4980   6.5889   6.6335   6.6335   6.6412   7.4249
     7.4249   7.5930   8.2754   8.2754   8.3849   8.3849   8.3861   8.4028
     8.4040   8.4040   8.4405   8.7877   8.7877   8.8307   8.8307   8.9408
     8.9408   8.9424   9.2413   9.3527   9.4370   9.4370   9.4381   9.5075
     9.5075  10.8605  10.8605  10.9825  11.0830  11.0830  11.1728  12.2564
    12.2564  12.4539  14.9171  14.9404  14.9404  15.6063  15.6738  15.6738
    16.0823  16.0823  16.1214  16.2816  16.2816  16.2832  16.2878  16.2878
    16.4098  16.4430  16.4456

          k =-0.1768 0.1768 0.1768 (  5402 PWs)   bands (ev):

   -69.0505 -69.0497 -68.9116 -68.9096 -68.9096 -63.8400 -63.8380 -63.8372
   -37.9221 -37.9218 -37.9214 -37.9192 -37.9186 -37.9179 -37.7992 -37.7883
   -37.7857 -37.7839 -37.7834 -37.7823 -37.7735 -37.7689 -37.7644 -32.8486
   -32.8379 -32.8352 -32.8236 -32.8211 -32.8200 -32.8172 -32.8074 -32.8024
    -6.7447  -6.1132  -6.0957  -6.0587  -5.9832  -5.9427  -5.9248  -5.8674
     4.7982   4.8460   4.8503   4.9923   5.9693   6.0060   6.0504   6.0661
     6.0791   6.4389   6.5455   6.5940   6.6663   6.7290   6.7756   7.0398
     7.1721   7.2120   7.6929   7.7699   7.7871   8.0618   8.1622   8.3005
     8.3477   8.4456   8.4964   8.7063   8.8877   8.9287   8.9716   9.0748
     9.0924   9.1087   9.2004   9.2936   9.3493   9.4594   9.4603   9.9220
     9.9259  10.9359  10.9493  10.9774  11.0064  11.1098  11.1414  11.8300
    11.8302  13.4447  14.8532  15.0430  15.0754  15.4937  15.5502  15.6117
    15.7317  15.8633  15.9942  16.0605  16.1278  16.1584  16.2677  16.2696
    16.2993  16.3326  17.3706

          k = 0.3536-0.3536-0.3536 (  5444 PWs)   bands (ev):

   -69.0507 -69.0493 -68.9111 -68.9092 -68.9091 -63.8389 -63.8389 -63.8368
   -37.9219 -37.9216 -37.9209 -37.9190 -37.9178 -37.9175 -37.7956 -37.7864
   -37.7848 -37.7830 -37.7803 -37.7797 -37.7794 -37.7793 -37.7652 -32.8447
   -32.8289 -32.8277 -32.8267 -32.8258 -32.8218 -32.8195 -32.8162 -32.8032
    -6.4232  -6.4104  -6.0979  -6.0339  -6.0078  -5.9653  -5.9610  -5.8715
     5.3564   5.4465   5.4951   5.5871   5.6504   5.6973   5.9435   6.1264
     6.2408   6.3104   6.4542   6.4662   6.5904   6.6245   6.7264   6.7710
     6.7905   6.8272   7.1439   7.5143   7.5275   7.8159   7.9273   8.1464
     8.3088   8.3110   8.5558   8.7437   8.8963   8.9197   9.0736   9.1057
     9.1668   9.2372   9.2720   9.3067   9.3412   9.3628   9.3937  10.6999
    10.7063  10.8750  10.9255  10.9284  11.0806  11.0947  11.1066  11.2044
    11.2236  14.6980  14.9026  15.0873  15.2445  15.3155  15.4809  15.4933
    15.5526  15.7255  15.7329  16.0271  16.0409  16.0426  16.0850  16.0882
    16.1300  16.2297  18.2695

          k = 0.0000 0.0000 0.3536 (  5425 PWs)   bands (ev):

   -69.0502 -69.0499 -68.9116 -68.9101 -68.9094 -63.8398 -63.8377 -63.8368
   -37.9221 -37.9216 -37.9212 -37.9190 -37.9186 -37.9175 -37.7992 -37.7882
   -37.7857 -37.7847 -37.7828 -37.7827 -37.7735 -37.7688 -37.7646 -32.8488
   -32.8379 -32.8354 -32.8238 -32.8212 -32.8204 -32.8172 -32.8075 -32.8025
    -6.7107  -6.1673  -6.0806  -6.0075  -5.9704  -5.9594  -5.9556  -5.8879
     4.8655   4.9087   4.9598   4.9961   5.8289   5.9598   6.1166   6.1959
     6.2509   6.4260   6.4842   6.6007   6.6115   6.7186   6.7329   6.9896
     7.1211   7.2271   7.5729   7.7106   7.7749   8.0571   8.0922   8.1265
     8.3856   8.4249   8.7423   8.7835   8.7952   8.8848   8.9666   9.0668
     9.0913   9.2024   9.2247   9.3912   9.4357   9.5388   9.6283   9.6458
     9.9948  10.7361  10.8339  10.9052  10.9279  11.0093  11.0930  11.1796
    12.2482  13.7802  14.9525  14.9658  15.0389  15.4896  15.5806  15.6203
    15.6268  15.8363  15.8930  15.9877  16.0055  16.1615  16.3072  16.4298
    16.4687  17.0862  17.2433

          k = 0.5303-0.5303-0.1768 (  5413 PWs)   bands (ev):

   -69.0504 -69.0496 -68.9107 -68.9099 -68.9090 -63.8389 -63.8385 -63.8364
   -37.9220 -37.9214 -37.9206 -37.9188 -37.9178 -37.9172 -37.7957 -37.7859
   -37.7856 -37.7833 -37.7811 -37.7796 -37.7791 -37.7787 -37.7654 -32.8449
   -32.8291 -32.8275 -32.8269 -32.8261 -32.8217 -32.8195 -32.8166 -32.8033
    -6.4742  -6.2490  -6.1869  -6.0371  -6.0329  -6.0094  -5.9105  -5.8754
     5.2699   5.3463   5.5010   5.5953   5.7259   5.8829   5.9480   6.1452
     6.1659   6.3363   6.4228   6.5242   6.5411   6.6788   6.7835   6.8053
     6.8760   6.9953   7.1754   7.4378   7.4702   7.6814   7.8511   7.8871
     8.3740   8.4889   8.5468   8.8575   8.8662   9.0219   9.1007   9.1611
     9.1700   9.2586   9.3629   9.3630   9.5006   9.5620   9.6073   9.9503
    10.2675  10.6262  10.7650  10.7761  10.8655  10.9292  10.9831  11.0404
    11.8422  14.7587  14.9772  15.2215  15.2908  15.3505  15.4760  15.4922
    15.5232  15.6396  15.7254  15.9061  16.1317  16.1774  16.2305  16.2676
    16.3321  16.4171  17.7109

          k = 0.3536-0.3536 0.0000 (  5416 PWs)   bands (ev):

   -69.0504 -69.0497 -68.9119 -68.9098 -68.9098 -63.8394 -63.8370 -63.8363
   -37.9218 -37.9215 -37.9209 -37.9190 -37.9184 -37.9169 -37.7993 -37.7881
   -37.7855 -37.7855 -37.7835 -37.7825 -37.7734 -37.7689 -37.7645 -32.8491
   -32.8383 -32.8357 -32.8241 -32.8218 -32.8206 -32.8174 -32.8075 -32.8026
    -6.5584  -6.1748  -6.1517  -6.0970  -6.0826  -5.9435  -5.9368  -5.8212
     5.1735   5.1758   5.3784   5.3900   5.7191   5.8283   6.0005   6.1848
     6.2236   6.3191   6.4471   6.4655   6.6363   6.6602   6.7077   6.8984
     6.9675   7.2672   7.2839   7.5009   7.6243   7.7948   7.8591   8.0325
     8.3979   8.4519   8.5028   8.6668   8.7823   8.9238   8.9652   9.0906
     9.0977   9.1909   9.3840   9.4055   9.4871   9.5186   9.6024   9.7318
    10.7222  10.7442  10.8513  10.9017  10.9454  10.9571  11.1189  11.2576
    11.6196  14.5062  14.7413  14.9896  15.0181  15.3923  15.5711  15.6211
    15.7878  15.8381  15.8813  15.9255  16.0268  16.0814  16.0903  16.1789
    16.2357  16.8491  17.0880

          k = 0.0000 0.0000-0.7071 (  5434 PWs)   bands (ev):

   -69.0501 -69.0498 -68.9106 -68.9104 -68.9087 -63.8386 -63.8384 -63.8360
   -37.9221 -37.9212 -37.9205 -37.9186 -37.9178 -37.9167 -37.7958 -37.7865
   -37.7853 -37.7837 -37.7815 -37.7798 -37.7790 -37.7778 -37.7655 -32.8452
   -32.8293 -32.8272 -32.8271 -32.8265 -32.8216 -32.8195 -32.8170 -32.8034
    -6.4123  -6.3474  -6.1020  -6.0312  -6.0220  -6.0116  -5.9716  -5.8819
     5.2307   5.2368   5.4986   5.6000   5.7793   6.0395   6.1527   6.1734
     6.1746   6.2972   6.4824   6.6225   6.6253   6.6583   6.7183   6.7696
     6.8113   6.8602   6.8748   7.3906   7.6430   7.8731   7.8740   7.9202
     8.3305   8.5406   8.7893   8.8865   8.8869   8.9093   8.9462   9.1708
     9.2206   9.4732   9.5328   9.5330   9.6362   9.6430   9.8844   9.8851
     9.8919  10.0432  10.1081  10.4705  10.6426  10.8004  10.9268  11.0372
    12.2368  14.8308  14.9967  15.1873  15.2440  15.3781  15.4833  15.4836
    15.5220  15.5653  15.7168  15.7622  16.1126  16.3293  16.4060  16.4862
    16.7185  17.1323  17.6265

          k = 0.0000 0.3536-0.7071 (  5400 PWs)   bands (ev):

   -69.0501 -69.0498 -68.9107 -68.9102 -68.9089 -63.8389 -63.8378 -63.8363
   -37.9220 -37.9211 -37.9206 -37.9184 -37.9180 -37.9168 -37.7942 -37.7886
   -37.7853 -37.7845 -37.7833 -37.7796 -37.7795 -37.7727 -37.7674 -32.8419
   -32.8370 -32.8275 -32.8275 -32.8221 -32.8211 -32.8207 -32.8142 -32.8047
    -6.2885  -6.2877  -6.2480  -6.2078  -5.9959  -5.9920  -5.9090  -5.8554
     5.5392   5.5464   5.5708   5.5885   5.7347   5.8239   5.8878   6.0366
     6.2125   6.2839   6.4352   6.4710   6.5312   6.6778   6.7711   6.7950
     6.8694   7.0370   7.2799   7.3973   7.4161   7.4593   7.6223   7.8269
     8.4187   8.5936   8.6258   8.8031   8.8234   8.9426   9.1647   9.2129
     9.2212   9.2583   9.4360   9.5812   9.5959   9.6243   9.7278   9.8383
     9.8751  10.3092  10.4899  10.6393  10.9338  10.9974  11.0513  11.4517
    11.4518  15.0561  15.0592  15.1066  15.3067  15.3970  15.4685  15.4723
    15.4936  15.6561  15.7881  15.8946  15.9180  16.0431  16.2050  16.2819
    16.8193  16.8649  17.1730

          k =-0.1768 0.1768-0.1768 (  5402 PWs)   bands (ev):

   -69.0507 -69.0495 -68.9125 -68.9102 -68.9102 -63.8398 -63.8366 -63.8366
   -37.9217 -37.9217 -37.9217 -37.9192 -37.9192 -37.9173 -37.8028 -37.7877
   -37.7877 -37.7855 -37.7827 -37.7827 -37.7711 -37.7635 -37.7635 -32.8541
   -32.8395 -32.8395 -32.8249 -32.8202 -32.8202 -32.8147 -32.8016 -32.8016
    -6.7450  -6.1163  -6.1163  -6.0622  -6.0258  -5.9218  -5.9218  -5.8205
     4.7838   4.8221   4.8221   4.9803   6.0035   6.0035   6.0406   6.0692
     6.0692   6.5160   6.5494   6.5494   6.6393   6.6393   6.6459   7.1185
     7.1185   7.3895   7.8457   7.8457   8.0061   8.2753   8.2923   8.2923
     8.3156   8.3156   8.3629   8.6808   8.6808   8.8917   8.8917   8.9429
     8.9747   9.1307   9.1307   9.2385   9.4346   9.5337   9.5337   9.9115
     9.9115  10.9910  10.9910  11.0127  11.0596  11.0985  11.0985  11.8301
    11.8301  13.4518  14.7689  14.8410  14.8410  15.4184  15.6513  15.6513
    16.0133  16.0133  16.0278  16.1131  16.1472  16.1472  16.2632  16.2632
    16.2643  16.3496  17.3343

          k = 0.3536-0.3536 0.3536 (  5444 PWs)   bands (ev):

   -69.0514 -69.0486 -68.9128 -68.9103 -68.9103 -63.8391 -63.8357 -63.8357
   -37.9215 -37.9215 -37.9212 -37.9191 -37.9191 -37.9162 -37.8031 -37.7876
   -37.7876 -37.7868 -37.7828 -37.7828 -37.7710 -37.7636 -37.7636 -32.8547
   -32.8399 -32.8399 -32.8254 -32.8209 -32.8209 -32.8148 -32.8017 -32.8017
    -6.4359  -6.3976  -6.1070  -6.1070  -6.0610  -5.9343  -5.9343  -5.7927
     5.2008   5.2619   5.2619   5.8091   5.8793   5.8793   5.9316   6.0998
     6.0998   6.1629   6.5867   6.5867   6.6135   6.6135   6.6499   6.6507
     6.6866   6.6866   7.5862   7.6736   7.6736   8.2353   8.2572   8.2572
     8.3245   8.3344   8.3344   8.4397   8.4397   8.8952   8.8952   8.9434
     9.0019   9.1067   9.2378   9.2378   9.4932   9.5173   9.5173  10.7681
    10.7681  10.8521  10.8521  10.8543  11.1056  11.1056  11.1366  11.3210
    11.3210  14.5693  14.7683  14.7683  14.9439  15.0033  15.6326  15.6326
    15.6989  15.9638  15.9638  16.0085  16.0803  16.0803  16.1012  16.2070
    16.2070  16.2602  18.2621

          k = 0.5303 0.5303 0.1768 (  5413 PWs)   bands (ev):

   -69.0504 -69.0496 -68.9109 -68.9099 -68.9088 -63.8390 -63.8382 -63.8367
   -37.9221 -37.9212 -37.9208 -37.9186 -37.9180 -37.9171 -37.7941 -37.7887
   -37.7853 -37.7838 -37.7831 -37.7801 -37.7791 -37.7729 -37.7673 -32.8417
   -32.8369 -32.8275 -32.8272 -32.8220 -32.8210 -32.8206 -32.8141 -32.8047
    -6.4733  -6.2441  -6.1981  -6.0524  -6.0273  -5.9830  -5.9188  -5.8786
     5.2911   5.3244   5.4309   5.6811   5.7219   5.8830   6.0186   6.1303
     6.1969   6.2186   6.3476   6.4679   6.6254   6.6952   6.7586   6.8403
     7.0054   7.1290   7.1788   7.2244   7.4505   7.5180   7.8930   8.1330
     8.1623   8.5499   8.6554   8.7487   8.8793   8.9989   9.0258   9.1536
     9.2444   9.3016   9.3240   9.4405   9.4964   9.5675   9.6378   9.9301
    10.3079  10.5204  10.7315  10.7678  10.8642  10.9533  10.9835  11.0770
    11.8415  14.8121  15.0040  15.1169  15.2994  15.3653  15.4532  15.4765
    15.5959  15.6529  15.8156  15.9053  15.9198  16.1230  16.2415  16.2731
    16.3524  16.5232  17.7174

          k = 0.5303-0.1768 0.5303 (  5413 PWs)   bands (ev):

   -69.0506 -69.0494 -68.9119 -68.9102 -68.9095 -63.8391 -63.8368 -63.8359
   -37.9219 -37.9213 -37.9208 -37.9188 -37.9185 -37.9165 -37.7995 -37.7881
   -37.7860 -37.7856 -37.7831 -37.7829 -37.7734 -37.7688 -37.7647 -32.8493
   -32.8384 -32.8359 -32.8242 -32.8220 -32.8211 -32.8173 -32.8076 -32.8026
    -6.4729  -6.2453  -6.2004  -6.0822  -6.0636  -5.9598  -5.9225  -5.8280
     5.2381   5.3029   5.4263   5.6475   5.6796   5.9174   5.9418   6.1641
     6.1686   6.2185   6.3248   6.4536   6.6535   6.6935   6.7213   6.8670
     6.9391   7.2200   7.3426   7.3919   7.5551   7.8037   7.8623   8.0042
     8.2200   8.4062   8.6021   8.6104   8.7610   8.9010   8.9593   9.1108
     9.1685   9.2240   9.4059   9.4847   9.6152   9.6351   9.6812   9.9410
    10.2582  10.5602  10.7464  10.7725  10.8815  10.9914  11.0031  11.0641
    11.8422  14.7385  14.8688  14.9377  14.9894  15.3853  15.5792  15.6250
    15.6303  15.8747  15.8992  15.9266  16.0486  16.1365  16.1934  16.2464
    16.3039  16.5177  17.7082

          k = 0.3536 0.3536 0.0000 (  5416 PWs)   bands (ev):

   -69.0507 -69.0494 -68.9108 -68.9097 -68.9089 -63.8391 -63.8386 -63.8370
   -37.9221 -37.9212 -37.9210 -37.9186 -37.9181 -37.9175 -37.7941 -37.7888
   -37.7846 -37.7839 -37.7827 -37.7802 -37.7793 -37.7730 -37.7672 -32.8414
   -32.8367 -32.8274 -32.8271 -32.8218 -32.8209 -32.8205 -32.8140 -32.8046
    -6.5583  -6.1737  -6.1476  -6.0716  -6.0682  -5.9425  -5.9259  -5.8788
     5.1722   5.2383   5.3808   5.4124   5.7218   5.8875   6.0525   6.0778
     6.2859   6.3552   6.4226   6.6248   6.6342   6.6726   6.7797   6.8796
     6.9733   6.9764   7.1405   7.1907   7.5572   7.7306   7.8481   8.2148
     8.3106   8.5276   8.6120   8.7733   8.9116   8.9969   9.0030   9.1730
     9.1815   9.2225   9.3065   9.3206   9.4423   9.5260   9.5473   9.7036
    10.7063  10.7226  10.8071  10.8923  10.9286  11.0454  11.1088  11.1768
    11.6196  14.5234  15.0370  15.0857  15.2815  15.3437  15.4299  15.5145
    15.6522  15.7362  15.8477  15.8684  15.9512  16.0430  16.1165  16.1853
    16.2784  16.8516  17.1210

 ------ SPIN DOWN ----------


          k = 0.0000 0.0000 0.0000 (  5329 PWs)   bands (ev):

   -68.9673 -68.9643 -68.9643 -63.8727 -63.8724 -63.7725 -63.7689 -63.7689
   -37.8544 -37.8467 -37.8467 -37.8415 -37.8369 -37.8369 -37.8289 -37.8168
   -37.8168 -32.8682 -32.8645 -32.8645 -32.8565 -32.8565 -32.8524 -32.7917
   -32.7663 -32.7663 -32.7562 -32.7540 -32.7540 -32.7449 -32.7400 -32.7400
    -6.7695  -5.9487  -5.8504  -5.8066  -5.8066  -5.7926  -5.7926  -5.7925
     4.9398   4.9995   5.0313   5.0313   6.3396   6.3396   6.3416   6.6059
     6.6059   6.6552   6.7614   6.7614   6.8489   7.6395   7.6395   8.1249
     8.1249   8.3584   8.4963   8.4976   8.4976   8.5123   8.5123   8.5135
     8.8951   9.0770   9.0770   9.1259   9.2322   9.2322   9.5243   9.5243
     9.5252  10.7686  10.7686  11.0061  11.0442  11.0442  11.0623  12.8093
    14.3721  14.3721  14.3723  15.3126  15.3326  15.3326  15.5272  15.5272
    15.8438  15.8438  15.8545  16.1409  16.1409  16.1726  16.1826  16.2371
    16.2371  16.3738  16.3738  16.4993  16.5053  16.5071  16.5071  16.5337
    16.6727  16.6727  16.6735

          k =-0.1768 0.1768 0.1768 (  5402 PWs)   bands (ev):

   -68.9669 -68.9644 -68.9644 -63.8726 -63.8723 -63.7724 -63.7699 -63.7691
   -37.8509 -37.8452 -37.8440 -37.8407 -37.8374 -37.8368 -37.8308 -37.8221
   -37.8177 -32.8667 -32.8631 -32.8614 -32.8568 -32.8564 -32.8526 -32.7867
   -32.7675 -32.7633 -32.7563 -32.7555 -32.7542 -32.7474 -32.7463 -32.7412
    -6.6423  -5.9712  -5.9451  -5.8564  -5.8337  -5.8118  -5.7904  -5.7456
     5.2191   5.2632   5.2924   5.4201   6.2105   6.2417   6.2863   6.5791
     6.6441   6.7164   6.7531   6.8922   6.9684   7.4226   7.4679   7.7432
     7.8180   7.9426   8.1741   8.3476   8.3844   8.4641   8.6141   8.6205
     8.8895   8.9930   9.0337   9.1071   9.2566   9.2617   9.3099   9.3749
     9.4136  10.8692  10.9372  10.9494  11.0322  11.0562  11.0841  13.7457
    14.4915  14.5418  14.5470  15.1561  15.3670  15.4133  15.5558  15.6363
    15.6606  15.6971  15.7036  15.8349  15.9560  16.0902  16.1043  16.1310
    16.1765  16.1849  16.2395  16.2485  16.3364  16.3847  16.3946  16.5578
    16.6967  16.6969  17.7205

          k = 0.3536-0.3536-0.3536 (  5444 PWs)   bands (ev):

   -68.9666 -68.9646 -68.9646 -63.8727 -63.8720 -63.7716 -63.7715 -63.7693
   -37.8486 -37.8400 -37.8386 -37.8385 -37.8374 -37.8369 -37.8348 -37.8322
   -37.8185 -32.8654 -32.8616 -32.8581 -32.8572 -32.8562 -32.8528 -32.7807
   -32.7643 -32.7613 -32.7580 -32.7558 -32.7545 -32.7536 -32.7533 -32.7419
    -6.3256  -6.3114  -5.9497  -5.8621  -5.8558  -5.8158  -5.7895  -5.7235
     5.6783   5.7859   5.8006   5.9665   6.0133   6.0925   6.1942   6.5690
     6.6864   6.6981   6.7205   6.7524   6.7762   6.8368   7.2210   7.6582
     7.7720   7.7780   7.8687   8.0234   8.2370   8.4198   8.5163   8.5411
     8.6022   8.9783   9.0884   9.1979   9.2998   9.3143   9.3305   9.3347
     9.3378  10.7987  10.9888  11.0048  11.0451  11.1227  11.1578  14.6404
    14.7861  14.8159  14.8175  15.1647  15.2203  15.2833  15.3525  15.6603
    15.6950  15.7594  15.7806  15.7961  16.0205  16.0310  16.0807  16.0877
    16.1068  16.1244  16.1265  16.1378  16.1435  16.1855  16.2542  16.2701
    16.2817  16.3119  18.4919

          k = 0.0000 0.0000 0.3536 (  5425 PWs)   bands (ev):

   -68.9671 -68.9647 -68.9646 -63.8726 -63.8723 -63.7723 -63.7694 -63.7693
   -37.8508 -37.8452 -37.8439 -37.8406 -37.8373 -37.8365 -37.8308 -37.8221
   -37.8177 -32.8654 -32.8634 -32.8612 -32.8568 -32.8558 -32.8529 -32.7872
   -32.7676 -32.7633 -32.7575 -32.7554 -32.7547 -32.7475 -32.7462 -32.7413
    -6.6061  -6.0059  -5.8998  -5.8661  -5.8531  -5.8188  -5.8175  -5.7391
     5.2738   5.3470   5.3551   5.4408   6.0526   6.3956   6.4449   6.5632
     6.6036   6.7355   6.7820   6.8259   7.0906   7.3164   7.3671   7.6632
     7.8909   8.0045   8.0520   8.0972   8.4146   8.4305   8.4701   8.6425
     8.7723   8.9763   8.9987   9.1231   9.2877   9.2973   9.3543   9.5945
     9.7150  10.6863  10.7831  10.7831  10.9244  10.9853  11.0509  13.9623
    14.4488  14.6181  14.6593  15.1941  15.3320  15.3947  15.4949  15.5412
    15.5835  15.7207  15.8330  15.8558  15.9302  15.9521  16.0406  16.0461
    16.0948  16.1364  16.1576  16.2346  16.3138  16.3833  16.4978  16.5399
    17.0473  17.4979  17.6243

          k = 0.5303-0.5303-0.1768 (  5413 PWs)   bands (ev):

   -68.9668 -68.9649 -68.9648 -63.8725 -63.8722 -63.7719 -63.7707 -63.7695
   -37.8484 -37.8398 -37.8386 -37.8384 -37.8370 -37.8370 -37.8350 -37.8321
   -37.8184 -32.8637 -32.8620 -32.8579 -32.8569 -32.8561 -32.8531 -32.7813
   -32.7645 -32.7613 -32.7578 -32.7568 -32.7542 -32.7541 -32.7537 -32.7420
    -6.3665  -6.1441  -6.0251  -5.9335  -5.8824  -5.8234  -5.7411  -5.7249
     5.6717   5.6735   5.7852   5.9393   6.1970   6.2803   6.2884   6.5463
     6.6300   6.6828   6.8004   6.8028   6.8548   6.9311   7.0220   7.4771
     7.7256   7.7425   7.9033   7.9158   8.2687   8.4193   8.4417   8.5632
     8.6069   8.9971   9.0263   9.1853   9.2554   9.3763   9.4573   9.4994
     9.6893  10.6271  10.7234  10.7615  10.9359  10.9400  11.0308  14.6575
    14.7994  14.9223  15.0240  15.0482  15.2560  15.2699  15.3752  15.5866
    15.6623  15.6676  15.7199  15.7242  15.7619  15.7799  15.9419  15.9607
    15.9839  16.1484  16.1874  16.2141  16.2880  16.3423  16.3649  16.5751
    16.7436  16.7824  18.1300

          k = 0.3536-0.3536 0.0000 (  5416 PWs)   bands (ev):

   -68.9675 -68.9652 -68.9651 -63.8730 -63.8717 -63.7721 -63.7695 -63.7688
   -37.8506 -37.8449 -37.8437 -37.8404 -37.8368 -37.8362 -37.8307 -37.8221
   -37.8177 -32.8633 -32.8629 -32.8611 -32.8559 -32.8554 -32.8534 -32.7881
   -32.7678 -32.7636 -32.7595 -32.7564 -32.7552 -32.7475 -32.7462 -32.7413
    -6.4556  -6.0783  -6.0188  -5.9653  -5.8794  -5.7900  -5.7247  -5.7184
     5.5020   5.6024   5.7201   5.7637   6.0024   6.1483   6.2466   6.5617
     6.6166   6.6564   6.8022   6.8720   7.0745   7.3768   7.4277   7.5728
     7.7016   7.7488   7.9082   8.0113   8.1857   8.2923   8.3688   8.5275
     8.6295   8.9376   9.0875   9.1396   9.2175   9.2557   9.3841   9.4766
     9.7303  10.6939  10.8210  10.8708  10.9208  11.0540  11.1945  14.5800
    14.6685  14.6720  14.6947  15.0019  15.2457  15.3839  15.4920  15.5548
    15.6503  15.7270  15.8790  15.9042  15.9786  15.9868  16.0132  16.0239
    16.0632  16.0973  16.1156  16.1883  16.1945  16.2343  16.2924  16.3073
    16.5487  17.2346  17.4608

          k = 0.0000 0.0000-0.7071 (  5434 PWs)   bands (ev):

   -68.9669 -68.9652 -68.9650 -63.8724 -63.8722 -63.7722 -63.7699 -63.7697
   -37.8482 -37.8396 -37.8386 -37.8383 -37.8371 -37.8366 -37.8351 -37.8319
   -37.8184 -32.8630 -32.8623 -32.8579 -32.8564 -32.8550 -32.8533 -32.7820
   -32.7648 -32.7612 -32.7582 -32.7575 -32.7549 -32.7540 -32.7535 -32.7421
    -6.2886  -6.2130  -5.9639  -5.9153  -5.9077  -5.8419  -5.8245  -5.6940
     5.5223   5.6259   5.9283   6.0298   6.2615   6.3702   6.6010   6.6346
     6.6383   6.6523   6.7744   6.7854   6.8359   6.8849   6.9048   7.5289
     7.5357   7.5622   7.5844   7.9491   8.3082   8.4510   8.6661   8.6674
     8.6681   8.8363   8.9729   9.1873   9.5465   9.5731   9.5742   9.6770
     9.9418  10.0456  10.2137  10.4759  10.8099  10.9285  11.0423  14.5637
    14.8915  14.9556  15.0428  15.2631  15.2634  15.3193  15.4503  15.4703
    15.4717  15.5613  15.5669  15.6381  15.7626  15.7628  15.7858  15.8122
    15.8324  16.1379  16.1641  16.2235  16.3859  16.4853  16.5460  17.0461
    17.2616  17.5005  18.1124

          k = 0.0000 0.3536-0.7071 (  5400 PWs)   bands (ev):

   -68.9667 -68.9656 -68.9648 -63.8724 -63.8722 -63.7720 -63.7703 -63.7694
   -37.8457 -37.8439 -37.8395 -37.8383 -37.8369 -37.8360 -37.8357 -37.8279
   -37.8199 -32.8625 -32.8612 -32.8589 -32.8566 -32.8554 -32.8533 -32.7801
   -32.7695 -32.7602 -32.7592 -32.7571 -32.7547 -32.7546 -32.7478 -32.7449
    -6.1806  -6.1666  -6.0999  -6.0955  -5.8523  -5.8151  -5.7205  -5.7204
     5.7844   5.8543   5.8981   6.0140   6.1759   6.1994   6.3926   6.4172
     6.4999   6.6200   6.8048   6.8380   6.9215   6.9549   7.2493   7.4089
     7.6090   7.6721   7.7231   7.9891   7.9981   8.1926   8.3483   8.5495
     8.8727   8.9452   9.0016   9.2551   9.2974   9.3502   9.5789   9.6784
     9.8657  10.3029  10.4545  10.6261  10.9313  10.9941  11.0486  14.8341
    14.8353  15.0742  15.1009  15.1314  15.2817  15.2901  15.3438  15.5204
    15.5343  15.5905  15.6105  15.6815  15.7521  15.7779  15.9094  15.9610
    15.9787  16.0782  16.0945  16.0950  16.2599  16.3370  16.4756  16.4857
    17.2872  17.3717  17.5424

          k =-0.1768 0.1768-0.1768 (  5402 PWs)   bands (ev):

   -68.9679 -68.9650 -68.9650 -63.8734 -63.8715 -63.7722 -63.7685 -63.7685
   -37.8541 -37.8464 -37.8464 -37.8412 -37.8363 -37.8363 -37.8288 -37.8167
   -37.8167 -32.8646 -32.8646 -32.8640 -32.8556 -32.8556 -32.8532 -32.7930
   -32.7666 -32.7666 -32.7590 -32.7550 -32.7550 -32.7450 -32.7402 -32.7402
    -6.6427  -6.0025  -5.9589  -5.8630  -5.8630  -5.7878  -5.7390  -5.7390
     5.1670   5.2538   5.2538   5.3846   6.2324   6.2324   6.2932   6.6605
     6.6647   6.6647   6.8227   6.8227   6.8437   7.5734   7.5734   7.8760
     7.9840   7.9840   8.2819   8.3556   8.3556   8.4531   8.4677   8.4677
     8.8329   8.8956   9.0461   9.0461   9.2577   9.2577   9.3167   9.3167
     9.3981  10.9061  10.9895  10.9895  11.0516  11.0516  11.0868  13.7515
    14.4408  14.4417  14.4417  15.1206  15.3066  15.3066  15.5574  15.6873
    15.6873  15.7050  15.7050  16.0448  16.0448  16.0857  16.1644  16.1647
    16.1647  16.2275  16.2473  16.2473  16.3365  16.3365  16.4104  16.5519
    16.6930  16.6930  17.7257

          k = 0.3536-0.3536 0.3536 (  5444 PWs)   bands (ev):

   -68.9684 -68.9657 -68.9657 -63.8741 -63.8707 -63.7718 -63.7682 -63.7682
   -37.8537 -37.8462 -37.8462 -37.8409 -37.8358 -37.8358 -37.8287 -37.8167
   -37.8167 -32.8649 -32.8649 -32.8593 -32.8546 -32.8546 -32.8540 -32.7946
   -32.7669 -32.7669 -32.7620 -32.7560 -32.7560 -32.7452 -32.7403 -32.7403
    -6.3401  -6.2975  -6.0260  -5.8901  -5.8901  -5.7587  -5.7146  -5.7146
     5.4780   5.5563   5.5563   5.9910   6.3517   6.3517   6.3795   6.3795
     6.4488   6.5320   6.6658   6.8364   6.8364   7.2740   7.5913   7.5913
     7.7266   7.7943   7.7943   8.3200   8.3200   8.4117   8.4268   8.4268
     8.7665   8.8886   8.8886   8.8961   9.1551   9.1551   9.3672   9.3672
     9.4230  10.7790  10.9656  10.9656  11.1672  11.2576  11.2576  14.5091
    14.5107  14.5107  14.7725  15.0637  15.3604  15.3604  15.4901  15.4901
    15.5767  15.8388  15.9661  15.9769  15.9769  16.0808  16.0808  16.1364
    16.1364  16.1526  16.1670  16.1670  16.1987  16.2313  16.2313  16.3100
    16.3100  16.3193  18.4879

          k = 0.5303 0.5303 0.1768 (  5413 PWs)   bands (ev):

   -68.9665 -68.9653 -68.9646 -63.8725 -63.8722 -63.7720 -63.7706 -63.7694
   -37.8459 -37.8440 -37.8395 -37.8385 -37.8371 -37.8362 -37.8356 -37.8279
   -37.8199 -32.8641 -32.8610 -32.8590 -32.8568 -32.8557 -32.8531 -32.7795
   -32.7694 -32.7601 -32.7584 -32.7568 -32.7551 -32.7537 -32.7479 -32.7449
    -6.3652  -6.1401  -6.0506  -5.9042  -5.8725  -5.8293  -5.7715  -5.7076
     5.5881   5.7353   5.8718   6.0030   6.0379   6.2536   6.3238   6.4407
     6.6206   6.7011   6.7569   6.8047   6.8950   7.0596   7.2604   7.4783
     7.5789   7.6783   7.7392   7.9853   8.1202   8.3878   8.4683   8.6395
     8.8223   8.9171   8.9873   9.1867   9.3504   9.3867   9.4041   9.5141
     9.7353  10.5256  10.6871  10.7468  10.9200  10.9805  11.0762  14.6344
    14.8501  14.9059  14.9981  15.1243  15.2294  15.3348  15.3830  15.5636
    15.6188  15.6211  15.6796  15.7128  15.7479  15.8416  15.9524  15.9677
    16.0420  16.0615  16.1777  16.2156  16.2740  16.3157  16.4092  16.5816
    16.7453  16.8045  18.1101

          k = 0.5303-0.1768 0.5303 (  5413 PWs)   bands (ev):

   -68.9677 -68.9654 -68.9654 -63.8732 -63.8714 -63.7720 -63.7690 -63.7689
   -37.8504 -37.8449 -37.8436 -37.8403 -37.8367 -37.8360 -37.8307 -37.8221
   -37.8176 -32.8636 -32.8622 -32.8603 -32.8557 -32.8548 -32.8536 -32.7887
   -32.7679 -32.7636 -32.7605 -32.7564 -32.7558 -32.7476 -32.7461 -32.7414
    -6.3649  -6.1391  -6.0708  -5.9321  -5.9032  -5.7874  -5.7390  -5.7039
     5.6200   5.6202   5.7318   5.9041   6.1021   6.2316   6.2923   6.4748
     6.5409   6.6786   6.7888   6.9368   7.0056   7.3129   7.3340   7.5470
     7.6438   7.6876   7.8701   7.9925   8.0354   8.3245   8.4108   8.4360
     8.6258   8.9255   9.0728   9.1098   9.3170   9.3672   9.4104   9.5411
     9.7530  10.5729  10.7131  10.7595  10.9674  10.9975  11.0717  14.5594
    14.7656  14.7895  14.8025  15.0521  15.2268  15.4419  15.4963  15.5055
    15.5787  15.7085  15.7107  15.7598  15.9001  15.9066  15.9751  15.9813
    16.0424  16.0904  16.1905  16.2025  16.2647  16.3529  16.3648  16.5532
    16.7449  16.7966  18.1073

          k = 0.3536 0.3536 0.0000 (  5416 PWs)   bands (ev):

   -68.9664 -68.9650 -68.9644 -63.8727 -63.8720 -63.7719 -63.7710 -63.7695
   -37.8461 -37.8441 -37.8396 -37.8387 -37.8373 -37.8362 -37.8357 -37.8279
   -37.8199 -32.8651 -32.8609 -32.8590 -32.8567 -32.8567 -32.8528 -32.7789
   -32.7693 -32.7601 -32.7578 -32.7555 -32.7554 -32.7536 -32.7481 -32.7448
    -6.4554  -6.0685  -6.0187  -5.9179  -5.8729  -5.8200  -5.7536  -5.7241
     5.5921   5.6170   5.7113   5.7871   6.0939   6.1667   6.3945   6.5518
     6.5713   6.7177   6.7323   6.8877   6.9390   7.1438   7.1643   7.5445
     7.5509   7.6623   7.9211   8.1289   8.2251   8.3739   8.4790   8.6725
     8.8142   8.9081   9.0666   9.0980   9.2669   9.3195   9.3518   9.4532
     9.7079  10.6826  10.7690  10.8637  10.9722  11.0461  11.0924  14.6901
    14.7085  14.7557  14.8069  15.1492  15.3025  15.3346  15.3456  15.5712
    15.6509  15.6941  15.7776  15.7887  15.8476  15.9465  15.9759  16.0610
    16.0889  16.0986  16.1150  16.1888  16.1977  16.2212  16.2959  16.3490
    16.5526  17.2611  17.4614

     the Fermi energy is    12.4227 ev

!    total energy              =   -1946.25495481 Ry
     Harris-Foulkes estimate   =   -1946.25495476 Ry
     estimated scf accuracy    <          4.5E-09 Ry

     The total energy is the sum of the following terms:

     one-electron contribution =    -894.81891397 Ry
     hartree contribution      =     531.62255015 Ry
     xc contribution           =    -269.88309105 Ry
     ewald contribution        =   -1313.56707236 Ry
     Hubbard energy            =       0.39170555 Ry
     smearing contrib. (-TS)   =      -0.00013313 Ry

     total magnetization       =    10.00 Bohr mag/cell
     absolute magnetization    =    38.04 Bohr mag/cell

     convergence has been achieved in  13 iterations

     Forces acting on atoms (Ry/au):


     negative rho (up, down):  2.685E-03 4.544E-03
     atom    1 type  1   force =   0.00000000E+00  0.59499616E-29 -0.59499616E-29
     atom    2 type  3   force =  -0.12992735E-04  0.11289283E-02 -0.11289283E-02
     atom    3 type  1   force =   0.29749808E-29  0.29749808E-29 -0.29749808E-29
     atom    4 type  3   force =   0.71579849E-03 -0.71579849E-03  0.71579849E-03
     atom    5 type  2   force =   0.29749808E-29  0.29749808E-29 -0.29749808E-29
     atom    6 type  3   force =   0.11289283E-02 -0.11289283E-02  0.12992735E-04
     atom    7 type  2   force =  -0.14874904E-29  0.14874904E-29  0.74374519E-29
     atom    8 type  3   force =   0.11289283E-02 -0.12992735E-04  0.11289283E-02
     atom    9 type  1   force =  -0.59499616E-29 -0.59499616E-29  0.59499616E-29
     atom   10 type  3   force =  -0.11289283E-02  0.12992735E-04 -0.11289283E-02
     atom   11 type  1   force =   0.29749808E-29 -0.29749808E-29 -0.29749808E-29
     atom   12 type  3   force =  -0.11289283E-02  0.11289283E-02 -0.12992735E-04
     atom   13 type  1   force =   0.00000000E+00  0.00000000E+00  0.00000000E+00
     atom   14 type  3   force =  -0.71579849E-03  0.71579849E-03 -0.71579849E-03
     atom   15 type  2   force =   0.00000000E+00  0.59499616E-29 -0.59499616E-29
     atom   16 type  3   force =   0.12992735E-04 -0.11289283E-02  0.11289283E-02

     Total force =     0.004286     Total SCF correction =     0.000027


     entering subroutine stress ...


     negative rho (up, down):  2.685E-03 4.544E-03
          total   stress  (Ry/bohr**3)                   (kbar)     P=  -25.24
  -0.0001716070   0.0000355201  -0.0000355201        -25.24      5.23     -5.23
   0.0000355201  -0.0001716070   0.0000355201          5.23    -25.24      5.23
  -0.0000355201   0.0000355201  -0.0001716070         -5.23      5.23    -25.24


     Writing output data file mno_fm.scf.in.super.222.sub_frozen.011.save

     init_run     :     25.63s CPU     24.67s WALL (       1 calls)
     electrons    :    850.45s CPU    869.50s WALL (       1 calls)
     forces       :     60.50s CPU     65.60s WALL (       1 calls)
     stress       :    174.91s CPU    187.74s WALL (       1 calls)

     Called by init_run:
     wfcinit      :     24.23s CPU     23.24s WALL (       1 calls)
     potinit      :      0.23s CPU      0.24s WALL (       1 calls)

     Called by electrons:
     c_bands      :    755.50s CPU    777.40s WALL (      13 calls)
     sum_band     :     86.84s CPU     83.74s WALL (      13 calls)
     v_of_rho     :      2.12s CPU      2.16s WALL (      14 calls)
     newd         :      5.10s CPU      5.19s WALL (      14 calls)
     mix_rho      :      1.10s CPU      1.16s WALL (      13 calls)

     Called by c_bands:
     init_us_2    :      3.99s CPU      4.13s WALL (    1040 calls)
     cegterg      :    741.59s CPU    762.97s WALL (     338 calls)

     Called by *egterg:
     h_psi        :    373.21s CPU    368.22s WALL (    1325 calls)
     s_psi        :     53.27s CPU     40.04s WALL (    1611 calls)
     g_psi        :      0.50s CPU      0.50s WALL (     961 calls)
     cdiaghg      :    184.02s CPU    231.31s WALL (    1299 calls)

     Called by h_psi:
     add_vuspsi   :     40.00s CPU     30.90s WALL (    1325 calls)
     vhpsi        :     35.17s CPU     44.23s WALL (    1325 calls)

     General routines
     calbec       :    284.03s CPU    294.47s WALL (   19134 calls)
     fft          :      2.32s CPU      2.31s WALL (     468 calls)
     ffts         :      0.58s CPU      0.63s WALL (     326 calls)
     fftw         :    272.69s CPU    276.29s WALL (  212878 calls)
     interpolate  :      0.27s CPU      0.27s WALL (      54 calls)
     davcio       :      0.00s CPU      0.01s WALL (      26 calls)

     Parallel routines
     fft_scatter  :    115.37s CPU    117.94s WALL (  213672 calls)
     Hubbard U routines
     new_ns       :      7.23s CPU      7.58s WALL (      13 calls)
     vhpsi        :     35.17s CPU     44.23s WALL (    1325 calls)
     force_hub    :     52.54s CPU     59.03s WALL (       1 calls)
     stres_hub    :    153.88s CPU    166.86s WALL (       1 calls)

     PWSCF        : 18m33.84s CPU    19m10.27s WALL


   This run was terminated on:  11: 6:47  17Aug2017            

=------------------------------------------------------------------------------=
   JOB DONE.
=------------------------------------------------------------------------------=
