
     Program PWSCF v.5.1 starts on 16Aug2017 at 23: 6:22 

     This program is part of the open-source Quantum ESPRESSO suite
     for quantum simulation of materials; please cite
         "P. Giannozzi et al., J. Phys.:Condens. Matter 21 395502 (2009);
          URL http://www.quantum-espresso.org", 
     in publications or presentations arising from this work. More details at
     http://www.quantum-espresso.org/quote

     Parallel version (MPI), running on     8 processors
     R & G space division:  proc/nbgrp/npool/nimage =       8
     Reading input from /tmp/mno_fm.scf.in.super.222.04.11449/mno_fm.scf.in.super.222.04.t
Warning: card &IONS ignored
Warning: card   ION_DYNAMICS='BFGS', ignored
Warning: card / ignored
Warning: card &CELL ignored
Warning: card  CELL_DYNAMICS = 'BFGS' ignored
Warning: card / ignored

     Current dimensions of program PWSCF are:
     Max number of different atomic species (ntypx) = 10
     Max number of k-points (npk) =  40000
     Max angular momentum in pseudopotentials (lmaxx) =  3
 kfg - two_fermi_energies  T

     Subspace diagonalization in iterative solution of the eigenvalue problem:
     a serial algorithm will be used


     Parallelization info
     --------------------
     sticks:   dense  smooth     PW     G-vecs:    dense   smooth      PW
     Min         246     204     56                 7264     5421     802
     Max         247     205     57                 7267     5438     805
     Sum        1969    1639    451                58119    43407    6423

     Generating pointlists ...
     new r_m :   0.1404 (alat units)  1.6839 (a.u.) for type    1
     new r_m :   0.1404 (alat units)  1.6839 (a.u.) for type    2


     bravais-lattice index     =            0
     lattice parameter (alat)  =    11.996146938  a.u.
     unit-cell volume          =    1220.7039 (a.u.)^3
     number of atoms/cell      =           16
     number of atomic types    =            2
     number of electrons       =       168.00 (up: 104.00, down:  64.00)
     number of Kohn-Sham states=          125
     kinetic-energy cutoff     =      41.0000  Ry
     charge density cutoff     =     200.0000  Ry
     convergence threshold     =      1.0E-08
     mixing beta               =       0.3000
     number of iterations used =            8  local-TF  mixing
     Exchange-correlation      = SLA  PW   PSX  PSC ( 1  4 10  8 0)
     A smooth kinetic-energy cutoff is imposed at      40.0000 Ry
     height of the smooth step-function =             800.0000 Ry
     width of the smooth step-function  =               1.0000 Ry


     celldm(1)=  11.996147  celldm(2)=   0.000000  celldm(3)=   0.000000
     celldm(4)=   0.000000  celldm(5)=   0.000000  celldm(6)=   0.000000

     crystal axes: (cart. coord. in units of alat)
               a(1) = (   0.707106781187   0.707106781187   0.000000000000 )  
               a(2) = (   0.707106781187   0.000000000000   0.707106781187 )  
               a(3) = (   0.000000000000   0.707106781187   0.707106781187 )  

     reciprocal axes: (cart. coord. in units 2 pi/alat)
               b(1) = (  0.707107  0.707107 -0.707107 )  
               b(2) = (  0.707107 -0.707107  0.707107 )  
               b(3) = ( -0.707107  0.707107  0.707107 )  


     PseudoPot. # 1 for Mn read from file:
     /users/kfg/psuedo/gbrv_1.5/mn.pbesol.UPF
     MD5 check sum: 0716d5f563e6e95a34f9080f4c78c109
     Pseudo is Ultrasoft + core correction, Zval = 15.0
     Generated by new atomic code, or converted to UPF format
     Using radial grid of  859 points,  6 beta functions with: 
                l(1) =   0
                l(2) =   0
                l(3) =   1
                l(4) =   1
                l(5) =   2
                l(6) =   2
     Q(r) pseudized with  8 coefficients,  rinner =    0.950   0.950   0.950
                                                       0.950   0.950

     PseudoPot. # 2 for O  read from file:
     /users/kfg/psuedo/gbrv_1.5/o.pbesol.UPF
     MD5 check sum: 501638753501ef6325af9037351f7734
     Pseudo is Ultrasoft + core correction, Zval =  6.0
     Generated by new atomic code, or converted to UPF format
     Using radial grid of  737 points,  5 beta functions with: 
                l(1) =   0
                l(2) =   0
                l(3) =   1
                l(4) =   1
                l(5) =   2
     Q(r) pseudized with  8 coefficients,  rinner =    0.900   0.900   0.900
                                                       0.900   0.900

     atomic species   valence    mass     pseudopotential
        Mn            15.00    54.90000     Mn( 1.00)
        O              6.00    15.99900     O ( 1.00)

     Starting magnetic structure 
     atomic species   magnetization
        Mn           1.000
        O            0.000


     Simplified LDA+U calculation (l_max = 2) with parameters (eV):
     atomic species    L          U    alpha       J0     beta
        Mn             2     3.0000   0.0000   0.0000   0.0000



     No symmetry found



   Cartesian axes

     site n.     atom                  positions (alat units)
         1           Mn  tau(   1) = (    0.00506298051   -0.00002071583   -0.00094108231  )
         2           O   tau(   2) = (    0.35787895184    0.35498128876    0.36160948687  )
         3           Mn  tau(   3) = (   -0.00007042374    0.35251232935    0.34844903051  )
         4           O   tau(   4) = (    0.35709598634    0.70072784699    0.71242605297  )
         5           Mn  tau(   5) = (    0.34731160376   -0.00713219710    0.35948691182  )
         6           O   tau(   6) = (    0.69886012818    0.35978364505    0.71448972508  )
         7           Mn  tau(   7) = (    0.35505797177    0.35721335684    0.70229815198  )
         8           O   tau(   8) = (    0.71460307302    0.71424427554    1.06702832999  )
         9           Mn  tau(   9) = (    0.35493105553    0.35386961546    0.00394927019  )
        10           O   tau(  10) = (    0.71396086856    0.70039835457    0.34796529190  )
        11           Mn  tau(  11) = (    0.34727667506    0.70225929649    0.34574883215  )
        12           O   tau(  12) = (    0.69991098676    1.06626483803    0.71000752430  )
        13           Mn  tau(  13) = (    0.71103582983    0.35816263473    0.35883989243  )
        14           O   tau(  14) = (    1.05778827607    0.70455092844    0.70245500637  )
        15           Mn  tau(  15) = (    0.70350488196    0.70033902885    0.70210801845  )
        16           O   tau(  16) = (    1.05722450428    1.06508099690    1.06223283347  )

     number of k points=    72  gaussian smearing, width (Ry)=  0.0100
                       cart. coord. in units 2pi/alat
        k(    1) = (   0.0000000   0.0000000   0.0000000), wk =   0.0156250
        k(    2) = (  -0.1767767   0.1767767   0.1767767), wk =   0.0312500
        k(    3) = (   0.3535534  -0.3535534  -0.3535534), wk =   0.0156250
        k(    4) = (   0.0000000   0.0000000   0.3535534), wk =   0.0312500
        k(    5) = (   0.5303301  -0.5303301  -0.1767767), wk =   0.0312500
        k(    6) = (   0.3535534  -0.3535534   0.0000000), wk =   0.0312500
        k(    7) = (   0.0000000   0.0000000  -0.7071068), wk =   0.0156250
        k(    8) = (   0.0000000   0.3535534  -0.7071068), wk =   0.0312500
        k(    9) = (   0.1767767  -0.1767767   0.1767767), wk =   0.0312500
        k(   10) = (   0.1767767   0.1767767  -0.1767767), wk =   0.0312500
        k(   11) = (  -0.1767767  -0.1767767  -0.1767767), wk =   0.0312500
        k(   12) = (  -0.3535534   0.3535534  -0.3535534), wk =   0.0156250
        k(   13) = (  -0.3535534  -0.3535534   0.3535534), wk =   0.0156250
        k(   14) = (   0.3535534   0.3535534   0.3535534), wk =   0.0156250
        k(   15) = (   0.3535534   0.0000000   0.0000000), wk =   0.0312500
        k(   16) = (   0.0000000   0.3535534   0.0000000), wk =   0.0312500
        k(   17) = (  -0.5303301   0.5303301  -0.1767767), wk =   0.0312500
        k(   18) = (  -0.5303301  -0.5303301   0.1767767), wk =   0.0312500
        k(   19) = (   0.5303301   0.5303301   0.1767767), wk =   0.0312500
        k(   20) = (  -0.1767767   0.5303301   0.5303301), wk =   0.0312500
        k(   21) = (   0.1767767   0.5303301  -0.5303301), wk =   0.0312500
        k(   22) = (  -0.1767767  -0.5303301  -0.5303301), wk =   0.0312500
        k(   23) = (   0.1767767  -0.5303301   0.5303301), wk =   0.0312500
        k(   24) = (  -0.5303301  -0.1767767  -0.5303301), wk =   0.0312500
        k(   25) = (  -0.5303301   0.1767767   0.5303301), wk =   0.0312500
        k(   26) = (   0.5303301  -0.1767767   0.5303301), wk =   0.0312500
        k(   27) = (   0.5303301   0.1767767  -0.5303301), wk =   0.0312500
        k(   28) = (  -0.3535534  -0.3535534   0.0000000), wk =   0.0312500
        k(   29) = (   0.0000000   0.3535534   0.3535534), wk =   0.0312500
        k(   30) = (   0.0000000   0.3535534  -0.3535534), wk =   0.0312500
        k(   31) = (  -0.3535534   0.0000000  -0.3535534), wk =   0.0312500
        k(   32) = (  -0.3535534   0.0000000   0.3535534), wk =   0.0312500
        k(   33) = (  -0.7071068   0.0000000   0.0000000), wk =   0.0156250
        k(   34) = (   0.0000000  -0.7071068   0.0000000), wk =   0.0156250
        k(   35) = (   0.3535534  -0.0000000   0.7071068), wk =   0.0312500
        k(   36) = (   0.0000000  -0.7071068   0.3535534), wk =   0.0312500
        k(   37) = (   0.0000000   0.0000000   0.0000000), wk =   0.0156250
        k(   38) = (  -0.1767767   0.1767767   0.1767767), wk =   0.0312500
        k(   39) = (   0.3535534  -0.3535534  -0.3535534), wk =   0.0156250
        k(   40) = (   0.0000000   0.0000000   0.3535534), wk =   0.0312500
        k(   41) = (   0.5303301  -0.5303301  -0.1767767), wk =   0.0312500
        k(   42) = (   0.3535534  -0.3535534   0.0000000), wk =   0.0312500
        k(   43) = (   0.0000000   0.0000000  -0.7071068), wk =   0.0156250
        k(   44) = (   0.0000000   0.3535534  -0.7071068), wk =   0.0312500
        k(   45) = (   0.1767767  -0.1767767   0.1767767), wk =   0.0312500
        k(   46) = (   0.1767767   0.1767767  -0.1767767), wk =   0.0312500
        k(   47) = (  -0.1767767  -0.1767767  -0.1767767), wk =   0.0312500
        k(   48) = (  -0.3535534   0.3535534  -0.3535534), wk =   0.0156250
        k(   49) = (  -0.3535534  -0.3535534   0.3535534), wk =   0.0156250
        k(   50) = (   0.3535534   0.3535534   0.3535534), wk =   0.0156250
        k(   51) = (   0.3535534   0.0000000   0.0000000), wk =   0.0312500
        k(   52) = (   0.0000000   0.3535534   0.0000000), wk =   0.0312500
        k(   53) = (  -0.5303301   0.5303301  -0.1767767), wk =   0.0312500
        k(   54) = (  -0.5303301  -0.5303301   0.1767767), wk =   0.0312500
        k(   55) = (   0.5303301   0.5303301   0.1767767), wk =   0.0312500
        k(   56) = (  -0.1767767   0.5303301   0.5303301), wk =   0.0312500
        k(   57) = (   0.1767767   0.5303301  -0.5303301), wk =   0.0312500
        k(   58) = (  -0.1767767  -0.5303301  -0.5303301), wk =   0.0312500
        k(   59) = (   0.1767767  -0.5303301   0.5303301), wk =   0.0312500
        k(   60) = (  -0.5303301  -0.1767767  -0.5303301), wk =   0.0312500
        k(   61) = (  -0.5303301   0.1767767   0.5303301), wk =   0.0312500
        k(   62) = (   0.5303301  -0.1767767   0.5303301), wk =   0.0312500
        k(   63) = (   0.5303301   0.1767767  -0.5303301), wk =   0.0312500
        k(   64) = (  -0.3535534  -0.3535534   0.0000000), wk =   0.0312500
        k(   65) = (   0.0000000   0.3535534   0.3535534), wk =   0.0312500
        k(   66) = (   0.0000000   0.3535534  -0.3535534), wk =   0.0312500
        k(   67) = (  -0.3535534   0.0000000  -0.3535534), wk =   0.0312500
        k(   68) = (  -0.3535534   0.0000000   0.3535534), wk =   0.0312500
        k(   69) = (  -0.7071068   0.0000000   0.0000000), wk =   0.0156250
        k(   70) = (   0.0000000  -0.7071068   0.0000000), wk =   0.0156250
        k(   71) = (   0.3535534  -0.0000000   0.7071068), wk =   0.0312500
        k(   72) = (   0.0000000  -0.7071068   0.3535534), wk =   0.0312500

     Dense  grid:    58119 G-vectors     FFT dimensions: (  54,  54,  54)

     Smooth grid:    43407 G-vectors     FFT dimensions: (  50,  50,  50)

     Largest allocated arrays     est. size (Mb)     dimensions
        Kohn-Sham Wavefunctions         1.31 Mb     (     688,  125)
        Atomic Hubbard wavefuncts       0.42 Mb     (     688,   40)
        NL pseudopotentials             2.60 Mb     (     688,  248)
        Each V/rho on FFT grid          0.62 Mb     (   20412,   2)
        Each G-vector array             0.06 Mb     (    7265)
        G-vector shells                 0.00 Mb     (     487)
     Largest temporary arrays     est. size (Mb)     dimensions
        Auxiliary wavefunctions         5.25 Mb     (     688,  500)
        Each subspace H/S matrix        3.81 Mb     (     500,  500)
        Each <psi_i|beta_j> matrix      0.47 Mb     (     248,  125)
        Arrays for rho mixing           2.49 Mb     (   20412,    8)

     Check: negative/imaginary core charge=   -0.000059    0.000000

     Initial potential from superposition of free atoms

     starting charge  163.99935, renormalised to  168.00000
     Number of +U iterations with fixed ns =  0
     Starting occupations:
 --- enter write_ns ---
 LDA+U parameters:
U( 1)     =  3.00000000
alpha( 1) =  0.00000000
atom    1   Tr[ns(na)] (up, down, total) =   5.00000  0.00000  5.00000
   spin  1
    eigenvalues: 
  1.000  1.000  1.000  1.000  1.000
    eigenvectors:
  1.000  0.000  0.000  0.000  0.000
  0.000  1.000  0.000  0.000  0.000
  0.000  0.000  1.000  0.000  0.000
  0.000  0.000  0.000  1.000  0.000
  0.000  0.000  0.000  0.000  1.000
    occupations:
  1.000  0.000  0.000  0.000  0.000
  0.000  1.000  0.000  0.000  0.000
  0.000  0.000  1.000  0.000  0.000
  0.000  0.000  0.000  1.000  0.000
  0.000  0.000  0.000  0.000  1.000
   spin  2
    eigenvalues: 
  0.000  0.000  0.000  0.000  0.000
    eigenvectors:
  1.000  0.000  0.000  0.000  0.000
  0.000  1.000  0.000  0.000  0.000
  0.000  0.000  1.000  0.000  0.000
  0.000  0.000  0.000  1.000  0.000
  0.000  0.000  0.000  0.000  1.000
    occupations:
  0.000  0.000  0.000  0.000  0.000
  0.000  0.000  0.000  0.000  0.000
  0.000  0.000  0.000  0.000  0.000
  0.000  0.000  0.000  0.000  0.000
  0.000  0.000  0.000  0.000  0.000
atomic mag. moment =     5.000000
atom    3   Tr[ns(na)] (up, down, total) =   5.00000  0.00000  5.00000
   spin  1
    eigenvalues: 
  1.000  1.000  1.000  1.000  1.000
    eigenvectors:
  1.000  0.000  0.000  0.000  0.000
  0.000  1.000  0.000  0.000  0.000
  0.000  0.000  1.000  0.000  0.000
  0.000  0.000  0.000  1.000  0.000
  0.000  0.000  0.000  0.000  1.000
    occupations:
  1.000  0.000  0.000  0.000  0.000
  0.000  1.000  0.000  0.000  0.000
  0.000  0.000  1.000  0.000  0.000
  0.000  0.000  0.000  1.000  0.000
  0.000  0.000  0.000  0.000  1.000
   spin  2
    eigenvalues: 
  0.000  0.000  0.000  0.000  0.000
    eigenvectors:
  1.000  0.000  0.000  0.000  0.000
  0.000  1.000  0.000  0.000  0.000
  0.000  0.000  1.000  0.000  0.000
  0.000  0.000  0.000  1.000  0.000
  0.000  0.000  0.000  0.000  1.000
    occupations:
  0.000  0.000  0.000  0.000  0.000
  0.000  0.000  0.000  0.000  0.000
  0.000  0.000  0.000  0.000  0.000
  0.000  0.000  0.000  0.000  0.000
  0.000  0.000  0.000  0.000  0.000
atomic mag. moment =     5.000000
atom    5   Tr[ns(na)] (up, down, total) =   5.00000  0.00000  5.00000
   spin  1
    eigenvalues: 
  1.000  1.000  1.000  1.000  1.000
    eigenvectors:
  1.000  0.000  0.000  0.000  0.000
  0.000  1.000  0.000  0.000  0.000
  0.000  0.000  1.000  0.000  0.000
  0.000  0.000  0.000  1.000  0.000
  0.000  0.000  0.000  0.000  1.000
    occupations:
  1.000  0.000  0.000  0.000  0.000
  0.000  1.000  0.000  0.000  0.000
  0.000  0.000  1.000  0.000  0.000
  0.000  0.000  0.000  1.000  0.000
  0.000  0.000  0.000  0.000  1.000
   spin  2
    eigenvalues: 
  0.000  0.000  0.000  0.000  0.000
    eigenvectors:
  1.000  0.000  0.000  0.000  0.000
  0.000  1.000  0.000  0.000  0.000
  0.000  0.000  1.000  0.000  0.000
  0.000  0.000  0.000  1.000  0.000
  0.000  0.000  0.000  0.000  1.000
    occupations:
  0.000  0.000  0.000  0.000  0.000
  0.000  0.000  0.000  0.000  0.000
  0.000  0.000  0.000  0.000  0.000
  0.000  0.000  0.000  0.000  0.000
  0.000  0.000  0.000  0.000  0.000
atomic mag. moment =     5.000000
atom    7   Tr[ns(na)] (up, down, total) =   5.00000  0.00000  5.00000
   spin  1
    eigenvalues: 
  1.000  1.000  1.000  1.000  1.000
    eigenvectors:
  1.000  0.000  0.000  0.000  0.000
  0.000  1.000  0.000  0.000  0.000
  0.000  0.000  1.000  0.000  0.000
  0.000  0.000  0.000  1.000  0.000
  0.000  0.000  0.000  0.000  1.000
    occupations:
  1.000  0.000  0.000  0.000  0.000
  0.000  1.000  0.000  0.000  0.000
  0.000  0.000  1.000  0.000  0.000
  0.000  0.000  0.000  1.000  0.000
  0.000  0.000  0.000  0.000  1.000
   spin  2
    eigenvalues: 
  0.000  0.000  0.000  0.000  0.000
    eigenvectors:
  1.000  0.000  0.000  0.000  0.000
  0.000  1.000  0.000  0.000  0.000
  0.000  0.000  1.000  0.000  0.000
  0.000  0.000  0.000  1.000  0.000
  0.000  0.000  0.000  0.000  1.000
    occupations:
  0.000  0.000  0.000  0.000  0.000
  0.000  0.000  0.000  0.000  0.000
  0.000  0.000  0.000  0.000  0.000
  0.000  0.000  0.000  0.000  0.000
  0.000  0.000  0.000  0.000  0.000
atomic mag. moment =     5.000000
atom    9   Tr[ns(na)] (up, down, total) =   5.00000  0.00000  5.00000
   spin  1
    eigenvalues: 
  1.000  1.000  1.000  1.000  1.000
    eigenvectors:
  1.000  0.000  0.000  0.000  0.000
  0.000  1.000  0.000  0.000  0.000
  0.000  0.000  1.000  0.000  0.000
  0.000  0.000  0.000  1.000  0.000
  0.000  0.000  0.000  0.000  1.000
    occupations:
  1.000  0.000  0.000  0.000  0.000
  0.000  1.000  0.000  0.000  0.000
  0.000  0.000  1.000  0.000  0.000
  0.000  0.000  0.000  1.000  0.000
  0.000  0.000  0.000  0.000  1.000
   spin  2
    eigenvalues: 
  0.000  0.000  0.000  0.000  0.000
    eigenvectors:
  1.000  0.000  0.000  0.000  0.000
  0.000  1.000  0.000  0.000  0.000
  0.000  0.000  1.000  0.000  0.000
  0.000  0.000  0.000  1.000  0.000
  0.000  0.000  0.000  0.000  1.000
    occupations:
  0.000  0.000  0.000  0.000  0.000
  0.000  0.000  0.000  0.000  0.000
  0.000  0.000  0.000  0.000  0.000
  0.000  0.000  0.000  0.000  0.000
  0.000  0.000  0.000  0.000  0.000
atomic mag. moment =     5.000000
atom   11   Tr[ns(na)] (up, down, total) =   5.00000  0.00000  5.00000
   spin  1
    eigenvalues: 
  1.000  1.000  1.000  1.000  1.000
    eigenvectors:
  1.000  0.000  0.000  0.000  0.000
  0.000  1.000  0.000  0.000  0.000
  0.000  0.000  1.000  0.000  0.000
  0.000  0.000  0.000  1.000  0.000
  0.000  0.000  0.000  0.000  1.000
    occupations:
  1.000  0.000  0.000  0.000  0.000
  0.000  1.000  0.000  0.000  0.000
  0.000  0.000  1.000  0.000  0.000
  0.000  0.000  0.000  1.000  0.000
  0.000  0.000  0.000  0.000  1.000
   spin  2
    eigenvalues: 
  0.000  0.000  0.000  0.000  0.000
    eigenvectors:
  1.000  0.000  0.000  0.000  0.000
  0.000  1.000  0.000  0.000  0.000
  0.000  0.000  1.000  0.000  0.000
  0.000  0.000  0.000  1.000  0.000
  0.000  0.000  0.000  0.000  1.000
    occupations:
  0.000  0.000  0.000  0.000  0.000
  0.000  0.000  0.000  0.000  0.000
  0.000  0.000  0.000  0.000  0.000
  0.000  0.000  0.000  0.000  0.000
  0.000  0.000  0.000  0.000  0.000
atomic mag. moment =     5.000000
atom   13   Tr[ns(na)] (up, down, total) =   5.00000  0.00000  5.00000
   spin  1
    eigenvalues: 
  1.000  1.000  1.000  1.000  1.000
    eigenvectors:
  1.000  0.000  0.000  0.000  0.000
  0.000  1.000  0.000  0.000  0.000
  0.000  0.000  1.000  0.000  0.000
  0.000  0.000  0.000  1.000  0.000
  0.000  0.000  0.000  0.000  1.000
    occupations:
  1.000  0.000  0.000  0.000  0.000
  0.000  1.000  0.000  0.000  0.000
  0.000  0.000  1.000  0.000  0.000
  0.000  0.000  0.000  1.000  0.000
  0.000  0.000  0.000  0.000  1.000
   spin  2
    eigenvalues: 
  0.000  0.000  0.000  0.000  0.000
    eigenvectors:
  1.000  0.000  0.000  0.000  0.000
  0.000  1.000  0.000  0.000  0.000
  0.000  0.000  1.000  0.000  0.000
  0.000  0.000  0.000  1.000  0.000
  0.000  0.000  0.000  0.000  1.000
    occupations:
  0.000  0.000  0.000  0.000  0.000
  0.000  0.000  0.000  0.000  0.000
  0.000  0.000  0.000  0.000  0.000
  0.000  0.000  0.000  0.000  0.000
  0.000  0.000  0.000  0.000  0.000
atomic mag. moment =     5.000000
atom   15   Tr[ns(na)] (up, down, total) =   5.00000  0.00000  5.00000
   spin  1
    eigenvalues: 
  1.000  1.000  1.000  1.000  1.000
    eigenvectors:
  1.000  0.000  0.000  0.000  0.000
  0.000  1.000  0.000  0.000  0.000
  0.000  0.000  1.000  0.000  0.000
  0.000  0.000  0.000  1.000  0.000
  0.000  0.000  0.000  0.000  1.000
    occupations:
  1.000  0.000  0.000  0.000  0.000
  0.000  1.000  0.000  0.000  0.000
  0.000  0.000  1.000  0.000  0.000
  0.000  0.000  0.000  1.000  0.000
  0.000  0.000  0.000  0.000  1.000
   spin  2
    eigenvalues: 
  0.000  0.000  0.000  0.000  0.000
    eigenvectors:
  1.000  0.000  0.000  0.000  0.000
  0.000  1.000  0.000  0.000  0.000
  0.000  0.000  1.000  0.000  0.000
  0.000  0.000  0.000  1.000  0.000
  0.000  0.000  0.000  0.000  1.000
    occupations:
  0.000  0.000  0.000  0.000  0.000
  0.000  0.000  0.000  0.000  0.000
  0.000  0.000  0.000  0.000  0.000
  0.000  0.000  0.000  0.000  0.000
  0.000  0.000  0.000  0.000  0.000
atomic mag. moment =     5.000000
N of occupied +U levels =   40.000000
 --- exit write_ns ---
 Atomic wfc used for LDA+U Projector are NOT orthogonalized
     Starting wfc are  136 randomized atomic wfcs

     total cpu time spent up to now is       59.8 secs

     per-process dynamical memory:   144.9 Mb

     Self-consistent Calculation

     iteration #  1     ecut=    41.00 Ry     beta=0.30
     Davidson diagonalization with overlap
     ethr =  1.00E-02,  avg # of iterations =  3.3
 --- enter write_ns ---
 LDA+U parameters:
U( 1)     =  3.00000000
alpha( 1) =  0.00000000
atom    1   Tr[ns(na)] (up, down, total) =   4.98713  0.19626  5.18339
   spin  1
    eigenvalues: 
  0.996  0.997  0.998  0.998  0.998
    eigenvectors:
  0.997  0.000  0.000  0.002  0.000
  0.000  0.000  0.006  0.492  0.501
  0.002  0.001  0.004  0.496  0.497
  0.000  0.991  0.008  0.000  0.001
  0.000  0.008  0.983  0.009  0.000
    occupations:
  0.996  0.000 -0.000 -0.000  0.000
  0.000  0.998  0.000  0.000  0.000
 -0.000  0.000  0.998  0.000 -0.000
 -0.000  0.000  0.000  0.997  0.000
  0.000  0.000 -0.000  0.000  0.998
   spin  2
    eigenvalues: 
  0.020  0.021  0.022  0.064  0.070
    eigenvectors:
  0.000  0.000  0.001  0.019  0.981
  0.017  0.981  0.001  0.000  0.000
  0.000  0.001  0.998  0.000  0.001
  0.000  0.000  0.000  0.981  0.019
  0.982  0.017  0.001  0.000  0.000
    occupations:
  0.069  0.000  0.001  0.001  0.000
  0.000  0.021 -0.000 -0.001  0.000
  0.001 -0.000  0.022  0.000 -0.000
  0.001 -0.001  0.000  0.064 -0.000
  0.000  0.000 -0.000 -0.000  0.020
atomic mag. moment =     4.790872
atom    3   Tr[ns(na)] (up, down, total) =   4.98828  0.18505  5.17333
   spin  1
    eigenvalues: 
  0.997  0.998  0.998  0.998  0.998
    eigenvectors:
  0.988  0.003  0.000  0.000  0.008
  0.008  0.000  0.006  0.000  0.986
  0.000  0.001  0.031  0.968  0.000
  0.003  0.996  0.000  0.000  0.000
  0.000  0.000  0.962  0.032  0.006
    occupations:
  0.997  0.000 -0.000 -0.000  0.000
  0.000  0.998 -0.000  0.000 -0.000
 -0.000 -0.000  0.998  0.000 -0.000
 -0.000  0.000  0.000  0.998  0.000
  0.000 -0.000 -0.000  0.000  0.998
   spin  2
    eigenvalues: 
  0.019  0.020  0.021  0.060  0.066
    eigenvectors:
  0.000  0.000  0.000  0.021  0.979
  0.002  0.007  0.991  0.000  0.000
  0.011  0.980  0.008  0.000  0.000
  0.000  0.000  0.000  0.979  0.021
  0.987  0.012  0.001  0.000  0.000
    occupations:
  0.066 -0.000  0.001 -0.001  0.000
 -0.000  0.021 -0.000 -0.000 -0.000
  0.001 -0.000  0.020  0.001 -0.000
 -0.001 -0.000  0.001  0.060 -0.000
  0.000 -0.000 -0.000 -0.000  0.019
atomic mag. moment =     4.803232
atom    5   Tr[ns(na)] (up, down, total) =   4.98622  0.20256  5.18879
   spin  1
    eigenvalues: 
  0.996  0.996  0.998  0.998  0.998
    eigenvectors:
  0.950  0.049  0.001  0.000  0.000
  0.001  0.001  0.000  0.799  0.199
  0.000  0.000  0.003  0.201  0.796
  0.049  0.950  0.000  0.001  0.001
  0.001  0.000  0.996  0.000  0.003
    occupations:
  0.996 -0.000  0.000  0.000 -0.000
 -0.000  0.998 -0.000  0.000 -0.000
  0.000 -0.000  0.998 -0.000  0.000
  0.000  0.000 -0.000  0.996  0.000
 -0.000 -0.000  0.000  0.000  0.998
   spin  2
    eigenvalues: 
  0.021  0.022  0.022  0.067  0.070
    eigenvectors:
  0.000  0.000  0.000  0.026  0.973
  0.023  0.694  0.282  0.001  0.000
  0.016  0.302  0.682  0.000  0.000
  0.000  0.001  0.000  0.973  0.027
  0.961  0.003  0.036  0.000  0.000
    occupations:
  0.070  0.001 -0.000  0.001 -0.001
  0.001  0.022  0.000 -0.001 -0.000
 -0.000  0.000  0.022  0.001 -0.000
  0.001 -0.001  0.001  0.067  0.000
 -0.001 -0.000 -0.000  0.000  0.021
atomic mag. moment =     4.783660
atom    7   Tr[ns(na)] (up, down, total) =   4.98645  0.20137  5.18783
   spin  1
    eigenvalues: 
  0.996  0.996  0.998  0.998  0.998
    eigenvectors:
  0.996  0.001  0.000  0.002  0.000
  0.002  0.001  0.073  0.892  0.033
  0.000  0.001  0.025  0.053  0.921
  0.002  0.996  0.001  0.000  0.001
  0.000  0.000  0.901  0.053  0.045
    occupations:
  0.996 -0.000  0.000 -0.000  0.000
 -0.000  0.998  0.000  0.000 -0.000
  0.000  0.000  0.998 -0.000  0.000
 -0.000  0.000 -0.000  0.996  0.000
  0.000 -0.000  0.000  0.000  0.998
   spin  2
    eigenvalues: 
  0.021  0.022  0.022  0.067  0.069
    eigenvectors:
  0.000  0.000  0.000  0.062  0.938
  0.126  0.695  0.179  0.000  0.000
  0.000  0.198  0.801  0.000  0.000
  0.000  0.000  0.000  0.937  0.062
  0.873  0.107  0.020  0.000  0.000
    occupations:
  0.069  0.001  0.000  0.000 -0.000
  0.001  0.022  0.000 -0.001 -0.000
  0.000  0.000  0.022  0.001 -0.000
  0.000 -0.001  0.001  0.067 -0.000
 -0.000 -0.000 -0.000 -0.000  0.021
atomic mag. moment =     4.785082
atom    9   Tr[ns(na)] (up, down, total) =   4.98817  0.18813  5.17630
   spin  1
    eigenvalues: 
  0.997  0.997  0.998  0.998  0.998
    eigenvectors:
  0.167  0.830  0.002  0.001  0.001
  0.000  0.001  0.081  0.879  0.039
  0.000  0.002  0.870  0.100  0.028
  0.831  0.167  0.000  0.000  0.001
  0.002  0.000  0.048  0.019  0.932
    occupations:
  0.997  0.000  0.000  0.000  0.000
  0.000  0.998  0.000  0.000  0.000
  0.000  0.000  0.998  0.000 -0.000
  0.000  0.000  0.000  0.997 -0.000
  0.000  0.000 -0.000 -0.000  0.998
   spin  2
    eigenvalues: 
  0.020  0.020  0.020  0.063  0.065
    eigenvectors:
  0.000  0.000  0.000  0.913  0.087
  0.014  0.837  0.149  0.000  0.000
  0.984  0.009  0.006  0.000  0.000
  0.000  0.000  0.000  0.087  0.913
  0.001  0.154  0.845  0.000  0.000
    occupations:
  0.063 -0.001 -0.000 -0.001  0.000
 -0.001  0.020 -0.000  0.000  0.000
 -0.000 -0.000  0.020 -0.001 -0.000
 -0.001  0.000 -0.001  0.065  0.000
  0.000  0.000 -0.000  0.000  0.020
atomic mag. moment =     4.800044
atom   11   Tr[ns(na)] (up, down, total) =   4.98778  0.18896  5.17673
   spin  1
    eigenvalues: 
  0.997  0.997  0.998  0.998  0.998
    eigenvectors:
  0.296  0.678  0.021  0.002  0.003
  0.010  0.000  0.209  0.503  0.278
  0.000  0.007  0.557  0.397  0.039
  0.682  0.309  0.001  0.009  0.000
  0.012  0.006  0.213  0.089  0.680
    occupations:
  0.997  0.000  0.000  0.000 -0.000
  0.000  0.998 -0.000 -0.000  0.000
  0.000 -0.000  0.998  0.000  0.000
  0.000 -0.000  0.000  0.997  0.000
 -0.000  0.000  0.000  0.000  0.998
   spin  2
    eigenvalues: 
  0.020  0.020  0.021  0.062  0.066
    eigenvectors:
  0.000  0.000  0.001  0.933  0.066
  0.148  0.811  0.039  0.000  0.001
  0.841  0.158  0.001  0.000  0.000
  0.000  0.001  0.000  0.066  0.933
  0.011  0.029  0.959  0.001  0.000
    occupations:
  0.063 -0.001  0.000 -0.001  0.001
 -0.001  0.020 -0.000  0.001  0.000
  0.000 -0.000  0.020 -0.001  0.000
 -0.001  0.001 -0.001  0.066 -0.000
  0.001  0.000  0.000 -0.000  0.021
atomic mag. moment =     4.798816
atom   13   Tr[ns(na)] (up, down, total) =   4.98622  0.20286  5.18908
   spin  1
    eigenvalues: 
  0.996  0.996  0.998  0.998  0.998
    eigenvectors:
  0.170  0.823  0.006  0.001  0.000
  0.000  0.003  0.780  0.200  0.017
  0.003  0.002  0.199  0.796  0.000
  0.827  0.172  0.000  0.002  0.000
  0.000  0.000  0.015  0.002  0.983
    occupations:
  0.996  0.000  0.000 -0.000  0.000
  0.000  0.998 -0.000 -0.000  0.000
  0.000 -0.000  0.998  0.000  0.000
 -0.000 -0.000  0.000  0.996  0.000
  0.000  0.000  0.000  0.000  0.998
   spin  2
    eigenvalues: 
  0.021  0.022  0.023  0.066  0.072
    eigenvectors:
  0.000  0.000  0.000  0.974  0.026
  0.991  0.001  0.008  0.000  0.000
  0.002  0.991  0.007  0.000  0.000
  0.000  0.000  0.000  0.026  0.974
  0.008  0.007  0.985  0.000  0.000
    occupations:
  0.066 -0.000 -0.000  0.001 -0.000
 -0.000  0.021  0.000  0.001  0.000
 -0.000  0.000  0.022 -0.001  0.000
  0.001  0.001 -0.001  0.072  0.000
 -0.000  0.000  0.000  0.000  0.023
atomic mag. moment =     4.783366
atom   15   Tr[ns(na)] (up, down, total) =   4.98750  0.19222  5.17972
   spin  1
    eigenvalues: 
  0.997  0.997  0.998  0.998  0.998
    eigenvectors:
  0.045  0.946  0.001  0.006  0.002
  0.003  0.003  0.070  0.922  0.002
  0.003  0.004  0.924  0.069  0.000
  0.949  0.044  0.006  0.001  0.000
  0.000  0.002  0.000  0.003  0.995
    occupations:
  0.997  0.000  0.000  0.000  0.000
  0.000  0.998  0.000 -0.000  0.000
  0.000  0.000  0.998  0.000 -0.000
  0.000 -0.000  0.000  0.997  0.000
  0.000  0.000 -0.000  0.000  0.998
   spin  2
    eigenvalues: 
  0.020  0.020  0.022  0.062  0.068
    eigenvectors:
  0.001  0.000  0.000  0.987  0.012
  0.116  0.883  0.000  0.000  0.000
  0.873  0.113  0.013  0.001  0.000
  0.000  0.000  0.000  0.012  0.988
  0.010  0.003  0.987  0.000  0.000
    occupations:
  0.062 -0.000 -0.001 -0.001 -0.000
 -0.000  0.020  0.000  0.001  0.000
 -0.001  0.000  0.020 -0.001  0.000
 -0.001  0.001 -0.001  0.068  0.000
 -0.000  0.000  0.000  0.000  0.022
atomic mag. moment =     4.795280
N of occupied +U levels =   41.455168
 --- exit write_ns ---

     negative rho (up, down):  0.000E+00 5.549E-04

     Magnetic moment per site:
     atom:    1    charge:   12.6710    magn:   10.1555    constr:    0.0000
     atom:    2    charge:    5.5993    magn:    0.1670    constr:    0.0000
     atom:    3    charge:   12.6664    magn:   10.1548    constr:    0.0000
     atom:    4    charge:    5.5964    magn:    0.1648    constr:    0.0000
     atom:    5    charge:   12.6753    magn:   10.1562    constr:    0.0000
     atom:    6    charge:    5.6130    magn:    0.1771    constr:    0.0000
     atom:    7    charge:   12.6742    magn:   10.1559    constr:    0.0000
     atom:    8    charge:    5.5914    magn:    0.1608    constr:    0.0000
     atom:    9    charge:   12.6677    magn:   10.1553    constr:    0.0000
     atom:   10    charge:    5.6071    magn:    0.1726    constr:    0.0000
     atom:   11    charge:   12.6687    magn:   10.1552    constr:    0.0000
     atom:   12    charge:    5.5839    magn:    0.1554    constr:    0.0000
     atom:   13    charge:   12.6748    magn:   10.1565    constr:    0.0000
     atom:   14    charge:    5.5981    magn:    0.1663    constr:    0.0000
     atom:   15    charge:   12.6702    magn:   10.1555    constr:    0.0000
     atom:   16    charge:    5.5955    magn:    0.1645    constr:    0.0000

     total cpu time spent up to now is      291.3 secs

     total energy              =   -1937.81327266 Ry
     Harris-Foulkes estimate   =   -1920.98433782 Ry
     estimated scf accuracy    <      25.67307635 Ry

     total magnetization       =    40.00 Bohr mag/cell
     absolute magnetization    =    41.79 Bohr mag/cell

     iteration #  2     ecut=    41.00 Ry     beta=0.30
     Davidson diagonalization with overlap
     ethr =  1.00E-02,  avg # of iterations =  1.1

     negative rho (up, down):  0.000E+00 2.225E-03

     Magnetic moment per site:
     atom:    1    charge:   12.5612    magn:    4.4919    constr:    0.0000
     atom:    2    charge:    5.8161    magn:   -0.0536    constr:    0.0000
     atom:    3    charge:   12.5585    magn:    4.4913    constr:    0.0000
     atom:    4    charge:    5.8130    magn:   -0.0545    constr:    0.0000
     atom:    5    charge:   12.5645    magn:    4.4915    constr:    0.0000
     atom:    6    charge:    5.8314    magn:   -0.0491    constr:    0.0000
     atom:    7    charge:   12.5636    magn:    4.4916    constr:    0.0000
     atom:    8    charge:    5.8078    magn:   -0.0565    constr:    0.0000
     atom:    9    charge:   12.5593    magn:    4.4917    constr:    0.0000
     atom:   10    charge:    5.8249    magn:   -0.0512    constr:    0.0000
     atom:   11    charge:   12.5602    magn:    4.4909    constr:    0.0000
     atom:   12    charge:    5.7995    magn:   -0.0587    constr:    0.0000
     atom:   13    charge:   12.5639    magn:    4.4922    constr:    0.0000
     atom:   14    charge:    5.8148    magn:   -0.0540    constr:    0.0000
     atom:   15    charge:   12.5611    magn:    4.4914    constr:    0.0000
     atom:   16    charge:    5.8121    magn:   -0.0544    constr:    0.0000

     total cpu time spent up to now is      424.6 secs

     total energy              =   -1945.62616992 Ry
     Harris-Foulkes estimate   =   -1938.07879654 Ry
     estimated scf accuracy    <      12.66416729 Ry

     total magnetization       =    40.00 Bohr mag/cell
     absolute magnetization    =    41.21 Bohr mag/cell

     iteration #  3     ecut=    41.00 Ry     beta=0.30
     Davidson diagonalization with overlap
     ethr =  7.54E-03,  avg # of iterations =  2.0

     negative rho (up, down):  0.000E+00 2.479E-03

     Magnetic moment per site:
     atom:    1    charge:   12.4952    magn:    4.2317    constr:    0.0000
     atom:    2    charge:    5.7914    magn:    0.0597    constr:    0.0000
     atom:    3    charge:   12.4905    magn:    4.2352    constr:    0.0000
     atom:    4    charge:    5.7881    magn:    0.0585    constr:    0.0000
     atom:    5    charge:   12.4997    magn:    4.2285    constr:    0.0000
     atom:    6    charge:    5.8076    magn:    0.0649    constr:    0.0000
     atom:    7    charge:   12.4985    magn:    4.2294    constr:    0.0000
     atom:    8    charge:    5.7826    magn:    0.0563    constr:    0.0000
     atom:    9    charge:   12.4918    magn:    4.2341    constr:    0.0000
     atom:   10    charge:    5.8006    magn:    0.0623    constr:    0.0000
     atom:   11    charge:   12.4930    magn:    4.2326    constr:    0.0000
     atom:   12    charge:    5.7738    magn:    0.0536    constr:    0.0000
     atom:   13    charge:   12.4990    magn:    4.2297    constr:    0.0000
     atom:   14    charge:    5.7900    magn:    0.0592    constr:    0.0000
     atom:   15    charge:   12.4944    magn:    4.2324    constr:    0.0000
     atom:   16    charge:    5.7871    magn:    0.0586    constr:    0.0000

     total cpu time spent up to now is      600.0 secs

     total energy              =   -1946.14295257 Ry
     Harris-Foulkes estimate   =   -1946.24426570 Ry
     estimated scf accuracy    <       0.36816254 Ry

     total magnetization       =    40.00 Bohr mag/cell
     absolute magnetization    =    40.00 Bohr mag/cell

     iteration #  4     ecut=    41.00 Ry     beta=0.30
     Davidson diagonalization with overlap
     ethr =  2.19E-04,  avg # of iterations =  2.9

     negative rho (up, down):  0.000E+00 2.545E-03

     Magnetic moment per site:
     atom:    1    charge:   12.4827    magn:    4.1465    constr:    0.0000
     atom:    2    charge:    5.7992    magn:    0.0779    constr:    0.0000
     atom:    3    charge:   12.4775    magn:    4.1507    constr:    0.0000
     atom:    4    charge:    5.7960    magn:    0.0766    constr:    0.0000
     atom:    5    charge:   12.4874    magn:    4.1429    constr:    0.0000
     atom:    6    charge:    5.8153    magn:    0.0831    constr:    0.0000
     atom:    7    charge:   12.4861    magn:    4.1440    constr:    0.0000
     atom:    8    charge:    5.7905    magn:    0.0744    constr:    0.0000
     atom:    9    charge:   12.4790    magn:    4.1493    constr:    0.0000
     atom:   10    charge:    5.8084    magn:    0.0804    constr:    0.0000
     atom:   11    charge:   12.4802    magn:    4.1477    constr:    0.0000
     atom:   12    charge:    5.7817    magn:    0.0718    constr:    0.0000
     atom:   13    charge:   12.4866    magn:    4.1442    constr:    0.0000
     atom:   14    charge:    5.7979    magn:    0.0774    constr:    0.0000
     atom:   15    charge:   12.4817    magn:    4.1474    constr:    0.0000
     atom:   16    charge:    5.7949    magn:    0.0768    constr:    0.0000

     total cpu time spent up to now is      792.4 secs

     total energy              =   -1946.19711053 Ry
     Harris-Foulkes estimate   =   -1946.20096755 Ry
     estimated scf accuracy    <       0.02798437 Ry

     total magnetization       =    40.00 Bohr mag/cell
     absolute magnetization    =    40.00 Bohr mag/cell

     iteration #  5     ecut=    41.00 Ry     beta=0.30
     Davidson diagonalization with overlap
     ethr =  1.67E-05,  avg # of iterations =  2.3

     negative rho (up, down):  0.000E+00 2.633E-03

     Magnetic moment per site:
     atom:    1    charge:   12.4493    magn:    4.2148    constr:    0.0000
     atom:    2    charge:    5.8052    magn:    0.1545    constr:    0.0000
     atom:    3    charge:   12.4426    magn:    4.2210    constr:    0.0000
     atom:    4    charge:    5.8020    magn:    0.1531    constr:    0.0000
     atom:    5    charge:   12.4549    magn:    4.2098    constr:    0.0000
     atom:    6    charge:    5.8214    magn:    0.1599    constr:    0.0000
     atom:    7    charge:   12.4534    magn:    4.2114    constr:    0.0000
     atom:    8    charge:    5.7966    magn:    0.1509    constr:    0.0000
     atom:    9    charge:   12.4445    magn:    4.2188    constr:    0.0000
     atom:   10    charge:    5.8144    magn:    0.1570    constr:    0.0000
     atom:   11    charge:   12.4459    magn:    4.2167    constr:    0.0000
     atom:   12    charge:    5.7878    magn:    0.1482    constr:    0.0000
     atom:   13    charge:   12.4541    magn:    4.2114    constr:    0.0000
     atom:   14    charge:    5.8039    magn:    0.1540    constr:    0.0000
     atom:   15    charge:   12.4478    magn:    4.2163    constr:    0.0000
     atom:   16    charge:    5.8010    magn:    0.1533    constr:    0.0000

     total cpu time spent up to now is      951.9 secs

     total energy              =   -1946.19796161 Ry
     Harris-Foulkes estimate   =   -1946.19853144 Ry
     estimated scf accuracy    <       0.01248517 Ry

     total magnetization       =    40.00 Bohr mag/cell
     absolute magnetization    =    40.00 Bohr mag/cell
 kfg - setting two_fermi_energies to FALSE

     iteration #  6     ecut=    41.00 Ry     beta=0.30
     Davidson diagonalization with overlap
     ethr =  7.43E-06,  avg # of iterations =  2.1

     negative rho (up, down):  0.000E+00 2.630E-03

     Magnetic moment per site:
     atom:    1    charge:   12.4436    magn:    4.2151    constr:    0.0000
     atom:    2    charge:    5.8059    magn:    0.1697    constr:    0.0000
     atom:    3    charge:   12.4363    magn:    4.2214    constr:    0.0000
     atom:    4    charge:    5.8027    magn:    0.1684    constr:    0.0000
     atom:    5    charge:   12.4495    magn:    4.2100    constr:    0.0000
     atom:    6    charge:    5.8222    magn:    0.1748    constr:    0.0000
     atom:    7    charge:   12.4479    magn:    4.2116    constr:    0.0000
     atom:    8    charge:    5.7972    magn:    0.1664    constr:    0.0000
     atom:    9    charge:   12.4385    magn:    4.2191    constr:    0.0000
     atom:   10    charge:    5.8152    magn:    0.1720    constr:    0.0000
     atom:   11    charge:   12.4399    magn:    4.2170    constr:    0.0000
     atom:   12    charge:    5.7884    magn:    0.1638    constr:    0.0000
     atom:   13    charge:   12.4487    magn:    4.2116    constr:    0.0000
     atom:   14    charge:    5.8046    magn:    0.1692    constr:    0.0000
     atom:   15    charge:   12.4419    magn:    4.2166    constr:    0.0000
     atom:   16    charge:    5.8017    magn:    0.1686    constr:    0.0000

     total cpu time spent up to now is     1121.7 secs

     total energy              =   -1946.20070433 Ry
     Harris-Foulkes estimate   =   -1946.20058238 Ry
     estimated scf accuracy    <       0.00050561 Ry

     total magnetization       =    40.00 Bohr mag/cell
     absolute magnetization    =    40.00 Bohr mag/cell

     iteration #  7     ecut=    41.00 Ry     beta=0.30
     Davidson diagonalization with overlap
     ethr =  3.01E-07,  avg # of iterations =  2.4

     negative rho (up, down):  0.000E+00 2.612E-03

     Magnetic moment per site:
     atom:    1    charge:   12.4434    magn:    4.2059    constr:    0.0000
     atom:    2    charge:    5.8055    magn:    0.1724    constr:    0.0000
     atom:    3    charge:   12.4358    magn:    4.2122    constr:    0.0000
     atom:    4    charge:    5.8022    magn:    0.1711    constr:    0.0000
     atom:    5    charge:   12.4494    magn:    4.2009    constr:    0.0000
     atom:    6    charge:    5.8218    magn:    0.1773    constr:    0.0000
     atom:    7    charge:   12.4478    magn:    4.2025    constr:    0.0000
     atom:    8    charge:    5.7967    magn:    0.1693    constr:    0.0000
     atom:    9    charge:   12.4381    magn:    4.2098    constr:    0.0000
     atom:   10    charge:    5.8148    magn:    0.1746    constr:    0.0000
     atom:   11    charge:   12.4396    magn:    4.2077    constr:    0.0000
     atom:   12    charge:    5.7878    magn:    0.1669    constr:    0.0000
     atom:   13    charge:   12.4486    magn:    4.2026    constr:    0.0000
     atom:   14    charge:    5.8042    magn:    0.1719    constr:    0.0000
     atom:   15    charge:   12.4416    magn:    4.2074    constr:    0.0000
     atom:   16    charge:    5.8012    magn:    0.1714    constr:    0.0000

     total cpu time spent up to now is     1302.8 secs

     total energy              =   -1946.20083735 Ry
     Harris-Foulkes estimate   =   -1946.20081730 Ry
     estimated scf accuracy    <       0.00011509 Ry

     total magnetization       =    40.00 Bohr mag/cell
     absolute magnetization    =    40.00 Bohr mag/cell

     iteration #  8     ecut=    41.00 Ry     beta=0.30
     Davidson diagonalization with overlap
     ethr =  6.85E-08,  avg # of iterations =  1.5

     negative rho (up, down):  0.000E+00 2.580E-03

     Magnetic moment per site:
     atom:    1    charge:   12.4445    magn:    4.2046    constr:    0.0000
     atom:    2    charge:    5.8049    magn:    0.1749    constr:    0.0000
     atom:    3    charge:   12.4366    magn:    4.2107    constr:    0.0000
     atom:    4    charge:    5.8017    magn:    0.1737    constr:    0.0000
     atom:    5    charge:   12.4506    magn:    4.1996    constr:    0.0000
     atom:    6    charge:    5.8212    magn:    0.1797    constr:    0.0000
     atom:    7    charge:   12.4489    magn:    4.2013    constr:    0.0000
     atom:    8    charge:    5.7962    magn:    0.1720    constr:    0.0000
     atom:    9    charge:   12.4390    magn:    4.2083    constr:    0.0000
     atom:   10    charge:    5.8142    magn:    0.1770    constr:    0.0000
     atom:   11    charge:   12.4405    magn:    4.2062    constr:    0.0000
     atom:   12    charge:    5.7874    magn:    0.1697    constr:    0.0000
     atom:   13    charge:   12.4498    magn:    4.2013    constr:    0.0000
     atom:   14    charge:    5.8036    magn:    0.1744    constr:    0.0000
     atom:   15    charge:   12.4426    magn:    4.2060    constr:    0.0000
     atom:   16    charge:    5.8007    magn:    0.1739    constr:    0.0000

     total cpu time spent up to now is     1459.4 secs

     total energy              =   -1946.20085864 Ry
     Harris-Foulkes estimate   =   -1946.20085620 Ry
     estimated scf accuracy    <       0.00001444 Ry

     total magnetization       =    40.00 Bohr mag/cell
     absolute magnetization    =    40.00 Bohr mag/cell

     iteration #  9     ecut=    41.00 Ry     beta=0.30
     Davidson diagonalization with overlap
     ethr =  8.59E-09,  avg # of iterations =  2.0

     negative rho (up, down):  0.000E+00 2.576E-03

     Magnetic moment per site:
     atom:    1    charge:   12.4444    magn:    4.2045    constr:    0.0000
     atom:    2    charge:    5.8048    magn:    0.1761    constr:    0.0000
     atom:    3    charge:   12.4365    magn:    4.2107    constr:    0.0000
     atom:    4    charge:    5.8016    magn:    0.1749    constr:    0.0000
     atom:    5    charge:   12.4505    magn:    4.1996    constr:    0.0000
     atom:    6    charge:    5.8211    magn:    0.1808    constr:    0.0000
     atom:    7    charge:   12.4489    magn:    4.2012    constr:    0.0000
     atom:    8    charge:    5.7961    magn:    0.1732    constr:    0.0000
     atom:    9    charge:   12.4389    magn:    4.2083    constr:    0.0000
     atom:   10    charge:    5.8141    magn:    0.1781    constr:    0.0000
     atom:   11    charge:   12.4404    magn:    4.2062    constr:    0.0000
     atom:   12    charge:    5.7873    magn:    0.1709    constr:    0.0000
     atom:   13    charge:   12.4498    magn:    4.2013    constr:    0.0000
     atom:   14    charge:    5.8035    magn:    0.1755    constr:    0.0000
     atom:   15    charge:   12.4425    magn:    4.2060    constr:    0.0000
     atom:   16    charge:    5.8006    magn:    0.1751    constr:    0.0000

     total cpu time spent up to now is     1633.3 secs

     total energy              =   -1946.20086216 Ry
     Harris-Foulkes estimate   =   -1946.20086256 Ry
     estimated scf accuracy    <       0.00000299 Ry

     total magnetization       =    40.00 Bohr mag/cell
     absolute magnetization    =    40.00 Bohr mag/cell

     iteration # 10     ecut=    41.00 Ry     beta=0.30
     Davidson diagonalization with overlap
     ethr =  1.78E-09,  avg # of iterations =  2.0

     negative rho (up, down):  0.000E+00 2.579E-03

     Magnetic moment per site:
     atom:    1    charge:   12.4445    magn:    4.2045    constr:    0.0000
     atom:    2    charge:    5.8048    magn:    0.1763    constr:    0.0000
     atom:    3    charge:   12.4366    magn:    4.2106    constr:    0.0000
     atom:    4    charge:    5.8016    magn:    0.1751    constr:    0.0000
     atom:    5    charge:   12.4506    magn:    4.1995    constr:    0.0000
     atom:    6    charge:    5.8211    magn:    0.1809    constr:    0.0000
     atom:    7    charge:   12.4490    magn:    4.2012    constr:    0.0000
     atom:    8    charge:    5.7961    magn:    0.1734    constr:    0.0000
     atom:    9    charge:   12.4390    magn:    4.2082    constr:    0.0000
     atom:   10    charge:    5.8141    magn:    0.1783    constr:    0.0000
     atom:   11    charge:   12.4405    magn:    4.2061    constr:    0.0000
     atom:   12    charge:    5.7872    magn:    0.1712    constr:    0.0000
     atom:   13    charge:   12.4498    magn:    4.2012    constr:    0.0000
     atom:   14    charge:    5.8035    magn:    0.1757    constr:    0.0000
     atom:   15    charge:   12.4426    magn:    4.2059    constr:    0.0000
     atom:   16    charge:    5.8005    magn:    0.1753    constr:    0.0000

     total cpu time spent up to now is     1815.6 secs

     total energy              =   -1946.20086300 Ry
     Harris-Foulkes estimate   =   -1946.20086285 Ry
     estimated scf accuracy    <       0.00000021 Ry

     total magnetization       =    40.00 Bohr mag/cell
     absolute magnetization    =    40.00 Bohr mag/cell

     iteration # 11     ecut=    41.00 Ry     beta=0.30
     Davidson diagonalization with overlap
     ethr =  1.23E-10,  avg # of iterations =  2.0

     negative rho (up, down):  0.000E+00 2.582E-03

     Magnetic moment per site:
     atom:    1    charge:   12.4445    magn:    4.2045    constr:    0.0000
     atom:    2    charge:    5.8048    magn:    0.1761    constr:    0.0000
     atom:    3    charge:   12.4366    magn:    4.2107    constr:    0.0000
     atom:    4    charge:    5.8016    magn:    0.1749    constr:    0.0000
     atom:    5    charge:   12.4507    magn:    4.1996    constr:    0.0000
     atom:    6    charge:    5.8211    magn:    0.1807    constr:    0.0000
     atom:    7    charge:   12.4490    magn:    4.2013    constr:    0.0000
     atom:    8    charge:    5.7961    magn:    0.1732    constr:    0.0000
     atom:    9    charge:   12.4390    magn:    4.2083    constr:    0.0000
     atom:   10    charge:    5.8141    magn:    0.1781    constr:    0.0000
     atom:   11    charge:   12.4405    magn:    4.2062    constr:    0.0000
     atom:   12    charge:    5.7872    magn:    0.1711    constr:    0.0000
     atom:   13    charge:   12.4499    magn:    4.2013    constr:    0.0000
     atom:   14    charge:    5.8035    magn:    0.1756    constr:    0.0000
     atom:   15    charge:   12.4426    magn:    4.2060    constr:    0.0000
     atom:   16    charge:    5.8006    magn:    0.1751    constr:    0.0000

     total cpu time spent up to now is     1983.6 secs

     total energy              =   -1946.20086313 Ry
     Harris-Foulkes estimate   =   -1946.20086302 Ry
     estimated scf accuracy    <       0.00000006 Ry

     total magnetization       =    40.00 Bohr mag/cell
     absolute magnetization    =    40.00 Bohr mag/cell

     iteration # 12     ecut=    41.00 Ry     beta=0.30
     Davidson diagonalization with overlap
     ethr =  3.37E-11,  avg # of iterations =  2.0

     negative rho (up, down):  0.000E+00 2.580E-03

     Magnetic moment per site:
     atom:    1    charge:   12.4445    magn:    4.2045    constr:    0.0000
     atom:    2    charge:    5.8048    magn:    0.1761    constr:    0.0000
     atom:    3    charge:   12.4366    magn:    4.2106    constr:    0.0000
     atom:    4    charge:    5.8016    magn:    0.1749    constr:    0.0000
     atom:    5    charge:   12.4507    magn:    4.1995    constr:    0.0000
     atom:    6    charge:    5.8211    magn:    0.1807    constr:    0.0000
     atom:    7    charge:   12.4490    magn:    4.2012    constr:    0.0000
     atom:    8    charge:    5.7961    magn:    0.1732    constr:    0.0000
     atom:    9    charge:   12.4390    magn:    4.2083    constr:    0.0000
     atom:   10    charge:    5.8141    magn:    0.1781    constr:    0.0000
     atom:   11    charge:   12.4405    magn:    4.2061    constr:    0.0000
     atom:   12    charge:    5.7873    magn:    0.1711    constr:    0.0000
     atom:   13    charge:   12.4498    magn:    4.2013    constr:    0.0000
     atom:   14    charge:    5.8035    magn:    0.1756    constr:    0.0000
     atom:   15    charge:   12.4425    magn:    4.2060    constr:    0.0000
     atom:   16    charge:    5.8006    magn:    0.1751    constr:    0.0000

     total cpu time spent up to now is     2155.9 secs

     End of self-consistent calculation
 --- enter write_ns ---
 LDA+U parameters:
U( 1)     =  3.00000000
alpha( 1) =  0.00000000
atom    1   Tr[ns(na)] (up, down, total) =   4.99088  0.46438  5.45526
   spin  1
    eigenvalues: 
  0.997  0.997  0.999  0.999  0.999
    eigenvectors:
  0.994  0.004  0.000  0.002  0.000
  0.000  0.000  0.023  0.006  0.971
  0.002  0.001  0.027  0.967  0.003
  0.004  0.991  0.005  0.000  0.001
  0.000  0.005  0.945  0.024  0.026
    occupations:
  0.997  0.000 -0.000 -0.000  0.000
  0.000  0.999  0.000  0.000  0.000
 -0.000  0.000  0.999  0.000 -0.000
 -0.000  0.000  0.000  0.997  0.000
  0.000  0.000 -0.000  0.000  0.999
   spin  2
    eigenvalues: 
  0.051  0.053  0.054  0.147  0.160
    eigenvectors:
  0.000  0.000  0.001  0.023  0.976
  0.007  0.984  0.008  0.000  0.000
  0.000  0.008  0.991  0.000  0.001
  0.000  0.000  0.000  0.977  0.023
  0.993  0.007  0.000  0.000  0.000
    occupations:
  0.159  0.001  0.003  0.002 -0.000
  0.001  0.053  0.000 -0.001  0.000
  0.003  0.000  0.054  0.000  0.000
  0.002 -0.001  0.000  0.147 -0.001
 -0.000  0.000  0.000 -0.001  0.051
atomic mag. moment =     4.526504
atom    3   Tr[ns(na)] (up, down, total) =   4.99284  0.44820  5.44105
   spin  1
    eigenvalues: 
  0.997  0.998  0.999  0.999  0.999
    eigenvectors:
  0.995  0.000  0.000  0.002  0.002
  0.004  0.000  0.023  0.644  0.328
  0.000  0.000  0.175  0.225  0.600
  0.000  0.999  0.000  0.000  0.000
  0.000  0.000  0.802  0.128  0.070
    occupations:
  0.997  0.000 -0.000 -0.000 -0.000
  0.000  0.999 -0.000  0.000 -0.000
 -0.000 -0.000  0.999 -0.000 -0.000
 -0.000  0.000 -0.000  0.998  0.000
 -0.000 -0.000 -0.000  0.000  0.999
   spin  2
    eigenvalues: 
  0.048  0.051  0.053  0.141  0.155
    eigenvectors:
  0.000  0.000  0.000  0.022  0.978
  0.002  0.000  0.998  0.000  0.000
  0.007  0.992  0.000  0.000  0.000
  0.000  0.000  0.000  0.977  0.022
  0.991  0.007  0.002  0.000  0.000
    occupations:
  0.154 -0.000  0.001 -0.002  0.000
 -0.000  0.053 -0.000 -0.001 -0.000
  0.001 -0.000  0.051  0.001 -0.000
 -0.002 -0.001  0.001  0.142 -0.000
  0.000 -0.000 -0.000 -0.000  0.048
atomic mag. moment =     4.544640
atom    5   Tr[ns(na)] (up, down, total) =   4.98944  0.47499  5.46443
   spin  1
    eigenvalues: 
  0.996  0.996  0.999  0.999  0.999
    eigenvectors:
  0.989  0.011  0.000  0.000  0.000
  0.000  0.001  0.004  0.624  0.371
  0.000  0.000  0.035  0.371  0.593
  0.010  0.988  0.000  0.000  0.001
  0.000  0.000  0.961  0.005  0.034
    occupations:
  0.996 -0.000  0.000  0.000 -0.000
 -0.000  0.999 -0.000  0.000 -0.000
  0.000 -0.000  0.999 -0.000  0.000
  0.000  0.000 -0.000  0.996  0.000
 -0.000 -0.000  0.000  0.000  0.999
   spin  2
    eigenvalues: 
  0.053  0.054  0.055  0.153  0.159
    eigenvectors:
  0.000  0.000  0.000  0.035  0.964
  0.021  0.773  0.205  0.001  0.000
  0.012  0.220  0.768  0.000  0.000
  0.000  0.001  0.000  0.964  0.035
  0.967  0.006  0.027  0.000  0.000
    occupations:
  0.159  0.002 -0.000  0.001 -0.001
  0.002  0.055  0.000 -0.002 -0.000
 -0.000  0.000  0.055  0.001 -0.000
  0.001 -0.002  0.001  0.153  0.001
 -0.001 -0.000 -0.000  0.001  0.053
atomic mag. moment =     4.514450
atom    7   Tr[ns(na)] (up, down, total) =   4.98985  0.47224  5.46209
   spin  1
    eigenvalues: 
  0.996  0.997  0.999  0.999  0.999
    eigenvectors:
  0.990  0.009  0.000  0.001  0.001
  0.001  0.001  0.004  0.641  0.354
  0.000  0.001  0.331  0.266  0.402
  0.009  0.990  0.001  0.000  0.001
  0.000  0.000  0.664  0.093  0.243
    occupations:
  0.996 -0.000 -0.000 -0.000  0.000
 -0.000  0.999 -0.000  0.000 -0.000
 -0.000 -0.000  0.999 -0.000  0.000
 -0.000  0.000 -0.000  0.997  0.000
  0.000 -0.000  0.000  0.000  0.999
   spin  2
    eigenvalues: 
  0.053  0.054  0.055  0.153  0.158
    eigenvectors:
  0.000  0.000  0.000  0.077  0.923
  0.071  0.779  0.150  0.000  0.000
  0.002  0.169  0.829  0.000  0.000
  0.000  0.000  0.000  0.923  0.077
  0.928  0.051  0.021  0.000  0.000
    occupations:
  0.157  0.002  0.000  0.001 -0.001
  0.002  0.054  0.000 -0.001 -0.000
  0.000  0.000  0.055  0.002 -0.000
  0.001 -0.001  0.002  0.154 -0.001
 -0.001 -0.000 -0.000 -0.001  0.053
atomic mag. moment =     4.517604
atom    9   Tr[ns(na)] (up, down, total) =   4.99233  0.45353  5.44586
   spin  1
    eigenvalues: 
  0.997  0.998  0.999  0.999  0.999
    eigenvectors:
  0.153  0.846  0.000  0.001  0.000
  0.000  0.001  0.249  0.748  0.001
  0.000  0.001  0.241  0.060  0.698
  0.846  0.153  0.000  0.000  0.001
  0.001  0.000  0.509  0.190  0.300
    occupations:
  0.998  0.000  0.000  0.000  0.000
  0.000  0.999  0.000  0.000  0.000
  0.000  0.000  0.999  0.000 -0.000
  0.000  0.000  0.000  0.997 -0.000
  0.000  0.000 -0.000 -0.000  0.999
   spin  2
    eigenvalues: 
  0.050  0.051  0.052  0.148  0.152
    eigenvectors:
  0.000  0.000  0.000  0.908  0.092
  0.031  0.877  0.092  0.000  0.000
  0.966  0.034  0.000  0.000  0.000
  0.000  0.000  0.000  0.092  0.908
  0.003  0.089  0.908  0.000  0.000
    occupations:
  0.148 -0.002 -0.000 -0.001  0.000
 -0.002  0.051 -0.000  0.001  0.000
 -0.000 -0.000  0.050 -0.001  0.000
 -0.001  0.001 -0.001  0.152  0.001
  0.000  0.000  0.000  0.001  0.052
atomic mag. moment =     4.538806
atom   11   Tr[ns(na)] (up, down, total) =   4.99193  0.45615  5.44807
   spin  1
    eigenvalues: 
  0.997  0.998  0.999  0.999  0.999
    eigenvectors:
  0.237  0.750  0.012  0.001  0.000
  0.006  0.001  0.227  0.002  0.764
  0.000  0.003  0.379  0.479  0.139
  0.750  0.244  0.001  0.003  0.003
  0.006  0.003  0.381  0.515  0.095
    occupations:
  0.998  0.000  0.000  0.000 -0.000
  0.000  0.999 -0.000 -0.000  0.000
  0.000 -0.000  0.999  0.000  0.000
  0.000 -0.000  0.000  0.997  0.000
 -0.000  0.000  0.000  0.000  0.999
   spin  2
    eigenvalues: 
  0.050  0.052  0.053  0.146  0.154
    eigenvectors:
  0.000  0.000  0.000  0.934  0.065
  0.091  0.874  0.034  0.000  0.001
  0.902  0.097  0.001  0.000  0.000
  0.000  0.001  0.000  0.066  0.933
  0.007  0.027  0.965  0.000  0.000
    occupations:
  0.146 -0.002 -0.000 -0.002  0.002
 -0.002  0.052 -0.001  0.003  0.000
 -0.000 -0.001  0.051 -0.001  0.000
 -0.002  0.003 -0.001  0.154 -0.001
  0.002  0.000  0.000 -0.001  0.053
atomic mag. moment =     4.535781
atom   13   Tr[ns(na)] (up, down, total) =   4.98952  0.47386  5.46339
   spin  1
    eigenvalues: 
  0.996  0.997  0.999  0.999  0.999
    eigenvectors:
  0.095  0.901  0.003  0.001  0.000
  0.000  0.002  0.032  0.905  0.061
  0.002  0.001  0.950  0.041  0.005
  0.903  0.095  0.001  0.001  0.000
  0.000  0.000  0.015  0.052  0.933
    occupations:
  0.997  0.000  0.000 -0.000  0.000
  0.000  0.999 -0.000 -0.000  0.000
  0.000 -0.000  0.999  0.000  0.000
 -0.000 -0.000  0.000  0.996 -0.000
  0.000  0.000  0.000 -0.000  0.999
   spin  2
    eigenvalues: 
  0.052  0.053  0.056  0.150  0.163
    eigenvectors:
  0.000  0.000  0.000  0.975  0.024
  0.991  0.002  0.006  0.000  0.000
  0.002  0.996  0.002  0.000  0.000
  0.000  0.000  0.000  0.024  0.975
  0.006  0.001  0.992  0.000  0.000
    occupations:
  0.150 -0.001 -0.001  0.002 -0.000
 -0.001  0.052 -0.000  0.001  0.000
 -0.001 -0.000  0.053 -0.002  0.000
  0.002  0.001 -0.002  0.163  0.000
 -0.000  0.000  0.000  0.000  0.056
atomic mag. moment =     4.515664
atom   15   Tr[ns(na)] (up, down, total) =   4.99161  0.45950  5.45110
   spin  1
    eigenvalues: 
  0.997  0.997  0.999  0.999  0.999
    eigenvectors:
  0.014  0.980  0.001  0.004  0.001
  0.002  0.002  0.109  0.871  0.017
  0.002  0.003  0.886  0.109  0.000
  0.982  0.014  0.003  0.000  0.000
  0.000  0.002  0.001  0.015  0.982
    occupations:
  0.997  0.000  0.000  0.000  0.000
  0.000  0.999  0.000 -0.000 -0.000
  0.000  0.000  0.999  0.000 -0.000
  0.000 -0.000  0.000  0.997  0.000
  0.000 -0.000 -0.000  0.000  0.999
   spin  2
    eigenvalues: 
  0.051  0.052  0.054  0.145  0.158
    eigenvectors:
  0.000  0.000  0.000  0.985  0.014
  0.063  0.934  0.003  0.000  0.000
  0.930  0.060  0.009  0.001  0.000
  0.000  0.000  0.000  0.014  0.986
  0.006  0.005  0.988  0.000  0.000
    occupations:
  0.145 -0.001 -0.002 -0.002 -0.000
 -0.001  0.052  0.000  0.002  0.000
 -0.002  0.000  0.051 -0.002  0.000
 -0.002  0.002 -0.002  0.158  0.000
 -0.000  0.000  0.000  0.000  0.054
atomic mag. moment =     4.532108
N of occupied +U levels =   43.631236
 --- exit write_ns ---

 ------ SPIN UP ------------


          k = 0.0000 0.0000 0.0000 (  5329 PWs)   bands (ev):

   -69.1108 -69.0562 -69.0511 -69.0142 -68.9388 -68.8806 -68.8664 -68.8562
   -37.9960 -37.9852 -37.9647 -37.9456 -37.9258 -37.9217 -37.9194 -37.9171
   -37.9076 -37.8950 -37.8768 -37.8661 -37.8223 -37.8133 -37.7936 -37.7596
   -37.7528 -37.7522 -37.7477 -37.7403 -37.7347 -37.7185 -37.7163 -37.7066
    -7.0321  -6.4787  -6.4177  -6.3898  -6.0073  -6.0063  -5.9916  -5.9291
     3.9522   3.9597   3.9644   3.9715   5.7557   5.7720   5.7786   5.7832
     5.7915   5.7964   5.8040   5.8138   5.9783   5.9810   5.9976   6.6752
     6.6904   6.7080   7.7037   7.7162   7.7707   8.0473   8.1779   8.1889
     8.2346   8.2573   8.2705   8.3855   8.5447   8.6772   8.7274   8.7400
     8.7436   8.7553   8.7619   8.7718   8.7808   8.7991   8.8266   8.8791
     9.0011   9.0206   9.0356   9.0461   9.0537   9.0576   9.1698   9.2249
     9.2363   9.4189   9.4758   9.4961   9.7047   9.7131   9.7240   9.7329
    11.9430  12.2923  12.3085  12.3156  12.3188  12.3299  12.3312  12.3380
    12.3421  15.8963  15.9195  15.9317  15.9521  17.2638  17.2713  17.2948
    20.1332  20.1553  20.1662  20.2099  20.3787  20.3950  20.4176  22.6151
    22.6342  22.6521  24.0804  24.1025  24.1228

          k =-0.1768 0.1768 0.1768 (  5402 PWs)   bands (ev):

   -69.1100 -69.0554 -69.0503 -69.0133 -68.9380 -68.8798 -68.8656 -68.8554
   -37.9957 -37.9840 -37.9636 -37.9425 -37.9266 -37.9230 -37.9194 -37.9177
   -37.9088 -37.8950 -37.8778 -37.8669 -37.8221 -37.8134 -37.7946 -37.7581
   -37.7528 -37.7505 -37.7488 -37.7417 -37.7365 -37.7222 -37.7179 -37.7070
    -6.9069  -6.4498  -6.3747  -6.3373  -6.1538  -6.0634  -6.0452  -5.9727
     4.2619   4.2799   4.3006   4.4561   5.7268   5.7435   5.7534   5.8333
     5.8422   5.8548   5.9620   5.9722   5.9844   6.0201   6.0258   6.3951
     6.4306   6.4707   7.1405   7.3205   7.3869   7.4132   7.4824   7.5300
     7.9714   8.0089   8.0209   8.0615   8.1039   8.5655   8.5887   8.6105
     8.6205   8.6351   8.7541   8.7817   8.7947   8.9074   8.9672   8.9904
     9.0299   9.2097   9.2278   9.2474   9.4877   9.6050   9.6149   9.6360
     9.6964   9.7102   9.7404   9.8302   9.8534   9.8608  10.1975  10.2135
    11.6991  11.7321  11.7649  11.9481  11.9561  11.9708  12.0325  12.0424
    13.0507  15.7132  16.7376  16.7813  16.7936  17.6241  17.6727  17.7144
    20.0119  20.0779  20.1341  20.3513  20.4357  20.5459  20.6791  21.9505
    22.0322  22.0775  23.0698  23.1139  23.1792

          k = 0.3536-0.3536-0.3536 (  5444 PWs)   bands (ev):

   -69.1092 -69.0545 -69.0495 -69.0125 -68.9372 -68.8790 -68.8648 -68.8546
   -37.9954 -37.9828 -37.9623 -37.9371 -37.9304 -37.9249 -37.9189 -37.9182
   -37.9095 -37.8951 -37.8791 -37.8676 -37.8219 -37.8134 -37.7956 -37.7577
   -37.7517 -37.7501 -37.7448 -37.7437 -37.7419 -37.7262 -37.7193 -37.7074
    -6.6681  -6.4871  -6.3702  -6.2853  -6.2340  -6.1718  -6.1190  -6.0186
     4.9459   4.9799   5.0406   5.1408   5.1962   5.2255   5.6218   5.7741
     5.8787   5.9445   5.9571   6.0033   6.0292   6.0948   6.3616   6.4271
     6.4863   6.4958   6.5592   6.6020   6.6329   6.6667   6.6900   6.7795
     8.0952   8.1402   8.1504   8.2201   8.2437   8.2648   8.3006   8.3285
     8.3554   8.3859   8.7903   8.8426   8.8512   8.8820   8.9118   8.9514
     9.0414   9.1400   9.4143   9.4290   9.4368   9.4943   9.5042   9.5258
    10.5454  10.5962  10.6516  10.6775  10.7243  10.7788  10.9017  10.9566
    10.9662  11.0356  11.0700  11.1074  11.2211  11.2676  11.3282  11.3802
    14.6174  14.7301  17.6491  17.8369  17.9034  17.9925  18.0392  18.2138
    19.8078  20.1224  20.1654  20.2457  20.2694  20.4670  21.5412  21.6591
    21.7165  21.8290  21.9052  21.9299  22.2077

          k = 0.0000 0.0000 0.3536 (  5425 PWs)   bands (ev):

   -69.1097 -69.0551 -69.0500 -69.0131 -68.9378 -68.8795 -68.8654 -68.8551
   -37.9952 -37.9841 -37.9629 -37.9422 -37.9257 -37.9225 -37.9206 -37.9176
   -37.9084 -37.8978 -37.8775 -37.8668 -37.8227 -37.8135 -37.7928 -37.7575
   -37.7531 -37.7508 -37.7495 -37.7429 -37.7372 -37.7231 -37.7178 -37.7074
    -6.8756  -6.4762  -6.3570  -6.3289  -6.1152  -6.0967  -6.0688  -5.9927
     4.3588   4.3665   4.4203   4.4304   5.5397   5.8381   5.8531   5.8861
     5.9018   5.9276   5.9499   5.9673   5.9783   6.0129   6.0235   6.3002
     6.3420   6.7863   6.8201   6.8432   6.8908   7.5510   7.6246   7.6339
     7.8286   7.8927   8.3844   8.4853   8.5558   8.6067   8.6246   8.6534
     8.6951   8.7101   8.7137   8.7258   8.8032   8.8541   9.0153   9.0247
     9.0785   9.1142   9.1507   9.1625   9.4552   9.4760   9.5595   9.5720
     9.5865   9.5982   9.6436   9.6894   9.7024   9.8731  10.2703  10.2984
    11.2955  11.3196  11.3526  11.3675  12.2506  12.2730  12.2838  12.2974
    13.5387  16.5203  16.5652  16.6968  16.7683  17.2735  18.0751  18.0873
    20.1283  20.1428  20.2974  20.3903  20.4322  20.5084  20.9324  21.6760
    21.6851  22.8639  23.0228  23.0517  23.1555

          k = 0.5303-0.5303-0.1768 (  5413 PWs)   bands (ev):

   -69.1089 -69.0543 -69.0493 -69.0122 -68.9370 -68.8787 -68.8646 -68.8543
   -37.9949 -37.9829 -37.9615 -37.9365 -37.9298 -37.9247 -37.9204 -37.9180
   -37.9086 -37.8979 -37.8784 -37.8677 -37.8225 -37.8136 -37.7937 -37.7565
   -37.7523 -37.7509 -37.7454 -37.7442 -37.7425 -37.7275 -37.7194 -37.7078
    -6.6732  -6.4716  -6.3631  -6.2883  -6.2717  -6.1550  -6.1125  -6.0158
     4.8361   4.8786   4.9319   5.2078   5.3133   5.5078   5.5277   5.8289
     5.8952   5.9430   5.9603   6.0404   6.0764   6.1586   6.1988   6.2180
     6.2505   6.4373   6.4619   6.5395   6.5917   6.8487   7.1549   7.1944
     7.8155   7.8822   8.2432   8.3197   8.3728   8.4764   8.5610   8.5751
     8.6267   8.6365   8.7097   8.7722   8.7935   8.8234   8.8819   8.9207
     9.2411   9.3556   9.3622   9.4100   9.4471   9.5497   9.5588   9.5834
     9.8604   9.8811  10.1653  10.2788  10.3496  10.3934  10.4245  10.5085
    10.5796  10.8635  11.0002  11.0220  11.7566  11.7892  11.8487  12.0080
    14.9475  15.7242  16.9361  17.3741  17.4756  18.4583  18.7754  18.9633
    19.7781  19.9576  20.2505  20.5384  20.7306  21.0106  21.0796  21.2435
    21.5784  21.6789  21.9911  22.1663  22.6124

          k = 0.3536-0.3536 0.0000 (  5416 PWs)   bands (ev):

   -69.1092 -69.0546 -69.0495 -69.0125 -68.9372 -68.8790 -68.8648 -68.8546
   -37.9951 -37.9838 -37.9628 -37.9417 -37.9256 -37.9226 -37.9181 -37.9174
   -37.9075 -37.8981 -37.8802 -37.8691 -37.8208 -37.8125 -37.7929 -37.7606
   -37.7544 -37.7515 -37.7500 -37.7432 -37.7373 -37.7228 -37.7192 -37.7076
    -6.7362  -6.4497  -6.3526  -6.2859  -6.2476  -6.1846  -6.0800  -6.0077
     4.6932   4.7033   4.9053   4.9205   5.4187   5.4479   5.6238   5.8464
     5.8909   5.9044   6.0538   6.0824   6.1021   6.1149   6.3307   6.3659
     6.4120   6.4534   6.4858   6.6847   6.7129   6.7492   6.8419   7.0591
     7.9799   8.1652   8.2098   8.2691   8.3408   8.3543   8.4382   8.5947
     8.6219   8.6876   8.7067   8.7271   8.7479   8.8908   8.9025   8.9316
     9.3264   9.3527   9.4002   9.4426   9.4841   9.5079   9.5777   9.5879
     9.6286   9.6387   9.7870   9.8300  10.6459  10.7213  10.8411  10.8743
    10.9243  11.1048  11.2415  11.3499  11.5757  11.6072  11.7321  11.7369
    14.2489  16.1899  16.2125  17.6628  17.8058  18.0720  18.1005  18.6677
    19.7931  19.8199  20.3748  20.4282  20.6959  20.9383  21.0783  21.1026
    21.6643  21.8422  21.9184  21.9852  23.4685

          k = 0.0000 0.0000-0.7071 (  5434 PWs)   bands (ev):

   -69.1087 -69.0540 -69.0490 -69.0120 -68.9367 -68.8784 -68.8644 -68.8540
   -37.9944 -37.9830 -37.9607 -37.9360 -37.9289 -37.9245 -37.9218 -37.9177
   -37.9063 -37.9024 -37.8781 -37.8673 -37.8232 -37.8137 -37.7917 -37.7554
   -37.7529 -37.7518 -37.7466 -37.7445 -37.7430 -37.7288 -37.7193 -37.7081
    -6.6232  -6.5772  -6.3238  -6.2873  -6.2088  -6.1858  -6.1146  -6.0283
     4.8657   4.8688   4.9214   4.9434   5.5215   5.5430   5.8615   5.9084
     5.9414   5.9545   5.9813   6.0152   6.0340   6.0459   6.0965   6.1013
     6.1348   6.1878   6.2545   6.2899   7.1751   7.2074   7.5328   7.5466
     7.5811   7.5965   8.3719   8.4212   8.4507   8.4984   8.5640   8.5780
     8.7719   8.7789   8.8119   8.8375   9.0276   9.0393   9.1008   9.1166
     9.1405   9.1538   9.1822   9.2090   9.7205   9.7323   9.7688   9.7752
     9.7974   9.8109   9.8301   9.8408   9.8987   9.9108   9.9663   9.9936
    10.0658  10.0792  10.8628  10.8733  12.1991  12.2264  12.2441  12.2572
    15.9336  15.9406  17.0788  17.1626  17.3955  17.4480  19.2959  19.3123
    20.6194  20.6522  20.6834  20.7158  21.0006  21.0566  21.2159  21.2809
    21.3041  21.3723  21.6125  21.6512  23.2016

          k = 0.0000 0.3536-0.7071 (  5400 PWs)   bands (ev):

   -69.1087 -69.0541 -69.0489 -69.0120 -68.9367 -68.8785 -68.8643 -68.8540
   -37.9942 -37.9824 -37.9616 -37.9423 -37.9256 -37.9224 -37.9200 -37.9186
   -37.9054 -37.9018 -37.8785 -37.8683 -37.8226 -37.8140 -37.7923 -37.7572
   -37.7533 -37.7514 -37.7494 -37.7448 -37.7398 -37.7249 -37.7197 -37.7098
    -6.5809  -6.4742  -6.4161  -6.3313  -6.2550  -6.1604  -6.1270  -6.0132
     5.1178   5.1783   5.2010   5.2508   5.3145   5.3306   5.3581   5.3929
     5.9442   5.9622   5.9766   5.9920   6.1339   6.1748   6.1978   6.2327
     6.4445   6.5091   6.5526   6.5933   6.6524   6.6777   6.7349   6.7658
     8.0471   8.0560   8.0834   8.1145   8.6258   8.6394   8.6550   8.6760
     8.6901   8.7111   8.7245   8.7382   8.7569   8.7821   8.7872   8.8073
     9.4911   9.5201   9.5721   9.5835   9.6270   9.6446   9.6524   9.6946
     9.7405   9.7771   9.8147   9.8325   9.8903   9.9029   9.9468   9.9948
    11.3004  11.3850  11.4207  11.4596  11.4948  11.5165  11.5340  11.6301
    16.0900  16.1486  16.2653  16.3195  18.9396  18.9875  19.0281  19.0420
    19.9905  20.0350  20.0720  20.1294  20.6752  20.7283  20.8714  20.9020
    22.2431  22.2826  22.3245  22.3312  22.7843

          k = 0.1768-0.1768 0.1768 (  5402 PWs)   bands (ev):

   -69.1100 -69.0554 -69.0502 -69.0133 -68.9380 -68.8798 -68.8656 -68.8554
   -37.9954 -37.9851 -37.9639 -37.9450 -37.9245 -37.9208 -37.9186 -37.9166
   -37.9069 -37.8980 -37.8789 -37.8684 -37.8210 -37.8125 -37.7920 -37.7616
   -37.7544 -37.7534 -37.7489 -37.7420 -37.7356 -37.7193 -37.7172 -37.7071
    -6.9056  -6.4579  -6.3717  -6.3385  -6.1398  -6.0655  -6.0454  -5.9792
     4.2548   4.2792   4.3156   4.4498   5.7206   5.7386   5.7591   5.8004
     5.8268   5.8399   5.9797   5.9896   5.9977   6.0245   6.0402   6.3770
     6.4265   6.4966   7.1291   7.3376   7.4007   7.4214   7.4727   7.5365
     7.9622   8.0029   8.0149   8.0678   8.1015   8.5604   8.5875   8.6021
     8.6230   8.6296   8.7566   8.7735   8.7880   8.9075   8.9764   8.9808
     9.0387   9.2075   9.2161   9.2366   9.4824   9.6106   9.6293   9.6418
     9.6877   9.7225   9.7410   9.8312   9.8616   9.8717  10.1876  10.2154
    11.6930  11.7403  11.7793  11.9522  11.9598  11.9648  12.0301  12.0325
    13.0491  15.7076  16.7405  16.7785  16.7981  17.5710  17.6893  17.7379
    19.9965  20.0609  20.1894  20.3006  20.4309  20.5966  20.6748  21.9266
    22.0175  22.1288  23.0339  23.1139  23.1946

          k = 0.1768 0.1768-0.1768 (  5402 PWs)   bands (ev):

   -69.1100 -69.0555 -69.0503 -69.0133 -68.9380 -68.8798 -68.8655 -68.8554
   -37.9944 -37.9838 -37.9633 -37.9465 -37.9261 -37.9217 -37.9205 -37.9182
   -37.9077 -37.8953 -37.8771 -37.8657 -37.8235 -37.8138 -37.7933 -37.7579
   -37.7536 -37.7527 -37.7467 -37.7417 -37.7365 -37.7198 -37.7175 -37.7097
    -6.9052  -6.4563  -6.3743  -6.3382  -6.1416  -6.0656  -6.0449  -5.9777
     4.2613   4.2788   4.2990   4.4604   5.7275   5.7420   5.7613   5.8044
     5.8239   5.8401   5.9679   5.9888   6.0032   6.0113   6.0385   6.3992
     6.4399   6.4699   7.1604   7.3529   7.3797   7.4274   7.4670   7.5058
     7.9519   7.9983   8.0247   8.0689   8.1033   8.5606   8.5774   8.5933
     8.6203   8.6278   8.7467   8.7862   8.7963   8.9272   8.9630   8.9833
     9.0144   9.2100   9.2372   9.2570   9.4834   9.6131   9.6205   9.6400
     9.6902   9.7068   9.7356   9.8364   9.8610   9.8821  10.1908  10.2166
    11.7070  11.7421  11.7568  11.9464  11.9550  11.9700  12.0304  12.0420
    13.0509  15.6961  16.7352  16.7711  16.8066  17.6223  17.6809  17.7171
    20.0125  20.0470  20.1019  20.3398  20.4449  20.5484  20.7151  21.9636
    22.0225  22.0764  23.0812  23.1465  23.1795

          k =-0.1768-0.1768-0.1768 (  5402 PWs)   bands (ev):

   -69.1100 -69.0554 -69.0503 -69.0133 -68.9380 -68.8798 -68.8656 -68.8554
   -37.9949 -37.9847 -37.9641 -37.9420 -37.9255 -37.9224 -37.9198 -37.9183
   -37.9085 -37.8974 -37.8765 -37.8667 -37.8223 -37.8149 -37.7931 -37.7599
   -37.7526 -37.7507 -37.7472 -37.7418 -37.7355 -37.7220 -37.7169 -37.7093
    -6.9062  -6.4495  -6.3802  -6.3384  -6.1429  -6.0639  -6.0498  -5.9728
     4.2542   4.2742   4.3136   4.4562   5.7286   5.7385   5.7549   5.8218
     5.8394   5.8523   5.9586   5.9818   5.9943   6.0159   6.0287   6.3823
     6.4273   6.4935   7.1573   7.3700   7.3879   7.4023   7.4861   7.4905
     7.9342   7.9957   8.0239   8.0782   8.1112   8.5607   8.5945   8.5989
     8.6189   8.6303   8.7602   8.7705   8.8022   8.9203   8.9702   8.9854
     9.0102   9.2189   9.2328   9.2375   9.4838   9.6173   9.6219   9.6292
     9.6854   9.7160   9.7459   9.8272   9.8487   9.8737  10.2025  10.2130
    11.6871  11.7382  11.7667  11.9531  11.9617  11.9707  12.0313  12.0424
    13.0482  15.6997  16.7358  16.7796  16.8027  17.5980  17.6737  17.7483
    20.0131  20.0685  20.1448  20.2921  20.4393  20.5769  20.6916  21.9327
    22.0095  22.1284  23.0548  23.1223  23.2164

          k =-0.3536 0.3536-0.3536 (  5444 PWs)   bands (ev):

   -69.1092 -69.0546 -69.0494 -69.0125 -68.9372 -68.8790 -68.8648 -68.8546
   -37.9949 -37.9849 -37.9631 -37.9443 -37.9232 -37.9198 -37.9177 -37.9156
   -37.9043 -37.9030 -37.8813 -37.8706 -37.8197 -37.8116 -37.7899 -37.7641
   -37.7564 -37.7542 -37.7502 -37.7437 -37.7365 -37.7202 -37.7180 -37.7076
    -6.6365  -6.5583  -6.3267  -6.2861  -6.2106  -6.1877  -6.1188  -6.0290
     4.9779   5.0275   5.0606   5.1001   5.1398   5.2079   5.6411   5.6874
     5.8598   5.9050   5.9724   6.0043   6.0620   6.1090   6.4589   6.4818
     6.5096   6.5288   6.5430   6.5954   6.6347   6.6575   6.6716   6.7205
     8.1096   8.1282   8.1449   8.2286   8.2304   8.2643   8.3012   8.3121
     8.3619   8.3741   8.7881   8.8219   8.8349   8.9074   8.9280   8.9438
     9.0228   9.1366   9.3947   9.4159   9.4262   9.5187   9.5270   9.5388
    10.5633  10.6048  10.6164  10.6871  10.7486  10.7960  10.8732  10.9154
    10.9854  11.0467  11.1131  11.1415  11.1818  11.2429  11.3452  11.3752
    14.6190  14.7193  17.7047  17.7564  17.8598  18.0285  18.1144  18.1498
    19.8046  20.0185  20.0811  20.2579  20.4643  20.4836  21.5771  21.6267
    21.7350  21.8244  21.8862  21.9716  22.1740

          k =-0.3536-0.3536 0.3536 (  5444 PWs)   bands (ev):

   -69.1092 -69.0547 -69.0494 -69.0125 -68.9372 -68.8790 -68.8647 -68.8546
   -37.9930 -37.9821 -37.9616 -37.9482 -37.9264 -37.9224 -37.9207 -37.9193
   -37.9078 -37.8955 -37.8774 -37.8653 -37.8248 -37.8142 -37.7929 -37.7560
   -37.7545 -37.7525 -37.7453 -37.7441 -37.7380 -37.7227 -37.7178 -37.7127
    -6.6293  -6.5632  -6.3344  -6.2843  -6.2042  -6.1936  -6.1180  -6.0267
     4.9849   5.0082   5.0671   5.1132   5.1371   5.1785   5.6468   5.7082
     5.8944   5.9253   5.9634   6.0151   6.0602   6.1038   6.4267   6.4499
     6.4685   6.5270   6.5736   6.5841   6.6357   6.6814   6.6948   6.7163
     8.1091   8.1361   8.1658   8.1938   8.2065   8.2560   8.3086   8.3202
     8.3510   8.3670   8.7936   8.8598   8.8615   8.8789   8.8925   8.9449
     9.0404   9.1237   9.4139   9.4293   9.4499   9.4862   9.5200   9.5348
    10.5990  10.6131  10.6188  10.6763  10.7179  10.7488  10.9346  10.9578
    11.0013  11.0570  11.0839  11.1271  11.1628  11.2451  11.3344  11.3700
    14.6494  14.6892  17.6631  17.7436  17.8913  18.0158  18.1078  18.1985
    19.9100  19.9650  20.0189  20.2683  20.3367  20.4837  21.5481  21.6012
    21.7614  21.8710  21.9482  22.0288  22.2529

          k = 0.3536 0.3536 0.3536 (  5444 PWs)   bands (ev):

   -69.1092 -69.0545 -69.0495 -69.0125 -68.9372 -68.8790 -68.8648 -68.8546
   -37.9938 -37.9841 -37.9635 -37.9359 -37.9282 -37.9236 -37.9217 -37.9182
   -37.9073 -37.9012 -37.8762 -37.8673 -37.8223 -37.8164 -37.7925 -37.7608
   -37.7530 -37.7471 -37.7464 -37.7419 -37.7380 -37.7265 -37.7177 -37.7116
    -6.6576  -6.5054  -6.3894  -6.2552  -6.2241  -6.1723  -6.1310  -6.0186
     4.9529   4.9773   5.0674   5.1296   5.1674   5.2116   5.6210   5.7591
     5.8608   5.9454   5.9907   6.0161   6.0444   6.1010   6.3579   6.4350
     6.4858   6.5203   6.5354   6.5813   6.6511   6.6764   6.7173   6.7590
     8.0816   8.1143   8.1642   8.2158   8.2237   8.2679   8.2970   8.3305
     8.3631   8.3772   8.8033   8.8247   8.8772   8.8819   8.9229   8.9436
     9.0173   9.1114   9.4006   9.4365   9.4471   9.4932   9.5255   9.5311
    10.5570  10.5922  10.6497  10.6693  10.7475  10.7705  10.8424  10.9591
    11.0008  11.0503  11.1011  11.1492  11.2145  11.2459  11.3159  11.3658
    14.6257  14.7091  17.6241  17.8026  17.9304  17.9962  18.0606  18.2375
    19.9173  19.9497  20.0692  20.2178  20.4083  20.4989  21.4739  21.6139
    21.7460  21.8578  21.8885  22.0359  22.2167

          k = 0.3536 0.0000 0.0000 (  5425 PWs)   bands (ev):

   -69.1097 -69.0552 -69.0500 -69.0131 -68.9378 -68.8796 -68.8653 -68.8551
   -37.9949 -37.9836 -37.9636 -37.9456 -37.9254 -37.9211 -37.9194 -37.9178
   -37.9066 -37.8973 -37.8779 -37.8677 -37.8221 -37.8138 -37.7933 -37.7588
   -37.7542 -37.7532 -37.7478 -37.7419 -37.7363 -37.7202 -37.7181 -37.7091
    -6.8757  -6.4630  -6.3963  -6.3018  -6.1056  -6.1012  -6.0767  -5.9907
     4.3657   4.3853   4.4047   4.4202   5.5445   5.8181   5.8421   5.8977
     5.9069   5.9228   5.9410   5.9621   5.9942   6.0316   6.0395   6.3192
     6.3310   6.7979   6.8015   6.8342   6.8531   7.5621   7.5999   7.6544
     7.8365   7.8639   8.3992   8.5520   8.5694   8.6007   8.6211   8.6512
     8.6881   8.7062   8.7129   8.7337   8.7747   8.8329   9.0194   9.0310
     9.1066   9.1161   9.1522   9.1606   9.4268   9.4699   9.5386   9.5798
     9.5949   9.6217   9.6397   9.6698   9.6945   9.8992  10.2599  10.2936
    11.3109  11.3235  11.3496  11.3592  12.2491  12.2712  12.2873  12.2928
    13.5311  16.5310  16.5670  16.7290  16.7453  17.2634  18.0784  18.0922
    20.1351  20.1665  20.2911  20.3541  20.4476  20.4980  20.9422  21.6599
    21.6820  22.8471  23.0259  23.0714  23.1627

          k = 0.0000 0.3536 0.0000 (  5425 PWs)   bands (ev):

   -69.1097 -69.0551 -69.0501 -69.0131 -68.9378 -68.8795 -68.8653 -68.8551
   -37.9943 -37.9846 -37.9638 -37.9427 -37.9261 -37.9220 -37.9196 -37.9178
   -37.9093 -37.8956 -37.8783 -37.8670 -37.8219 -37.8139 -37.7931 -37.7615
   -37.7541 -37.7508 -37.7465 -37.7418 -37.7359 -37.7215 -37.7173 -37.7101
    -6.8762  -6.4743  -6.3590  -6.3294  -6.1126  -6.0982  -6.0687  -5.9926
     4.3490   4.3824   4.4027   4.4375   5.5528   5.8371   5.8395   5.8882
     5.8983   5.9215   5.9380   5.9670   5.9876   6.0122   6.0334   6.3150
     6.3476   6.7990   6.8126   6.8360   6.8800   7.5275   7.6132   7.6327
     7.8353   7.9236   8.3934   8.5539   8.5792   8.5945   8.6144   8.6492
     8.6738   8.6999   8.7181   8.7361   8.7763   8.7937   9.0242   9.0288
     9.1032   9.1167   9.1606   9.1742   9.4096   9.4555   9.5285   9.5763
     9.6031   9.6352   9.6480   9.6655   9.7139   9.8921  10.2624  10.2910
    11.2933  11.3341  11.3450  11.3831  12.2533  12.2641  12.2813  12.2934
    13.5328  16.5956  16.6291  16.6608  16.6907  17.2668  18.0653  18.0820
    20.1436  20.2157  20.2732  20.3442  20.4262  20.4871  20.9191  21.6794
    21.7108  22.8402  23.0386  23.0997  23.1335

          k =-0.5303 0.5303-0.1768 (  5413 PWs)   bands (ev):

[...]
   -32.9176 -32.9050 -32.8835 -32.8667 -32.8553 -32.8467 -32.8455 -32.8415
   -32.8372 -32.8213 -32.8057 -32.7926 -32.7520 -32.7432 -32.7235 -32.6954
   -32.6886 -32.6842 -32.6807 -32.6776 -32.6717 -32.6582 -32.6499 -32.6402
    -6.2233  -5.9460  -5.8258  -5.6920  -5.6671  -5.5440  -5.4552  -5.3910
     6.5494   6.5802   6.6127   6.8165   6.9236   6.9880   6.9917   7.5594
     7.6532   7.6956   7.7689   8.1546   8.1796   8.3042   8.3660   8.4578
     8.5300   8.5920   8.6719   8.7261   8.7489   8.8877   9.0938   9.2095
    14.0726  14.5473  14.6847  14.7205  14.9103  14.9888  15.0532  15.1462
    15.2841  15.4060  15.4939  15.5870  15.6097  15.6724  15.6938  15.7016
    15.7385  15.7688  15.8203  15.8446  15.8607  15.8811  15.9698  15.9980
    16.0117  16.0341  16.0528  16.0916  16.1139  16.1466  16.1820  16.2033
    16.3340  16.3382  16.5156  16.5385  16.7869  16.7974  16.8380  16.9534
    17.0135  17.2577  18.7006  18.9876  19.0284  20.0507  20.5981  20.6693
    21.5530  21.7182  21.8756  22.3792  22.4522  22.7149  22.7664  22.8610
    23.4319  23.5418  23.8002  23.8696  24.5581

          k = 0.5303-0.1768 0.5303 (  5413 PWs)   bands (ev):

   -63.9129 -63.8616 -63.8588 -63.8220 -63.7484 -63.6944 -63.6824 -63.6698
   -32.9171 -32.9070 -32.8837 -32.8710 -32.8505 -32.8465 -32.8427 -32.8392
   -32.8342 -32.8249 -32.8077 -32.7952 -32.7503 -32.7418 -32.7184 -32.7007
   -32.6903 -32.6878 -32.6844 -32.6775 -32.6700 -32.6539 -32.6487 -32.6405
    -6.2098  -5.9903  -5.8106  -5.6783  -5.6226  -5.5860  -5.4582  -5.3884
     6.5264   6.6227   6.6496   6.7952   6.8907   6.9620   6.9970   7.5103
     7.6443   7.7008   7.8186   8.1233   8.2450   8.3202   8.3664   8.4855
     8.4990   8.5260   8.6890   8.7553   8.7779   8.8864   9.0927   9.1828
    14.0705  14.5431  14.6884  14.7178  14.8827  14.9902  15.0622  15.1334
    15.2877  15.4030  15.4881  15.5477  15.6325  15.6679  15.6839  15.7439
    15.7675  15.7739  15.8010  15.8347  15.8641  15.8790  15.9748  15.9992
    16.0187  16.0362  16.0479  16.0885  16.1289  16.1426  16.1878  16.1972
    16.3300  16.3424  16.5164  16.5377  16.7966  16.8095  16.8323  16.9480
    17.0085  17.2560  18.7101  18.9476  19.0495  20.0573  20.5010  20.7905
    21.5347  21.6135  22.0189  22.2856  22.5166  22.7226  22.7661  22.8692
    23.4309  23.5002  23.7275  23.9300  24.5588

          k = 0.5303 0.1768-0.5303 (  5413 PWs)   bands (ev):

   -63.9129 -63.8616 -63.8588 -63.8220 -63.7485 -63.6944 -63.6824 -63.6699
   -32.9148 -32.9049 -32.8831 -32.8745 -32.8525 -32.8479 -32.8445 -32.8429
   -32.8354 -32.8217 -32.8041 -32.7907 -32.7545 -32.7440 -32.7209 -32.6952
   -32.6888 -32.6870 -32.6795 -32.6764 -32.6723 -32.6550 -32.6491 -32.6439
    -6.2073  -6.0034  -5.7739  -5.6948  -5.6628  -5.5534  -5.4562  -5.3925
     6.5613   6.5843   6.6196   6.7940   6.9322   6.9561   6.9953   7.5205
     7.6624   7.6997   7.7783   8.1650   8.2156   8.3360   8.3706   8.4707
     8.5257   8.5526   8.6273   8.7228   8.7590   8.9401   9.0855   9.1951
    14.0717  14.5445  14.7058  14.7194  14.8854  14.9559  15.0551  15.1325
    15.2767  15.4273  15.4878  15.5682  15.6154  15.6588  15.7135  15.7196
    15.7488  15.7858  15.8133  15.8370  15.8723  15.8823  15.9682  15.9995
    16.0216  16.0332  16.0576  16.0901  16.1059  16.1552  16.1786  16.1931
    16.3309  16.3409  16.5121  16.5389  16.7871  16.7969  16.8420  16.9567
    17.0157  17.2523  18.6997  18.9922  19.0219  20.0535  20.5886  20.6802
    21.5746  21.6920  21.8193  22.3704  22.4572  22.7334  22.7616  22.9542
    23.3928  23.4741  23.8388  23.9014  24.5603

          k =-0.3536-0.3536 0.0000 (  5416 PWs)   bands (ev):

   -63.9127 -63.8614 -63.8586 -63.8217 -63.7483 -63.6942 -63.6822 -63.6697
   -32.9165 -32.9055 -32.8840 -32.8730 -32.8513 -32.8479 -32.8471 -32.8433
   -32.8356 -32.8239 -32.8019 -32.7901 -32.7552 -32.7462 -32.7211 -32.6930
   -32.6879 -32.6862 -32.6802 -32.6761 -32.6725 -32.6556 -32.6490 -32.6427
    -6.3046  -5.8964  -5.8627  -5.6376  -5.6020  -5.5497  -5.4948  -5.3853
     6.4265   6.4486   6.6288   6.6443   6.7388   6.7763   7.0486   7.4553
     7.8634   7.9493   8.0266   8.2800   8.3473   8.4212   8.4422   8.4721
     8.5109   8.5344   8.6144   8.6504   8.7863   8.8253   9.1867   9.2492
    14.1415  14.2165  14.4518  14.8133  14.8398  14.8757  14.9421  15.0911
    15.3862  15.3975  15.4355  15.5542  15.5755  15.7133  15.7276  15.8617
    15.8707  15.8933  15.8996  15.9797  16.0178  16.0443  16.1015  16.1180
    16.1338  16.1627  16.1924  16.2040  16.2189  16.2419  16.2615  16.2712
    16.3043  16.3111  16.3225  16.3512  16.3733  16.4277  16.5369  16.8693
    16.8742  17.8877  17.9068  19.4059  19.5041  19.6779  19.6929  20.6665
    21.5389  21.5701  21.6857  22.1855  22.3654  22.5877  22.8535  22.8811
    23.6167  23.6526  23.7041  23.8222  25.1817

          k = 0.0000 0.3536 0.3536 (  5416 PWs)   bands (ev):

   -63.9127 -63.8611 -63.8589 -63.8217 -63.7483 -63.6941 -63.6823 -63.6696
   -32.9191 -32.9057 -32.8843 -32.8647 -32.8545 -32.8480 -32.8466 -32.8435
   -32.8364 -32.8238 -32.8030 -32.7922 -32.7526 -32.7456 -32.7235 -32.6931
   -32.6870 -32.6849 -32.6804 -32.6774 -32.6717 -32.6593 -32.6494 -32.6394
    -6.3104  -5.8668  -5.8463  -5.7147  -5.6016  -5.5327  -5.4642  -5.3966
     6.4043   6.4508   6.6417   6.6633   6.7350   6.7803   7.0500   7.4683
     7.8963   7.9396   7.9710   8.2842   8.3445   8.3934   8.4701   8.4854
     8.5283   8.5603   8.5834   8.6242   8.7586   8.8380   9.2146   9.2342
    14.1572  14.1868  14.4564  14.8064  14.8644  14.9022  14.9204  15.0996
    15.3865  15.3987  15.4378  15.5634  15.5759  15.7168  15.7298  15.8425
    15.8739  15.8918  15.9036  15.9614  16.0073  16.0346  16.0949  16.1265
    16.1396  16.1691  16.1868  16.2083  16.2184  16.2296  16.2482  16.2725
    16.3019  16.3049  16.3182  16.3758  16.4155  16.4450  16.5065  16.8653
    16.8818  17.8836  17.9018  19.3987  19.4845  19.6661  19.7408  20.6538
    21.5234  21.5624  21.6737  22.3110  22.3981  22.4801  22.8367  22.8991
    23.6084  23.6349  23.7166  23.8322  25.1670

          k = 0.0000 0.3536-0.3536 (  5416 PWs)   bands (ev):

   -63.9127 -63.8616 -63.8583 -63.8218 -63.7482 -63.6942 -63.6821 -63.6696
   -32.9175 -32.9063 -32.8835 -32.8763 -32.8499 -32.8469 -32.8435 -32.8425
   -32.8328 -32.8239 -32.8058 -32.7930 -32.7531 -32.7425 -32.7189 -32.6961
   -32.6905 -32.6885 -32.6844 -32.6782 -32.6708 -32.6516 -32.6493 -32.6401
    -6.3013  -5.9235  -5.8455  -5.6317  -5.5798  -5.5476  -5.5216  -5.3822
     6.4427   6.4513   6.6115   6.6595   6.7227   6.7839   7.0438   7.4315
     7.8165   7.9456   8.0923   8.3167   8.3577   8.3881   8.4279   8.4566
     8.4814   8.5626   8.6176   8.6839   8.7958   8.8265   9.1819   9.2318
    14.1492  14.1936  14.4543  14.8045  14.8533  14.8734  14.9131  15.1096
    15.3846  15.3928  15.4413  15.5705  15.5786  15.7091  15.7171  15.8533
    15.8787  15.8873  15.9077  15.9617  16.0030  16.0357  16.0946  16.1095
    16.1505  16.1660  16.1776  16.2070  16.2215  16.2496  16.2667  16.2843
    16.2926  16.3092  16.3462  16.3837  16.4032  16.4459  16.5101  16.8646
    16.8740  17.8865  17.8922  19.4119  19.4628  19.6680  19.7277  20.6633
    21.4996  21.5652  21.6762  22.2925  22.3930  22.5201  22.8551  22.9001
    23.5787  23.6135  23.7431  23.8202  25.1881

          k =-0.3536 0.0000-0.3536 (  5416 PWs)   bands (ev):

   -63.9127 -63.8614 -63.8586 -63.8218 -63.7482 -63.6942 -63.6822 -63.6696
   -32.9185 -32.9078 -32.8845 -32.8701 -32.8486 -32.8463 -32.8449 -32.8407
   -32.8320 -32.8302 -32.8050 -32.7945 -32.7509 -32.7444 -32.7186 -32.6976
   -32.6889 -32.6872 -32.6858 -32.6776 -32.6696 -32.6544 -32.6482 -32.6397
    -6.3044  -5.9036  -5.8539  -5.6399  -5.6034  -5.5475  -5.4954  -5.3850
     6.4345   6.4562   6.6099   6.6508   6.7340   6.7860   7.0499   7.4447
     7.8251   7.9544   8.0577   8.2645   8.3628   8.4211   8.4245   8.4766
     8.5286   8.5493   8.6053   8.6552   8.7813   8.8371   9.1758   9.2386
    14.1140  14.2417  14.4538  14.8040  14.8378  14.8785  14.9352  15.1018
    15.3847  15.3941  15.4297  15.5713  15.5822  15.7035  15.7318  15.8434
    15.8692  15.8973  15.9143  15.9871  16.0226  16.0530  16.0833  16.1017
    16.1410  16.1633  16.1889  16.2021  16.2179  16.2512  16.2711  16.2851
    16.2951  16.3061  16.3263  16.3729  16.3995  16.4281  16.4938  16.8701
    16.8809  17.7694  18.0233  19.3548  19.5055  19.6455  19.7390  20.6789
    21.5411  21.5862  21.7057  22.1725  22.3884  22.6163  22.7187  23.0032
    23.5467  23.6074  23.6813  23.9008  25.1829

          k =-0.3536 0.0000 0.3536 (  5416 PWs)   bands (ev):

   -63.9127 -63.8614 -63.8586 -63.8217 -63.7483 -63.6941 -63.6822 -63.6697
   -32.9181 -32.9042 -32.8828 -32.8740 -32.8533 -32.8489 -32.8454 -32.8438
   -32.8348 -32.8207 -32.8039 -32.7906 -32.7547 -32.7438 -32.7239 -32.6895
   -32.6881 -32.6858 -32.6836 -32.6769 -32.6731 -32.6562 -32.6497 -32.6400
    -6.3065  -5.9103  -5.8220  -5.6664  -5.6348  -5.5200  -5.4810  -5.3922
     6.4150   6.4517   6.6192   6.6728   6.7312   6.7825   7.0513   7.4525
     7.8766   7.9377   8.0025   8.2870   8.3347   8.4108   8.4702   8.4964
     8.5108   8.5579   8.5983   8.6284   8.7544   8.8409   9.1983   9.2415
    14.1562  14.2035  14.4491  14.8077  14.8547  14.8794  14.9245  15.1041
    15.3773  15.4023  15.4334  15.5577  15.5870  15.6991  15.7510  15.8397
    15.8682  15.8924  15.9135  15.9680  16.0184  16.0629  16.0963  16.1248
    16.1354  16.1672  16.1832  16.2061  16.2209  16.2318  16.2713  16.2724
    16.2877  16.3000  16.3282  16.3772  16.4020  16.4223  16.5091  16.8599
    16.8811  17.7675  18.0312  19.3866  19.4850  19.6595  19.7205  20.6638
    21.5361  21.5630  21.7065  22.1902  22.3779  22.5626  22.7328  23.0307
    23.6199  23.6338  23.7529  23.7788  25.1805

          k =-0.7071 0.0000 0.0000 (  5434 PWs)   bands (ev):

   -63.9131 -63.8620 -63.8589 -63.8222 -63.7487 -63.6946 -63.6826 -63.6702
   -32.9171 -32.9014 -32.8827 -32.8761 -32.8513 -32.8453 -32.8443 -32.8396
   -32.8302 -32.8269 -32.8057 -32.7932 -32.7517 -32.7438 -32.7206 -32.6936
   -32.6923 -32.6862 -32.6831 -32.6777 -32.6723 -32.6558 -32.6489 -32.6417
    -6.0987  -6.0294  -5.7814  -5.7021  -5.6874  -5.6417  -5.4415  -5.3729
     6.6379   6.6572   6.6870   6.6981   7.2005   7.2243   7.4222   7.4348
     7.4412   7.4806   7.8533   7.9680   8.0539   8.1229   8.1559   8.2220
     8.4999   8.5521   8.5732   8.6052   9.0921   9.1032   9.1115   9.1505
    14.0316  14.0904  15.0646  15.1264  15.1442  15.1839  15.2682  15.2882
    15.3215  15.3446  15.3949  15.4255  15.4837  15.4979  15.5910  15.6044
    15.6341  15.6488  15.6910  15.7039  15.7242  15.7473  15.8528  15.8647
    15.8951  15.9132  15.9445  15.9602  15.9724  16.0022  16.0184  16.0340
    16.4026  16.4145  16.4790  16.4985  17.1234  17.1473  17.1505  17.1609
    17.9244  17.9408  18.5958  18.6172  18.8872  18.9185  21.2952  21.3246
    22.1989  22.2220  22.2815  22.2916  22.7213  22.8313  22.8722  22.9878
    23.1220  23.1463  23.4464  23.4884  24.8894

          k = 0.0000-0.7071 0.0000 (  5434 PWs)   bands (ev):

   -63.9131 -63.8615 -63.8593 -63.8222 -63.7487 -63.6946 -63.6827 -63.6701
   -32.9142 -32.9061 -32.8833 -32.8676 -32.8541 -32.8481 -32.8431 -32.8396
   -32.8378 -32.8223 -32.8061 -32.7926 -32.7522 -32.7431 -32.7204 -32.7004
   -32.6898 -32.6825 -32.6784 -32.6773 -32.6725 -32.6573 -32.6490 -32.6441
    -6.1088  -6.0253  -5.7319  -5.7157  -5.7033  -5.6609  -5.4291  -5.3799
     6.6035   6.6463   6.6858   6.7389   7.1649   7.2379   7.3831   7.3856
     7.4960   7.5203   7.8733   7.9640   8.0555   8.1105   8.2049   8.2442
     8.5090   8.5470   8.5695   8.5801   9.0585   9.0799   9.1266   9.1622
    14.0117  14.1189  15.0506  15.1280  15.1531  15.1915  15.2427  15.2528
    15.3625  15.3862  15.4071  15.4314  15.4701  15.4937  15.5727  15.6219
    15.6313  15.6534  15.6751  15.7084  15.7233  15.7436  15.8340  15.8565
    15.8969  15.9212  15.9366  15.9774  15.9813  15.9957  16.0138  16.0221
    16.4025  16.4101  16.4869  16.5035  17.1163  17.1321  17.1490  17.1565
    17.8317  18.0549  18.6905  18.7441  18.7629  18.8142  21.2562  21.2745
    22.1762  22.1847  22.3311  22.4182  22.6491  22.7848  22.8348  22.9198
    23.3016  23.3408  23.3891  23.4094  24.9088

          k = 0.3536-0.0000 0.7071 (  5400 PWs)   bands (ev):

   -63.9131 -63.8615 -63.8593 -63.8222 -63.7487 -63.6946 -63.6827 -63.6701
   -32.9162 -32.9052 -32.8815 -32.8649 -32.8543 -32.8459 -32.8448 -32.8437
   -32.8367 -32.8246 -32.8046 -32.7926 -32.7526 -32.7439 -32.7193 -32.6949
   -32.6883 -32.6854 -32.6816 -32.6782 -32.6722 -32.6598 -32.6500 -32.6406
    -6.0585  -5.9911  -5.8877  -5.8291  -5.5963  -5.5488  -5.4541  -5.3897
     6.8063   6.8450   6.8810   6.9232   6.9837   7.0259   7.0430   7.0783
     7.5604   7.6006   7.6361   7.7027   8.3078   8.3259   8.3579   8.3748
     8.6578   8.7084   8.7334   8.7733   8.8167   8.8440   8.8844   8.9144
    14.5075  14.5600  14.5692  14.6260  15.1966  15.2233  15.2909  15.3406
    15.3613  15.3679  15.3870  15.4080  15.4397  15.4611  15.4719  15.5073
    15.7340  15.7901  15.8408  15.8887  15.9074  15.9188  15.9386  15.9533
    15.9686  15.9820  15.9874  16.0016  16.1305  16.1956  16.2209  16.2383
    16.2481  16.2679  16.2785  16.3489  16.7657  16.7742  16.7955  16.8368
    17.8420  17.9680  17.9841  18.1260  20.4340  20.5887  20.6115  20.7613
    21.8361  21.9567  22.0351  22.0824  22.2652  22.3251  22.3820  22.5430
    24.0613  24.1107  24.1615  24.1932  24.5264

          k = 0.0000-0.7071 0.3536 (  5400 PWs)   bands (ev):

   -63.9131 -63.8617 -63.8591 -63.8222 -63.7487 -63.6946 -63.6826 -63.6702
   -32.9156 -32.9039 -32.8831 -32.8721 -32.8507 -32.8479 -32.8443 -32.8401
   -32.8337 -32.8239 -32.8059 -32.7931 -32.7518 -32.7433 -32.7208 -32.6962
   -32.6895 -32.6881 -32.6811 -32.6764 -32.6719 -32.6556 -32.6494 -32.6430
    -6.0662  -5.9630  -5.9163  -5.8228  -5.6079  -5.5073  -5.4882  -5.3837
     6.7677   6.8658   6.9019   6.9568   6.9917   7.0088   7.0449   7.0616
     7.5371   7.6232   7.6335   7.7018   8.2943   8.3251   8.3433   8.3904
     8.6344   8.6994   8.7407   8.7770   8.7938   8.8283   8.8807   8.9837
    14.5111  14.5329  14.5908  14.6051  15.1741  15.2420  15.2665  15.3070
    15.3327  15.3799  15.4048  15.4195  15.4552  15.4875  15.5139  15.5296
    15.7314  15.7690  15.8172  15.8779  15.9000  15.9253  15.9342  15.9513
    15.9741  15.9857  16.0025  16.0202  16.0764  16.1892  16.2303  16.2452
    16.2522  16.2566  16.2825  16.3884  16.7442  16.7837  16.8132  16.8418
    17.8370  17.9618  17.9890  18.1161  20.4453  20.6035  20.6534  20.7694
    21.7652  21.8741  21.9959  22.0796  22.2488  22.3663  22.4663  22.5442
    24.0487  24.1262  24.1558  24.2211  24.5193

     the Fermi energy is    12.4762 ev

!    total energy              =   -1946.20086324 Ry
     Harris-Foulkes estimate   =   -1946.20086314 Ry
     estimated scf accuracy    <          6.7E-09 Ry

     The total energy is the sum of the following terms:

     one-electron contribution =    -897.40622789 Ry
     hartree contribution      =     533.11580504 Ry
     xc contribution           =    -270.03243798 Ry
     ewald contribution        =   -1312.24540312 Ry
     Hubbard energy            =       0.36764813 Ry
     smearing contrib. (-TS)   =      -0.00024741 Ry

     total magnetization       =    40.00 Bohr mag/cell
     absolute magnetization    =    40.00 Bohr mag/cell

     convergence has been achieved in  12 iterations

     Forces acting on atoms (Ry/au):


     negative rho (up, down):  0.000E+00 2.580E-03
     atom    1 type  1   force =  -0.60295221E-02 -0.44362808E-02 -0.31056250E-02
     atom    2 type  2   force =  -0.94502827E-02 -0.19008615E-02 -0.13282276E-01
     atom    3 type  1   force =  -0.52285630E-02  0.20756672E-02  0.18646397E-01
     atom    4 type  2   force =  -0.19170633E-02  0.15418814E-01 -0.61252063E-02
     atom    5 type  1   force =   0.21326006E-01  0.12738062E-01 -0.88100315E-02
     atom    6 type  2   force =   0.16247492E-01 -0.10770485E-01 -0.20126080E-02
     atom    7 type  1   force =  -0.15541159E-01 -0.10273713E-01  0.10866402E-01
     atom    8 type  2   force =  -0.73212093E-02 -0.79950022E-02 -0.56208776E-02
     atom    9 type  1   force =   0.75255110E-02 -0.83399662E-02 -0.27640598E-02
     atom   10 type  2   force =  -0.16610191E-01  0.15980733E-01  0.60264321E-02
     atom   11 type  1   force =   0.86621733E-02  0.12244659E-01  0.66965895E-02
     atom   12 type  2   force =   0.66990049E-02 -0.11027194E-01 -0.95535321E-02
     atom   13 type  1   force =  -0.62934982E-02 -0.17108912E-01 -0.14793165E-01
     atom   14 type  2   force =  -0.12177481E-02  0.30299254E-02  0.10043073E-01
     atom   15 type  1   force =  -0.22356785E-03  0.25006435E-01  0.11610239E-01
     atom   16 type  2   force =   0.93726167E-02 -0.14641881E-01  0.21782493E-02

     Total force =     0.075134     Total SCF correction =     0.000683


     entering subroutine stress ...


     negative rho (up, down):  0.000E+00 2.580E-03
          total   stress  (Ry/bohr**3)                   (kbar)     P=    6.14
   0.0000461314   0.0000009002  -0.0000002610          6.79      0.13     -0.04
   0.0000009002   0.0000460382   0.0000001517          0.13      6.77      0.02
  -0.0000002610   0.0000001517   0.0000330546         -0.04      0.02      4.86


     Writing output data file mno_fm.scf.in.super.222.044.save

     init_run     :     62.58s CPU     59.54s WALL (       1 calls)
     electrons    :   2083.99s CPU   2096.25s WALL (       1 calls)
     forces       :    153.12s CPU    168.85s WALL (       1 calls)
     stress       :    462.81s CPU    503.80s WALL (       1 calls)

     Called by init_run:
     wfcinit      :     61.62s CPU     58.56s WALL (       1 calls)
     potinit      :      0.18s CPU      0.19s WALL (       1 calls)

     Called by electrons:
     c_bands      :   1871.38s CPU   1889.68s WALL (      12 calls)
     sum_band     :    206.38s CPU    200.28s WALL (      12 calls)
     v_of_rho     :      1.67s CPU      1.68s WALL (      13 calls)
     newd         :      3.97s CPU      3.97s WALL (      13 calls)
     mix_rho      :      0.81s CPU      0.82s WALL (      12 calls)

     Called by c_bands:
     init_us_2    :      7.24s CPU      7.31s WALL (    2736 calls)
     cegterg      :   1840.63s CPU   1857.70s WALL (     864 calls)

     Called by *egterg:
     h_psi        :    905.77s CPU    885.75s WALL (    2788 calls)
     s_psi        :    138.67s CPU    102.14s WALL (    3580 calls)
     g_psi        :      1.19s CPU      1.29s WALL (    1852 calls)
     cdiaghg      :    467.48s CPU    565.24s WALL (    2716 calls)

     Called by h_psi:
     add_vuspsi   :    100.74s CPU     76.48s WALL (    2788 calls)
     vhpsi        :     80.62s CPU     95.57s WALL (    2788 calls)

     General routines
     calbec       :    732.96s CPU    777.93s WALL (   51080 calls)
     fft          :      1.42s CPU      1.42s WALL (     437 calls)
     ffts         :      0.41s CPU      0.47s WALL (     301 calls)
     fftw         :    672.43s CPU    677.76s WALL (  614252 calls)
     interpolate  :      0.20s CPU      0.20s WALL (      50 calls)
     davcio       :      0.00s CPU      0.03s WALL (      72 calls)

     Parallel routines
     fft_scatter  :    234.52s CPU    237.66s WALL (  614990 calls)
     Hubbard U routines
     new_ns       :     16.03s CPU     17.29s WALL (      12 calls)
     vhpsi        :     80.62s CPU     95.57s WALL (    2788 calls)
     force_hub    :    134.65s CPU    153.30s WALL (       1 calls)
     stres_hub    :    421.99s CPU    463.65s WALL (       1 calls)

     PWSCF        : 46m 8.51s CPU    47m15.53s WALL


   This run was terminated on:  23:53:37  16Aug2017            

=------------------------------------------------------------------------------=
   JOB DONE.
=------------------------------------------------------------------------------=
