
     Program PWSCF v.5.1 starts on  9Mar2018 at  9:52:53 

     This program is part of the open-source Quantum ESPRESSO suite
     for quantum simulation of materials; please cite
         "P. Giannozzi et al., J. Phys.:Condens. Matter 21 395502 (2009);
          URL http://www.quantum-espresso.org", 
     in publications or presentations arising from this work. More details at
     http://www.quantum-espresso.org/quote

     Parallel version (MPI), running on     8 processors
     R & G space division:  proc/nbgrp/npool/nimage =       8
     Reading input from /tmp/mno_fm.in.vol.12397/mno_fm.in.vol.t
Warning: card &IONS ignored
Warning: card   ION_DYNAMICS='BFGS', ignored
Warning: card / ignored
Warning: card &CELL ignored
Warning: card  CELL_DYNAMICS = 'BFGS' ignored
Warning: card / ignored

     Current dimensions of program PWSCF are:
     Max number of different atomic species (ntypx) = 10
     Max number of k-points (npk) =  40000
     Max angular momentum in pseudopotentials (lmaxx) =  3
 kfg - two_fermi_energies  F

     Subspace diagonalization in iterative solution of the eigenvalue problem:
     a serial algorithm will be used


     Parallelization info
     --------------------
     sticks:   dense  smooth     PW     G-vecs:    dense   smooth      PW
     Min          63      52     17                  947      696     132
     Max          65      53     18                  949      708     134
     Sum         511     421    139                 7583     5601    1067

     Generating pointlists ...
     new r_m :   0.2917 (alat units)  1.7665 (a.u.) for type    1
     new r_m :   0.2917 (alat units)  1.7665 (a.u.) for type    2


     bravais-lattice index     =            0
     lattice parameter (alat)  =     6.056395290  a.u.
     unit-cell volume          =     157.0824 (a.u.)^3
     number of atoms/cell      =            2
     number of atomic types    =            2
     number of electrons       =        21.00
     number of Kohn-Sham states=           15
     kinetic-energy cutoff     =      41.0000  Ry
     charge density cutoff     =     200.0000  Ry
     convergence threshold     =      1.0E-08
     mixing beta               =       0.3000
     number of iterations used =            8  local-TF  mixing
     Exchange-correlation      = SLA  PW   PSX  PSC ( 1  4 10  8 0)
     A smooth kinetic-energy cutoff is imposed at      40.0000 Ry
     height of the smooth step-function =             800.0000 Ry
     width of the smooth step-function  =               1.0000 Ry


     celldm(1)=   6.056395  celldm(2)=   0.000000  celldm(3)=   0.000000
     celldm(4)=   0.000000  celldm(5)=   0.000000  celldm(6)=   0.000000

     crystal axes: (cart. coord. in units of alat)
               a(1) = (   0.707106781187   0.707106781187   0.000000000000 )  
               a(2) = (   0.707106781187   0.000000000000   0.707106781187 )  
               a(3) = (   0.000000000000   0.707106781187   0.707106781187 )  

     reciprocal axes: (cart. coord. in units 2 pi/alat)
               b(1) = (  0.707107  0.707107 -0.707107 )  
               b(2) = (  0.707107 -0.707107  0.707107 )  
               b(3) = ( -0.707107  0.707107  0.707107 )  


     PseudoPot. # 1 for Mn read from file:
     /users/kfg/psuedo/gbrv_1.5/mn.pbesol.UPF
     MD5 check sum: 0716d5f563e6e95a34f9080f4c78c109
     Pseudo is Ultrasoft + core correction, Zval = 15.0
     Generated by new atomic code, or converted to UPF format
     Using radial grid of  859 points,  6 beta functions with: 
                l(1) =   0
                l(2) =   0
                l(3) =   1
                l(4) =   1
                l(5) =   2
                l(6) =   2
     Q(r) pseudized with  8 coefficients,  rinner =    0.950   0.950   0.950
                                                       0.950   0.950

     PseudoPot. # 2 for O  read from file:
     /users/kfg/psuedo/gbrv_1.5/o.pbesol.UPF
     MD5 check sum: 501638753501ef6325af9037351f7734
     Pseudo is Ultrasoft + core correction, Zval =  6.0
     Generated by new atomic code, or converted to UPF format
     Using radial grid of  737 points,  5 beta functions with: 
                l(1) =   0
                l(2) =   0
                l(3) =   1
                l(4) =   1
                l(5) =   2
     Q(r) pseudized with  8 coefficients,  rinner =    0.900   0.900   0.900
                                                       0.900   0.900

     atomic species   valence    mass     pseudopotential
        Mn            15.00    54.90000     Mn( 1.00)
        O              6.00    15.99900     O ( 1.00)

     Starting magnetic structure 
     atomic species   magnetization
        Mn           1.000
        O            0.000


     Simplified LDA+U calculation (l_max = 2) with parameters (eV):
     atomic species    L          U    alpha       J0     beta
        Mn             2     3.0000   0.0000   0.0000   0.0000



     48 Sym. Ops., with inversion, found



   Cartesian axes

     site n.     atom                  positions (alat units)
         1           Mn  tau(   1) = (    0.00000000000    0.00000000000    0.00000000000  )
         2           O   tau(   2) = (    0.70710678119    0.70710678119    0.70710678119  )

     number of k points=    58  gaussian smearing, width (Ry)=  0.0100
                       cart. coord. in units 2pi/alat
        k(    1) = (   0.0000000   0.0000000   0.0000000), wk =   0.0019531
        k(    2) = (  -0.0883883   0.0883883   0.0883883), wk =   0.0156250
        k(    3) = (  -0.1767767   0.1767767   0.1767767), wk =   0.0156250
        k(    4) = (  -0.2651650   0.2651650   0.2651650), wk =   0.0156250
        k(    5) = (   0.3535534  -0.3535534  -0.3535534), wk =   0.0078125
        k(    6) = (   0.0000000   0.0000000   0.1767767), wk =   0.0117188
        k(    7) = (  -0.0883883   0.0883883   0.2651650), wk =   0.0468750
        k(    8) = (  -0.1767767   0.1767767   0.3535534), wk =   0.0468750
        k(    9) = (   0.4419417  -0.4419417  -0.2651650), wk =   0.0468750
        k(   10) = (   0.3535534  -0.3535534  -0.1767767), wk =   0.0468750
        k(   11) = (   0.2651650  -0.2651650  -0.0883883), wk =   0.0468750
        k(   12) = (   0.1767767  -0.1767767   0.0000000), wk =   0.0234375
        k(   13) = (   0.0000000   0.0000000   0.3535534), wk =   0.0117188
        k(   14) = (  -0.0883883   0.0883883   0.4419417), wk =   0.0468750
        k(   15) = (   0.5303301  -0.5303301  -0.1767767), wk =   0.0468750
        k(   16) = (   0.4419417  -0.4419417  -0.0883883), wk =   0.0468750
        k(   17) = (   0.3535534  -0.3535534   0.0000000), wk =   0.0234375
        k(   18) = (   0.0000000   0.0000000   0.5303301), wk =   0.0117188
        k(   19) = (   0.6187184  -0.6187184  -0.0883883), wk =   0.0468750
        k(   20) = (   0.5303301  -0.5303301   0.0000000), wk =   0.0234375
        k(   21) = (   0.0000000   0.0000000  -0.7071068), wk =   0.0058594
        k(   22) = (   0.0000000   0.1767767   0.3535534), wk =   0.0468750
        k(   23) = (   0.6187184  -0.4419417  -0.2651650), wk =   0.0937500
        k(   24) = (   0.5303301  -0.3535534  -0.1767767), wk =   0.0468750
        k(   25) = (   0.7071068  -0.5303301  -0.1767767), wk =   0.0468750
        k(   26) = (   0.6187184  -0.4419417  -0.0883883), wk =   0.0937500
        k(   27) = (   0.5303301  -0.3535534   0.0000000), wk =   0.0468750
        k(   28) = (   0.0000000   0.1767767  -0.7071068), wk =   0.0234375
        k(   29) = (   0.0000000   0.3535534  -0.7071068), wk =   0.0117188
        k(   30) = (   0.0000000   0.0000000   0.0000000), wk =   0.0019531
        k(   31) = (  -0.0883883   0.0883883   0.0883883), wk =   0.0156250
        k(   32) = (  -0.1767767   0.1767767   0.1767767), wk =   0.0156250
        k(   33) = (  -0.2651650   0.2651650   0.2651650), wk =   0.0156250
        k(   34) = (   0.3535534  -0.3535534  -0.3535534), wk =   0.0078125
        k(   35) = (   0.0000000   0.0000000   0.1767767), wk =   0.0117188
        k(   36) = (  -0.0883883   0.0883883   0.2651650), wk =   0.0468750
        k(   37) = (  -0.1767767   0.1767767   0.3535534), wk =   0.0468750
        k(   38) = (   0.4419417  -0.4419417  -0.2651650), wk =   0.0468750
        k(   39) = (   0.3535534  -0.3535534  -0.1767767), wk =   0.0468750
        k(   40) = (   0.2651650  -0.2651650  -0.0883883), wk =   0.0468750
        k(   41) = (   0.1767767  -0.1767767   0.0000000), wk =   0.0234375
        k(   42) = (   0.0000000   0.0000000   0.3535534), wk =   0.0117188
        k(   43) = (  -0.0883883   0.0883883   0.4419417), wk =   0.0468750
        k(   44) = (   0.5303301  -0.5303301  -0.1767767), wk =   0.0468750
        k(   45) = (   0.4419417  -0.4419417  -0.0883883), wk =   0.0468750
        k(   46) = (   0.3535534  -0.3535534   0.0000000), wk =   0.0234375
        k(   47) = (   0.0000000   0.0000000   0.5303301), wk =   0.0117188
        k(   48) = (   0.6187184  -0.6187184  -0.0883883), wk =   0.0468750
        k(   49) = (   0.5303301  -0.5303301   0.0000000), wk =   0.0234375
        k(   50) = (   0.0000000   0.0000000  -0.7071068), wk =   0.0058594
        k(   51) = (   0.0000000   0.1767767   0.3535534), wk =   0.0468750
        k(   52) = (   0.6187184  -0.4419417  -0.2651650), wk =   0.0937500
        k(   53) = (   0.5303301  -0.3535534  -0.1767767), wk =   0.0468750
        k(   54) = (   0.7071068  -0.5303301  -0.1767767), wk =   0.0468750
        k(   55) = (   0.6187184  -0.4419417  -0.0883883), wk =   0.0937500
        k(   56) = (   0.5303301  -0.3535534   0.0000000), wk =   0.0468750
        k(   57) = (   0.0000000   0.1767767  -0.7071068), wk =   0.0234375
        k(   58) = (   0.0000000   0.3535534  -0.7071068), wk =   0.0117188

     Dense  grid:     7583 G-vectors     FFT dimensions: (  27,  27,  27)

     Smooth grid:     5601 G-vectors     FFT dimensions: (  25,  25,  25)

     Largest allocated arrays     est. size (Mb)     dimensions
        Kohn-Sham Wavefunctions         0.02 Mb     (      97,   15)
        Atomic Hubbard wavefuncts       0.01 Mb     (      97,    5)
        NL pseudopotentials             0.05 Mb     (      97,   31)
        Each V/rho on FFT grid          0.09 Mb     (    2916,   2)
        Each G-vector array             0.01 Mb     (     948)
        G-vector shells                 0.00 Mb     (     123)
     Largest temporary arrays     est. size (Mb)     dimensions
        Auxiliary wavefunctions         0.09 Mb     (      97,   60)
        Each subspace H/S matrix        0.05 Mb     (      60,   60)
        Each <psi_i|beta_j> matrix      0.01 Mb     (      31,   15)
        Arrays for rho mixing           0.36 Mb     (    2916,    8)

     Check: negative/imaginary core charge=   -0.000058    0.000000

     Initial potential from superposition of free atoms

     starting charge   20.49992, renormalised to   21.00000
     Number of +U iterations with fixed ns =  0
     Starting occupations:
 --- enter write_ns ---
 LDA+U parameters:
U( 1)     =  3.00000000
alpha( 1) =  0.00000000
atom    1   Tr[ns(na)] (up, down, total) =   5.00000  0.00000  5.00000
   spin  1
    eigenvalues: 
  1.000  1.000  1.000  1.000  1.000
    eigenvectors:
  1.000  0.000  0.000  0.000  0.000
  0.000  1.000  0.000  0.000  0.000
  0.000  0.000  1.000  0.000  0.000
  0.000  0.000  0.000  1.000  0.000
  0.000  0.000  0.000  0.000  1.000
    occupations:
  1.000  0.000  0.000  0.000  0.000
  0.000  1.000  0.000  0.000  0.000
  0.000  0.000  1.000  0.000  0.000
  0.000  0.000  0.000  1.000  0.000
  0.000  0.000  0.000  0.000  1.000
   spin  2
    eigenvalues: 
  0.000  0.000  0.000  0.000  0.000
    eigenvectors:
  1.000  0.000  0.000  0.000  0.000
  0.000  1.000  0.000  0.000  0.000
  0.000  0.000  1.000  0.000  0.000
  0.000  0.000  0.000  1.000  0.000
  0.000  0.000  0.000  0.000  1.000
    occupations:
  0.000  0.000  0.000  0.000  0.000
  0.000  0.000  0.000  0.000  0.000
  0.000  0.000  0.000  0.000  0.000
  0.000  0.000  0.000  0.000  0.000
  0.000  0.000  0.000  0.000  0.000
atomic mag. moment =     5.000000
N of occupied +U levels =    5.000000
 --- exit write_ns ---
 Atomic wfc used for LDA+U Projector are NOT orthogonalized
     Starting wfc are   17 randomized atomic wfcs

     total cpu time spent up to now is        0.8 secs

     Self-consistent Calculation

     iteration #  1     ecut=    41.00 Ry     beta=0.30
     Davidson diagonalization with overlap
     ethr =  1.00E-02,  avg # of iterations =  2.9
 --- enter write_ns ---
 LDA+U parameters:
U( 1)     =  3.00000000
alpha( 1) =  0.00000000
atom    1   Tr[ns(na)] (up, down, total) =   4.98898  0.18259  5.17157
   spin  1
    eigenvalues: 
  0.997  0.997  0.998  0.998  0.998
    eigenvectors:
  0.283  0.717  0.000  0.000  0.000
  0.000  0.000  0.122  0.236  0.643
  0.000  0.000  0.282  0.363  0.355
  0.717  0.283  0.000  0.000  0.000
  0.000  0.000  0.596  0.402  0.002
    occupations:
  0.997 -0.000 -0.000  0.000  0.000
 -0.000  0.998 -0.000  0.000  0.000
 -0.000 -0.000  0.998  0.000  0.000
  0.000  0.000  0.000  0.997 -0.000
  0.000  0.000  0.000 -0.000  0.998
   spin  2
    eigenvalues: 
  0.019  0.019  0.019  0.062  0.062
    eigenvectors:
  0.000  0.000  0.000  0.301  0.699
  0.135  0.373  0.492  0.000  0.000
  0.250  0.256  0.494  0.000  0.000
  0.000  0.000  0.000  0.699  0.301
  0.615  0.370  0.014  0.000  0.000
    occupations:
  0.062 -0.000 -0.000  0.000  0.000
 -0.000  0.019 -0.000  0.000  0.000
 -0.000 -0.000  0.019  0.000  0.000
  0.000  0.000  0.000  0.062 -0.000
  0.000  0.000  0.000 -0.000  0.019
atomic mag. moment =     4.806391
N of occupied +U levels =    5.171572
 --- exit write_ns ---

     negative rho (up, down):  0.000E+00 2.339E-04

     Magnetic moment per site:
     atom:    1    charge:   12.8690    magn:   10.3178    constr:    0.0000
     atom:    2    charge:    5.7656    magn:    0.1917    constr:    0.0000

     total cpu time spent up to now is        2.1 secs

     total energy              =    -242.23056908 Ry
     Harris-Foulkes estimate   =    -240.10009183 Ry
     estimated scf accuracy    <       3.20669148 Ry

     total magnetization       =     5.00 Bohr mag/cell
     absolute magnetization    =     5.23 Bohr mag/cell

     iteration #  2     ecut=    41.00 Ry     beta=0.30
     Davidson diagonalization with overlap
     ethr =  1.00E-02,  avg # of iterations =  1.2

     negative rho (up, down):  0.000E+00 8.522E-04

     Magnetic moment per site:
     atom:    1    charge:   12.7485    magn:    4.5820    constr:    0.0000
     atom:    2    charge:    5.9933    magn:   -0.0524    constr:    0.0000

     total cpu time spent up to now is        3.0 secs

     total energy              =    -243.20543725 Ry
     Harris-Foulkes estimate   =    -242.26370027 Ry
     estimated scf accuracy    <       1.58528997 Ry

     total magnetization       =     5.00 Bohr mag/cell
     absolute magnetization    =     5.16 Bohr mag/cell

     iteration #  3     ecut=    41.00 Ry     beta=0.30
     Davidson diagonalization with overlap
     ethr =  7.55E-03,  avg # of iterations =  1.6

     negative rho (up, down):  0.000E+00 9.264E-04

     Magnetic moment per site:
     atom:    1    charge:   12.6818    magn:    4.3487    constr:    0.0000
     atom:    2    charge:    5.9784    magn:    0.0544    constr:    0.0000

     total cpu time spent up to now is        4.0 secs

     total energy              =    -243.26897499 Ry
     Harris-Foulkes estimate   =    -243.28215217 Ry
     estimated scf accuracy    <       0.04679388 Ry

     total magnetization       =     5.00 Bohr mag/cell
     absolute magnetization    =     5.00 Bohr mag/cell

     iteration #  4     ecut=    41.00 Ry     beta=0.30
     Davidson diagonalization with overlap
     ethr =  2.23E-04,  avg # of iterations =  2.2

     negative rho (up, down):  0.000E+00 9.490E-04

     Magnetic moment per site:
     atom:    1    charge:   12.6665    magn:    4.2479    constr:    0.0000
     atom:    2    charge:    5.9871    magn:    0.0733    constr:    0.0000

     total cpu time spent up to now is        5.1 secs

     total energy              =    -243.27569878 Ry
     Harris-Foulkes estimate   =    -243.27620052 Ry
     estimated scf accuracy    <       0.00386058 Ry

     total magnetization       =     5.00 Bohr mag/cell
     absolute magnetization    =     5.00 Bohr mag/cell

     iteration #  5     ecut=    41.00 Ry     beta=0.30
     Davidson diagonalization with overlap
     ethr =  1.84E-05,  avg # of iterations =  1.8

     negative rho (up, down):  0.000E+00 9.712E-04

     Magnetic moment per site:
     atom:    1    charge:   12.6299    magn:    4.3165    constr:    0.0000
     atom:    2    charge:    5.9971    magn:    0.1479    constr:    0.0000

     total cpu time spent up to now is        6.1 secs

     total energy              =    -243.27572668 Ry
     Harris-Foulkes estimate   =    -243.27588248 Ry
     estimated scf accuracy    <       0.00170969 Ry

     total magnetization       =     5.00 Bohr mag/cell
     absolute magnetization    =     5.00 Bohr mag/cell

     iteration #  6     ecut=    41.00 Ry     beta=0.30
     Davidson diagonalization with overlap
     ethr =  8.14E-06,  avg # of iterations =  2.1

     negative rho (up, down):  0.000E+00 9.711E-04

     Magnetic moment per site:
     atom:    1    charge:   12.6225    magn:    4.3176    constr:    0.0000
     atom:    2    charge:    5.9984    magn:    0.1640    constr:    0.0000

     total cpu time spent up to now is        7.2 secs

     total energy              =    -243.27609879 Ry
     Harris-Foulkes estimate   =    -243.27608471 Ry
     estimated scf accuracy    <       0.00006662 Ry

     total magnetization       =     5.00 Bohr mag/cell
     absolute magnetization    =     5.00 Bohr mag/cell

     iteration #  7     ecut=    41.00 Ry     beta=0.30
     Davidson diagonalization with overlap
     ethr =  3.17E-07,  avg # of iterations =  2.1

     negative rho (up, down):  0.000E+00 9.669E-04

     Magnetic moment per site:
     atom:    1    charge:   12.6227    magn:    4.3076    constr:    0.0000
     atom:    2    charge:    5.9980    magn:    0.1651    constr:    0.0000

     total cpu time spent up to now is        8.3 secs

     total energy              =    -243.27611721 Ry
     Harris-Foulkes estimate   =    -243.27611501 Ry
     estimated scf accuracy    <       0.00001422 Ry

     total magnetization       =     5.00 Bohr mag/cell
     absolute magnetization    =     5.00 Bohr mag/cell

     iteration #  8     ecut=    41.00 Ry     beta=0.30
     Davidson diagonalization with overlap
     ethr =  6.77E-08,  avg # of iterations =  1.6

     negative rho (up, down):  0.000E+00 9.594E-04

     Magnetic moment per site:
     atom:    1    charge:   12.6237    magn:    4.3058    constr:    0.0000
     atom:    2    charge:    5.9973    magn:    0.1680    constr:    0.0000

     total cpu time spent up to now is        9.3 secs

     total energy              =    -243.27611975 Ry
     Harris-Foulkes estimate   =    -243.27611913 Ry
     estimated scf accuracy    <       0.00000160 Ry

     total magnetization       =     5.00 Bohr mag/cell
     absolute magnetization    =     5.00 Bohr mag/cell

     iteration #  9     ecut=    41.00 Ry     beta=0.30
     Davidson diagonalization with overlap
     ethr =  7.60E-09,  avg # of iterations =  2.1

     negative rho (up, down):  0.000E+00 9.590E-04

     Magnetic moment per site:
     atom:    1    charge:   12.6236    magn:    4.3056    constr:    0.0000
     atom:    2    charge:    5.9973    magn:    0.1690    constr:    0.0000

     total cpu time spent up to now is       10.5 secs

     total energy              =    -243.27612037 Ry
     Harris-Foulkes estimate   =    -243.27612035 Ry
     estimated scf accuracy    <       0.00000025 Ry

     total magnetization       =     5.00 Bohr mag/cell
     absolute magnetization    =     5.00 Bohr mag/cell

     iteration # 10     ecut=    41.00 Ry     beta=0.30
     Davidson diagonalization with overlap
     ethr =  1.20E-09,  avg # of iterations =  2.1

     negative rho (up, down):  0.000E+00 9.603E-04

     Magnetic moment per site:
     atom:    1    charge:   12.6236    magn:    4.3055    constr:    0.0000
     atom:    2    charge:    5.9972    magn:    0.1693    constr:    0.0000

     total cpu time spent up to now is       11.6 secs

     total energy              =    -243.27612047 Ry
     Harris-Foulkes estimate   =    -243.27612044 Ry
     estimated scf accuracy    <       0.00000001 Ry

     total magnetization       =     5.00 Bohr mag/cell
     absolute magnetization    =     5.00 Bohr mag/cell

     iteration # 11     ecut=    41.00 Ry     beta=0.30
     Davidson diagonalization with overlap
     ethr =  5.19E-11,  avg # of iterations =  2.0

     negative rho (up, down):  0.000E+00 9.598E-04

     Magnetic moment per site:
     atom:    1    charge:   12.6237    magn:    4.3055    constr:    0.0000
     atom:    2    charge:    5.9972    magn:    0.1693    constr:    0.0000

     total cpu time spent up to now is       12.8 secs

     End of self-consistent calculation
 --- enter write_ns ---
 LDA+U parameters:
U( 1)     =  3.00000000
alpha( 1) =  0.00000000
atom    1   Tr[ns(na)] (up, down, total) =   4.99268  0.44072  5.43341
   spin  1
    eigenvalues: 
  0.997  0.997  0.999  0.999  0.999
    eigenvectors:
  0.265  0.735  0.000  0.000  0.000
  0.000  0.000  0.133  0.278  0.589
  0.000  0.000  0.291  0.305  0.404
  0.735  0.265  0.000  0.000  0.000
  0.000  0.000  0.576  0.417  0.007
    occupations:
  0.997 -0.000 -0.000  0.000  0.000
 -0.000  0.999 -0.000  0.000  0.000
 -0.000 -0.000  0.999  0.000  0.000
  0.000  0.000  0.000  0.997 -0.000
  0.000  0.000  0.000 -0.000  0.999
   spin  2
    eigenvalues: 
  0.049  0.049  0.049  0.146  0.146
    eigenvectors:
  0.000  0.000  0.000  0.252  0.748
  0.150  0.313  0.536  0.000  0.000
  0.295  0.253  0.452  0.000  0.000
  0.000  0.000  0.000  0.748  0.252
  0.555  0.433  0.012  0.000  0.000
    occupations:
  0.146 -0.000 -0.000  0.000  0.000
 -0.000  0.049 -0.000  0.000  0.000
 -0.000 -0.000  0.049  0.000  0.000
  0.000  0.000  0.000  0.146 -0.000
  0.000  0.000  0.000 -0.000  0.049
atomic mag. moment =     4.551959
N of occupied +U levels =    5.433406
 --- exit write_ns ---

 ------ SPIN UP ------------


          k = 0.0000 0.0000 0.0000 (   725 PWs)   bands (ev):

   -69.5091 -38.3511 -38.3511 -38.3511  -7.2707   7.2967   7.2967   7.2967
     7.8522   7.8522   8.9511   8.9511   8.9511  11.3596  25.6926

          k =-0.0884 0.0884 0.0884 (   697 PWs)   bands (ev):

   -69.5085 -38.3585 -38.3521 -38.3521  -7.1466   6.7855   7.0462   7.0462
     7.5354   7.5354   8.4878   9.6951   9.6951  12.4475  24.0150

          k =-0.1768 0.1768 0.1768 (   691 PWs)   bands (ev):

   -69.5079 -38.3760 -38.3544 -38.3544  -6.8313   5.3944   6.2312   6.2312
     7.7869   7.7869   8.5562  10.7061  10.7061  14.0682  21.5714

          k =-0.2652 0.2652 0.2652 (   694 PWs)   bands (ev):

   -69.5083 -38.3932 -38.3567 -38.3567  -6.4851   4.1743   5.6560   5.6560
     8.0902   8.0902   8.9404  11.4607  11.4607  15.1269  19.9254

          k = 0.3536-0.3536-0.3536 (   700 PWs)   bands (ev):

   -69.5088 -38.4003 -38.3576 -38.3576  -6.3293   3.7010   5.4538   5.4538
     8.2216   8.2216   9.1584  11.7444  11.7444  15.3598  19.4734

          k = 0.0000 0.0000 0.1768 (   697 PWs)   bands (ev):

   -69.5082 -38.3579 -38.3539 -38.3539  -7.1168   6.4453   7.1433   7.1730
     7.1730   7.9135   9.1496   9.1496   9.3254  12.9326  24.2391

          k =-0.0884 0.0884 0.2652 (   690 PWs)   bands (ev):

   -69.5074 -38.3709 -38.3569 -38.3559  -6.8952   5.5523   6.4672   6.7478
     7.4044   7.9580   8.7501   9.7896  10.3038  14.3334  22.4254

          k =-0.1768 0.1768 0.3536 (   697 PWs)   bands (ev):

   -69.5072 -38.3876 -38.3592 -38.3591  -6.5914   4.6268   5.7507   6.0732
     7.7337   8.1776   8.8847  10.6698  11.0267  15.5897  20.3736

          k = 0.4419-0.4419-0.2652 (   701 PWs)   bands (ev):

   -69.5074 -38.3976 -38.3624 -38.3594  -6.3832   4.0159   5.4911   5.6380
     8.0635   8.2539   9.0802  11.1653  11.3876  16.1963  19.3903

          k = 0.3536-0.3536-0.1768 (   698 PWs)   bands (ev):

   -69.5073 -38.3953 -38.3635 -38.3577  -6.4199   4.1224   5.5612   5.6445
     8.0830   8.1856   9.0473  10.7704  11.6960  16.0643  19.5898

          k = 0.2652-0.2652-0.0884 (   697 PWs)   bands (ev):

   -69.5072 -38.3822 -38.3617 -38.3548  -6.6732   4.9124   5.8508   6.1085
     7.7647   8.0998   8.8699  10.0262  11.4347  15.1260  20.9571

          k = 0.1768-0.1768 0.0000 (   694 PWs)   bands (ev):

   -69.5078 -38.3668 -38.3570 -38.3525  -6.9703   6.0064   6.4369   6.6507
     7.4909   7.9071   8.8828   9.2710  10.6773  13.6497  22.8576

          k = 0.0000 0.0000 0.3536 (   681 PWs)   bands (ev):

   -69.5066 -38.3739 -38.3606 -38.3606  -6.8328   5.2554   6.7807   7.1405
     7.1405   8.0634   9.2828   9.2828   9.4303  15.3120  22.7142

          k =-0.0884 0.0884 0.4419 (   697 PWs)   bands (ev):

   -69.5059 -38.3845 -38.3650 -38.3634  -6.6760   5.0162   6.2062   6.7729
     7.3712   8.2595   8.9307   9.6538   9.9691  16.2976  20.8786

          k = 0.5303-0.5303-0.1768 (   697 PWs)   bands (ev):

   -69.5051 -38.3921 -38.3715 -38.3637  -6.5091   4.8006   5.6476   6.1733
     7.7227   8.3332   8.9221  10.1229  10.4777  17.2949  19.4956

          k = 0.4419-0.4419-0.0884 (   694 PWs)   bands (ev):

   -69.5049 -38.3917 -38.3764 -38.3614  -6.4365   4.5785   5.5962   5.7829
     8.0907   8.1757   9.0309   9.8150  11.2674  17.8424  19.0929

          k = 0.3536-0.3536 0.0000 (   688 PWs)   bands (ev):

   -69.5058 -38.3869 -38.3729 -38.3578  -6.5077   4.6159   5.6818   5.8136
     7.9302   8.2703   9.3078   9.3668  11.6508  16.6535  20.5287

          k = 0.0000 0.0000 0.5303 (   700 PWs)   bands (ev):

   -69.5052 -38.3895 -38.3670 -38.3670  -6.6922   5.2607   6.4286   7.4645
     7.4645   8.2158   8.9435   8.9435   9.1007  16.5637  20.1908

          k = 0.6187-0.6187-0.0884 (   699 PWs)   bands (ev):

   -69.5045 -38.3931 -38.3721 -38.3679  -6.6302   5.4761   6.0596   7.0082
     7.6103   8.4140   8.6785   9.1624   9.3163  16.9828  19.7730

          k = 0.5303-0.5303 0.0000 (   706 PWs)   bands (ev):

   -69.5038 -38.3894 -38.3813 -38.3656  -6.5241   5.3277   5.5785   6.2911
     7.8190   8.3221   8.8701   9.2644  10.3604  17.9772  19.7810

          k = 0.0000 0.0000-0.7071 (   692 PWs)   bands (ev):

   -69.5046 -38.3959 -38.3695 -38.3695  -6.6793   5.6853   6.2855   7.8999
     7.8999   8.2795   8.4690   8.4690   8.6392  16.5950  19.7095

          k = 0.0000 0.1768 0.3536 (   690 PWs)   bands (ev):

   -69.5066 -38.3798 -38.3643 -38.3576  -6.7076   5.0383   6.1928   6.2546
     7.6033   8.1899   9.1097   9.3457  10.8818  15.5861  21.6509

          k = 0.6187-0.4419-0.2652 (   696 PWs)   bands (ev):

   -69.5058 -38.3899 -38.3697 -38.3606  -6.5082   4.6273   5.6919   5.9311
     7.8720   8.2728   9.0161   9.8775  11.1983  16.8124  19.9266

          k = 0.5303-0.3536-0.1768 (   702 PWs)   bands (ev):

   -69.5054 -38.3945 -38.3713 -38.3622  -6.4211   4.4326   5.5708   5.7510
     8.0688   8.2143   9.0003  10.2594  11.1554  17.4751  19.0904

          k = 0.7071-0.5303-0.1768 (   691 PWs)   bands (ev):

   -69.5048 -38.3894 -38.3712 -38.3661  -6.5946   5.1300   6.0385   6.3314
     7.8351   8.3501   9.0061   9.0503  10.2051  17.1010  20.0712

          k = 0.6187-0.4419-0.0884 (   705 PWs)   bands (ev):

   -69.5038 -38.3895 -38.3786 -38.3674  -6.5089   5.2061   5.6482   6.0478
     8.0415   8.3380   8.8260   9.3062  10.4235  18.1794  19.4779

          k = 0.5303-0.3536 0.0000 (   695 PWs)   bands (ev):

   -69.5041 -38.3875 -38.3808 -38.3646  -6.4728   4.9154   5.6543   5.8388
     8.1661   8.2017   9.0694   9.2608  10.9194  18.3645  19.3691

          k = 0.0000 0.1768-0.7071 (   706 PWs)   bands (ev):

   -69.5038 -38.3927 -38.3740 -38.3704  -6.5949   5.6152   5.9670   6.4377
     8.2778   8.4694   8.5472   8.6034   9.7265  17.3911  19.7422

          k = 0.0000 0.3536-0.7071 (   700 PWs)   bands (ev):

   -69.5031 -38.3839 -38.3839 -38.3712  -6.5083   5.6367   5.6367   5.7361
     8.4697   8.5584   8.6585   8.6585  10.2795  18.6152  20.0651

 ------ SPIN DOWN ----------


          k = 0.0000 0.0000 0.0000 (   725 PWs)   bands (ev):

   -64.3128 -33.2625 -33.2625 -33.2625  -6.8763   9.2814   9.2814   9.2814
    12.7786  14.4087  14.4087  14.4087  14.6757  14.6757  26.5578

          k =-0.0884 0.0884 0.0884 (   697 PWs)   bands (ev):

   -64.3119 -33.2719 -33.2636 -33.2636  -6.7588   8.4308   9.0825   9.0825
    13.6329  14.5151  14.5551  14.5551  14.9633  14.9633  25.4736

          k =-0.1768 0.1768 0.1768 (   691 PWs)   bands (ev):

   -64.3088 -33.2949 -33.2664 -33.2664  -6.4599   7.0540   8.6682   8.6682
    14.4366  14.9115  14.9115  15.4570  15.6288  15.6288  23.3227

          k =-0.2652 0.2652 0.2652 (   694 PWs)   bands (ev):

   -64.3048 -33.3179 -33.2692 -33.2692  -6.1383   6.0141   8.3179   8.3179
    14.9486  15.2978  15.2978  16.2786  16.2786  16.4374  21.6329

          k = 0.3536-0.3536-0.3536 (   700 PWs)   bands (ev):

   -64.3029 -33.3275 -33.2704 -33.2704  -5.9978   5.6313   8.1864   8.1864
    15.3433  15.4686  15.4686  16.5567  16.5567  16.5577  21.1079

          k = 0.0000 0.0000 0.1768 (   697 PWs)   bands (ev):

   -64.3116 -33.2714 -33.2658 -33.2658  -6.7210   8.1942   9.0855   9.0855
    13.6801  14.1716  14.7490  14.7490  14.7492  15.4697  25.6624

          k =-0.0884 0.0884 0.2652 (   690 PWs)   bands (ev):

   -64.3094 -33.2883 -33.2693 -33.2680  -6.4863   7.2518   8.7000   8.7919
    14.1008  14.5833  15.0036  15.1014  15.1701  16.3866  24.1745

          k =-0.1768 0.1768 0.3536 (   697 PWs)   bands (ev):

   -64.3060 -33.3100 -33.2722 -33.2716  -6.1754   6.3447   8.2226   8.4298
    14.3888  15.3647  15.3931  15.6685  15.7447  17.2604  22.1492

          k = 0.4419-0.4419-0.2652 (   701 PWs)   bands (ev):

   -64.3036 -33.3228 -33.2754 -33.2726  -5.9744   5.8515   7.9659   8.2046
    14.9289  15.4224  15.5222  16.0832  16.3314  17.7377  21.0659

          k = 0.3536-0.3536-0.1768 (   698 PWs)   bands (ev):

   -64.3042 -33.3197 -33.2768 -33.2704  -6.0184   5.9533   8.0228   8.2072
    15.0084  15.3287  15.3751  15.8371  16.5550  17.5467  21.2807

          k = 0.2652-0.2652-0.0884 (   697 PWs)   bands (ev):

   -64.3072 -33.3030 -33.2746 -33.2668  -6.2771   6.6163   8.3710   8.4338
    14.5924  14.9612  15.1334  15.3704  16.2375  16.6057  22.7236

          k = 0.1768-0.1768 0.0000 (   694 PWs)   bands (ev):

   -64.3103 -33.2831 -33.2692 -33.2640  -6.5817   7.6013   8.7907   8.8448
    14.3015  14.4774  14.6468  14.9537  15.4742  15.5785  24.5125

          k = 0.0000 0.0000 0.3536 (   681 PWs)   bands (ev):

   -64.3083 -33.2923 -33.2739 -33.2739  -6.3429   6.8942   8.7101   8.7101
    13.6446  14.5882  14.9302  15.3839  15.3839  17.2952  24.7007

          k =-0.0884 0.0884 0.4419 (   697 PWs)   bands (ev):

   -64.3062 -33.3059 -33.2788 -33.2776  -6.1073   6.4787   8.2795   8.4774
    13.6574  15.2036  15.2370  15.6040  15.6233  18.0578  22.6891

          k = 0.5303-0.5303-0.1768 (   697 PWs)   bands (ev):

   -64.3045 -33.3144 -33.2860 -33.2781  -5.9161   6.3116   7.6548   8.2509
    14.1326  15.5314  15.6515  15.7456  15.8374  18.8912  21.2539

          k = 0.4419-0.4419-0.0884 (   694 PWs)   bands (ev):

   -64.3044 -33.3127 -33.2918 -33.2750  -5.8868   6.3313   7.3864   8.1548
    14.8037  15.2740  15.4855  15.6067  16.3719  19.4141  20.8559

          k = 0.3536-0.3536 0.0000 (   688 PWs)   bands (ev):

   -64.3055 -33.3079 -33.2873 -33.2703  -6.0386   6.3701   7.7664   8.2285
    14.9539  15.0801  15.1942  15.4681  16.5535  18.0948  22.1882

          k = 0.0000 0.0000 0.5303 (   700 PWs)   bands (ev):

   -64.3049 -33.3123 -33.2824 -33.2824  -5.9739   6.3436   8.4235   8.4235
    13.1721  15.1169  15.1962  15.7729  15.7729  18.4673  21.7054

          k = 0.6187-0.6187-0.0884 (   699 PWs)   bands (ev):

   -64.3041 -33.3161 -33.2882 -33.2837  -5.8549   6.3736   7.9759   8.3009
    13.3543  15.3730  15.4094  15.7847  15.8040  18.9601  21.0149

          k = 0.5303-0.5303 0.0000 (   706 PWs)   bands (ev):

   -64.3043 -33.3094 -33.2983 -33.2805  -5.8197   6.7119   7.1445   8.1905
    14.0287  15.4938  15.5927  15.6836  15.8772  19.9650  21.0198

          k = 0.0000 0.0000-0.7071 (   692 PWs)   bands (ev):

   -64.3035 -33.3203 -33.2861 -33.2861  -5.8284   6.2793   8.3228   8.3228
    12.9901  15.1961  15.3232  15.8639  15.8639  18.7806  20.7166

          k = 0.0000 0.1768 0.3536 (   690 PWs)   bands (ev):

   -64.3073 -33.3000 -33.2777 -33.2701  -6.2490   6.6843   8.3823   8.4533
    14.1324  14.8651  15.3004  15.4400  15.6659  17.3293  23.4504

          k = 0.6187-0.4419-0.2652 (   696 PWs)   bands (ev):

   -64.3051 -33.3119 -33.2840 -33.2736  -6.0024   6.2916   7.8512   8.2012
    14.4697  15.2754  15.5100  15.5762  16.2246  18.3340  21.7024

          k = 0.5303-0.3536-0.1768 (   702 PWs)   bands (ev):

   -64.3042 -33.3170 -33.2857 -33.2757  -5.8977   6.1626   7.6118   8.1061
    14.9167  15.0728  15.6406  15.7741  16.2850  19.0189  20.8226

          k = 0.7071-0.5303-0.1768 (   691 PWs)   bands (ev):

   -64.3049 -33.3114 -33.2866 -33.2804  -5.9342   6.4076   8.0209   8.1415
    13.7574  15.2028  15.6242  15.7457  15.7528  18.7939  21.6883

          k = 0.6187-0.4419-0.0884 (   705 PWs)   bands (ev):

   -64.3045 -33.3096 -33.2950 -33.2818  -5.8319   6.6320   7.3615   7.9861
    14.2869  15.2623  15.4793  15.7954  15.9527  19.9588  21.0861

          k = 0.5303-0.3536 0.0000 (   695 PWs)   bands (ev):

   -64.3047 -33.3069 -33.2975 -33.2783  -5.8601   6.5928   7.2843   8.0129
    14.8575  14.9257  15.4285  15.7025  16.2119  19.9477  21.2421

          k = 0.0000 0.1768-0.7071 (   706 PWs)   bands (ev):

   -64.3041 -33.3146 -33.2905 -33.2859  -5.8133   6.5020   7.8906   7.9584
    13.6118  15.3005  15.6132  15.6493  15.8646  19.4416  20.8816

          k = 0.0000 0.3536-0.7071 (   700 PWs)   bands (ev):

   -64.3046 -33.3019 -33.3019 -33.2858  -5.7979   7.1082   7.1082   7.6362
    14.7796  14.7796  15.3336  15.8653  15.9240  20.5926  21.5889

     the Fermi energy is    11.8950 ev

!    total energy              =    -243.27612050 Ry
     Harris-Foulkes estimate   =    -243.27612047 Ry
     estimated scf accuracy    <          7.5E-10 Ry

     The total energy is the sum of the following terms:

     one-electron contribution =    -114.33195268 Ry
     hartree contribution      =      67.34282272 Ry
     xc contribution           =     -33.71612010 Ry
     ewald contribution        =    -162.61471204 Ry
     Hubbard energy            =       0.04387274 Ry
     smearing contrib. (-TS)   =      -0.00003115 Ry

     total magnetization       =     5.00 Bohr mag/cell
     absolute magnetization    =     5.00 Bohr mag/cell

     convergence has been achieved in  11 iterations

     Forces acting on atoms (Ry/au):


     negative rho (up, down):  0.000E+00 9.598E-04
     atom    1 type  1   force =   0.00000000E+00  0.00000000E+00  0.00000000E+00
     atom    2 type  2   force =   0.00000000E+00  0.00000000E+00  0.92968149E-31

     Total force =     0.000000     Total SCF correction =     0.000000


     entering subroutine stress ...


     negative rho (up, down):  0.000E+00 9.598E-04
          total   stress  (Ry/bohr**3)                   (kbar)     P=  -41.30
  -0.0002807529  -0.0000000000   0.0000000000        -41.30     -0.00      0.00
  -0.0000000000  -0.0002807529   0.0000000000         -0.00    -41.30      0.00
   0.0000000000   0.0000000000  -0.0002807529          0.00      0.00    -41.30


     Writing output data file mno_fm.in.vol.save

     init_run     :      0.61s CPU      0.63s WALL (       1 calls)
     electrons    :     11.64s CPU     11.96s WALL (       1 calls)
     forces       :      0.29s CPU      0.30s WALL (       1 calls)
     stress       :      1.62s CPU      1.64s WALL (       1 calls)

     Called by init_run:
     wfcinit      :      0.39s CPU      0.40s WALL (       1 calls)
     potinit      :      0.03s CPU      0.03s WALL (       1 calls)

     Called by electrons:
     c_bands      :      9.54s CPU      9.81s WALL (      11 calls)
     sum_band     :      1.68s CPU      1.71s WALL (      11 calls)
     v_of_rho     :      0.20s CPU      0.19s WALL (      12 calls)
     newd         :      0.13s CPU      0.14s WALL (      12 calls)
     mix_rho      :      0.10s CPU      0.09s WALL (      11 calls)

     Called by c_bands:
     init_us_2    :      0.22s CPU      0.24s WALL (    2088 calls)
     cegterg      :      9.18s CPU      9.46s WALL (     638 calls)

     Called by *egterg:
     h_psi        :      6.29s CPU      6.42s WALL (    1945 calls)
     s_psi        :      0.37s CPU      0.39s WALL (    2583 calls)
     g_psi        :      0.02s CPU      0.02s WALL (    1249 calls)
     cdiaghg      :      1.79s CPU      1.85s WALL (    1887 calls)

     Called by h_psi:
     add_vuspsi   :      0.26s CPU      0.28s WALL (    1945 calls)
     vhpsi        :      0.16s CPU      0.18s WALL (    1945 calls)

     General routines
     calbec       :      1.41s CPU      1.43s WALL (   11198 calls)
     fft          :      0.15s CPU      0.14s WALL (     406 calls)
     ffts         :      0.04s CPU      0.05s WALL (     272 calls)
     fftw         :      6.06s CPU      6.16s WALL (   55310 calls)
     interpolate  :      0.02s CPU      0.02s WALL (      46 calls)
     davcio       :      0.00s CPU      0.00s WALL (      58 calls)

     Parallel routines
     fft_scatter  :      2.43s CPU      2.39s WALL (   55988 calls)
     Hubbard U routines
     new_ns       :      0.05s CPU      0.06s WALL (      11 calls)
     vhpsi        :      0.16s CPU      0.18s WALL (    1945 calls)
     force_hub    :      0.16s CPU      0.17s WALL (       1 calls)
     stres_hub    :      1.28s CPU      1.30s WALL (       1 calls)

     PWSCF        :    14.77s CPU        15.22s WALL


   This run was terminated on:   9:53: 8   9Mar2018            

=------------------------------------------------------------------------------=
   JOB DONE.
=------------------------------------------------------------------------------=
