
     Program PWSCF v.5.1 starts on 24Aug2017 at  2: 6:34 

     This program is part of the open-source Quantum ESPRESSO suite
     for quantum simulation of materials; please cite
         "P. Giannozzi et al., J. Phys.:Condens. Matter 21 395502 (2009);
          URL http://www.quantum-espresso.org", 
     in publications or presentations arising from this work. More details at
     http://www.quantum-espresso.org/quote

     Parallel version (MPI), running on     8 processors
     R & G space division:  proc/nbgrp/npool/nimage =       8
     Reading input from /tmp/mno_fm.scf.in.k.3.01.6754/mno_fm.scf.in.k.3.01.t
Warning: card &IONS ignored
Warning: card   ION_DYNAMICS='BFGS', ignored
Warning: card / ignored
Warning: card &CELL ignored
Warning: card  CELL_DYNAMICS = 'BFGS' ignored
Warning: card / ignored

     Current dimensions of program PWSCF are:
     Max number of different atomic species (ntypx) = 10
     Max number of k-points (npk) =  40000
     Max angular momentum in pseudopotentials (lmaxx) =  3
 kfg - two_fermi_energies  T

     Subspace diagonalization in iterative solution of the eigenvalue problem:
     a serial algorithm will be used

     warning: symmetry operation #  2 not compatible with FFT grid. 
  -1   1  -1
   0   0  -1
   0  -1   0
     warning: symmetry operation #  4 not compatible with FFT grid. 
  -1   0  -1
   0  -1   1
   0   0   1
     warning: symmetry operation #  5 not compatible with FFT grid. 
   1  -1   1
   0   0  -1
   0   1  -1
     warning: symmetry operation #  6 not compatible with FFT grid. 
   1   0   1
   0  -1   1
   0  -1   0
     warning: symmetry operation #  8 not compatible with FFT grid. 
   1  -1   1
   0   0   1
   0   1   0
     warning: symmetry operation # 10 not compatible with FFT grid. 
   1   0   1
   0   1  -1
   0   0  -1
     warning: symmetry operation # 11 not compatible with FFT grid. 
  -1   1  -1
   0   0   1
   0  -1   1
     warning: symmetry operation # 12 not compatible with FFT grid. 
  -1   0  -1
   0   1  -1
   0   1   0

     Parallelization info
     --------------------
     sticks:   dense  smooth     PW     G-vecs:    dense   smooth      PW
     Min         238     195     62                 3656     2692     496
     Max         239     196     63                 3657     2701     497
     Sum        1907    1561    499                29255    21577    3975

     Generating pointlists ...
     new r_m :   0.0864 (alat units)  1.7193 (a.u.) for type    1
     new r_m :   0.0864 (alat units)  1.7193 (a.u.) for type    2


     bravais-lattice index     =            0
     lattice parameter (alat)  =    19.893359162  a.u.
     unit-cell volume          =     610.3520 (a.u.)^3
     number of atoms/cell      =            8
     number of atomic types    =            2
     number of electrons       =        84.00 (up:  52.00, down:  32.00)
     number of Kohn-Sham states=           62
     kinetic-energy cutoff     =      41.0000  Ry
     charge density cutoff     =     200.0000  Ry
     convergence threshold     =      1.0E-08
     mixing beta               =       0.3000
     number of iterations used =            8  local-TF  mixing
     Exchange-correlation      = SLA  PW   PSX  PSC ( 1  4 10  8 0)
     A smooth kinetic-energy cutoff is imposed at      40.0000 Ry
     height of the smooth step-function =             800.0000 Ry
     width of the smooth step-function  =               1.0000 Ry


     celldm(1)=  19.893359  celldm(2)=   0.000000  celldm(3)=   0.000000
     celldm(4)=   0.000000  celldm(5)=   0.000000  celldm(6)=   0.000000

     crystal axes: (cart. coord. in units of alat)
               a(1) = (   0.639602149067   0.426401432711  -0.639602149067 )  
               a(2) = (   0.213200716356   0.000000000000   0.213200716356 )  
               a(3) = (   0.000000000000   0.213200716356   0.213200716356 )  

     reciprocal axes: (cart. coord. in units 2 pi/alat)
               b(1) = (  0.586302  0.586302 -0.586302 )  
               b(2) = (  2.931510 -1.758906  1.758906 )  
               b(3) = ( -1.172604  3.517812  1.172604 )  


     PseudoPot. # 1 for Mn read from file:
     /users/kfg/psuedo/gbrv_1.5/mn.pbesol.UPF
     MD5 check sum: 0716d5f563e6e95a34f9080f4c78c109
     Pseudo is Ultrasoft + core correction, Zval = 15.0
     Generated by new atomic code, or converted to UPF format
     Using radial grid of  859 points,  6 beta functions with: 
                l(1) =   0
                l(2) =   0
                l(3) =   1
                l(4) =   1
                l(5) =   2
                l(6) =   2
     Q(r) pseudized with  8 coefficients,  rinner =    0.950   0.950   0.950
                                                       0.950   0.950

     PseudoPot. # 2 for O  read from file:
     /users/kfg/psuedo/gbrv_1.5/o.pbesol.UPF
     MD5 check sum: 501638753501ef6325af9037351f7734
     Pseudo is Ultrasoft + core correction, Zval =  6.0
     Generated by new atomic code, or converted to UPF format
     Using radial grid of  737 points,  5 beta functions with: 
                l(1) =   0
                l(2) =   0
                l(3) =   1
                l(4) =   1
                l(5) =   2
     Q(r) pseudized with  8 coefficients,  rinner =    0.900   0.900   0.900
                                                       0.900   0.900

     atomic species   valence    mass     pseudopotential
        Mn            15.00    54.90000     Mn( 1.00)
        O              6.00    15.99900     O ( 1.00)

     Starting magnetic structure 
     atomic species   magnetization
        Mn           1.000
        O            0.000


     Simplified LDA+U calculation (l_max = 2) with parameters (eV):
     atomic species    L          U    alpha       J0     beta
        Mn             2     3.0000   0.0000   0.0000   0.0000



     No symmetry found



   Cartesian axes

     site n.     atom                  positions (alat units)
         1           Mn  tau(   1) = (   -0.00006132068    0.00164284041   -0.00093669950  )
         2           O   tau(   2) = (    0.21118984355    0.21221878918    0.21419214692  )
         3           Mn  tau(   3) = (    0.21358429394    0.21369182894    0.00116123126  )
         4           O   tau(   4) = (    0.42885750571    0.21406476967   -0.00071930408  )
         5           Mn  tau(   5) = (    0.42517205841    0.42606720669   -0.00008179598  )
         6           O   tau(   6) = (    0.42842363040    0.42544510862   -0.21086068735  )
         7           Mn  tau(   7) = (    0.63811250549    0.42488800561   -0.21442921761  )
         8           O   tau(   8) = (    0.63823791512    0.42858615452   -0.42853466492  )

     number of k points=   304  gaussian smearing, width (Ry)=  0.0100

     Number of k-points >= 100: set verbosity='high' to print them.

     Dense  grid:    29255 G-vectors     FFT dimensions: (  90,  27,  27)

     Smooth grid:    21577 G-vectors     FFT dimensions: (  81,  25,  25)

     Largest allocated arrays     est. size (Mb)     dimensions
        Kohn-Sham Wavefunctions         0.33 Mb     (     350,   62)
        Atomic Hubbard wavefuncts       0.11 Mb     (     350,   20)
        NL pseudopotentials             0.66 Mb     (     350,  124)
        Each V/rho on FFT grid          0.30 Mb     (    9720,   2)
        Each G-vector array             0.03 Mb     (    3657)
        G-vector shells                 0.01 Mb     (     901)
     Largest temporary arrays     est. size (Mb)     dimensions
        Auxiliary wavefunctions         1.32 Mb     (     350,  248)
        Each subspace H/S matrix        0.94 Mb     (     248,  248)
        Each <psi_i|beta_j> matrix      0.12 Mb     (     124,   62)
        Arrays for rho mixing           1.19 Mb     (    9720,    8)

     Check: negative/imaginary core charge=   -0.000057    0.000000

     Initial potential from superposition of free atoms

     starting charge   81.99968, renormalised to   84.00000
     Number of +U iterations with fixed ns =  0
     Starting occupations:
 --- enter write_ns ---
 LDA+U parameters:
U( 1)     =  3.00000000
alpha( 1) =  0.00000000
atom    1   Tr[ns(na)] (up, down, total) =   5.00000  0.00000  5.00000
   spin  1
    eigenvalues: 
  1.000  1.000  1.000  1.000  1.000
    eigenvectors:
  1.000  0.000  0.000  0.000  0.000
  0.000  1.000  0.000  0.000  0.000
  0.000  0.000  1.000  0.000  0.000
  0.000  0.000  0.000  1.000  0.000
  0.000  0.000  0.000  0.000  1.000
    occupations:
  1.000  0.000  0.000  0.000  0.000
  0.000  1.000  0.000  0.000  0.000
  0.000  0.000  1.000  0.000  0.000
  0.000  0.000  0.000  1.000  0.000
  0.000  0.000  0.000  0.000  1.000
   spin  2
    eigenvalues: 
  0.000  0.000  0.000  0.000  0.000
    eigenvectors:
  1.000  0.000  0.000  0.000  0.000
  0.000  1.000  0.000  0.000  0.000
  0.000  0.000  1.000  0.000  0.000
  0.000  0.000  0.000  1.000  0.000
  0.000  0.000  0.000  0.000  1.000
    occupations:
  0.000  0.000  0.000  0.000  0.000
  0.000  0.000  0.000  0.000  0.000
  0.000  0.000  0.000  0.000  0.000
  0.000  0.000  0.000  0.000  0.000
  0.000  0.000  0.000  0.000  0.000
atomic mag. moment =     5.000000
atom    3   Tr[ns(na)] (up, down, total) =   5.00000  0.00000  5.00000
   spin  1
    eigenvalues: 
  1.000  1.000  1.000  1.000  1.000
    eigenvectors:
  1.000  0.000  0.000  0.000  0.000
  0.000  1.000  0.000  0.000  0.000
  0.000  0.000  1.000  0.000  0.000
  0.000  0.000  0.000  1.000  0.000
  0.000  0.000  0.000  0.000  1.000
    occupations:
  1.000  0.000  0.000  0.000  0.000
  0.000  1.000  0.000  0.000  0.000
  0.000  0.000  1.000  0.000  0.000
  0.000  0.000  0.000  1.000  0.000
  0.000  0.000  0.000  0.000  1.000
   spin  2
    eigenvalues: 
  0.000  0.000  0.000  0.000  0.000
    eigenvectors:
  1.000  0.000  0.000  0.000  0.000
  0.000  1.000  0.000  0.000  0.000
  0.000  0.000  1.000  0.000  0.000
  0.000  0.000  0.000  1.000  0.000
  0.000  0.000  0.000  0.000  1.000
    occupations:
  0.000  0.000  0.000  0.000  0.000
  0.000  0.000  0.000  0.000  0.000
  0.000  0.000  0.000  0.000  0.000
  0.000  0.000  0.000  0.000  0.000
  0.000  0.000  0.000  0.000  0.000
atomic mag. moment =     5.000000
atom    5   Tr[ns(na)] (up, down, total) =   5.00000  0.00000  5.00000
   spin  1
    eigenvalues: 
  1.000  1.000  1.000  1.000  1.000
    eigenvectors:
  1.000  0.000  0.000  0.000  0.000
  0.000  1.000  0.000  0.000  0.000
  0.000  0.000  1.000  0.000  0.000
  0.000  0.000  0.000  1.000  0.000
  0.000  0.000  0.000  0.000  1.000
    occupations:
  1.000  0.000  0.000  0.000  0.000
  0.000  1.000  0.000  0.000  0.000
  0.000  0.000  1.000  0.000  0.000
  0.000  0.000  0.000  1.000  0.000
  0.000  0.000  0.000  0.000  1.000
   spin  2
    eigenvalues: 
  0.000  0.000  0.000  0.000  0.000
    eigenvectors:
  1.000  0.000  0.000  0.000  0.000
  0.000  1.000  0.000  0.000  0.000
  0.000  0.000  1.000  0.000  0.000
  0.000  0.000  0.000  1.000  0.000
  0.000  0.000  0.000  0.000  1.000
    occupations:
  0.000  0.000  0.000  0.000  0.000
  0.000  0.000  0.000  0.000  0.000
  0.000  0.000  0.000  0.000  0.000
  0.000  0.000  0.000  0.000  0.000
  0.000  0.000  0.000  0.000  0.000
atomic mag. moment =     5.000000
atom    7   Tr[ns(na)] (up, down, total) =   5.00000  0.00000  5.00000
   spin  1
    eigenvalues: 
  1.000  1.000  1.000  1.000  1.000
    eigenvectors:
  1.000  0.000  0.000  0.000  0.000
  0.000  1.000  0.000  0.000  0.000
  0.000  0.000  1.000  0.000  0.000
  0.000  0.000  0.000  1.000  0.000
  0.000  0.000  0.000  0.000  1.000
    occupations:
  1.000  0.000  0.000  0.000  0.000
  0.000  1.000  0.000  0.000  0.000
  0.000  0.000  1.000  0.000  0.000
  0.000  0.000  0.000  1.000  0.000
  0.000  0.000  0.000  0.000  1.000
   spin  2
    eigenvalues: 
  0.000  0.000  0.000  0.000  0.000
    eigenvectors:
  1.000  0.000  0.000  0.000  0.000
  0.000  1.000  0.000  0.000  0.000
  0.000  0.000  1.000  0.000  0.000
  0.000  0.000  0.000  1.000  0.000
  0.000  0.000  0.000  0.000  1.000
    occupations:
  0.000  0.000  0.000  0.000  0.000
  0.000  0.000  0.000  0.000  0.000
  0.000  0.000  0.000  0.000  0.000
  0.000  0.000  0.000  0.000  0.000
  0.000  0.000  0.000  0.000  0.000
atomic mag. moment =     5.000000
N of occupied +U levels =   20.000000
 --- exit write_ns ---
 Atomic wfc used for LDA+U Projector are NOT orthogonalized
     Starting wfc are   68 randomized atomic wfcs

     total cpu time spent up to now is       82.4 secs

     Self-consistent Calculation

     iteration #  1     ecut=    41.00 Ry     beta=0.30
     Davidson diagonalization with overlap
     ethr =  1.00E-02,  avg # of iterations =  3.4
 --- enter write_ns ---
 LDA+U parameters:
U( 1)     =  3.00000000
alpha( 1) =  0.00000000
atom    1   Tr[ns(na)] (up, down, total) =   4.98720  0.19953  5.18673
   spin  1
    eigenvalues: 
  0.996  0.996  0.998  0.998  0.998
    eigenvectors:
  0.573  0.427  0.000  0.000  0.000
  0.000  0.000  0.488  0.512  0.000
  0.000  0.001  0.281  0.249  0.470
  0.427  0.572  0.000  0.000  0.000
  0.000  0.000  0.231  0.239  0.529
    occupations:
  0.996  0.000  0.000 -0.000 -0.000
  0.000  0.998 -0.000  0.000 -0.000
  0.000 -0.000  0.998 -0.000 -0.000
 -0.000  0.000 -0.000  0.996  0.000
 -0.000 -0.000 -0.000  0.000  0.998
   spin  2
    eigenvalues: 
  0.021  0.021  0.022  0.067  0.069
    eigenvectors:
  0.000  0.000  0.000  0.259  0.741
  0.531  0.446  0.023  0.000  0.000
  0.042  0.000  0.958  0.000  0.000
  0.000  0.000  0.000  0.740  0.259
  0.427  0.554  0.019  0.000  0.000
    occupations:
  0.068  0.000 -0.000  0.001  0.000
  0.000  0.021 -0.000 -0.000 -0.000
 -0.000 -0.000  0.022  0.000 -0.000
  0.001 -0.000  0.000  0.067 -0.000
  0.000 -0.000 -0.000 -0.000  0.021
atomic mag. moment =     4.787666
atom    3   Tr[ns(na)] (up, down, total) =   4.98873  0.18634  5.17508
   spin  1
    eigenvalues: 
  0.997  0.997  0.998  0.998  0.998
    eigenvectors:
  0.814  0.185  0.001  0.000  0.001
  0.001  0.000  0.050  0.899  0.051
  0.000  0.002  0.013  0.065  0.921
  0.185  0.813  0.000  0.000  0.002
  0.001  0.000  0.937  0.036  0.027
    occupations:
  0.997 -0.000 -0.000 -0.000  0.000
 -0.000  0.998  0.000 -0.000  0.000
 -0.000  0.000  0.998  0.000  0.000
 -0.000 -0.000  0.000  0.997  0.000
  0.000  0.000  0.000  0.000  0.998
   spin  2
    eigenvalues: 
  0.020  0.020  0.020  0.063  0.064
    eigenvectors:
  0.000  0.000  0.000  0.230  0.770
  0.309  0.619  0.072  0.000  0.000
  0.004  0.129  0.867  0.000  0.000
  0.000  0.000  0.000  0.770  0.230
  0.687  0.251  0.061  0.000  0.000
    occupations:
  0.064  0.000  0.000  0.001 -0.000
  0.000  0.020  0.000  0.000  0.000
  0.000  0.000  0.020 -0.000  0.000
  0.001  0.000 -0.000  0.063 -0.000
 -0.000  0.000  0.000 -0.000  0.020
atomic mag. moment =     4.802389
atom    5   Tr[ns(na)] (up, down, total) =   4.98732  0.19817  5.18549
   spin  1
    eigenvalues: 
  0.996  0.997  0.998  0.998  0.998
    eigenvectors:
  0.969  0.031  0.000  0.000  0.000
  0.000  0.000  0.146  0.492  0.363
  0.000  0.000  0.106  0.258  0.636
  0.031  0.969  0.000  0.000  0.000
  0.000  0.000  0.749  0.250  0.001
    occupations:
  0.996 -0.000  0.000  0.000 -0.000
 -0.000  0.998 -0.000  0.000 -0.000
  0.000 -0.000  0.998 -0.000 -0.000
  0.000  0.000 -0.000  0.997  0.000
 -0.000 -0.000 -0.000  0.000  0.998
   spin  2
    eigenvalues: 
  0.021  0.021  0.021  0.067  0.068
    eigenvectors:
  0.000  0.000  0.000  0.052  0.948
  0.129  0.809  0.062  0.000  0.000
  0.049  0.032  0.919  0.000  0.000
  0.000  0.000  0.000  0.948  0.052
  0.822  0.159  0.018  0.000  0.000
    occupations:
  0.068  0.000 -0.000  0.000  0.000
  0.000  0.021 -0.000 -0.000 -0.000
 -0.000 -0.000  0.021  0.000 -0.000
  0.000 -0.000  0.000  0.067 -0.000
  0.000 -0.000 -0.000 -0.000  0.021
atomic mag. moment =     4.789153
atom    7   Tr[ns(na)] (up, down, total) =   4.98823  0.18993  5.17815
   spin  1
    eigenvalues: 
  0.997  0.997  0.998  0.998  0.998
    eigenvectors:
  0.228  0.771  0.001  0.000  0.000
  0.001  0.000  0.001  0.951  0.047
  0.001  0.000  0.997  0.002  0.000
  0.770  0.228  0.001  0.000  0.000
  0.000  0.000  0.000  0.047  0.953
    occupations:
  0.997  0.000  0.000  0.000 -0.000
  0.000  0.998 -0.000 -0.000  0.000
  0.000 -0.000  0.998 -0.000  0.000
  0.000 -0.000 -0.000  0.997 -0.000
 -0.000  0.000  0.000 -0.000  0.998
   spin  2
    eigenvalues: 
  0.019  0.020  0.021  0.063  0.067
    eigenvectors:
  0.000  0.000  0.000  0.816  0.183
  0.000  0.825  0.174  0.000  0.000
  0.999  0.000  0.000  0.000  0.000
  0.000  0.000  0.000  0.184  0.816
  0.001  0.174  0.825  0.000  0.000
    occupations:
  0.063 -0.001  0.000 -0.002  0.000
 -0.001  0.021 -0.000  0.001  0.000
  0.000 -0.000  0.019 -0.001  0.000
 -0.002  0.001 -0.001  0.066  0.001
  0.000  0.000  0.000  0.001  0.021
atomic mag. moment =     4.798302
N of occupied +U levels =   20.725456
 --- exit write_ns ---

     negative rho (up, down):  0.000E+00 2.645E-04

     Magnetic moment per site:
     atom:    1    charge:   12.7653    magn:   10.2292    constr:    0.0000
     atom:    2    charge:    5.6828    magn:    0.1854    constr:    0.0000
     atom:    3    charge:   12.7595    magn:   10.2288    constr:    0.0000
     atom:    4    charge:    5.6798    magn:    0.1833    constr:    0.0000
     atom:    5    charge:   12.7643    magn:   10.2286    constr:    0.0000
     atom:    6    charge:    5.6794    magn:    0.1828    constr:    0.0000
     atom:    7    charge:   12.7598    magn:   10.2282    constr:    0.0000
     atom:    8    charge:    5.6723    magn:    0.1776    constr:    0.0000

     total cpu time spent up to now is      469.8 secs

     total energy              =    -968.91444780 Ry
     Harris-Foulkes estimate   =    -960.51872181 Ry
     estimated scf accuracy    <      12.82532541 Ry

     total magnetization       =    20.00 Bohr mag/cell
     absolute magnetization    =    20.90 Bohr mag/cell

     iteration #  2     ecut=    41.00 Ry     beta=0.30
     Davidson diagonalization with overlap
     ethr =  1.00E-02,  avg # of iterations =  1.1

     negative rho (up, down):  0.000E+00 1.055E-03

     Magnetic moment per site:
     atom:    1    charge:   12.6500    magn:    4.5338    constr:    0.0000
     atom:    2    charge:    5.9053    magn:   -0.0489    constr:    0.0000
     atom:    3    charge:   12.6468    magn:    4.5333    constr:    0.0000
     atom:    4    charge:    5.9021    magn:   -0.0499    constr:    0.0000
     atom:    5    charge:   12.6495    magn:    4.5330    constr:    0.0000
     atom:    6    charge:    5.9017    magn:   -0.0497    constr:    0.0000
     atom:    7    charge:   12.6458    magn:    4.5337    constr:    0.0000
     atom:    8    charge:    5.8941    magn:   -0.0517    constr:    0.0000

     total cpu time spent up to now is      707.5 secs

     total energy              =    -972.81958835 Ry
     Harris-Foulkes estimate   =    -969.04578101 Ry
     estimated scf accuracy    <       6.32908191 Ry

     total magnetization       =    20.00 Bohr mag/cell
     absolute magnetization    =    20.61 Bohr mag/cell

     iteration #  3     ecut=    41.00 Ry     beta=0.30
     Davidson diagonalization with overlap
     ethr =  7.53E-03,  avg # of iterations =  1.9

     negative rho (up, down):  0.000E+00 1.176E-03

     Magnetic moment per site:
     atom:    1    charge:   12.5845    magn:    4.2761    constr:    0.0000
     atom:    2    charge:    5.8856    magn:    0.0635    constr:    0.0000
     atom:    3    charge:   12.5790    magn:    4.2805    constr:    0.0000
     atom:    4    charge:    5.8822    magn:    0.0625    constr:    0.0000
     atom:    5    charge:   12.5838    magn:    4.2760    constr:    0.0000
     atom:    6    charge:    5.8819    magn:    0.0624    constr:    0.0000
     atom:    7    charge:   12.5785    magn:    4.2791    constr:    0.0000
     atom:    8    charge:    5.8739    magn:    0.0599    constr:    0.0000

     total cpu time spent up to now is      970.0 secs

     total energy              =    -973.07696247 Ry
     Harris-Foulkes estimate   =    -973.12757967 Ry
     estimated scf accuracy    <       0.18351279 Ry

     total magnetization       =    20.00 Bohr mag/cell
     absolute magnetization    =    20.00 Bohr mag/cell

     iteration #  4     ecut=    41.00 Ry     beta=0.30
     Davidson diagonalization with overlap
     ethr =  2.18E-04,  avg # of iterations =  2.5

     negative rho (up, down):  0.000E+00 1.208E-03

     Magnetic moment per site:
     atom:    1    charge:   12.5715    magn:    4.1889    constr:    0.0000
     atom:    2    charge:    5.8938    magn:    0.0818    constr:    0.0000
     atom:    3    charge:   12.5655    magn:    4.1940    constr:    0.0000
     atom:    4    charge:    5.8904    magn:    0.0807    constr:    0.0000
     atom:    5    charge:   12.5708    magn:    4.1889    constr:    0.0000
     atom:    6    charge:    5.8901    magn:    0.0806    constr:    0.0000
     atom:    7    charge:   12.5652    magn:    4.1924    constr:    0.0000
     atom:    8    charge:    5.8820    magn:    0.0781    constr:    0.0000

     total cpu time spent up to now is     1244.8 secs

     total energy              =    -973.10389821 Ry
     Harris-Foulkes estimate   =    -973.10578797 Ry
     estimated scf accuracy    <       0.01414680 Ry

     total magnetization       =    20.00 Bohr mag/cell
     absolute magnetization    =    20.00 Bohr mag/cell

     iteration #  5     ecut=    41.00 Ry     beta=0.30
     Davidson diagonalization with overlap
     ethr =  1.68E-05,  avg # of iterations =  2.8

     negative rho (up, down):  0.000E+00 1.251E-03

     Magnetic moment per site:
     atom:    1    charge:   12.5381    magn:    4.2562    constr:    0.0000
     atom:    2    charge:    5.9015    magn:    0.1579    constr:    0.0000
     atom:    3    charge:   12.5302    magn:    4.2635    constr:    0.0000
     atom:    4    charge:    5.8981    magn:    0.1569    constr:    0.0000
     atom:    5    charge:   12.5372    magn:    4.2564    constr:    0.0000
     atom:    6    charge:    5.8978    magn:    0.1567    constr:    0.0000
     atom:    7    charge:   12.5304    magn:    4.2611    constr:    0.0000
     atom:    8    charge:    5.8897    magn:    0.1540    constr:    0.0000

     total cpu time spent up to now is     1547.3 secs

     total energy              =    -973.10426981 Ry
     Harris-Foulkes estimate   =    -973.10460246 Ry
     estimated scf accuracy    <       0.00637701 Ry

     total magnetization       =    20.00 Bohr mag/cell
     absolute magnetization    =    20.00 Bohr mag/cell
 kfg - setting two_fermi_energies to FALSE

     iteration #  6     ecut=    41.00 Ry     beta=0.30
     Davidson diagonalization with overlap
     ethr =  7.59E-06,  avg # of iterations =  2.3

     negative rho (up, down):  0.000E+00 1.251E-03

     Magnetic moment per site:
     atom:    1    charge:   12.5318    magn:    4.2561    constr:    0.0000
     atom:    2    charge:    5.9025    magn:    0.1742    constr:    0.0000
     atom:    3    charge:   12.5231    magn:    4.2636    constr:    0.0000
     atom:    4    charge:    5.8991    magn:    0.1733    constr:    0.0000
     atom:    5    charge:   12.5308    magn:    4.2564    constr:    0.0000
     atom:    6    charge:    5.8988    magn:    0.1730    constr:    0.0000
     atom:    7    charge:   12.5236    magn:    4.2612    constr:    0.0000
     atom:    8    charge:    5.8907    magn:    0.1705    constr:    0.0000

     total cpu time spent up to now is     1855.4 secs

     total energy              =    -973.10564693 Ry
     Harris-Foulkes estimate   =    -973.10559552 Ry
     estimated scf accuracy    <       0.00031763 Ry

     total magnetization       =    20.00 Bohr mag/cell
     absolute magnetization    =    20.00 Bohr mag/cell

     iteration #  7     ecut=    41.00 Ry     beta=0.30
     Davidson diagonalization with overlap
     ethr =  3.78E-07,  avg # of iterations =  2.4

     negative rho (up, down):  0.000E+00 1.241E-03

     Magnetic moment per site:
     atom:    1    charge:   12.5319    magn:    4.2462    constr:    0.0000
     atom:    2    charge:    5.9020    magn:    0.1763    constr:    0.0000
     atom:    3    charge:   12.5228    magn:    4.2536    constr:    0.0000
     atom:    4    charge:    5.8987    magn:    0.1755    constr:    0.0000
     atom:    5    charge:   12.5308    magn:    4.2466    constr:    0.0000
     atom:    6    charge:    5.8984    magn:    0.1751    constr:    0.0000
     atom:    7    charge:   12.5235    magn:    4.2512    constr:    0.0000
     atom:    8    charge:    5.8903    magn:    0.1727    constr:    0.0000

     total cpu time spent up to now is     2162.1 secs

     total energy              =    -973.10571631 Ry
     Harris-Foulkes estimate   =    -973.10571224 Ry
     estimated scf accuracy    <       0.00009628 Ry

     total magnetization       =    20.00 Bohr mag/cell
     absolute magnetization    =    20.00 Bohr mag/cell

     iteration #  8     ecut=    41.00 Ry     beta=0.30
     Davidson diagonalization with overlap
     ethr =  1.15E-07,  avg # of iterations =  1.5

     negative rho (up, down):  0.000E+00 1.212E-03

     Magnetic moment per site:
     atom:    1    charge:   12.5344    magn:    4.2438    constr:    0.0000
     atom:    2    charge:    5.9007    magn:    0.1806    constr:    0.0000
     atom:    3    charge:   12.5246    magn:    4.2508    constr:    0.0000
     atom:    4    charge:    5.8974    magn:    0.1799    constr:    0.0000
     atom:    5    charge:   12.5332    magn:    4.2441    constr:    0.0000
     atom:    6    charge:    5.8972    magn:    0.1793    constr:    0.0000
     atom:    7    charge:   12.5258    magn:    4.2485    constr:    0.0000
     atom:    8    charge:    5.8891    magn:    0.1770    constr:    0.0000

     total cpu time spent up to now is     2428.1 secs

     total energy              =    -973.10571157 Ry
     Harris-Foulkes estimate   =    -973.10572580 Ry
     estimated scf accuracy    <       0.00003807 Ry

     total magnetization       =    20.00 Bohr mag/cell
     absolute magnetization    =    20.00 Bohr mag/cell

     iteration #  9     ecut=    41.00 Ry     beta=0.30
     Davidson diagonalization with overlap
     ethr =  4.53E-08,  avg # of iterations =  2.1

     negative rho (up, down):  0.000E+00 1.216E-03

     Magnetic moment per site:
     atom:    1    charge:   12.5337    magn:    4.2444    constr:    0.0000
     atom:    2    charge:    5.9008    magn:    0.1829    constr:    0.0000
     atom:    3    charge:   12.5238    magn:    4.2515    constr:    0.0000
     atom:    4    charge:    5.8975    magn:    0.1823    constr:    0.0000
     atom:    5    charge:   12.5324    magn:    4.2447    constr:    0.0000
     atom:    6    charge:    5.8973    magn:    0.1816    constr:    0.0000
     atom:    7    charge:   12.5251    magn:    4.2492    constr:    0.0000
     atom:    8    charge:    5.8892    magn:    0.1792    constr:    0.0000

     total cpu time spent up to now is     2728.6 secs

     total energy              =    -973.10571289 Ry
     Harris-Foulkes estimate   =    -973.10572051 Ry
     estimated scf accuracy    <       0.00001694 Ry

     total magnetization       =    20.00 Bohr mag/cell
     absolute magnetization    =    20.00 Bohr mag/cell

     iteration # 10     ecut=    41.00 Ry     beta=0.30
     Davidson diagonalization with overlap
     ethr =  2.02E-08,  avg # of iterations =  2.1

     negative rho (up, down):  0.000E+00 1.232E-03

     Magnetic moment per site:
     atom:    1    charge:   12.5337    magn:    4.2449    constr:    0.0000
     atom:    2    charge:    5.9011    magn:    0.1802    constr:    0.0000
     atom:    3    charge:   12.5238    magn:    4.2521    constr:    0.0000
     atom:    4    charge:    5.8977    magn:    0.1796    constr:    0.0000
     atom:    5    charge:   12.5324    magn:    4.2453    constr:    0.0000
     atom:    6    charge:    5.8976    magn:    0.1788    constr:    0.0000
     atom:    7    charge:   12.5252    magn:    4.2497    constr:    0.0000
     atom:    8    charge:    5.8895    magn:    0.1764    constr:    0.0000

     total cpu time spent up to now is     3037.2 secs

     total energy              =    -973.10571796 Ry
     Harris-Foulkes estimate   =    -973.10571818 Ry
     estimated scf accuracy    <       0.00000885 Ry

     total magnetization       =    20.00 Bohr mag/cell
     absolute magnetization    =    20.00 Bohr mag/cell

     iteration # 11     ecut=    41.00 Ry     beta=0.30
     Davidson diagonalization with overlap
     ethr =  1.05E-08,  avg # of iterations =  2.0

     negative rho (up, down):  0.000E+00 1.233E-03

     Magnetic moment per site:
     atom:    1    charge:   12.5336    magn:    4.2454    constr:    0.0000
     atom:    2    charge:    5.9012    magn:    0.1789    constr:    0.0000
     atom:    3    charge:   12.5237    magn:    4.2526    constr:    0.0000
     atom:    4    charge:    5.8979    magn:    0.1783    constr:    0.0000
     atom:    5    charge:   12.5323    magn:    4.2458    constr:    0.0000
     atom:    6    charge:    5.8977    magn:    0.1776    constr:    0.0000
     atom:    7    charge:   12.5252    magn:    4.2503    constr:    0.0000
     atom:    8    charge:    5.8896    magn:    0.1752    constr:    0.0000

     total cpu time spent up to now is     3332.2 secs

     total energy              =    -973.10571953 Ry
     Harris-Foulkes estimate   =    -973.10571950 Ry
     estimated scf accuracy    <       0.00000046 Ry

     total magnetization       =    20.00 Bohr mag/cell
     absolute magnetization    =    20.00 Bohr mag/cell

     iteration # 12     ecut=    41.00 Ry     beta=0.30
     Davidson diagonalization with overlap
     ethr =  5.52E-10,  avg # of iterations =  2.0

     negative rho (up, down):  0.000E+00 1.230E-03

     Magnetic moment per site:
     atom:    1    charge:   12.5335    magn:    4.2453    constr:    0.0000
     atom:    2    charge:    5.9012    magn:    0.1791    constr:    0.0000
     atom:    3    charge:   12.5236    magn:    4.2524    constr:    0.0000
     atom:    4    charge:    5.8979    magn:    0.1786    constr:    0.0000
     atom:    5    charge:   12.5322    magn:    4.2456    constr:    0.0000
     atom:    6    charge:    5.8977    magn:    0.1778    constr:    0.0000
     atom:    7    charge:   12.5251    magn:    4.2501    constr:    0.0000
     atom:    8    charge:    5.8896    magn:    0.1754    constr:    0.0000

     total cpu time spent up to now is     3639.2 secs

     total energy              =    -973.10571979 Ry
     Harris-Foulkes estimate   =    -973.10571978 Ry
     estimated scf accuracy    <       0.00000013 Ry

     total magnetization       =    20.00 Bohr mag/cell
     absolute magnetization    =    20.00 Bohr mag/cell

     iteration # 13     ecut=    41.00 Ry     beta=0.30
     Davidson diagonalization with overlap
     ethr =  1.55E-10,  avg # of iterations =  2.0

     negative rho (up, down):  0.000E+00 1.227E-03

     Magnetic moment per site:
     atom:    1    charge:   12.5335    magn:    4.2453    constr:    0.0000
     atom:    2    charge:    5.9012    magn:    0.1791    constr:    0.0000
     atom:    3    charge:   12.5236    magn:    4.2525    constr:    0.0000
     atom:    4    charge:    5.8979    magn:    0.1786    constr:    0.0000
     atom:    5    charge:   12.5321    magn:    4.2456    constr:    0.0000
     atom:    6    charge:    5.8977    magn:    0.1778    constr:    0.0000
     atom:    7    charge:   12.5250    magn:    4.2501    constr:    0.0000
     atom:    8    charge:    5.8896    magn:    0.1754    constr:    0.0000

     total cpu time spent up to now is     3892.4 secs

     total energy              =    -973.10571983 Ry
     Harris-Foulkes estimate   =    -973.10571981 Ry
     estimated scf accuracy    <       0.00000001 Ry

     total magnetization       =    20.00 Bohr mag/cell
     absolute magnetization    =    20.00 Bohr mag/cell

     iteration # 14     ecut=    41.00 Ry     beta=0.30
     Davidson diagonalization with overlap
     ethr =  1.61E-11,  avg # of iterations =  2.1

     negative rho (up, down):  0.000E+00 1.227E-03

     Magnetic moment per site:
     atom:    1    charge:   12.5335    magn:    4.2453    constr:    0.0000
     atom:    2    charge:    5.9012    magn:    0.1791    constr:    0.0000
     atom:    3    charge:   12.5236    magn:    4.2524    constr:    0.0000
     atom:    4    charge:    5.8979    magn:    0.1785    constr:    0.0000
     atom:    5    charge:   12.5322    magn:    4.2456    constr:    0.0000
     atom:    6    charge:    5.8977    magn:    0.1777    constr:    0.0000
     atom:    7    charge:   12.5251    magn:    4.2501    constr:    0.0000
     atom:    8    charge:    5.8896    magn:    0.1753    constr:    0.0000

     total cpu time spent up to now is     4201.0 secs

     total energy              =    -973.10571984 Ry
     Harris-Foulkes estimate   =    -973.10571984 Ry
     estimated scf accuracy    <       0.00000001 Ry

     total magnetization       =    20.00 Bohr mag/cell
     absolute magnetization    =    20.00 Bohr mag/cell

     iteration # 15     ecut=    41.00 Ry     beta=0.30
     Davidson diagonalization with overlap
     ethr =  1.61E-11,  avg # of iterations =  2.0

     negative rho (up, down):  0.000E+00 1.227E-03

     Magnetic moment per site:
     atom:    1    charge:   12.5335    magn:    4.2453    constr:    0.0000
     atom:    2    charge:    5.9012    magn:    0.1791    constr:    0.0000
     atom:    3    charge:   12.5236    magn:    4.2524    constr:    0.0000
     atom:    4    charge:    5.8979    magn:    0.1785    constr:    0.0000
     atom:    5    charge:   12.5321    magn:    4.2456    constr:    0.0000
     atom:    6    charge:    5.8977    magn:    0.1777    constr:    0.0000
     atom:    7    charge:   12.5251    magn:    4.2501    constr:    0.0000
     atom:    8    charge:    5.8896    magn:    0.1753    constr:    0.0000

     total cpu time spent up to now is     4496.2 secs

     End of self-consistent calculation
 --- enter write_ns ---
 LDA+U parameters:
U( 1)     =  3.00000000
alpha( 1) =  0.00000000
atom    1   Tr[ns(na)] (up, down, total) =   4.99044  0.46823  5.45867
   spin  1
    eigenvalues: 
  0.997  0.997  0.999  0.999  0.999
    eigenvectors:
  0.577  0.422  0.000  0.000  0.000
  0.000  0.000  0.395  0.555  0.050
  0.000  0.001  0.373  0.423  0.203
  0.422  0.577  0.000  0.001  0.000
  0.000  0.000  0.232  0.021  0.746
    occupations:
  0.997  0.000  0.000 -0.000 -0.000
  0.000  0.999 -0.000  0.000 -0.000
  0.000 -0.000  0.999 -0.000 -0.000
 -0.000  0.000 -0.000  0.997  0.000
 -0.000 -0.000 -0.000  0.000  0.999
   spin  2
    eigenvalues: 
  0.052  0.053  0.053  0.153  0.156
    eigenvectors:
  0.000  0.000  0.000  0.290  0.710
  0.628  0.365  0.007  0.000  0.000
  0.008  0.001  0.992  0.000  0.000
  0.000  0.000  0.000  0.710  0.290
  0.364  0.635  0.001  0.000  0.000
    occupations:
  0.155  0.000 -0.000  0.001  0.001
  0.000  0.053 -0.000 -0.001 -0.000
 -0.000 -0.000  0.053  0.001 -0.000
  0.001 -0.001  0.001  0.154 -0.001
  0.001 -0.000 -0.000 -0.001  0.053
atomic mag. moment =     4.522217
atom    3   Tr[ns(na)] (up, down, total) =   4.99318  0.45033  5.44351
   spin  1
    eigenvalues: 
  0.998  0.998  0.999  0.999  0.999
    eigenvectors:
  0.805  0.194  0.001  0.000  0.000
  0.001  0.000  0.151  0.700  0.149
  0.000  0.001  0.035  0.231  0.732
  0.194  0.805  0.000  0.001  0.001
  0.001  0.000  0.813  0.068  0.118
    occupations:
  0.998 -0.000 -0.000 -0.000  0.000
 -0.000  0.999  0.000 -0.000  0.000
 -0.000  0.000  0.999  0.000  0.000
 -0.000 -0.000  0.000  0.998  0.000
  0.000  0.000  0.000  0.000  0.999
   spin  2
    eigenvalues: 
  0.050  0.050  0.051  0.147  0.151
    eigenvectors:
  0.000  0.000  0.000  0.220  0.780
  0.100  0.874  0.026  0.000  0.000
  0.006  0.038  0.956  0.000  0.000
  0.000  0.000  0.000  0.780  0.220
  0.894  0.088  0.018  0.000  0.000
    occupations:
  0.150  0.001  0.000  0.001 -0.001
  0.001  0.050  0.000  0.000  0.000
  0.000  0.000  0.051 -0.000  0.000
  0.001  0.000 -0.000  0.148 -0.001
 -0.001  0.000  0.000 -0.001  0.050
atomic mag. moment =     4.542846
atom    5   Tr[ns(na)] (up, down, total) =   4.99090  0.46684  5.45774
   spin  1
    eigenvalues: 
  0.997  0.997  0.999  0.999  0.999
    eigenvectors:
  0.986  0.014  0.000  0.000  0.000
  0.000  0.000  0.182  0.445  0.373
  0.000  0.000  0.159  0.219  0.622
  0.014  0.985  0.000  0.000  0.000
  0.000  0.000  0.659  0.337  0.004
    occupations:
  0.997 -0.000  0.000  0.000 -0.000
 -0.000  0.999 -0.000  0.000 -0.000
  0.000 -0.000  0.999 -0.000 -0.000
  0.000  0.000 -0.000  0.997  0.000
 -0.000 -0.000 -0.000  0.000  0.999
   spin  2
    eigenvalues: 
  0.052  0.053  0.053  0.153  0.156
    eigenvectors:
  0.000  0.000  0.000  0.046  0.954
  0.046  0.914  0.040  0.000  0.000
  0.004  0.047  0.948  0.000  0.000
  0.000  0.000  0.000  0.954  0.046
  0.950  0.038  0.012  0.000  0.000
    occupations:
  0.156  0.000 -0.000  0.001  0.000
  0.000  0.053  0.000 -0.001 -0.000
 -0.000  0.000  0.053  0.001 -0.000
  0.001 -0.001  0.001  0.153 -0.000
  0.000 -0.000 -0.000 -0.000  0.052
atomic mag. moment =     4.524052
atom    7   Tr[ns(na)] (up, down, total) =   4.99208  0.45440  5.44648
   spin  1
    eigenvalues: 
  0.997  0.998  0.999  0.999  0.999
    eigenvectors:
  0.218  0.781  0.000  0.000  0.000
  0.000  0.000  0.003  0.861  0.135
  0.000  0.000  0.994  0.005  0.001
  0.781  0.219  0.000  0.000  0.000
  0.000  0.000  0.003  0.133  0.863
    occupations:
  0.998  0.000  0.000  0.000 -0.000
  0.000  0.999 -0.000 -0.000  0.000
  0.000 -0.000  0.999 -0.000  0.000
  0.000 -0.000 -0.000  0.997 -0.000
 -0.000  0.000  0.000 -0.000  0.999
   spin  2
    eigenvalues: 
  0.050  0.052  0.052  0.145  0.155
    eigenvectors:
  0.000  0.000  0.000  0.817  0.183
  0.001  0.866  0.133  0.000  0.000
  0.999  0.001  0.000  0.000  0.000
  0.000  0.000  0.000  0.183  0.817
  0.000  0.133  0.867  0.000  0.000
    occupations:
  0.147 -0.001  0.000 -0.004  0.000
 -0.001  0.052 -0.000  0.001  0.000
  0.000 -0.000  0.050 -0.001 -0.000
 -0.004  0.001 -0.001  0.153  0.002
  0.000  0.000 -0.000  0.002  0.052
atomic mag. moment =     4.537675
N of occupied +U levels =   21.806397
 --- exit write_ns ---

     Number of k-points >= 100: set verbosity='high' to print the bands.

     the Fermi energy is    12.4624 ev

!    total energy              =    -973.10571985 Ry
     Harris-Foulkes estimate   =    -973.10571984 Ry
     estimated scf accuracy    <          2.8E-10 Ry

     The total energy is the sum of the following terms:

     one-electron contribution =    -447.58648627 Ry
     hartree contribution      =     266.00264958 Ry
     xc contribution           =    -135.00669662 Ry
     ewald contribution        =    -656.69760566 Ry
     Hubbard energy            =       0.18253440 Ry
     smearing contrib. (-TS)   =      -0.00011527 Ry

     total magnetization       =    20.00 Bohr mag/cell
     absolute magnetization    =    20.00 Bohr mag/cell

     convergence has been achieved in  15 iterations

     Forces acting on atoms (Ry/au):


     negative rho (up, down):  0.000E+00 1.227E-03
     atom    1 type  1   force =  -0.81304792E-02 -0.80154403E-02  0.68209676E-02
     atom    2 type  2   force =   0.97396907E-02  0.97034158E-02 -0.83045285E-02
     atom    3 type  1   force =  -0.47715278E-03 -0.57515985E-03 -0.13841348E-02
     atom    4 type  2   force =  -0.89741989E-02 -0.62350866E-02  0.66690363E-02
     atom    5 type  1   force =   0.69422885E-02  0.31007459E-02 -0.16199525E-02
     atom    6 type  2   force =  -0.32992844E-02  0.73444503E-03 -0.39389412E-02
     atom    7 type  1   force =   0.59831191E-02  0.59098823E-02 -0.21480225E-02
     atom    8 type  2   force =  -0.17839831E-02 -0.46228024E-02  0.39055756E-02

     Total force =     0.028350     Total SCF correction =     0.000109


     entering subroutine stress ...


     negative rho (up, down):  0.000E+00 1.227E-03
          total   stress  (Ry/bohr**3)                   (kbar)     P=    0.66
   0.0000068267  -0.0000016092   0.0000008719          1.00     -0.24      0.13
  -0.0000016092   0.0000034965   0.0000007405         -0.24      0.51      0.11
   0.0000008719   0.0000007405   0.0000031276          0.13      0.11      0.46


     Writing output data file mno_fm.scf.in.k.3.011.save

     init_run     :     69.59s CPU     82.15s WALL (       1 calls)
     electrons    :   3380.86s CPU   4413.82s WALL (       1 calls)
     forces       :    369.41s CPU    495.08s WALL (       1 calls)
     stress       :   1224.89s CPU   1666.14s WALL (       1 calls)

     Called by init_run:
     wfcinit      :     68.73s CPU     81.20s WALL (       1 calls)
     potinit      :      0.13s CPU      0.14s WALL (       1 calls)

     Called by electrons:
     c_bands      :   3065.76s CPU   4055.39s WALL (      15 calls)
     sum_band     :    311.72s CPU    354.71s WALL (      15 calls)
     v_of_rho     :      0.89s CPU      1.01s WALL (      16 calls)
     newd         :      1.75s CPU      1.86s WALL (      16 calls)
     mix_rho      :      0.69s CPU      0.73s WALL (      15 calls)

     Called by c_bands:
     init_us_2    :     13.20s CPU     14.02s WALL (   13376 calls)
     cegterg      :   2981.32s CPU   3960.42s WALL (    4560 calls)

     Called by *egterg:
     h_psi        :   1619.55s CPU   1963.24s WALL (   14664 calls)
     s_psi        :     92.27s CPU    122.96s WALL (   18008 calls)
     g_psi        :      1.50s CPU      1.65s WALL (    9800 calls)
     cdiaghg      :    424.41s CPU    798.73s WALL (   14360 calls)

     Called by h_psi:
     add_vuspsi   :     72.66s CPU     98.80s WALL (   14664 calls)
     vhpsi        :    224.13s CPU    374.88s WALL (   14664 calls)

     General routines
     calbec       :   2056.02s CPU   2752.33s WALL (  135728 calls)
     fft          :      0.90s CPU      0.90s WALL (     530 calls)
     ffts         :      0.38s CPU      0.43s WALL (     380 calls)
     fftw         :   1161.93s CPU   1272.85s WALL ( 1624504 calls)
     interpolate  :      0.18s CPU      0.19s WALL (      62 calls)
     davcio       :      0.02s CPU      0.28s WALL (     304 calls)

     Parallel routines
     fft_scatter  :    790.18s CPU    882.20s WALL ( 1625414 calls)
     Hubbard U routines
     new_ns       :     56.05s CPU     69.87s WALL (      15 calls)
     vhpsi        :    224.13s CPU    374.88s WALL (   14664 calls)
     force_hub    :    350.78s CPU    470.75s WALL (       1 calls)
     stres_hub    :   1197.83s CPU   1636.49s WALL (       1 calls)

     PWSCF        :     1h24m CPU        1h51m WALL


   This run was terminated on:   3:57:42  24Aug2017            

=------------------------------------------------------------------------------=
   JOB DONE.
=------------------------------------------------------------------------------=
