
     Program PWSCF v.5.1 starts on 24Aug2017 at  3:47:41 

     This program is part of the open-source Quantum ESPRESSO suite
     for quantum simulation of materials; please cite
         "P. Giannozzi et al., J. Phys.:Condens. Matter 21 395502 (2009);
          URL http://www.quantum-espresso.org", 
     in publications or presentations arising from this work. More details at
     http://www.quantum-espresso.org/quote

     Parallel version (MPI), running on     8 processors
     R & G space division:  proc/nbgrp/npool/nimage =       8
     Reading input from /tmp/mno_fm.scf.in.k.7.02.28002/mno_fm.scf.in.k.7.02.t
Warning: card &IONS ignored
Warning: card   ION_DYNAMICS='BFGS', ignored
Warning: card / ignored
Warning: card &CELL ignored
Warning: card  CELL_DYNAMICS = 'BFGS' ignored
Warning: card / ignored

     Current dimensions of program PWSCF are:
     Max number of different atomic species (ntypx) = 10
     Max number of k-points (npk) =  40000
     Max angular momentum in pseudopotentials (lmaxx) =  3
 kfg - two_fermi_energies  T

     Subspace diagonalization in iterative solution of the eigenvalue problem:
     a serial algorithm will be used

     warning: symmetry operation #  2 not compatible with FFT grid. 
  -1   1   0
   0   1   0
   0   0  -1
     warning: symmetry operation #  3 not compatible with FFT grid. 
   1  -1  -1
   0  -1   0
   0   0  -1
     warning: symmetry operation #  4 not compatible with FFT grid. 
  -1   0   1
   0  -1   0
   0   0   1
     warning: symmetry operation #  5 not compatible with FFT grid. 
  -1   1   1
   0   0   1
   0   1   0
     warning: symmetry operation #  7 not compatible with FFT grid. 
   1  -1   0
   0   0   1
   0  -1   0
     warning: symmetry operation #  8 not compatible with FFT grid. 
   1   0  -1
   0   0  -1
   0   1   0
     warning: symmetry operation # 10 not compatible with FFT grid. 
   1  -1   0
   0  -1   0
   0   0   1
     warning: symmetry operation # 11 not compatible with FFT grid. 
  -1   1   1
   0   1   0
   0   0   1
     warning: symmetry operation # 12 not compatible with FFT grid. 
   1   0  -1
   0   1   0
   0   0  -1
     warning: symmetry operation # 13 not compatible with FFT grid. 
   1  -1  -1
   0   0  -1
   0  -1   0
     warning: symmetry operation # 15 not compatible with FFT grid. 
  -1   1   0
   0   0  -1
   0   1   0
     warning: symmetry operation # 16 not compatible with FFT grid. 
  -1   0   1
   0   0   1
   0  -1   0

     Parallelization info
     --------------------
     sticks:   dense  smooth     PW     G-vecs:    dense   smooth      PW
     Min         160     131     41                 3639     2692     488
     Max         161     132     42                 3641     2699     491
     Sum        1285    1051    329                29119    21563    3907

     Generating pointlists ...
     new r_m :   0.1654 (alat units)  1.7182 (a.u.) for type    1
     new r_m :   0.1654 (alat units)  1.7182 (a.u.) for type    2


     bravais-lattice index     =            0
     lattice parameter (alat)  =    10.388967996  a.u.
     unit-cell volume          =     610.3520 (a.u.)^3
     number of atoms/cell      =            8
     number of atomic types    =            2
     number of electrons       =        84.00 (up:  52.00, down:  32.00)
     number of Kohn-Sham states=           62
     kinetic-energy cutoff     =      41.0000  Ry
     charge density cutoff     =     200.0000  Ry
     convergence threshold     =      1.0E-08
     mixing beta               =       0.3000
     number of iterations used =            8  local-TF  mixing
     Exchange-correlation      = SLA  PW   PSX  PSC ( 1  4 10  8 0)
     A smooth kinetic-energy cutoff is imposed at      40.0000 Ry
     height of the smooth step-function =             800.0000 Ry
     width of the smooth step-function  =               1.0000 Ry


     celldm(1)=  10.388968  celldm(2)=   0.000000  celldm(3)=   0.000000
     celldm(4)=   0.000000  celldm(5)=   0.000000  celldm(6)=   0.000000

     crystal axes: (cart. coord. in units of alat)
               a(1) = (   0.408248290464   0.816496580928   0.408248290464 )  
               a(2) = (   0.000000000000   0.000000000000   0.816496580928 )  
               a(3) = (   0.816496580928   0.000000000000   0.000000000000 )  

     reciprocal axes: (cart. coord. in units 2 pi/alat)
               b(1) = (  0.000000  1.224745  0.000000 )  
               b(2) = (  0.000000 -0.612372  1.224745 )  
               b(3) = (  1.224745 -0.612372  0.000000 )  


     PseudoPot. # 1 for Mn read from file:
     /users/kfg/psuedo/gbrv_1.5/mn.pbesol.UPF
     MD5 check sum: 0716d5f563e6e95a34f9080f4c78c109
     Pseudo is Ultrasoft + core correction, Zval = 15.0
     Generated by new atomic code, or converted to UPF format
     Using radial grid of  859 points,  6 beta functions with: 
                l(1) =   0
                l(2) =   0
                l(3) =   1
                l(4) =   1
                l(5) =   2
                l(6) =   2
     Q(r) pseudized with  8 coefficients,  rinner =    0.950   0.950   0.950
                                                       0.950   0.950

     PseudoPot. # 2 for O  read from file:
     /users/kfg/psuedo/gbrv_1.5/o.pbesol.UPF
     MD5 check sum: 501638753501ef6325af9037351f7734
     Pseudo is Ultrasoft + core correction, Zval =  6.0
     Generated by new atomic code, or converted to UPF format
     Using radial grid of  737 points,  5 beta functions with: 
                l(1) =   0
                l(2) =   0
                l(3) =   1
                l(4) =   1
                l(5) =   2
     Q(r) pseudized with  8 coefficients,  rinner =    0.900   0.900   0.900
                                                       0.900   0.900

     atomic species   valence    mass     pseudopotential
        Mn            15.00    54.90000     Mn( 1.00)
        O              6.00    15.99900     O ( 1.00)

     Starting magnetic structure 
     atomic species   magnetization
        Mn           1.000
        O            0.000


     Simplified LDA+U calculation (l_max = 2) with parameters (eV):
     atomic species    L          U    alpha       J0     beta
        Mn             2     3.0000   0.0000   0.0000   0.0000



     No symmetry found



   Cartesian axes

     site n.     atom                  positions (alat units)
         1           Mn  tau(   1) = (    0.00316982079    0.00044275054    0.00371036460  )
         2           O   tau(   2) = (    0.40597636171    0.40751512986    0.41240256965  )
         3           Mn  tau(   3) = (    0.81900114955    0.40410932928    0.40927969053  )
         4           O   tau(   4) = (    0.00473301165    0.00318069720    0.40972520827  )
         5           Mn  tau(   5) = (    0.40576566007   -0.00095653200    0.40645310074  )
         6           O   tau(   6) = (    0.81900826308    0.40423085878    0.81697146812  )
         7           Mn  tau(   7) = (    0.41242249685    0.40846384711    0.81703335057  )
         8           O   tau(   8) = (    0.40752916423    0.00034261611   -0.00185333347  )

     number of k points=   562  gaussian smearing, width (Ry)=  0.0100

     Number of k-points >= 100: set verbosity='high' to print them.

     Dense  grid:    29119 G-vectors     FFT dimensions: (  48,  40,  40)

     Smooth grid:    21563 G-vectors     FFT dimensions: (  45,  36,  36)

     Largest allocated arrays     est. size (Mb)     dimensions
        Kohn-Sham Wavefunctions         0.35 Mb     (     367,   62)
        Atomic Hubbard wavefuncts       0.11 Mb     (     367,   20)
        NL pseudopotentials             0.69 Mb     (     367,  124)
        Each V/rho on FFT grid          0.29 Mb     (    9600,   2)
        Each G-vector array             0.03 Mb     (    3641)
        G-vector shells                 0.00 Mb     (     477)
     Largest temporary arrays     est. size (Mb)     dimensions
        Auxiliary wavefunctions         1.39 Mb     (     367,  248)
        Each subspace H/S matrix        0.94 Mb     (     248,  248)
        Each <psi_i|beta_j> matrix      0.12 Mb     (     124,   62)
        Arrays for rho mixing           1.17 Mb     (    9600,    8)

     Check: negative/imaginary core charge=   -0.000057    0.000000

     Initial potential from superposition of free atoms

     starting charge   81.99968, renormalised to   84.00000
     Number of +U iterations with fixed ns =  0
     Starting occupations:
 --- enter write_ns ---
 LDA+U parameters:
U( 1)     =  3.00000000
alpha( 1) =  0.00000000
atom    1   Tr[ns(na)] (up, down, total) =   5.00000  0.00000  5.00000
   spin  1
    eigenvalues: 
  1.000  1.000  1.000  1.000  1.000
    eigenvectors:
  1.000  0.000  0.000  0.000  0.000
  0.000  1.000  0.000  0.000  0.000
  0.000  0.000  1.000  0.000  0.000
  0.000  0.000  0.000  1.000  0.000
  0.000  0.000  0.000  0.000  1.000
    occupations:
  1.000  0.000  0.000  0.000  0.000
  0.000  1.000  0.000  0.000  0.000
  0.000  0.000  1.000  0.000  0.000
  0.000  0.000  0.000  1.000  0.000
  0.000  0.000  0.000  0.000  1.000
   spin  2
    eigenvalues: 
  0.000  0.000  0.000  0.000  0.000
    eigenvectors:
  1.000  0.000  0.000  0.000  0.000
  0.000  1.000  0.000  0.000  0.000
  0.000  0.000  1.000  0.000  0.000
  0.000  0.000  0.000  1.000  0.000
  0.000  0.000  0.000  0.000  1.000
    occupations:
  0.000  0.000  0.000  0.000  0.000
  0.000  0.000  0.000  0.000  0.000
  0.000  0.000  0.000  0.000  0.000
  0.000  0.000  0.000  0.000  0.000
  0.000  0.000  0.000  0.000  0.000
atomic mag. moment =     5.000000
atom    3   Tr[ns(na)] (up, down, total) =   5.00000  0.00000  5.00000
   spin  1
    eigenvalues: 
  1.000  1.000  1.000  1.000  1.000
    eigenvectors:
  1.000  0.000  0.000  0.000  0.000
  0.000  1.000  0.000  0.000  0.000
  0.000  0.000  1.000  0.000  0.000
  0.000  0.000  0.000  1.000  0.000
  0.000  0.000  0.000  0.000  1.000
    occupations:
  1.000  0.000  0.000  0.000  0.000
  0.000  1.000  0.000  0.000  0.000
  0.000  0.000  1.000  0.000  0.000
  0.000  0.000  0.000  1.000  0.000
  0.000  0.000  0.000  0.000  1.000
   spin  2
    eigenvalues: 
  0.000  0.000  0.000  0.000  0.000
    eigenvectors:
  1.000  0.000  0.000  0.000  0.000
  0.000  1.000  0.000  0.000  0.000
  0.000  0.000  1.000  0.000  0.000
  0.000  0.000  0.000  1.000  0.000
  0.000  0.000  0.000  0.000  1.000
    occupations:
  0.000  0.000  0.000  0.000  0.000
  0.000  0.000  0.000  0.000  0.000
  0.000  0.000  0.000  0.000  0.000
  0.000  0.000  0.000  0.000  0.000
  0.000  0.000  0.000  0.000  0.000
atomic mag. moment =     5.000000
atom    5   Tr[ns(na)] (up, down, total) =   5.00000  0.00000  5.00000
   spin  1
    eigenvalues: 
  1.000  1.000  1.000  1.000  1.000
    eigenvectors:
  1.000  0.000  0.000  0.000  0.000
  0.000  1.000  0.000  0.000  0.000
  0.000  0.000  1.000  0.000  0.000
  0.000  0.000  0.000  1.000  0.000
  0.000  0.000  0.000  0.000  1.000
    occupations:
  1.000  0.000  0.000  0.000  0.000
  0.000  1.000  0.000  0.000  0.000
  0.000  0.000  1.000  0.000  0.000
  0.000  0.000  0.000  1.000  0.000
  0.000  0.000  0.000  0.000  1.000
   spin  2
    eigenvalues: 
  0.000  0.000  0.000  0.000  0.000
    eigenvectors:
  1.000  0.000  0.000  0.000  0.000
  0.000  1.000  0.000  0.000  0.000
  0.000  0.000  1.000  0.000  0.000
  0.000  0.000  0.000  1.000  0.000
  0.000  0.000  0.000  0.000  1.000
    occupations:
  0.000  0.000  0.000  0.000  0.000
  0.000  0.000  0.000  0.000  0.000
  0.000  0.000  0.000  0.000  0.000
  0.000  0.000  0.000  0.000  0.000
  0.000  0.000  0.000  0.000  0.000
atomic mag. moment =     5.000000
atom    7   Tr[ns(na)] (up, down, total) =   5.00000  0.00000  5.00000
   spin  1
    eigenvalues: 
  1.000  1.000  1.000  1.000  1.000
    eigenvectors:
  1.000  0.000  0.000  0.000  0.000
  0.000  1.000  0.000  0.000  0.000
  0.000  0.000  1.000  0.000  0.000
  0.000  0.000  0.000  1.000  0.000
  0.000  0.000  0.000  0.000  1.000
    occupations:
  1.000  0.000  0.000  0.000  0.000
  0.000  1.000  0.000  0.000  0.000
  0.000  0.000  1.000  0.000  0.000
  0.000  0.000  0.000  1.000  0.000
  0.000  0.000  0.000  0.000  1.000
   spin  2
    eigenvalues: 
  0.000  0.000  0.000  0.000  0.000
    eigenvectors:
  1.000  0.000  0.000  0.000  0.000
  0.000  1.000  0.000  0.000  0.000
  0.000  0.000  1.000  0.000  0.000
  0.000  0.000  0.000  1.000  0.000
  0.000  0.000  0.000  0.000  1.000
    occupations:
  0.000  0.000  0.000  0.000  0.000
  0.000  0.000  0.000  0.000  0.000
  0.000  0.000  0.000  0.000  0.000
  0.000  0.000  0.000  0.000  0.000
  0.000  0.000  0.000  0.000  0.000
atomic mag. moment =     5.000000
N of occupied +U levels =   20.000000
 --- exit write_ns ---
 Atomic wfc used for LDA+U Projector are NOT orthogonalized
     Starting wfc are   68 randomized atomic wfcs

     total cpu time spent up to now is      133.9 secs

     Self-consistent Calculation

     iteration #  1     ecut=    41.00 Ry     beta=0.30
     Davidson diagonalization with overlap
     ethr =  1.00E-02,  avg # of iterations =  3.3
 --- enter write_ns ---
 LDA+U parameters:
U( 1)     =  3.00000000
alpha( 1) =  0.00000000
atom    1   Tr[ns(na)] (up, down, total) =   4.98813  0.19500  5.18313
   spin  1
    eigenvalues: 
  0.997  0.997  0.998  0.998  0.998
    eigenvectors:
  0.009  0.991  0.000  0.000  0.000
  0.000  0.000  0.633  0.367  0.000
  0.000  0.000  0.367  0.633  0.000
  0.991  0.009  0.000  0.000  0.000
  0.000  0.000  0.000  0.000  1.000
    occupations:
  0.997  0.000  0.000  0.000  0.000
  0.000  0.998  0.000 -0.000 -0.000
  0.000  0.000  0.998  0.000  0.000
  0.000 -0.000  0.000  0.997  0.000
  0.000 -0.000  0.000  0.000  0.998
   spin  2
    eigenvalues: 
  0.021  0.021  0.021  0.066  0.067
    eigenvectors:
  0.000  0.000  0.000  0.786  0.214
  0.962  0.017  0.021  0.000  0.000
  0.024  0.944  0.032  0.000  0.000
  0.000  0.000  0.000  0.214  0.786
  0.014  0.039  0.947  0.000  0.000
    occupations:
  0.066 -0.000 -0.000  0.000 -0.000
 -0.000  0.021  0.000  0.000  0.000
 -0.000  0.000  0.021 -0.000  0.000
  0.000  0.000 -0.000  0.067 -0.000
 -0.000  0.000  0.000 -0.000  0.021
atomic mag. moment =     4.793131
atom    3   Tr[ns(na)] (up, down, total) =   4.98806  0.19500  5.18306
   spin  1
    eigenvalues: 
  0.997  0.997  0.998  0.998  0.998
    eigenvectors:
  0.001  0.998  0.000  0.000  0.000
  0.000  0.000  0.663  0.062  0.274
  0.000  0.000  0.222  0.659  0.119
  0.998  0.001  0.000  0.000  0.000
  0.000  0.000  0.115  0.279  0.606
    occupations:
  0.997 -0.000  0.000  0.000 -0.000
 -0.000  0.998  0.000  0.000  0.000
  0.000  0.000  0.998 -0.000  0.000
  0.000  0.000 -0.000  0.997 -0.000
 -0.000  0.000  0.000 -0.000  0.998
   spin  2
    eigenvalues: 
  0.021  0.021  0.021  0.066  0.067
    eigenvectors:
  0.000  0.000  0.000  0.780  0.220
  0.942  0.052  0.005  0.000  0.000
  0.058  0.880  0.062  0.000  0.000
  0.000  0.000  0.000  0.220  0.780
  0.000  0.067  0.932  0.000  0.000
    occupations:
  0.066  0.000 -0.000  0.000  0.000
  0.000  0.021 -0.000 -0.000  0.000
 -0.000 -0.000  0.021 -0.000 -0.000
  0.000 -0.000 -0.000  0.067  0.000
  0.000  0.000 -0.000  0.000  0.021
atomic mag. moment =     4.793058
atom    5   Tr[ns(na)] (up, down, total) =   4.98821  0.19205  5.18026
   spin  1
    eigenvalues: 
  0.997  0.997  0.998  0.998  0.998
    eigenvectors:
  0.721  0.279  0.000  0.000  0.000
  0.000  0.000  0.010  0.400  0.590
  0.000  0.000  0.001  0.593  0.406
  0.279  0.721  0.000  0.000  0.000
  0.000  0.000  0.989  0.007  0.004
    occupations:
  0.997  0.000 -0.000  0.000 -0.000
  0.000  0.998 -0.000 -0.000  0.000
 -0.000 -0.000  0.998 -0.000  0.000
  0.000 -0.000 -0.000  0.997  0.000
 -0.000  0.000  0.000  0.000  0.998
   spin  2
    eigenvalues: 
  0.020  0.020  0.021  0.065  0.066
    eigenvectors:
  0.000  0.000  0.000  0.281  0.719
  0.022  0.017  0.961  0.000  0.000
  0.976  0.004  0.020  0.000  0.000
  0.000  0.000  0.000  0.719  0.281
  0.002  0.979  0.019  0.000  0.000
    occupations:
  0.066 -0.000  0.000 -0.000  0.000
 -0.000  0.021 -0.000  0.000 -0.000
  0.000 -0.000  0.020  0.000  0.000
 -0.000  0.000  0.000  0.065  0.000
  0.000 -0.000  0.000  0.000  0.020
atomic mag. moment =     4.796153
atom    7   Tr[ns(na)] (up, down, total) =   4.98828  0.19197  5.18025
   spin  1
    eigenvalues: 
  0.997  0.997  0.998  0.998  0.998
    eigenvectors:
  0.800  0.200  0.000  0.000  0.000
  0.000  0.000  0.275  0.065  0.660
  0.000  0.000  0.125  0.644  0.231
  0.200  0.800  0.000  0.000  0.000
  0.000  0.000  0.600  0.290  0.109
    occupations:
  0.997  0.000 -0.000  0.000  0.000
  0.000  0.998 -0.000 -0.000 -0.000
 -0.000 -0.000  0.998  0.000  0.000
  0.000 -0.000  0.000  0.997  0.000
  0.000 -0.000  0.000  0.000  0.998
   spin  2
    eigenvalues: 
  0.020  0.020  0.021  0.065  0.066
    eigenvectors:
  0.000  0.000  0.000  0.234  0.766
  0.038  0.022  0.939  0.000  0.000
  0.782  0.160  0.058  0.000  0.000
  0.000  0.000  0.000  0.766  0.234
  0.179  0.818  0.003  0.000  0.000
    occupations:
  0.066 -0.000  0.000 -0.000 -0.000
 -0.000  0.021  0.000 -0.000 -0.000
  0.000  0.000  0.020  0.000 -0.000
 -0.000 -0.000  0.000  0.065 -0.000
 -0.000 -0.000 -0.000 -0.000  0.020
atomic mag. moment =     4.796305
N of occupied +U levels =   20.726695
 --- exit write_ns ---

     negative rho (up, down):  0.000E+00 7.343E-04

     Magnetic moment per site:
     atom:    1    charge:   12.7601    magn:   10.2266    constr:    0.0000
     atom:    2    charge:    5.6752    magn:    0.1809    constr:    0.0000
     atom:    3    charge:   12.7603    magn:   10.2267    constr:    0.0000
     atom:    4    charge:    5.6802    magn:    0.1847    constr:    0.0000
     atom:    5    charge:   12.7589    magn:   10.2264    constr:    0.0000
     atom:    6    charge:    5.6771    magn:    0.1824    constr:    0.0000
     atom:    7    charge:   12.7588    magn:   10.2265    constr:    0.0000
     atom:    8    charge:    5.6731    magn:    0.1793    constr:    0.0000

     total cpu time spent up to now is      674.9 secs

     total energy              =    -968.91438978 Ry
     Harris-Foulkes estimate   =    -960.51550594 Ry
     estimated scf accuracy    <      12.82367492 Ry

     total magnetization       =    20.00 Bohr mag/cell
     absolute magnetization    =    20.90 Bohr mag/cell

     iteration #  2     ecut=    41.00 Ry     beta=0.30
     Davidson diagonalization with overlap
     ethr =  1.00E-02,  avg # of iterations =  1.1

     negative rho (up, down):  0.000E+00 2.746E-03

     Magnetic moment per site:
     atom:    1    charge:   12.6459    magn:    4.5344    constr:    0.0000
     atom:    2    charge:    5.8970    magn:   -0.0505    constr:    0.0000
     atom:    3    charge:   12.6461    magn:    4.5343    constr:    0.0000
     atom:    4    charge:    5.9027    magn:   -0.0487    constr:    0.0000
     atom:    5    charge:   12.6451    magn:    4.5338    constr:    0.0000
     atom:    6    charge:    5.8992    magn:   -0.0498    constr:    0.0000
     atom:    7    charge:   12.6450    magn:    4.5340    constr:    0.0000
     atom:    8    charge:    5.8948    magn:   -0.0513    constr:    0.0000

     total cpu time spent up to now is      989.3 secs

     total energy              =    -972.81989469 Ry
     Harris-Foulkes estimate   =    -969.04572718 Ry
     estimated scf accuracy    <       6.32716594 Ry

     total magnetization       =    20.00 Bohr mag/cell
     absolute magnetization    =    20.61 Bohr mag/cell

     iteration #  3     ecut=    41.00 Ry     beta=0.30
     Davidson diagonalization with overlap
     ethr =  7.53E-03,  avg # of iterations =  2.0

     negative rho (up, down):  0.000E+00 3.007E-03

     Magnetic moment per site:
     atom:    1    charge:   12.5794    magn:    4.2735    constr:    0.0000
     atom:    2    charge:    5.8771    magn:    0.0613    constr:    0.0000
     atom:    3    charge:   12.5797    magn:    4.2734    constr:    0.0000
     atom:    4    charge:    5.8830    magn:    0.0635    constr:    0.0000
     atom:    5    charge:   12.5781    magn:    4.2740    constr:    0.0000
     atom:    6    charge:    5.8794    magn:    0.0622    constr:    0.0000
     atom:    7    charge:   12.5780    magn:    4.2743    constr:    0.0000
     atom:    8    charge:    5.8747    magn:    0.0604    constr:    0.0000

     total cpu time spent up to now is     1351.9 secs

     total energy              =    -973.07717189 Ry
     Harris-Foulkes estimate   =    -973.12765775 Ry
     estimated scf accuracy    <       0.18357105 Ry

     total magnetization       =    20.00 Bohr mag/cell
     absolute magnetization    =    20.00 Bohr mag/cell

     iteration #  4     ecut=    41.00 Ry     beta=0.30
     Davidson diagonalization with overlap
     ethr =  2.19E-04,  avg # of iterations =  2.3

     negative rho (up, down):  0.000E+00 3.073E-03

     Magnetic moment per site:
     atom:    1    charge:   12.5665    magn:    4.1894    constr:    0.0000
     atom:    2    charge:    5.8852    magn:    0.0796    constr:    0.0000
     atom:    3    charge:   12.5667    magn:    4.1893    constr:    0.0000
     atom:    4    charge:    5.8911    magn:    0.0818    constr:    0.0000
     atom:    5    charge:   12.5650    magn:    4.1902    constr:    0.0000
     atom:    6    charge:    5.8875    magn:    0.0805    constr:    0.0000
     atom:    7    charge:   12.5648    magn:    4.1905    constr:    0.0000
     atom:    8    charge:    5.8828    magn:    0.0787    constr:    0.0000

     total cpu time spent up to now is     1726.9 secs

     total energy              =    -973.10410380 Ry
     Harris-Foulkes estimate   =    -973.10596482 Ry
     estimated scf accuracy    <       0.01379501 Ry

     total magnetization       =    20.00 Bohr mag/cell
     absolute magnetization    =    20.00 Bohr mag/cell

     iteration #  5     ecut=    41.00 Ry     beta=0.30
     Davidson diagonalization with overlap
     ethr =  1.64E-05,  avg # of iterations =  2.4

     negative rho (up, down):  0.000E+00 3.149E-03

     Magnetic moment per site:
     atom:    1    charge:   12.5325    magn:    4.2573    constr:    0.0000
     atom:    2    charge:    5.8929    magn:    0.1557    constr:    0.0000
     atom:    3    charge:   12.5328    magn:    4.2573    constr:    0.0000
     atom:    4    charge:    5.8988    magn:    0.1579    constr:    0.0000
     atom:    5    charge:   12.5306    magn:    4.2587    constr:    0.0000
     atom:    6    charge:    5.8951    magn:    0.1566    constr:    0.0000
     atom:    7    charge:   12.5304    magn:    4.2590    constr:    0.0000
     atom:    8    charge:    5.8905    magn:    0.1546    constr:    0.0000

     total cpu time spent up to now is     2074.0 secs

     total energy              =    -973.10452513 Ry
     Harris-Foulkes estimate   =    -973.10480500 Ry
     estimated scf accuracy    <       0.00619514 Ry

     total magnetization       =    20.00 Bohr mag/cell
     absolute magnetization    =    20.00 Bohr mag/cell
 kfg - setting two_fermi_energies to FALSE

     iteration #  6     ecut=    41.00 Ry     beta=0.30
     Davidson diagonalization with overlap
     ethr =  7.38E-06,  avg # of iterations =  2.1

     negative rho (up, down):  0.000E+00 3.147E-03

     Magnetic moment per site:
     atom:    1    charge:   12.5265    magn:    4.2573    constr:    0.0000
     atom:    2    charge:    5.8938    magn:    0.1708    constr:    0.0000
     atom:    3    charge:   12.5268    magn:    4.2572    constr:    0.0000
     atom:    4    charge:    5.8998    magn:    0.1731    constr:    0.0000
     atom:    5    charge:   12.5244    magn:    4.2587    constr:    0.0000
     atom:    6    charge:    5.8961    magn:    0.1717    constr:    0.0000
     atom:    7    charge:   12.5242    magn:    4.2591    constr:    0.0000
     atom:    8    charge:    5.8914    magn:    0.1698    constr:    0.0000

     total cpu time spent up to now is     2429.3 secs

     total energy              =    -973.10590167 Ry
     Harris-Foulkes estimate   =    -973.10583768 Ry
     estimated scf accuracy    <       0.00024624 Ry

     total magnetization       =    20.00 Bohr mag/cell
     absolute magnetization    =    20.00 Bohr mag/cell

     iteration #  7     ecut=    41.00 Ry     beta=0.30
     Davidson diagonalization with overlap
     ethr =  2.93E-07,  avg # of iterations =  2.1

     negative rho (up, down):  0.000E+00 3.132E-03

     Magnetic moment per site:
     atom:    1    charge:   12.5263    magn:    4.2480    constr:    0.0000
     atom:    2    charge:    5.8934    magn:    0.1734    constr:    0.0000
     atom:    3    charge:   12.5265    magn:    4.2479    constr:    0.0000
     atom:    4    charge:    5.8994    magn:    0.1756    constr:    0.0000
     atom:    5    charge:   12.5241    magn:    4.2494    constr:    0.0000
     atom:    6    charge:    5.8957    magn:    0.1743    constr:    0.0000
     atom:    7    charge:   12.5239    magn:    4.2497    constr:    0.0000
     atom:    8    charge:    5.8910    magn:    0.1724    constr:    0.0000

     total cpu time spent up to now is     2785.1 secs

     total energy              =    -973.10596917 Ry
     Harris-Foulkes estimate   =    -973.10595809 Ry
     estimated scf accuracy    <       0.00005346 Ry

     total magnetization       =    20.00 Bohr mag/cell
     absolute magnetization    =    20.00 Bohr mag/cell

     iteration #  8     ecut=    41.00 Ry     beta=0.30
     Davidson diagonalization with overlap
     ethr =  6.36E-08,  avg # of iterations =  1.6

     negative rho (up, down):  0.000E+00 3.105E-03

     Magnetic moment per site:
     atom:    1    charge:   12.5273    magn:    4.2466    constr:    0.0000
     atom:    2    charge:    5.8929    magn:    0.1759    constr:    0.0000
     atom:    3    charge:   12.5275    magn:    4.2465    constr:    0.0000
     atom:    4    charge:    5.8988    magn:    0.1780    constr:    0.0000
     atom:    5    charge:   12.5250    magn:    4.2480    constr:    0.0000
     atom:    6    charge:    5.8951    magn:    0.1767    constr:    0.0000
     atom:    7    charge:   12.5248    magn:    4.2483    constr:    0.0000
     atom:    8    charge:    5.8905    magn:    0.1749    constr:    0.0000

     total cpu time spent up to now is     3088.1 secs

     total energy              =    -973.10598002 Ry
     Harris-Foulkes estimate   =    -973.10597817 Ry
     estimated scf accuracy    <       0.00000602 Ry

     total magnetization       =    20.00 Bohr mag/cell
     absolute magnetization    =    20.00 Bohr mag/cell

     iteration #  9     ecut=    41.00 Ry     beta=0.30
     Davidson diagonalization with overlap
     ethr =  7.17E-09,  avg # of iterations =  2.0

     negative rho (up, down):  0.000E+00 3.102E-03

     Magnetic moment per site:
     atom:    1    charge:   12.5272    magn:    4.2465    constr:    0.0000
     atom:    2    charge:    5.8928    magn:    0.1770    constr:    0.0000
     atom:    3    charge:   12.5275    magn:    4.2465    constr:    0.0000
     atom:    4    charge:    5.8987    magn:    0.1791    constr:    0.0000
     atom:    5    charge:   12.5249    magn:    4.2479    constr:    0.0000
     atom:    6    charge:    5.8951    magn:    0.1779    constr:    0.0000
     atom:    7    charge:   12.5247    magn:    4.2483    constr:    0.0000
     atom:    8    charge:    5.8904    magn:    0.1761    constr:    0.0000

     total cpu time spent up to now is     3429.4 secs

     total energy              =    -973.10598177 Ry
     Harris-Foulkes estimate   =    -973.10598176 Ry
     estimated scf accuracy    <       0.00000124 Ry

     total magnetization       =    20.00 Bohr mag/cell
     absolute magnetization    =    20.00 Bohr mag/cell

     iteration # 10     ecut=    41.00 Ry     beta=0.30
     Davidson diagonalization with overlap
     ethr =  1.47E-09,  avg # of iterations =  2.0

     negative rho (up, down):  0.000E+00 3.105E-03

     Magnetic moment per site:
     atom:    1    charge:   12.5273    magn:    4.2465    constr:    0.0000
     atom:    2    charge:    5.8928    magn:    0.1772    constr:    0.0000
     atom:    3    charge:   12.5275    magn:    4.2464    constr:    0.0000
     atom:    4    charge:    5.8987    magn:    0.1793    constr:    0.0000
     atom:    5    charge:   12.5250    magn:    4.2478    constr:    0.0000
     atom:    6    charge:    5.8950    magn:    0.1780    constr:    0.0000
     atom:    7    charge:   12.5248    magn:    4.2482    constr:    0.0000
     atom:    8    charge:    5.8904    magn:    0.1763    constr:    0.0000

     total cpu time spent up to now is     3787.1 secs

     total energy              =    -973.10598217 Ry
     Harris-Foulkes estimate   =    -973.10598206 Ry
     estimated scf accuracy    <       0.00000005 Ry

     total magnetization       =    20.00 Bohr mag/cell
     absolute magnetization    =    20.00 Bohr mag/cell

     iteration # 11     ecut=    41.00 Ry     beta=0.30
     Davidson diagonalization with overlap
     ethr =  5.69E-11,  avg # of iterations =  2.0

     negative rho (up, down):  0.000E+00 3.105E-03

     Magnetic moment per site:
     atom:    1    charge:   12.5273    magn:    4.2465    constr:    0.0000
     atom:    2    charge:    5.8928    magn:    0.1772    constr:    0.0000
     atom:    3    charge:   12.5276    magn:    4.2464    constr:    0.0000
     atom:    4    charge:    5.8987    magn:    0.1793    constr:    0.0000
     atom:    5    charge:   12.5250    magn:    4.2479    constr:    0.0000
     atom:    6    charge:    5.8950    magn:    0.1781    constr:    0.0000
     atom:    7    charge:   12.5248    magn:    4.2482    constr:    0.0000
     atom:    8    charge:    5.8904    magn:    0.1763    constr:    0.0000

     total cpu time spent up to now is     4165.4 secs

     End of self-consistent calculation
 --- enter write_ns ---
 LDA+U parameters:
U( 1)     =  3.00000000
alpha( 1) =  0.00000000
atom    1   Tr[ns(na)] (up, down, total) =   4.99167  0.46219  5.45386
   spin  1
    eigenvalues: 
  0.997  0.997  0.999  0.999  0.999
    eigenvectors:
  0.010  0.990  0.000  0.000  0.000
  0.000  0.000  0.431  0.569  0.000
  0.000  0.000  0.569  0.431  0.000
  0.990  0.010  0.000  0.000  0.000
  0.000  0.000  0.000  0.000  1.000
    occupations:
  0.997  0.000  0.000  0.000  0.000
  0.000  0.999  0.000 -0.000  0.000
  0.000  0.000  0.999  0.000 -0.000
  0.000 -0.000  0.000  0.997  0.000
  0.000  0.000 -0.000  0.000  0.999
   spin  2
    eigenvalues: 
  0.052  0.052  0.053  0.152  0.154
    eigenvectors:
  0.000  0.000  0.000  0.870  0.130
  0.988  0.006  0.006  0.000  0.000
  0.007  0.993  0.000  0.000  0.000
  0.000  0.000  0.000  0.130  0.869
  0.005  0.001  0.994  0.000  0.000
    occupations:
  0.152 -0.000 -0.000  0.001 -0.000
 -0.000  0.052  0.000  0.000  0.000
 -0.000  0.000  0.052 -0.000  0.000
  0.001  0.000 -0.000  0.154 -0.000
 -0.000  0.000  0.000 -0.000  0.053
atomic mag. moment =     4.529488
atom    3   Tr[ns(na)] (up, down, total) =   4.99163  0.46229  5.45392
   spin  1
    eigenvalues: 
  0.997  0.997  0.999  0.999  0.999
    eigenvectors:
  0.000  0.999  0.000  0.000  0.000
  0.000  0.000  0.625  0.040  0.335
  0.000  0.000  0.200  0.696  0.104
  0.999  0.000  0.000  0.000  0.000
  0.000  0.000  0.175  0.263  0.561
    occupations:
  0.997 -0.000  0.000  0.000 -0.000
 -0.000  0.999  0.000  0.000  0.000
  0.000  0.000  0.999  0.000  0.000
  0.000  0.000  0.000  0.997 -0.000
 -0.000  0.000  0.000 -0.000  0.999
   spin  2
    eigenvalues: 
  0.052  0.052  0.053  0.152  0.154
    eigenvectors:
  0.000  0.000  0.000  0.814  0.185
  0.937  0.058  0.005  0.000  0.000
  0.057  0.942  0.001  0.000  0.000
  0.000  0.000  0.000  0.186  0.814
  0.006  0.000  0.994  0.000  0.000
    occupations:
  0.152  0.000 -0.000  0.001  0.001
  0.000  0.052 -0.000 -0.000 -0.000
 -0.000 -0.000  0.052 -0.000 -0.000
  0.001 -0.000 -0.000  0.153  0.001
  0.001 -0.000 -0.000  0.001  0.053
atomic mag. moment =     4.529331
atom    5   Tr[ns(na)] (up, down, total) =   4.99211  0.45799  5.45010
   spin  1
    eigenvalues: 
  0.997  0.998  0.999  0.999  0.999
    eigenvectors:
  0.727  0.272  0.000  0.000  0.000
  0.000  0.000  0.008  0.654  0.338
  0.000  0.000  0.000  0.340  0.660
  0.272  0.727  0.000  0.000  0.000
  0.000  0.000  0.992  0.005  0.003
    occupations:
  0.997  0.000 -0.000  0.000 -0.000
  0.000  0.999 -0.000 -0.000  0.000
 -0.000 -0.000  0.999 -0.000 -0.000
  0.000 -0.000 -0.000  0.997  0.000
 -0.000  0.000 -0.000  0.000  0.999
   spin  2
    eigenvalues: 
  0.051  0.051  0.052  0.150  0.153
    eigenvectors:
  0.000  0.000  0.000  0.206  0.794
  0.008  0.007  0.985  0.000  0.000
  0.002  0.990  0.007  0.000  0.000
  0.000  0.000  0.000  0.794  0.206
  0.990  0.003  0.007  0.000  0.000
    occupations:
  0.152 -0.000  0.000 -0.001  0.000
 -0.000  0.052 -0.000  0.000 -0.000
  0.000 -0.000  0.051  0.000  0.000
 -0.001  0.000  0.000  0.151  0.000
  0.000 -0.000  0.000  0.000  0.051
atomic mag. moment =     4.534118
atom    7   Tr[ns(na)] (up, down, total) =   4.99216  0.45766  5.44982
   spin  1
    eigenvalues: 
  0.997  0.998  0.999  0.999  0.999
    eigenvectors:
  0.817  0.183  0.000  0.000  0.000
  0.000  0.000  0.328  0.067  0.605
  0.000  0.000  0.085  0.676  0.238
  0.183  0.817  0.000  0.000  0.000
  0.000  0.000  0.587  0.257  0.156
    occupations:
  0.997  0.000 -0.000  0.000  0.000
  0.000  0.999 -0.000 -0.000 -0.000
 -0.000 -0.000  0.999 -0.000  0.000
  0.000 -0.000 -0.000  0.998  0.000
  0.000 -0.000  0.000  0.000  0.999
   spin  2
    eigenvalues: 
  0.051  0.051  0.052  0.150  0.152
    eigenvectors:
  0.000  0.000  0.000  0.197  0.803
  0.023  0.037  0.940  0.000  0.000
  0.181  0.762  0.057  0.000  0.000
  0.000  0.000  0.000  0.803  0.197
  0.796  0.201  0.003  0.000  0.000
    occupations:
  0.152 -0.000  0.000 -0.001 -0.001
 -0.000  0.052  0.000 -0.000  0.000
  0.000  0.000  0.051  0.000 -0.000
 -0.001 -0.000  0.000  0.151 -0.001
 -0.001  0.000 -0.000 -0.001  0.051
atomic mag. moment =     4.534507
N of occupied +U levels =   21.807692
 --- exit write_ns ---

     Number of k-points >= 100: set verbosity='high' to print the bands.

     the Fermi energy is    12.4724 ev

!    total energy              =    -973.10598228 Ry
     Harris-Foulkes estimate   =    -973.10598218 Ry
     estimated scf accuracy    <          6.9E-09 Ry

     The total energy is the sum of the following terms:

     one-electron contribution =    -447.63664142 Ry
     hartree contribution      =     266.03302556 Ry
     xc contribution           =    -135.00844539 Ry
     ewald contribution        =    -656.67629874 Ry
     Hubbard energy            =       0.18246692 Ry
     smearing contrib. (-TS)   =      -0.00008921 Ry

     total magnetization       =    20.00 Bohr mag/cell
     absolute magnetization    =    20.00 Bohr mag/cell

     convergence has been achieved in  11 iterations

     Forces acting on atoms (Ry/au):


     negative rho (up, down):  0.000E+00 3.105E-03
     atom    1 type  1   force =  -0.40704685E-02 -0.32008557E-02 -0.51183019E-02
     atom    2 type  2   force =   0.56295416E-02  0.12737188E-02 -0.44077382E-02
     atom    3 type  1   force =  -0.19751062E-02  0.67972737E-02 -0.14947751E-03
     atom    4 type  2   force =  -0.62836584E-02 -0.69209711E-02 -0.44370086E-03
     atom    5 type  1   force =   0.78820800E-02 -0.59828037E-03  0.39424311E-02
     atom    6 type  2   force =  -0.13693777E-02  0.59574257E-02  0.13667858E-02
     atom    7 type  1   force =  -0.35734210E-02 -0.10226356E-02  0.17023799E-02
     atom    8 type  2   force =   0.37604103E-02 -0.22856755E-02  0.31076216E-02

     Total force =     0.020161     Total SCF correction =     0.000069


     entering subroutine stress ...


     negative rho (up, down):  0.000E+00 3.105E-03
          total   stress  (Ry/bohr**3)                   (kbar)     P=    1.01
   0.0000103951  -0.0000002447   0.0000006501          1.53     -0.04      0.10
  -0.0000002447   0.0000077116  -0.0000004755         -0.04      1.13     -0.07
   0.0000006501  -0.0000004755   0.0000024953          0.10     -0.07      0.37


     Writing output data file mno_fm.scf.in.k.7.022.save

     init_run     :    116.91s CPU    133.66s WALL (       1 calls)
     electrons    :   3451.26s CPU   4031.54s WALL (       1 calls)
     forces       :    306.46s CPU    386.06s WALL (       1 calls)
     stress       :   1028.52s CPU   1259.69s WALL (       1 calls)

     Called by init_run:
     wfcinit      :    116.43s CPU    133.14s WALL (       1 calls)
     potinit      :      0.09s CPU      0.10s WALL (       1 calls)

     Called by electrons:
     c_bands      :   3073.48s CPU   3627.14s WALL (      11 calls)
     sum_band     :    375.75s CPU    402.31s WALL (      11 calls)
     v_of_rho     :      0.66s CPU      0.68s WALL (      12 calls)
     newd         :      1.02s CPU      1.04s WALL (      12 calls)
     mix_rho      :      0.36s CPU      0.37s WALL (      11 calls)

     Called by c_bands:
     init_us_2    :     20.34s CPU     21.27s WALL (   20232 calls)
     cegterg      :   2991.75s CPU   3538.17s WALL (    6182 calls)

     Called by *egterg:
     h_psi        :   1662.16s CPU   1870.77s WALL (   19583 calls)
     s_psi        :    141.34s CPU    161.59s WALL (   25765 calls)
     g_psi        :      2.37s CPU      2.34s WALL (   12839 calls)
     cdiaghg      :    533.61s CPU    725.07s WALL (   19021 calls)

     Called by h_psi:
     add_vuspsi   :    101.55s CPU    119.14s WALL (   19583 calls)
     vhpsi        :    182.33s CPU    269.99s WALL (   19583 calls)

     General routines
     calbec       :   1676.86s CPU   2063.70s WALL (  231370 calls)
     fft          :      0.44s CPU      0.48s WALL (     406 calls)
     ffts         :      0.20s CPU      0.22s WALL (     270 calls)
     fftw         :   1289.41s CPU   1352.29s WALL ( 2184334 calls)
     interpolate  :      0.09s CPU      0.09s WALL (      46 calls)
     davcio       :      0.02s CPU      0.08s WALL (     562 calls)

     Parallel routines
     fft_scatter  :    533.05s CPU    556.32s WALL ( 2185010 calls)
     Hubbard U routines
     new_ns       :     51.09s CPU     60.90s WALL (      11 calls)
     vhpsi        :    182.33s CPU    269.99s WALL (   19583 calls)
     force_hub    :    280.76s CPU    355.79s WALL (       1 calls)
     stres_hub    :    989.83s CPU   1219.33s WALL (       1 calls)

     PWSCF        :     1h21m CPU        1h37m WALL


   This run was terminated on:   5:24:50  24Aug2017            

=------------------------------------------------------------------------------=
   JOB DONE.
=------------------------------------------------------------------------------=
