
     Program PWSCF v.5.1 starts on 17Aug2017 at 11: 8: 8 

     This program is part of the open-source Quantum ESPRESSO suite
     for quantum simulation of materials; please cite
         "P. Giannozzi et al., J. Phys.:Condens. Matter 21 395502 (2009);
          URL http://www.quantum-espresso.org", 
     in publications or presentations arising from this work. More details at
     http://www.quantum-espresso.org/quote

     Parallel version (MPI), running on     8 processors
     R & G space division:  proc/nbgrp/npool/nimage =       8
     Reading input from /tmp/mno_fm.scf.in.super.222.sub_frozen.04.28768/mno_fm.scf.in.super.222.sub_frozen.04.t
Warning: card &IONS ignored
Warning: card   ION_DYNAMICS='BFGS', ignored
Warning: card / ignored
Warning: card &CELL ignored
Warning: card  CELL_DYNAMICS = 'BFGS' ignored
Warning: card / ignored

     Current dimensions of program PWSCF are:
     Max number of different atomic species (ntypx) = 10
     Max number of k-points (npk) =  40000
     Max angular momentum in pseudopotentials (lmaxx) =  3
 kfg - two_fermi_energies  T

     Subspace diagonalization in iterative solution of the eigenvalue problem:
     a serial algorithm will be used


     Parallelization info
     --------------------
     sticks:   dense  smooth     PW     G-vecs:    dense   smooth      PW
     Min         246     204     56                 7264     5421     802
     Max         247     205     57                 7267     5438     805
     Sum        1969    1639    451                58119    43407    6423

     Generating pointlists ...
     new r_m :   0.1458 (alat units)  1.7495 (a.u.) for type    1
     new r_m :   0.1458 (alat units)  1.7495 (a.u.) for type    2
     new r_m :   0.1458 (alat units)  1.7495 (a.u.) for type    3


     bravais-lattice index     =            0
     lattice parameter (alat)  =    11.996146938  a.u.
     unit-cell volume          =    1220.7039 (a.u.)^3
     number of atoms/cell      =           16
     number of atomic types    =            3
     number of electrons       =       168.00 (up:  89.00, down:  79.00)
     number of Kohn-Sham states=          107
     kinetic-energy cutoff     =      41.0000  Ry
     charge density cutoff     =     200.0000  Ry
     convergence threshold     =      1.0E-08
     mixing beta               =       0.3000
     number of iterations used =            8  local-TF  mixing
     Exchange-correlation      = SLA  PW   PSX  PSC ( 1  4 10  8 0)
     A smooth kinetic-energy cutoff is imposed at      40.0000 Ry
     height of the smooth step-function =             800.0000 Ry
     width of the smooth step-function  =               1.0000 Ry


     celldm(1)=  11.996147  celldm(2)=   0.000000  celldm(3)=   0.000000
     celldm(4)=   0.000000  celldm(5)=   0.000000  celldm(6)=   0.000000

     crystal axes: (cart. coord. in units of alat)
               a(1) = (   0.707106781187   0.707106781187   0.000000000000 )  
               a(2) = (   0.707106781187   0.000000000000   0.707106781187 )  
               a(3) = (   0.000000000000   0.707106781187   0.707106781187 )  

     reciprocal axes: (cart. coord. in units 2 pi/alat)
               b(1) = (  0.707107  0.707107 -0.707107 )  
               b(2) = (  0.707107 -0.707107  0.707107 )  
               b(3) = ( -0.707107  0.707107  0.707107 )  


     PseudoPot. # 1 for Mn read from file:
     /users/kfg/psuedo/gbrv_1.5/mn.pbesol.UPF
     MD5 check sum: 0716d5f563e6e95a34f9080f4c78c109
     Pseudo is Ultrasoft + core correction, Zval = 15.0
     Generated by new atomic code, or converted to UPF format
     Using radial grid of  859 points,  6 beta functions with: 
                l(1) =   0
                l(2) =   0
                l(3) =   1
                l(4) =   1
                l(5) =   2
                l(6) =   2
     Q(r) pseudized with  8 coefficients,  rinner =    0.950   0.950   0.950
                                                       0.950   0.950

     PseudoPot. # 2 for Mn read from file:
     /users/kfg/psuedo/gbrv_1.5/mn.pbesol.UPF
     MD5 check sum: 0716d5f563e6e95a34f9080f4c78c109
     Pseudo is Ultrasoft + core correction, Zval = 15.0
     Generated by new atomic code, or converted to UPF format
     Using radial grid of  859 points,  6 beta functions with: 
                l(1) =   0
                l(2) =   0
                l(3) =   1
                l(4) =   1
                l(5) =   2
                l(6) =   2
     Q(r) pseudized with  8 coefficients,  rinner =    0.950   0.950   0.950
                                                       0.950   0.950

     PseudoPot. # 3 for O  read from file:
     /users/kfg/psuedo/gbrv_1.5/o.pbesol.UPF
     MD5 check sum: 501638753501ef6325af9037351f7734
     Pseudo is Ultrasoft + core correction, Zval =  6.0
     Generated by new atomic code, or converted to UPF format
     Using radial grid of  737 points,  5 beta functions with: 
                l(1) =   0
                l(2) =   0
                l(3) =   1
                l(4) =   1
                l(5) =   2
     Q(r) pseudized with  8 coefficients,  rinner =    0.900   0.900   0.900
                                                       0.900   0.900

     atomic species   valence    mass     pseudopotential
        Mn            15.00    54.90000     Mn( 1.00)
        Fe            15.00    54.90000     Mn( 1.00)
        O              6.00    15.99900     O ( 1.00)

     Starting magnetic structure 
     atomic species   magnetization
        Mn           1.000
        Fe          -1.000
        O            0.000


     Simplified LDA+U calculation (l_max = 2) with parameters (eV):
     atomic species    L          U    alpha       J0     beta
        Mn             2     3.0000   0.0000   0.0000   0.0000
        Fe             2     3.0000   0.0000   0.0000   0.0000



     16 Sym. Ops., with inversion, found (12 have fractional translation)



   Cartesian axes

     site n.     atom                  positions (alat units)
         1           Mn  tau(   1) = (    0.00000000000    0.00000000000    0.00000000000  )
         2           O   tau(   2) = (    0.35355339059    0.35355339059    0.35355339059  )
         3           Fe  tau(   3) = (    0.00000000000    0.35355339059    0.35355339059  )
         4           O   tau(   4) = (    0.35355339059    0.70710678119    0.70710678119  )
         5           Mn  tau(   5) = (    0.35355339059    0.00000000000    0.35355339059  )
         6           O   tau(   6) = (    0.70710678119    0.35355339059    0.70710678119  )
         7           Fe  tau(   7) = (    0.35355339059    0.35355339059    0.70710678119  )
         8           O   tau(   8) = (    0.70710678119    0.70710678119    1.06066017178  )
         9           Fe  tau(   9) = (    0.35355339059    0.35355339059    0.00000000000  )
        10           O   tau(  10) = (    0.70710678119    0.70710678119    0.35355339059  )
        11           Mn  tau(  11) = (    0.35355339059    0.70710678119    0.35355339059  )
        12           O   tau(  12) = (    0.70710678119    1.06066017178    0.70710678119  )
        13           Mn  tau(  13) = (    0.70710678119    0.35355339059    0.35355339059  )
        14           O   tau(  14) = (    1.06066017178    0.70710678119    0.70710678119  )
        15           Mn  tau(  15) = (    0.70710678119    0.70710678119    0.70710678119  )
        16           O   tau(  16) = (    1.06066017178    1.06066017178    1.06066017178  )

     number of k points=    26  gaussian smearing, width (Ry)=  0.0100
                       cart. coord. in units 2pi/alat
        k(    1) = (   0.0000000   0.0000000   0.0000000), wk =   0.0156250
        k(    2) = (  -0.1767767   0.1767767   0.1767767), wk =   0.1250000
        k(    3) = (   0.3535534  -0.3535534  -0.3535534), wk =   0.0625000
        k(    4) = (   0.0000000   0.0000000   0.3535534), wk =   0.0625000
        k(    5) = (   0.5303301  -0.5303301  -0.1767767), wk =   0.2500000
        k(    6) = (   0.3535534  -0.3535534   0.0000000), wk =   0.1250000
        k(    7) = (   0.0000000   0.0000000  -0.7071068), wk =   0.0312500
        k(    8) = (   0.0000000   0.3535534  -0.7071068), wk =   0.0312500
        k(    9) = (   0.0000000   0.3535534   0.0000000), wk =   0.0312500
        k(   10) = (  -0.5303301  -0.1767767   0.5303301), wk =   0.1250000
        k(   11) = (  -0.3535534   0.0000000   0.3535534), wk =   0.0625000
        k(   12) = (   0.0000000  -0.7071068   0.0000000), wk =   0.0156250
        k(   13) = (   0.3535534  -0.7071068   0.0000000), wk =   0.0625000
        k(   14) = (   0.0000000   0.0000000   0.0000000), wk =   0.0156250
        k(   15) = (  -0.1767767   0.1767767   0.1767767), wk =   0.1250000
        k(   16) = (   0.3535534  -0.3535534  -0.3535534), wk =   0.0625000
        k(   17) = (   0.0000000   0.0000000   0.3535534), wk =   0.0625000
        k(   18) = (   0.5303301  -0.5303301  -0.1767767), wk =   0.2500000
        k(   19) = (   0.3535534  -0.3535534   0.0000000), wk =   0.1250000
        k(   20) = (   0.0000000   0.0000000  -0.7071068), wk =   0.0312500
        k(   21) = (   0.0000000   0.3535534  -0.7071068), wk =   0.0312500
        k(   22) = (   0.0000000   0.3535534   0.0000000), wk =   0.0312500
        k(   23) = (  -0.5303301  -0.1767767   0.5303301), wk =   0.1250000
        k(   24) = (  -0.3535534   0.0000000   0.3535534), wk =   0.0625000
        k(   25) = (   0.0000000  -0.7071068   0.0000000), wk =   0.0156250
        k(   26) = (   0.3535534  -0.7071068   0.0000000), wk =   0.0625000

     Dense  grid:    58119 G-vectors     FFT dimensions: (  54,  54,  54)

     Smooth grid:    43407 G-vectors     FFT dimensions: (  50,  50,  50)

     Largest allocated arrays     est. size (Mb)     dimensions
        Kohn-Sham Wavefunctions         1.12 Mb     (     685,  107)
        Atomic Hubbard wavefuncts       0.42 Mb     (     685,   40)
        NL pseudopotentials             2.59 Mb     (     685,  248)
        Each V/rho on FFT grid          0.62 Mb     (   20412,   2)
        Each G-vector array             0.06 Mb     (    7265)
        G-vector shells                 0.00 Mb     (     487)
     Largest temporary arrays     est. size (Mb)     dimensions
        Auxiliary wavefunctions         4.47 Mb     (     685,  428)
        Each subspace H/S matrix        2.80 Mb     (     428,  428)
        Each <psi_i|beta_j> matrix      0.40 Mb     (     248,  107)
        Arrays for rho mixing           2.49 Mb     (   20412,    8)

     Check: negative/imaginary core charge=   -0.000056    0.000000

     Initial potential from superposition of free atoms

     starting charge  163.99935, renormalised to  168.00000
     Number of +U iterations with fixed ns =  0
     Starting occupations:
 --- enter write_ns ---
 LDA+U parameters:
U( 1)     =  3.00000000
alpha( 1) =  0.00000000
U( 2)     =  3.00000000
alpha( 2) =  0.00000000
atom    1   Tr[ns(na)] (up, down, total) =   5.00000  0.00000  5.00000
   spin  1
    eigenvalues: 
  1.000  1.000  1.000  1.000  1.000
    eigenvectors:
  1.000  0.000  0.000  0.000  0.000
  0.000  1.000  0.000  0.000  0.000
  0.000  0.000  1.000  0.000  0.000
  0.000  0.000  0.000  1.000  0.000
  0.000  0.000  0.000  0.000  1.000
    occupations:
  1.000  0.000  0.000  0.000  0.000
  0.000  1.000  0.000  0.000  0.000
  0.000  0.000  1.000  0.000  0.000
  0.000  0.000  0.000  1.000  0.000
  0.000  0.000  0.000  0.000  1.000
   spin  2
    eigenvalues: 
  0.000  0.000  0.000  0.000  0.000
    eigenvectors:
  1.000  0.000  0.000  0.000  0.000
  0.000  1.000  0.000  0.000  0.000
  0.000  0.000  1.000  0.000  0.000
  0.000  0.000  0.000  1.000  0.000
  0.000  0.000  0.000  0.000  1.000
    occupations:
  0.000  0.000  0.000  0.000  0.000
  0.000  0.000  0.000  0.000  0.000
  0.000  0.000  0.000  0.000  0.000
  0.000  0.000  0.000  0.000  0.000
  0.000  0.000  0.000  0.000  0.000
atomic mag. moment =     5.000000
atom    3   Tr[ns(na)] (up, down, total) =   0.00000  5.00000  5.00000
   spin  1
    eigenvalues: 
  0.000  0.000  0.000  0.000  0.000
    eigenvectors:
  1.000  0.000  0.000  0.000  0.000
  0.000  1.000  0.000  0.000  0.000
  0.000  0.000  1.000  0.000  0.000
  0.000  0.000  0.000  1.000  0.000
  0.000  0.000  0.000  0.000  1.000
    occupations:
  0.000  0.000  0.000  0.000  0.000
  0.000  0.000  0.000  0.000  0.000
  0.000  0.000  0.000  0.000  0.000
  0.000  0.000  0.000  0.000  0.000
  0.000  0.000  0.000  0.000  0.000
   spin  2
    eigenvalues: 
  1.000  1.000  1.000  1.000  1.000
    eigenvectors:
  1.000  0.000  0.000  0.000  0.000
  0.000  1.000  0.000  0.000  0.000
  0.000  0.000  1.000  0.000  0.000
  0.000  0.000  0.000  1.000  0.000
  0.000  0.000  0.000  0.000  1.000
    occupations:
  1.000  0.000  0.000  0.000  0.000
  0.000  1.000  0.000  0.000  0.000
  0.000  0.000  1.000  0.000  0.000
  0.000  0.000  0.000  1.000  0.000
  0.000  0.000  0.000  0.000  1.000
atomic mag. moment =    -5.000000
atom    5   Tr[ns(na)] (up, down, total) =   5.00000  0.00000  5.00000
   spin  1
    eigenvalues: 
  1.000  1.000  1.000  1.000  1.000
    eigenvectors:
  1.000  0.000  0.000  0.000  0.000
  0.000  1.000  0.000  0.000  0.000
  0.000  0.000  1.000  0.000  0.000
  0.000  0.000  0.000  1.000  0.000
  0.000  0.000  0.000  0.000  1.000
    occupations:
  1.000  0.000  0.000  0.000  0.000
  0.000  1.000  0.000  0.000  0.000
  0.000  0.000  1.000  0.000  0.000
  0.000  0.000  0.000  1.000  0.000
  0.000  0.000  0.000  0.000  1.000
   spin  2
    eigenvalues: 
  0.000  0.000  0.000  0.000  0.000
    eigenvectors:
  1.000  0.000  0.000  0.000  0.000
  0.000  1.000  0.000  0.000  0.000
  0.000  0.000  1.000  0.000  0.000
  0.000  0.000  0.000  1.000  0.000
  0.000  0.000  0.000  0.000  1.000
    occupations:
  0.000  0.000  0.000  0.000  0.000
  0.000  0.000  0.000  0.000  0.000
  0.000  0.000  0.000  0.000  0.000
  0.000  0.000  0.000  0.000  0.000
  0.000  0.000  0.000  0.000  0.000
atomic mag. moment =     5.000000
atom    7   Tr[ns(na)] (up, down, total) =   0.00000  5.00000  5.00000
   spin  1
    eigenvalues: 
  0.000  0.000  0.000  0.000  0.000
    eigenvectors:
  1.000  0.000  0.000  0.000  0.000
  0.000  1.000  0.000  0.000  0.000
  0.000  0.000  1.000  0.000  0.000
  0.000  0.000  0.000  1.000  0.000
  0.000  0.000  0.000  0.000  1.000
    occupations:
  0.000  0.000  0.000  0.000  0.000
  0.000  0.000  0.000  0.000  0.000
  0.000  0.000  0.000  0.000  0.000
  0.000  0.000  0.000  0.000  0.000
  0.000  0.000  0.000  0.000  0.000
   spin  2
    eigenvalues: 
  1.000  1.000  1.000  1.000  1.000
    eigenvectors:
  1.000  0.000  0.000  0.000  0.000
  0.000  1.000  0.000  0.000  0.000
  0.000  0.000  1.000  0.000  0.000
  0.000  0.000  0.000  1.000  0.000
  0.000  0.000  0.000  0.000  1.000
    occupations:
  1.000  0.000  0.000  0.000  0.000
  0.000  1.000  0.000  0.000  0.000
  0.000  0.000  1.000  0.000  0.000
  0.000  0.000  0.000  1.000  0.000
  0.000  0.000  0.000  0.000  1.000
atomic mag. moment =    -5.000000
atom    9   Tr[ns(na)] (up, down, total) =   0.00000  5.00000  5.00000
   spin  1
    eigenvalues: 
  0.000  0.000  0.000  0.000  0.000
    eigenvectors:
  1.000  0.000  0.000  0.000  0.000
  0.000  1.000  0.000  0.000  0.000
  0.000  0.000  1.000  0.000  0.000
  0.000  0.000  0.000  1.000  0.000
  0.000  0.000  0.000  0.000  1.000
    occupations:
  0.000  0.000  0.000  0.000  0.000
  0.000  0.000  0.000  0.000  0.000
  0.000  0.000  0.000  0.000  0.000
  0.000  0.000  0.000  0.000  0.000
  0.000  0.000  0.000  0.000  0.000
   spin  2
    eigenvalues: 
  1.000  1.000  1.000  1.000  1.000
    eigenvectors:
  1.000  0.000  0.000  0.000  0.000
  0.000  1.000  0.000  0.000  0.000
  0.000  0.000  1.000  0.000  0.000
  0.000  0.000  0.000  1.000  0.000
  0.000  0.000  0.000  0.000  1.000
    occupations:
  1.000  0.000  0.000  0.000  0.000
  0.000  1.000  0.000  0.000  0.000
  0.000  0.000  1.000  0.000  0.000
  0.000  0.000  0.000  1.000  0.000
  0.000  0.000  0.000  0.000  1.000
atomic mag. moment =    -5.000000
atom   11   Tr[ns(na)] (up, down, total) =   5.00000  0.00000  5.00000
   spin  1
    eigenvalues: 
  1.000  1.000  1.000  1.000  1.000
    eigenvectors:
  1.000  0.000  0.000  0.000  0.000
  0.000  1.000  0.000  0.000  0.000
  0.000  0.000  1.000  0.000  0.000
  0.000  0.000  0.000  1.000  0.000
  0.000  0.000  0.000  0.000  1.000
    occupations:
  1.000  0.000  0.000  0.000  0.000
  0.000  1.000  0.000  0.000  0.000
  0.000  0.000  1.000  0.000  0.000
  0.000  0.000  0.000  1.000  0.000
  0.000  0.000  0.000  0.000  1.000
   spin  2
    eigenvalues: 
  0.000  0.000  0.000  0.000  0.000
    eigenvectors:
  1.000  0.000  0.000  0.000  0.000
  0.000  1.000  0.000  0.000  0.000
  0.000  0.000  1.000  0.000  0.000
  0.000  0.000  0.000  1.000  0.000
  0.000  0.000  0.000  0.000  1.000
    occupations:
  0.000  0.000  0.000  0.000  0.000
  0.000  0.000  0.000  0.000  0.000
  0.000  0.000  0.000  0.000  0.000
  0.000  0.000  0.000  0.000  0.000
  0.000  0.000  0.000  0.000  0.000
atomic mag. moment =     5.000000
atom   13   Tr[ns(na)] (up, down, total) =   5.00000  0.00000  5.00000
   spin  1
    eigenvalues: 
  1.000  1.000  1.000  1.000  1.000
    eigenvectors:
  1.000  0.000  0.000  0.000  0.000
  0.000  1.000  0.000  0.000  0.000
  0.000  0.000  1.000  0.000  0.000
  0.000  0.000  0.000  1.000  0.000
  0.000  0.000  0.000  0.000  1.000
    occupations:
  1.000  0.000  0.000  0.000  0.000
  0.000  1.000  0.000  0.000  0.000
  0.000  0.000  1.000  0.000  0.000
  0.000  0.000  0.000  1.000  0.000
  0.000  0.000  0.000  0.000  1.000
   spin  2
    eigenvalues: 
  0.000  0.000  0.000  0.000  0.000
    eigenvectors:
  1.000  0.000  0.000  0.000  0.000
  0.000  1.000  0.000  0.000  0.000
  0.000  0.000  1.000  0.000  0.000
  0.000  0.000  0.000  1.000  0.000
  0.000  0.000  0.000  0.000  1.000
    occupations:
  0.000  0.000  0.000  0.000  0.000
  0.000  0.000  0.000  0.000  0.000
  0.000  0.000  0.000  0.000  0.000
  0.000  0.000  0.000  0.000  0.000
  0.000  0.000  0.000  0.000  0.000
atomic mag. moment =     5.000000
atom   15   Tr[ns(na)] (up, down, total) =   5.00000  0.00000  5.00000
   spin  1
    eigenvalues: 
  1.000  1.000  1.000  1.000  1.000
    eigenvectors:
  1.000  0.000  0.000  0.000  0.000
  0.000  1.000  0.000  0.000  0.000
  0.000  0.000  1.000  0.000  0.000
  0.000  0.000  0.000  1.000  0.000
  0.000  0.000  0.000  0.000  1.000
    occupations:
  1.000  0.000  0.000  0.000  0.000
  0.000  1.000  0.000  0.000  0.000
  0.000  0.000  1.000  0.000  0.000
  0.000  0.000  0.000  1.000  0.000
  0.000  0.000  0.000  0.000  1.000
   spin  2
    eigenvalues: 
  0.000  0.000  0.000  0.000  0.000
    eigenvectors:
  1.000  0.000  0.000  0.000  0.000
  0.000  1.000  0.000  0.000  0.000
  0.000  0.000  1.000  0.000  0.000
  0.000  0.000  0.000  1.000  0.000
  0.000  0.000  0.000  0.000  1.000
    occupations:
  0.000  0.000  0.000  0.000  0.000
  0.000  0.000  0.000  0.000  0.000
  0.000  0.000  0.000  0.000  0.000
  0.000  0.000  0.000  0.000  0.000
  0.000  0.000  0.000  0.000  0.000
atomic mag. moment =     5.000000
N of occupied +U levels =   40.000000
 --- exit write_ns ---
 Atomic wfc used for LDA+U Projector are NOT orthogonalized
     Starting wfc are  136 randomized atomic wfcs

     total cpu time spent up to now is       24.8 secs

     per-process dynamical memory:    68.0 Mb

     Self-consistent Calculation

     iteration #  1     ecut=    41.00 Ry     beta=0.30
     Davidson diagonalization with overlap
     ethr =  1.00E-02,  avg # of iterations =  4.7
 --- enter write_ns ---
 LDA+U parameters:
U( 1)     =  3.00000000
alpha( 1) =  0.00000000
U( 2)     =  3.00000000
alpha( 2) =  0.00000000
atom    1   Tr[ns(na)] (up, down, total) =   4.99070  0.20075  5.19145
   spin  1
    eigenvalues: 
  0.998  0.998  0.998  0.998  0.999
    eigenvectors:
  0.880  0.115  0.000  0.004  0.000
  0.000  0.000  0.875  0.000  0.125
  0.009  0.005  0.000  0.986  0.000
  0.110  0.880  0.000  0.010  0.000
  0.000  0.000  0.125  0.000  0.875
    occupations:
  0.998 -0.000 -0.000  0.000  0.000
 -0.000  0.998 -0.000  0.000 -0.000
 -0.000 -0.000  0.998  0.000  0.000
  0.000  0.000  0.000  0.998 -0.000
  0.000 -0.000  0.000 -0.000  0.999
   spin  2
    eigenvalues: 
  0.022  0.024  0.026  0.065  0.065
    eigenvectors:
  0.000  0.000  0.000  0.064  0.936
  0.996  0.000  0.004  0.000  0.000
  0.000  1.000  0.000  0.000  0.000
  0.000  0.000  0.000  0.936  0.064
  0.004  0.000  0.996  0.000  0.000
    occupations:
  0.065 -0.000 -0.000 -0.000  0.000
 -0.000  0.022 -0.000  0.000 -0.000
 -0.000 -0.000  0.024  0.001  0.000
 -0.000  0.000  0.001  0.065 -0.000
  0.000 -0.000  0.000 -0.000  0.026
atomic mag. moment =     4.789944
atom    3   Tr[ns(na)] (up, down, total) =   0.20078  4.99468  5.19546
   spin  1
    eigenvalues: 
  0.022  0.026  0.026  0.063  0.064
    eigenvectors:
  0.000  0.000  0.000  0.250  0.750
  1.000  0.000  0.000  0.000  0.000
  0.000  0.425  0.575  0.000  0.000
  0.000  0.000  0.000  0.750  0.250
  0.000  0.575  0.425  0.000  0.000
    occupations:
  0.064 -0.000 -0.000 -0.000  0.000
 -0.000  0.022 -0.000  0.000  0.000
 -0.000 -0.000  0.026  0.000  0.000
 -0.000  0.000  0.000  0.063 -0.000
  0.000  0.000  0.000 -0.000  0.026
   spin  2
    eigenvalues: 
  0.998  0.998  0.998  1.000  1.000
    eigenvectors:
  0.000  0.000  0.000  0.250  0.750
  0.000  0.000  1.000  0.000  0.000
  0.396  0.604  0.000  0.000  0.000
  0.000  0.000  0.000  0.750  0.250
  0.604  0.396  0.000  0.000  0.000
    occupations:
  1.000 -0.000 -0.000 -0.000  0.000
 -0.000  0.998 -0.000  0.000  0.000
 -0.000 -0.000  0.998  0.000  0.000
 -0.000  0.000  0.000  1.000 -0.000
  0.000  0.000  0.000 -0.000  0.998
atomic mag. moment =    -4.793894
atom    5   Tr[ns(na)] (up, down, total) =   4.99070  0.20075  5.19145
   spin  1
    eigenvalues: 
  0.998  0.998  0.998  0.998  0.999
    eigenvectors:
  0.573  0.413  0.000  0.014  0.000
  0.000  0.000  0.875  0.000  0.125
  0.000  0.000  0.125  0.000  0.875
  0.418  0.582  0.000  0.000  0.000
  0.009  0.005  0.000  0.986  0.000
    occupations:
  0.998 -0.000 -0.000  0.000  0.000
 -0.000  0.998 -0.000  0.000  0.000
 -0.000 -0.000  0.999  0.000  0.000
  0.000  0.000  0.000  0.998 -0.000
  0.000  0.000  0.000 -0.000  0.998
   spin  2
    eigenvalues: 
  0.022  0.024  0.026  0.065  0.065
    eigenvectors:
  0.000  0.000  0.000  0.506  0.494
  0.996  0.000  0.004  0.000  0.000
  0.004  0.000  0.996  0.000  0.000
  0.000  0.000  0.000  0.494  0.506
  0.000  1.000  0.000  0.000  0.000
    occupations:
  0.065 -0.000 -0.000 -0.000  0.001
 -0.000  0.022 -0.000  0.000  0.000
 -0.000 -0.000  0.026  0.000  0.000
 -0.000  0.000  0.000  0.065 -0.000
  0.001  0.000  0.000 -0.000  0.024
atomic mag. moment =     4.789944
atom    7   Tr[ns(na)] (up, down, total) =   0.20534  4.99126  5.19660
   spin  1
    eigenvalues: 
  0.024  0.026  0.026  0.064  0.065
    eigenvectors:
  0.000  0.000  0.000  0.250  0.750
  1.000  0.000  0.000  0.000  0.000
  0.000  0.500  0.500  0.000  0.000
  0.000  0.000  0.000  0.750  0.250
  0.000  0.500  0.500  0.000  0.000
    occupations:
  0.064  0.000 -0.000 -0.000  0.000
  0.000  0.024 -0.000  0.001  0.000
 -0.000 -0.000  0.026  0.000  0.000
 -0.000  0.001  0.000  0.064 -0.000
  0.000  0.000  0.000 -0.000  0.026
   spin  2
    eigenvalues: 
  0.998  0.998  0.998  0.998  0.999
    eigenvectors:
  0.750  0.246  0.000  0.004  0.000
  0.000  0.016  0.000  0.984  0.000
  0.000  0.000  0.500  0.000  0.500
  0.250  0.738  0.000  0.012  0.000
  0.000  0.000  0.500  0.000  0.500
    occupations:
  0.998  0.000 -0.000  0.000  0.000
  0.000  0.998 -0.000  0.000  0.000
 -0.000 -0.000  0.998  0.000  0.000
  0.000  0.000  0.000  0.998 -0.000
  0.000  0.000  0.000 -0.000  0.998
atomic mag. moment =    -4.785916
atom    9   Tr[ns(na)] (up, down, total) =   0.20534  4.99126  5.19660
   spin  1
    eigenvalues: 
  0.024  0.026  0.026  0.064  0.065
    eigenvectors:
  0.000  0.000  0.000  0.250  0.750
  1.000  0.000  0.000  0.000  0.000
  0.000  0.500  0.500  0.000  0.000
  0.000  0.000  0.000  0.750  0.250
  0.000  0.500  0.500  0.000  0.000
    occupations:
  0.064 -0.000 -0.000 -0.000  0.000
 -0.000  0.024 -0.000 -0.001  0.000
 -0.000 -0.000  0.026  0.000 -0.000
 -0.000 -0.001  0.000  0.064 -0.000
  0.000  0.000 -0.000 -0.000  0.026
   spin  2
    eigenvalues: 
  0.998  0.998  0.998  0.998  0.999
    eigenvectors:
  0.750  0.246  0.000  0.004  0.000
  0.000  0.016  0.000  0.984  0.000
  0.000  0.000  0.500  0.000  0.500
  0.250  0.738  0.000  0.012  0.000
  0.000  0.000  0.500  0.000  0.500
    occupations:
  0.998 -0.000 -0.000  0.000  0.000
 -0.000  0.998 -0.000 -0.000  0.000
 -0.000 -0.000  0.998  0.000 -0.000
  0.000 -0.000  0.000  0.998 -0.000
  0.000  0.000 -0.000 -0.000  0.998
atomic mag. moment =    -4.785916
atom   11   Tr[ns(na)] (up, down, total) =   4.99070  0.20075  5.19145
   spin  1
    eigenvalues: 
  0.998  0.998  0.998  0.998  0.999
    eigenvectors:
  0.573  0.413  0.000  0.014  0.000
  0.000  0.000  0.875  0.000  0.125
  0.000  0.000  0.125  0.000  0.875
  0.418  0.582  0.000  0.000  0.000
  0.009  0.005  0.000  0.986  0.000
    occupations:
  0.998 -0.000 -0.000  0.000 -0.000
 -0.000  0.998  0.000  0.000  0.000
 -0.000  0.000  0.999  0.000  0.000
  0.000  0.000  0.000  0.998  0.000
 -0.000  0.000  0.000  0.000  0.998
   spin  2
    eigenvalues: 
  0.022  0.024  0.026  0.065  0.065
    eigenvectors:
  0.000  0.000  0.000  0.506  0.494
  0.996  0.000  0.004  0.000  0.000
  0.004  0.000  0.996  0.000  0.000
  0.000  0.000  0.000  0.494  0.506
  0.000  1.000  0.000  0.000  0.000
    occupations:
  0.065 -0.000 -0.000 -0.000 -0.001
 -0.000  0.022  0.000  0.000  0.000
 -0.000  0.000  0.026  0.000  0.000
 -0.000  0.000  0.000  0.065  0.000
 -0.001  0.000  0.000  0.000  0.024
atomic mag. moment =     4.789944
atom   13   Tr[ns(na)] (up, down, total) =   4.99445  0.19604  5.19049
   spin  1
    eigenvalues: 
  0.998  0.998  0.998  1.000  1.000
    eigenvectors:
  0.000  0.000  0.000  0.250  0.750
  0.000  0.000  1.000  0.000  0.000
  0.388  0.612  0.000  0.000  0.000
  0.000  0.000  0.000  0.750  0.250
  0.612  0.388  0.000  0.000  0.000
    occupations:
  1.000 -0.000 -0.000 -0.000  0.000
 -0.000  0.998 -0.000  0.000  0.000
 -0.000 -0.000  0.998  0.000  0.000
 -0.000  0.000  0.000  1.000 -0.000
  0.000  0.000  0.000 -0.000  0.998
   spin  2
    eigenvalues: 
  0.021  0.021  0.025  0.064  0.064
    eigenvectors:
  0.000  0.000  0.000  0.750  0.250
  0.000  0.000  1.000  0.000  0.000
  0.415  0.585  0.000  0.000  0.000
  0.000  0.000  0.000  0.250  0.750
  0.585  0.415  0.000  0.000  0.000
    occupations:
  0.064 -0.000 -0.000  0.000  0.000
 -0.000  0.025 -0.000  0.000  0.000
 -0.000 -0.000  0.021  0.000  0.000
  0.000  0.000  0.000  0.064 -0.000
  0.000  0.000  0.000 -0.000  0.021
atomic mag. moment =     4.798416
atom   15   Tr[ns(na)] (up, down, total) =   4.99070  0.20075  5.19145
   spin  1
    eigenvalues: 
  0.998  0.998  0.998  0.998  0.999
    eigenvectors:
  0.880  0.115  0.000  0.004  0.000
  0.000  0.000  0.875  0.000  0.125
  0.009  0.005  0.000  0.986  0.000
  0.110  0.880  0.000  0.010  0.000
  0.000  0.000  0.125  0.000  0.875
    occupations:
  0.998 -0.000  0.000  0.000  0.000
 -0.000  0.998 -0.000  0.000  0.000
  0.000 -0.000  0.998 -0.000  0.000
  0.000  0.000 -0.000  0.998 -0.000
  0.000  0.000  0.000 -0.000  0.999
   spin  2
    eigenvalues: 
  0.022  0.024  0.026  0.065  0.065
    eigenvectors:
  0.000  0.000  0.000  0.064  0.936
  0.996  0.000  0.004  0.000  0.000
  0.000  1.000  0.000  0.000  0.000
  0.000  0.000  0.000  0.936  0.064
  0.004  0.000  0.996  0.000  0.000
    occupations:
  0.065 -0.000  0.000 -0.000  0.000
 -0.000  0.022 -0.000  0.000  0.000
  0.000 -0.000  0.024 -0.001  0.000
 -0.000  0.000 -0.001  0.065 -0.000
  0.000  0.000  0.000 -0.000  0.026
atomic mag. moment =     4.789944
N of occupied +U levels =   41.544946
 --- exit write_ns ---

     negative rho (up, down):  6.895E-04 1.150E-03

     Magnetic moment per site:
     atom:    1    charge:   12.8381    magn:   10.2565    constr:    0.0000
     atom:    2    charge:    5.7466    magn:    0.0020    constr:    0.0000
     atom:    3    charge:   12.8386    magn:  -10.2478    constr:    0.0000
     atom:    4    charge:    5.7465    magn:    0.0656    constr:    0.0000
     atom:    5    charge:   12.8381    magn:   10.2565    constr:    0.0000
     atom:    6    charge:    5.7466    magn:    0.0020    constr:    0.0000
     atom:    7    charge:   12.8380    magn:  -10.2350    constr:    0.0000
     atom:    8    charge:    5.7474    magn:    0.1292    constr:    0.0000
     atom:    9    charge:   12.8380    magn:  -10.2350    constr:    0.0000
     atom:   10    charge:    5.7474    magn:    0.1292    constr:    0.0000
     atom:   11    charge:   12.8381    magn:   10.2565    constr:    0.0000
     atom:   12    charge:    5.7466    magn:    0.0020    constr:    0.0000
     atom:   13    charge:   12.8389    magn:   10.2696    constr:    0.0000
     atom:   14    charge:    5.7465    magn:    0.0656    constr:    0.0000
     atom:   15    charge:   12.8381    magn:   10.2565    constr:    0.0000
     atom:   16    charge:    5.7466    magn:    0.0020    constr:    0.0000

     total cpu time spent up to now is      106.5 secs

     total energy              =   -1937.97094242 Ry
     Harris-Foulkes estimate   =   -1921.76813011 Ry
     estimated scf accuracy    <      25.43352291 Ry

     total magnetization       =    10.00 Bohr mag/cell
     absolute magnetization    =    40.74 Bohr mag/cell

     iteration #  2     ecut=    41.00 Ry     beta=0.30
     Davidson diagonalization with overlap
     ethr =  1.00E-02,  avg # of iterations =  1.2

     negative rho (up, down):  2.506E-03 4.170E-03

     Magnetic moment per site:
     atom:    1    charge:   12.7166    magn:    4.5163    constr:    0.0000
     atom:    2    charge:    5.9762    magn:   -0.0009    constr:    0.0000
     atom:    3    charge:   12.7184    magn:   -4.5201    constr:    0.0000
     atom:    4    charge:    5.9755    magn:   -0.0162    constr:    0.0000
     atom:    5    charge:   12.7166    magn:    4.5163    constr:    0.0000
     atom:    6    charge:    5.9762    magn:   -0.0009    constr:    0.0000
     atom:    7    charge:   12.7160    magn:   -4.5138    constr:    0.0000
     atom:    8    charge:    5.9777    magn:   -0.0324    constr:    0.0000
     atom:    9    charge:   12.7160    magn:   -4.5138    constr:    0.0000
     atom:   10    charge:    5.9777    magn:   -0.0324    constr:    0.0000
     atom:   11    charge:   12.7166    magn:    4.5163    constr:    0.0000
     atom:   12    charge:    5.9762    magn:   -0.0009    constr:    0.0000
     atom:   13    charge:   12.7195    magn:    4.5230    constr:    0.0000
     atom:   14    charge:    5.9755    magn:   -0.0162    constr:    0.0000
     atom:   15    charge:   12.7166    magn:    4.5163    constr:    0.0000
     atom:   16    charge:    5.9762    magn:   -0.0009    constr:    0.0000

     total cpu time spent up to now is      153.9 secs

     total energy              =   -1945.63707526 Ry
     Harris-Foulkes estimate   =   -1938.22844343 Ry
     estimated scf accuracy    <      12.62997862 Ry

     total magnetization       =    10.00 Bohr mag/cell
     absolute magnetization    =    40.40 Bohr mag/cell

     iteration #  3     ecut=    41.00 Ry     beta=0.30
     Davidson diagonalization with overlap
     ethr =  7.52E-03,  avg # of iterations =  3.9

     negative rho (up, down):  2.659E-03 4.452E-03

     Magnetic moment per site:
     atom:    1    charge:   12.6444    magn:    4.3085    constr:    0.0000
     atom:    2    charge:    5.9541    magn:    0.0040    constr:    0.0000
     atom:    3    charge:   12.6464    magn:   -4.2788    constr:    0.0000
     atom:    4    charge:    5.9551    magn:    0.0248    constr:    0.0000
     atom:    5    charge:   12.6444    magn:    4.3085    constr:    0.0000
     atom:    6    charge:    5.9541    magn:    0.0040    constr:    0.0000
     atom:    7    charge:   12.6416    magn:   -4.2971    constr:    0.0000
     atom:    8    charge:    5.9547    magn:    0.0440    constr:    0.0000
     atom:    9    charge:   12.6416    magn:   -4.2971    constr:    0.0000
     atom:   10    charge:    5.9547    magn:    0.0440    constr:    0.0000
     atom:   11    charge:   12.6444    magn:    4.3085    constr:    0.0000
     atom:   12    charge:    5.9541    magn:    0.0040    constr:    0.0000
     atom:   13    charge:   12.6497    magn:    4.2880    constr:    0.0000
     atom:   14    charge:    5.9551    magn:    0.0248    constr:    0.0000
     atom:   15    charge:   12.6444    magn:    4.3085    constr:    0.0000
     atom:   16    charge:    5.9541    magn:    0.0040    constr:    0.0000

     total cpu time spent up to now is      230.6 secs

     total energy              =   -1946.17546556 Ry
     Harris-Foulkes estimate   =   -1946.30494679 Ry
     estimated scf accuracy    <       0.38653915 Ry

     total magnetization       =    10.00 Bohr mag/cell
     absolute magnetization    =    38.59 Bohr mag/cell

     iteration #  4     ecut=    41.00 Ry     beta=0.30
     Davidson diagonalization with overlap
     ethr =  2.30E-04,  avg # of iterations =  5.0

     negative rho (up, down):  2.714E-03 4.545E-03

     Magnetic moment per site:
     atom:    1    charge:   12.6339    magn:    4.2124    constr:    0.0000
     atom:    2    charge:    5.9640    magn:    0.0033    constr:    0.0000
     atom:    3    charge:   12.6362    magn:   -4.1802    constr:    0.0000
     atom:    4    charge:    5.9649    magn:    0.0284    constr:    0.0000
     atom:    5    charge:   12.6339    magn:    4.2124    constr:    0.0000
     atom:    6    charge:    5.9640    magn:    0.0033    constr:    0.0000
     atom:    7    charge:   12.6311    magn:   -4.2020    constr:    0.0000
     atom:    8    charge:    5.9646    magn:    0.0525    constr:    0.0000
     atom:    9    charge:   12.6311    magn:   -4.2020    constr:    0.0000
     atom:   10    charge:    5.9646    magn:    0.0525    constr:    0.0000
     atom:   11    charge:   12.6339    magn:    4.2124    constr:    0.0000
     atom:   12    charge:    5.9640    magn:    0.0033    constr:    0.0000
     atom:   13    charge:   12.6395    magn:    4.1895    constr:    0.0000
     atom:   14    charge:    5.9649    magn:    0.0284    constr:    0.0000
     atom:   15    charge:   12.6339    magn:    4.2124    constr:    0.0000
     atom:   16    charge:    5.9640    magn:    0.0033    constr:    0.0000

     total cpu time spent up to now is      327.2 secs

     total energy              =   -1946.24623466 Ry
     Harris-Foulkes estimate   =   -1946.25247471 Ry
     estimated scf accuracy    <       0.03092059 Ry

     total magnetization       =    10.00 Bohr mag/cell
     absolute magnetization    =    38.53 Bohr mag/cell

     iteration #  5     ecut=    41.00 Ry     beta=0.30
     Davidson diagonalization with overlap
     ethr =  1.84E-05,  avg # of iterations =  3.9

     negative rho (up, down):  2.765E-03 4.642E-03

     Magnetic moment per site:
     atom:    1    charge:   12.5999    magn:    4.2774    constr:    0.0000
     atom:    2    charge:    5.9746    magn:    0.0019    constr:    0.0000
     atom:    3    charge:   12.6039    magn:   -4.2306    constr:    0.0000
     atom:    4    charge:    5.9758    magn:    0.0520    constr:    0.0000
     atom:    5    charge:   12.5999    magn:    4.2774    constr:    0.0000
     atom:    6    charge:    5.9746    magn:    0.0019    constr:    0.0000
     atom:    7    charge:   12.5969    magn:   -4.2678    constr:    0.0000
     atom:    8    charge:    5.9750    magn:    0.1027    constr:    0.0000
     atom:    9    charge:   12.5969    magn:   -4.2678    constr:    0.0000
     atom:   10    charge:    5.9750    magn:    0.1027    constr:    0.0000
     atom:   11    charge:   12.5999    magn:    4.2774    constr:    0.0000
     atom:   12    charge:    5.9746    magn:    0.0019    constr:    0.0000
     atom:   13    charge:   12.6074    magn:    4.2423    constr:    0.0000
     atom:   14    charge:    5.9758    magn:    0.0520    constr:    0.0000
     atom:   15    charge:   12.5999    magn:    4.2774    constr:    0.0000
     atom:   16    charge:    5.9746    magn:    0.0019    constr:    0.0000

     total cpu time spent up to now is      396.8 secs

     total energy              =   -1946.24543111 Ry
     Harris-Foulkes estimate   =   -1946.24790499 Ry
     estimated scf accuracy    <       0.01199203 Ry

     total magnetization       =    10.00 Bohr mag/cell
     absolute magnetization    =    38.47 Bohr mag/cell
 kfg - setting two_fermi_energies to FALSE

     iteration #  6     ecut=    41.00 Ry     beta=0.30
     Davidson diagonalization with overlap
     ethr =  7.14E-06,  avg # of iterations =  3.8

     negative rho (up, down):  2.761E-03 4.637E-03

     Magnetic moment per site:
     atom:    1    charge:   12.5950    magn:    4.2820    constr:    0.0000
     atom:    2    charge:    5.9747    magn:    0.0013    constr:    0.0000
     atom:    3    charge:   12.5996    magn:   -4.2340    constr:    0.0000
     atom:    4    charge:    5.9760    magn:    0.0564    constr:    0.0000
     atom:    5    charge:   12.5950    magn:    4.2820    constr:    0.0000
     atom:    6    charge:    5.9747    magn:    0.0013    constr:    0.0000
     atom:    7    charge:   12.5919    magn:   -4.2725    constr:    0.0000
     atom:    8    charge:    5.9749    magn:    0.1117    constr:    0.0000
     atom:    9    charge:   12.5919    magn:   -4.2725    constr:    0.0000
     atom:   10    charge:    5.9749    magn:    0.1117    constr:    0.0000
     atom:   11    charge:   12.5950    magn:    4.2820    constr:    0.0000
     atom:   12    charge:    5.9747    magn:    0.0013    constr:    0.0000
     atom:   13    charge:   12.6032    magn:    4.2450    constr:    0.0000
     atom:   14    charge:    5.9760    magn:    0.0564    constr:    0.0000
     atom:   15    charge:   12.5950    magn:    4.2820    constr:    0.0000
     atom:   16    charge:    5.9747    magn:    0.0013    constr:    0.0000

     total cpu time spent up to now is      474.4 secs

     total energy              =   -1946.24752939 Ry
     Harris-Foulkes estimate   =   -1946.24761899 Ry
     estimated scf accuracy    <       0.00050322 Ry

     total magnetization       =    10.01 Bohr mag/cell
     absolute magnetization    =    38.43 Bohr mag/cell

     iteration #  7     ecut=    41.00 Ry     beta=0.30
     Davidson diagonalization with overlap
     ethr =  3.00E-07,  avg # of iterations =  2.1

     negative rho (up, down):  2.755E-03 4.627E-03

     Magnetic moment per site:
     atom:    1    charge:   12.5934    magn:    4.2709    constr:    0.0000
     atom:    2    charge:    5.9752    magn:    0.0009    constr:    0.0000
     atom:    3    charge:   12.5983    magn:   -4.2233    constr:    0.0000
     atom:    4    charge:    5.9766    magn:    0.0581    constr:    0.0000
     atom:    5    charge:   12.5934    magn:    4.2709    constr:    0.0000
     atom:    6    charge:    5.9752    magn:    0.0009    constr:    0.0000
     atom:    7    charge:   12.5901    magn:   -4.2616    constr:    0.0000
     atom:    8    charge:    5.9753    magn:    0.1154    constr:    0.0000
     atom:    9    charge:   12.5901    magn:   -4.2616    constr:    0.0000
     atom:   10    charge:    5.9753    magn:    0.1154    constr:    0.0000
     atom:   11    charge:   12.5934    magn:    4.2709    constr:    0.0000
     atom:   12    charge:    5.9752    magn:    0.0009    constr:    0.0000
     atom:   13    charge:   12.6020    magn:    4.2334    constr:    0.0000
     atom:   14    charge:    5.9766    magn:    0.0581    constr:    0.0000
     atom:   15    charge:   12.5934    magn:    4.2709    constr:    0.0000
     atom:   16    charge:    5.9752    magn:    0.0009    constr:    0.0000

     total cpu time spent up to now is      531.4 secs

     total energy              =   -1946.24759122 Ry
     Harris-Foulkes estimate   =   -1946.24757842 Ry
     estimated scf accuracy    <       0.00007267 Ry

     total magnetization       =    10.01 Bohr mag/cell
     absolute magnetization    =    38.43 Bohr mag/cell

     iteration #  8     ecut=    41.00 Ry     beta=0.30
     Davidson diagonalization with overlap
     ethr =  4.33E-08,  avg # of iterations =  2.0

     negative rho (up, down):  2.745E-03 4.610E-03

     Magnetic moment per site:
     atom:    1    charge:   12.5935    magn:    4.2706    constr:    0.0000
     atom:    2    charge:    5.9751    magn:    0.0007    constr:    0.0000
     atom:    3    charge:   12.5985    magn:   -4.2232    constr:    0.0000
     atom:    4    charge:    5.9764    magn:    0.0589    constr:    0.0000
     atom:    5    charge:   12.5935    magn:    4.2706    constr:    0.0000
     atom:    6    charge:    5.9751    magn:    0.0007    constr:    0.0000
     atom:    7    charge:   12.5900    magn:   -4.2615    constr:    0.0000
     atom:    8    charge:    5.9751    magn:    0.1169    constr:    0.0000
     atom:    9    charge:   12.5900    magn:   -4.2615    constr:    0.0000
     atom:   10    charge:    5.9751    magn:    0.1169    constr:    0.0000
     atom:   11    charge:   12.5935    magn:    4.2706    constr:    0.0000
     atom:   12    charge:    5.9751    magn:    0.0007    constr:    0.0000
     atom:   13    charge:   12.6022    magn:    4.2331    constr:    0.0000
     atom:   14    charge:    5.9764    magn:    0.0589    constr:    0.0000
     atom:   15    charge:   12.5935    magn:    4.2706    constr:    0.0000
     atom:   16    charge:    5.9751    magn:    0.0007    constr:    0.0000

     total cpu time spent up to now is      594.0 secs

     total energy              =   -1946.24760611 Ry
     Harris-Foulkes estimate   =   -1946.24760358 Ry
     estimated scf accuracy    <       0.00000650 Ry

     total magnetization       =    10.01 Bohr mag/cell
     absolute magnetization    =    38.42 Bohr mag/cell

     iteration #  9     ecut=    41.00 Ry     beta=0.30
     Davidson diagonalization with overlap
     ethr =  3.87E-09,  avg # of iterations =  2.3

     negative rho (up, down):  2.734E-03 4.590E-03

     Magnetic moment per site:
     atom:    1    charge:   12.5933    magn:    4.2705    constr:    0.0000
     atom:    2    charge:    5.9749    magn:    0.0004    constr:    0.0000
     atom:    3    charge:   12.5986    magn:   -4.2234    constr:    0.0000
     atom:    4    charge:    5.9763    magn:    0.0600    constr:    0.0000
     atom:    5    charge:   12.5933    magn:    4.2705    constr:    0.0000
     atom:    6    charge:    5.9749    magn:    0.0004    constr:    0.0000
     atom:    7    charge:   12.5896    magn:   -4.2618    constr:    0.0000
     atom:    8    charge:    5.9749    magn:    0.1194    constr:    0.0000
     atom:    9    charge:   12.5896    magn:   -4.2618    constr:    0.0000
     atom:   10    charge:    5.9749    magn:    0.1194    constr:    0.0000
     atom:   11    charge:   12.5933    magn:    4.2705    constr:    0.0000
     atom:   12    charge:    5.9749    magn:    0.0004    constr:    0.0000
     atom:   13    charge:   12.6024    magn:    4.2330    constr:    0.0000
     atom:   14    charge:    5.9763    magn:    0.0600    constr:    0.0000
     atom:   15    charge:   12.5933    magn:    4.2705    constr:    0.0000
     atom:   16    charge:    5.9749    magn:    0.0004    constr:    0.0000

     total cpu time spent up to now is      651.8 secs

     total energy              =   -1946.24760677 Ry
     Harris-Foulkes estimate   =   -1946.24760661 Ry
     estimated scf accuracy    <       0.00000268 Ry

     total magnetization       =    10.01 Bohr mag/cell
     absolute magnetization    =    38.42 Bohr mag/cell

     iteration # 10     ecut=    41.00 Ry     beta=0.30
     Davidson diagonalization with overlap
     ethr =  1.60E-09,  avg # of iterations =  2.8

     negative rho (up, down):  2.738E-03 4.596E-03

     Magnetic moment per site:
     atom:    1    charge:   12.5933    magn:    4.2704    constr:    0.0000
     atom:    2    charge:    5.9749    magn:    0.0003    constr:    0.0000
     atom:    3    charge:   12.5986    magn:   -4.2234    constr:    0.0000
     atom:    4    charge:    5.9763    magn:    0.0601    constr:    0.0000
     atom:    5    charge:   12.5933    magn:    4.2704    constr:    0.0000
     atom:    6    charge:    5.9749    magn:    0.0003    constr:    0.0000
     atom:    7    charge:   12.5896    magn:   -4.2618    constr:    0.0000
     atom:    8    charge:    5.9749    magn:    0.1196    constr:    0.0000
     atom:    9    charge:   12.5896    magn:   -4.2618    constr:    0.0000
     atom:   10    charge:    5.9749    magn:    0.1196    constr:    0.0000
     atom:   11    charge:   12.5933    magn:    4.2704    constr:    0.0000
     atom:   12    charge:    5.9749    magn:    0.0003    constr:    0.0000
     atom:   13    charge:   12.6025    magn:    4.2331    constr:    0.0000
     atom:   14    charge:    5.9763    magn:    0.0601    constr:    0.0000
     atom:   15    charge:   12.5933    magn:    4.2704    constr:    0.0000
     atom:   16    charge:    5.9749    magn:    0.0003    constr:    0.0000

     total cpu time spent up to now is      721.2 secs

     total energy              =   -1946.24760775 Ry
     Harris-Foulkes estimate   =   -1946.24760756 Ry
     estimated scf accuracy    <       0.00000028 Ry

     total magnetization       =    10.01 Bohr mag/cell
     absolute magnetization    =    38.42 Bohr mag/cell

     iteration # 11     ecut=    41.00 Ry     beta=0.30
     Davidson diagonalization with overlap
     ethr =  1.68E-10,  avg # of iterations =  2.2

     negative rho (up, down):  2.739E-03 4.598E-03

     Magnetic moment per site:
     atom:    1    charge:   12.5934    magn:    4.2704    constr:    0.0000
     atom:    2    charge:    5.9749    magn:    0.0003    constr:    0.0000
     atom:    3    charge:   12.5986    magn:   -4.2235    constr:    0.0000
     atom:    4    charge:    5.9763    magn:    0.0601    constr:    0.0000
     atom:    5    charge:   12.5934    magn:    4.2704    constr:    0.0000
     atom:    6    charge:    5.9749    magn:    0.0003    constr:    0.0000
     atom:    7    charge:   12.5896    magn:   -4.2618    constr:    0.0000
     atom:    8    charge:    5.9749    magn:    0.1196    constr:    0.0000
     atom:    9    charge:   12.5896    magn:   -4.2618    constr:    0.0000
     atom:   10    charge:    5.9749    magn:    0.1196    constr:    0.0000
     atom:   11    charge:   12.5934    magn:    4.2704    constr:    0.0000
     atom:   12    charge:    5.9749    magn:    0.0003    constr:    0.0000
     atom:   13    charge:   12.6026    magn:    4.2332    constr:    0.0000
     atom:   14    charge:    5.9763    magn:    0.0601    constr:    0.0000
     atom:   15    charge:   12.5934    magn:    4.2704    constr:    0.0000
     atom:   16    charge:    5.9749    magn:    0.0003    constr:    0.0000

     total cpu time spent up to now is      778.6 secs

     total energy              =   -1946.24760788 Ry
     Harris-Foulkes estimate   =   -1946.24760778 Ry
     estimated scf accuracy    <       0.00000006 Ry

     total magnetization       =    10.01 Bohr mag/cell
     absolute magnetization    =    38.42 Bohr mag/cell

     iteration # 12     ecut=    41.00 Ry     beta=0.30
     Davidson diagonalization with overlap
     ethr =  3.42E-11,  avg # of iterations =  2.4

     negative rho (up, down):  2.738E-03 4.597E-03

     Magnetic moment per site:
     atom:    1    charge:   12.5934    magn:    4.2704    constr:    0.0000
     atom:    2    charge:    5.9750    magn:    0.0003    constr:    0.0000
     atom:    3    charge:   12.5986    magn:   -4.2234    constr:    0.0000
     atom:    4    charge:    5.9763    magn:    0.0600    constr:    0.0000
     atom:    5    charge:   12.5934    magn:    4.2704    constr:    0.0000
     atom:    6    charge:    5.9750    magn:    0.0003    constr:    0.0000
     atom:    7    charge:   12.5896    magn:   -4.2618    constr:    0.0000
     atom:    8    charge:    5.9749    magn:    0.1195    constr:    0.0000
     atom:    9    charge:   12.5896    magn:   -4.2618    constr:    0.0000
     atom:   10    charge:    5.9749    magn:    0.1195    constr:    0.0000
     atom:   11    charge:   12.5934    magn:    4.2704    constr:    0.0000
     atom:   12    charge:    5.9750    magn:    0.0003    constr:    0.0000
     atom:   13    charge:   12.6026    magn:    4.2332    constr:    0.0000
     atom:   14    charge:    5.9763    magn:    0.0600    constr:    0.0000
     atom:   15    charge:   12.5934    magn:    4.2704    constr:    0.0000
     atom:   16    charge:    5.9750    magn:    0.0003    constr:    0.0000

     total cpu time spent up to now is      846.3 secs

     total energy              =   -1946.24760794 Ry
     Harris-Foulkes estimate   =   -1946.24760789 Ry
     estimated scf accuracy    <       0.00000001 Ry

     total magnetization       =    10.01 Bohr mag/cell
     absolute magnetization    =    38.42 Bohr mag/cell

     iteration # 13     ecut=    41.00 Ry     beta=0.30
     Davidson diagonalization with overlap
     ethr =  7.37E-12,  avg # of iterations =  2.7

     negative rho (up, down):  2.737E-03 4.596E-03

     Magnetic moment per site:
     atom:    1    charge:   12.5934    magn:    4.2704    constr:    0.0000
     atom:    2    charge:    5.9750    magn:    0.0003    constr:    0.0000
     atom:    3    charge:   12.5986    magn:   -4.2234    constr:    0.0000
     atom:    4    charge:    5.9763    magn:    0.0600    constr:    0.0000
     atom:    5    charge:   12.5934    magn:    4.2704    constr:    0.0000
     atom:    6    charge:    5.9750    magn:    0.0003    constr:    0.0000
     atom:    7    charge:   12.5896    magn:   -4.2618    constr:    0.0000
     atom:    8    charge:    5.9749    magn:    0.1194    constr:    0.0000
     atom:    9    charge:   12.5896    magn:   -4.2618    constr:    0.0000
     atom:   10    charge:    5.9749    magn:    0.1194    constr:    0.0000
     atom:   11    charge:   12.5934    magn:    4.2704    constr:    0.0000
     atom:   12    charge:    5.9750    magn:    0.0003    constr:    0.0000
     atom:   13    charge:   12.6026    magn:    4.2332    constr:    0.0000
     atom:   14    charge:    5.9763    magn:    0.0600    constr:    0.0000
     atom:   15    charge:   12.5934    magn:    4.2704    constr:    0.0000
     atom:   16    charge:    5.9750    magn:    0.0003    constr:    0.0000

     total cpu time spent up to now is      915.5 secs

     End of self-consistent calculation
 --- enter write_ns ---
 LDA+U parameters:
U( 1)     =  3.00000000
alpha( 1) =  0.00000000
U( 2)     =  3.00000000
alpha( 2) =  0.00000000
atom    1   Tr[ns(na)] (up, down, total) =   4.98771  0.46896  5.45667
   spin  1
    eigenvalues: 
  0.997  0.997  0.997  0.998  0.999
    eigenvectors:
  0.000  0.005  0.960  0.035  0.000
  0.000  0.000  0.000  0.000  1.000
  0.000  0.083  0.025  0.892  0.000
  0.000  0.912  0.015  0.073  0.000
  1.000  0.000  0.000  0.000  0.000
    occupations:
  0.997 -0.000 -0.000 -0.000  0.000
 -0.000  0.999 -0.000  0.000  0.000
 -0.000 -0.000  0.998  0.000  0.000
 -0.000  0.000  0.000  0.997 -0.000
  0.000  0.000  0.000 -0.000  0.997
   spin  2
    eigenvalues: 
  0.052  0.056  0.058  0.150  0.153
    eigenvectors:
  0.000  0.000  0.000  0.073  0.927
  0.997  0.000  0.003  0.000  0.000
  0.000  0.999  0.000  0.000  0.000
  0.000  0.000  0.000  0.926  0.073
  0.003  0.000  0.997  0.000  0.000
    occupations:
  0.153 -0.000  0.001 -0.001  0.000
 -0.000  0.052 -0.000  0.000  0.000
  0.001 -0.000  0.056 -0.002  0.000
 -0.001  0.000 -0.002  0.150 -0.000
  0.000  0.000  0.000 -0.000  0.058
atomic mag. moment =     4.518746
atom    3   Tr[ns(na)] (up, down, total) =   0.50314  4.98315  5.48629
   spin  1
    eigenvalues: 
  0.053  0.059  0.059  0.164  0.168
    eigenvectors:
  0.000  0.000  0.000  0.250  0.750
  1.000  0.000  0.000  0.000  0.000
  0.000  0.382  0.618  0.000  0.000
  0.000  0.000  0.000  0.750  0.250
  0.000  0.618  0.382  0.000  0.000
    occupations:
  0.167 -0.000 -0.000 -0.002  0.000
 -0.000  0.053 -0.000  0.000  0.000
 -0.000 -0.000  0.059  0.000  0.000
 -0.002  0.000  0.000  0.165 -0.000
  0.000  0.000  0.000 -0.000  0.059
   spin  2
    eigenvalues: 
  0.996  0.996  0.996  0.997  0.999
    eigenvectors:
  0.000  0.000  0.250  0.750  0.000
  0.000  0.000  0.000  0.000  1.000
  0.376  0.624  0.000  0.000  0.000
  0.000  0.000  0.750  0.250  0.000
  0.624  0.376  0.000  0.000  0.000
    occupations:
  0.997 -0.000 -0.000 -0.000  0.000
 -0.000  0.999 -0.000  0.000  0.000
 -0.000 -0.000  0.996  0.000  0.000
 -0.000  0.000  0.000  0.997 -0.000
  0.000  0.000  0.000 -0.000  0.996
atomic mag. moment =    -4.480005
atom    5   Tr[ns(na)] (up, down, total) =   4.98771  0.46896  5.45667
   spin  1
    eigenvalues: 
  0.997  0.997  0.997  0.998  0.999
    eigenvectors:
  0.000  0.744  0.149  0.107  0.000
  0.000  0.000  0.000  0.000  1.000
  1.000  0.000  0.000  0.000  0.000
  0.000  0.173  0.826  0.001  0.000
  0.000  0.083  0.025  0.892  0.000
    occupations:
  0.997 -0.000 -0.000 -0.000  0.000
 -0.000  0.999  0.000  0.000  0.000
 -0.000  0.000  0.997  0.000  0.000
 -0.000  0.000  0.000  0.997  0.000
  0.000  0.000  0.000  0.000  0.998
   spin  2
    eigenvalues: 
  0.052  0.056  0.058  0.150  0.153
    eigenvectors:
  0.000  0.001  0.000  0.488  0.512
  0.997  0.000  0.003  0.000  0.000
  0.003  0.000  0.997  0.000  0.000
  0.000  0.000  0.000  0.512  0.488
  0.000  0.999  0.000  0.000  0.000
    occupations:
  0.152 -0.000 -0.000 -0.001 -0.002
 -0.000  0.052  0.000  0.000  0.000
 -0.000  0.000  0.058  0.000  0.000
 -0.001  0.000  0.000  0.152  0.000
 -0.002  0.000  0.000  0.000  0.056
atomic mag. moment =     4.518746
atom    7   Tr[ns(na)] (up, down, total) =   0.47540  4.98480  5.46020
   spin  1
    eigenvalues: 
  0.055  0.058  0.059  0.151  0.152
    eigenvectors:
  0.000  0.000  0.000  0.250  0.750
  0.999  0.000  0.000  0.001  0.000
  0.000  0.500  0.500  0.000  0.000
  0.000  0.000  0.000  0.750  0.250
  0.000  0.500  0.500  0.000  0.000
    occupations:
  0.152 -0.001 -0.000 -0.001  0.000
 -0.001  0.056 -0.000 -0.002  0.000
 -0.000 -0.000  0.058  0.000 -0.000
 -0.001 -0.002  0.000  0.151 -0.000
  0.000  0.000 -0.000 -0.000  0.058
   spin  2
    eigenvalues: 
  0.997  0.997  0.997  0.997  0.998
    eigenvectors:
  0.000  0.000  0.221  0.750  0.029
  0.000  0.000  0.118  0.000  0.882
  0.500  0.500  0.000  0.000  0.000
  0.000  0.000  0.662  0.250  0.088
  0.500  0.500  0.000  0.000  0.000
    occupations:
  0.997  0.000 -0.000 -0.000  0.000
  0.000  0.998 -0.000  0.000  0.000
 -0.000 -0.000  0.997  0.000  0.000
 -0.000  0.000  0.000  0.997 -0.000
  0.000  0.000  0.000 -0.000  0.997
atomic mag. moment =    -4.509398
atom    9   Tr[ns(na)] (up, down, total) =   0.47540  4.98480  5.46020
   spin  1
    eigenvalues: 
  0.055  0.058  0.059  0.151  0.152
    eigenvectors:
  0.000  0.000  0.000  0.250  0.750
  0.999  0.000  0.000  0.001  0.000
  0.000  0.500  0.500  0.000  0.000
  0.000  0.000  0.000  0.750  0.250
  0.000  0.500  0.500  0.000  0.000
    occupations:
  0.152  0.001 -0.000 -0.001  0.000
  0.001  0.056 -0.000  0.002  0.000
 -0.000 -0.000  0.058  0.000  0.000
 -0.001  0.002  0.000  0.151 -0.000
  0.000  0.000  0.000 -0.000  0.058
   spin  2
    eigenvalues: 
  0.997  0.997  0.997  0.997  0.998
    eigenvectors:
  0.000  0.000  0.221  0.750  0.029
  0.000  0.000  0.118  0.000  0.882
  0.500  0.500  0.000  0.000  0.000
  0.000  0.000  0.662  0.250  0.088
  0.500  0.500  0.000  0.000  0.000
    occupations:
  0.997 -0.000 -0.000 -0.000  0.000
 -0.000  0.998 -0.000 -0.000  0.000
 -0.000 -0.000  0.997  0.000 -0.000
 -0.000 -0.000  0.000  0.997 -0.000
  0.000  0.000 -0.000 -0.000  0.997
atomic mag. moment =    -4.509398
atom   11   Tr[ns(na)] (up, down, total) =   4.98771  0.46896  5.45667
   spin  1
    eigenvalues: 
  0.997  0.997  0.997  0.998  0.999
    eigenvectors:
  0.000  0.744  0.149  0.107  0.000
  0.000  0.000  0.000  0.000  1.000
  1.000  0.000  0.000  0.000  0.000
  0.000  0.173  0.826  0.001  0.000
  0.000  0.083  0.025  0.892  0.000
    occupations:
  0.997 -0.000 -0.000 -0.000 -0.000
 -0.000  0.999 -0.000  0.000  0.000
 -0.000 -0.000  0.997  0.000  0.000
 -0.000  0.000  0.000  0.997 -0.000
 -0.000  0.000  0.000 -0.000  0.998
   spin  2
    eigenvalues: 
  0.052  0.056  0.058  0.150  0.153
    eigenvectors:
  0.000  0.001  0.000  0.488  0.512
  0.997  0.000  0.003  0.000  0.000
  0.003  0.000  0.997  0.000  0.000
  0.000  0.000  0.000  0.512  0.488
  0.000  0.999  0.000  0.000  0.000
    occupations:
  0.152 -0.000 -0.000 -0.001  0.002
 -0.000  0.052 -0.000  0.000  0.000
 -0.000 -0.000  0.058  0.000  0.000
 -0.001  0.000  0.000  0.152 -0.000
  0.002  0.000  0.000 -0.000  0.056
atomic mag. moment =     4.518746
atom   13   Tr[ns(na)] (up, down, total) =   4.98656  0.49657  5.48313
   spin  1
    eigenvalues: 
  0.996  0.997  0.997  0.999  0.999
    eigenvectors:
  0.000  0.750  0.250  0.000  0.000
  1.000  0.000  0.000  0.000  0.000
  0.000  0.000  0.000  0.436  0.564
  0.000  0.250  0.750  0.000  0.000
  0.000  0.000  0.000  0.564  0.436
    occupations:
  0.997 -0.000 -0.000  0.000  0.000
 -0.000  0.996 -0.000  0.000  0.000
 -0.000 -0.000  0.999  0.000  0.000
  0.000  0.000  0.000  0.997 -0.000
  0.000  0.000  0.000 -0.000  0.999
   spin  2
    eigenvalues: 
  0.053  0.053  0.059  0.164  0.167
    eigenvectors:
  0.000  0.000  0.000  0.750  0.250
  0.000  0.000  1.000  0.000  0.000
  0.436  0.564  0.000  0.000  0.000
  0.000  0.000  0.000  0.250  0.750
  0.564  0.436  0.000  0.000  0.000
    occupations:
  0.165 -0.000 -0.000  0.002  0.000
 -0.000  0.059 -0.000  0.000  0.000
 -0.000 -0.000  0.053  0.000  0.000
  0.002  0.000  0.000  0.167 -0.000
  0.000  0.000  0.000 -0.000  0.053
atomic mag. moment =     4.489983
atom   15   Tr[ns(na)] (up, down, total) =   4.98771  0.46896  5.45667
   spin  1
    eigenvalues: 
  0.997  0.997  0.997  0.998  0.999
    eigenvectors:
  0.000  0.005  0.960  0.035  0.000
  0.000  0.000  0.000  0.000  1.000
  0.000  0.083  0.025  0.892  0.000
  0.000  0.912  0.015  0.073  0.000
  1.000  0.000  0.000  0.000  0.000
    occupations:
  0.997 -0.000  0.000 -0.000  0.000
 -0.000  0.999 -0.000  0.000 -0.000
  0.000 -0.000  0.998 -0.000  0.000
 -0.000  0.000 -0.000  0.997 -0.000
  0.000 -0.000  0.000 -0.000  0.997
   spin  2
    eigenvalues: 
  0.052  0.056  0.058  0.150  0.153
    eigenvectors:
  0.000  0.000  0.000  0.073  0.927
  0.997  0.000  0.003  0.000  0.000
  0.000  0.999  0.000  0.000  0.000
  0.000  0.000  0.000  0.926  0.073
  0.003  0.000  0.997  0.000  0.000
    occupations:
  0.153 -0.000 -0.001 -0.001  0.000
 -0.000  0.052 -0.000  0.000 -0.000
 -0.001 -0.000  0.056  0.002  0.000
 -0.001  0.000  0.002  0.150 -0.000
  0.000 -0.000  0.000 -0.000  0.058
atomic mag. moment =     4.518746
N of occupied +U levels =   43.716507
 --- exit write_ns ---

 ------ SPIN UP ------------


          k = 0.0000 0.0000 0.0000 (  5329 PWs)   bands (ev):

   -69.0344 -69.0325 -69.0325 -69.0304 -68.8970 -63.9100 -63.9077 -63.8260
   -37.9181 -37.9164 -37.9129 -37.9129 -37.9071 -37.9051 -37.9051 -37.9015
   -37.8871 -37.8871 -37.8855 -37.8819 -37.7693 -37.7693 -37.7587 -32.8937
   -32.8930 -32.8930 -32.8930 -32.8839 -32.8839 -32.8221 -32.8012 -32.8012
    -6.8598  -6.2216  -6.0271  -5.9524  -5.9154  -5.8889  -5.8304  -5.8304
     4.5434   4.5456   4.5471   4.5471   5.8859   5.8859   6.0197   6.0197
     6.1929   6.1929   6.1994   6.5191   6.7686   7.0898   7.4055   7.4055
     7.4969   7.7019   8.2234   8.2234   8.3867   8.4047   8.4047   8.4219
     8.4219   8.4374   8.5239   8.7266   8.7508   8.8648   8.8648   8.8817
     8.9721   9.0817   9.1030   9.2924   9.2924   9.4378   9.4576   9.4609
     9.4609   9.5018   9.7119  10.9837  11.0945  12.2252  12.2252  12.3392
    12.3392  12.4212  14.5982  15.0826  15.0826  15.5017  15.5266  15.6857
    15.6857  15.8276  15.8317  15.8317  16.1178  16.1862  16.2707  16.3838
    16.4179  16.4552  16.4552

          k =-0.1768 0.1768 0.1768 (  5402 PWs)   bands (ev):

   -69.0341 -69.0326 -69.0322 -69.0306 -68.8967 -63.9091 -63.9074 -63.8257
   -37.9167 -37.9134 -37.9127 -37.9089 -37.9065 -37.9051 -37.9043 -37.9018
   -37.8916 -37.8888 -37.8865 -37.8835 -37.7698 -37.7697 -37.7596 -32.8940
   -32.8935 -32.8933 -32.8909 -32.8845 -32.8841 -32.8225 -32.8032 -32.8014
    -6.7313  -6.1841  -6.0597  -6.0087  -5.9545  -5.9213  -5.8815  -5.8288
     4.8261   4.8333   4.8364   4.9861   5.9776   6.0097   6.0637   6.0704
     6.0784   6.1175   6.2044   6.5594   6.7538   6.8250   6.9842   7.1854
     7.4729   7.5486   7.5850   7.6161   7.7437   8.0790   8.0877   8.1890
     8.3168   8.4950   8.6000   8.6857   8.8271   8.8591   8.9447   9.0711
     9.0985   9.2357   9.2566   9.3064   9.3853   9.4094   9.5996   9.7159
     9.7949  10.0417  10.0693  10.9813  11.1063  11.6756  11.8756  11.9035
    11.9316  13.4234  14.7061  15.1384  15.1451  15.5088  15.5805  15.6019
    15.6619  15.6846  15.6957  15.7526  16.0945  16.1347  16.1620  16.2962
    16.5724  16.6074  17.2869

          k = 0.3536-0.3536-0.3536 (  5444 PWs)   bands (ev):

   -69.0337 -69.0328 -69.0319 -69.0308 -68.8964 -63.9082 -63.9072 -63.8254
   -37.9148 -37.9148 -37.9058 -37.9057 -37.9032 -37.9028 -37.9025 -37.9015
   -37.8987 -37.8986 -37.8852 -37.8852 -37.7704 -37.7702 -37.7604 -32.8942
   -32.8941 -32.8936 -32.8887 -32.8852 -32.8844 -32.8229 -32.8053 -32.8016
    -6.4122  -6.3976  -6.1123  -6.0462  -5.9633  -5.9273  -5.9269  -5.8270
     5.4111   5.4134   5.4699   5.6060   5.6358   5.6875   5.9136   6.0928
     6.2428   6.3086   6.4215   6.4392   6.6147   6.6175   6.6841   6.7502
     6.7514   6.8207   7.1770   7.5506   7.5679   7.8189   7.9739   8.1752
     8.2894   8.2945   8.5392   8.7282   8.8694   8.9278   9.1093   9.1237
     9.1282   9.2290   9.2618   9.2891   9.3241   9.3410   9.3949  10.6391
    10.6559  10.8704  10.8709  10.9196  11.0132  11.0417  11.0817  11.1997
    11.2056  14.7194  14.8967  15.0606  15.2246  15.2976  15.4451  15.4581
    15.5161  15.7112  15.7125  16.0459  16.0633  16.0738  16.1288  16.1310
    16.1512  16.2417  18.2802

          k = 0.0000 0.0000 0.3536 (  5425 PWs)   bands (ev):

   -69.0336 -69.0324 -69.0316 -69.0308 -68.8969 -63.9091 -63.9074 -63.8260
   -37.9134 -37.9115 -37.9097 -37.9095 -37.9060 -37.9050 -37.9047 -37.9021
   -37.8912 -37.8910 -37.8903 -37.8869 -37.7701 -37.7691 -37.7596 -32.8940
   -32.8934 -32.8913 -32.8906 -32.8845 -32.8844 -32.8225 -32.8034 -32.8030
    -6.6956  -6.1916  -6.0483  -5.9928  -5.9866  -5.9415  -5.8658  -5.8567
     4.8935   4.9165   4.9521   5.0305   5.8283   5.9643   5.9743   6.1616
     6.1999   6.2579   6.2804   6.5104   6.7419   6.8056   6.8479   6.9156
     7.2114   7.5019   7.5053   7.8075   8.0107   8.0654   8.1269   8.2589
     8.3040   8.4883   8.7168   8.7836   8.7915   8.8841   8.9714   9.0089
     9.0380   9.2347   9.3132   9.3215   9.3750   9.4711   9.5211   9.6207
     9.7379   9.9788  10.0439  10.8904  11.0132  11.1799  11.1925  12.2725
    12.3015  13.7774  14.8577  15.1198  15.2072  15.5012  15.5503  15.5616
    15.5973  15.6198  15.7987  15.8260  15.8998  15.9955  16.1508  16.4190
    16.9502  17.0134  17.0822

          k = 0.5303-0.5303-0.1768 (  5413 PWs)   bands (ev):

   -69.0330 -69.0325 -69.0316 -69.0309 -68.8966 -63.9082 -63.9072 -63.8256
   -37.9109 -37.9108 -37.9056 -37.9050 -37.9038 -37.9030 -37.9018 -37.9011
   -37.8994 -37.8992 -37.8897 -37.8896 -37.7706 -37.7695 -37.7605 -32.8943
   -32.8940 -32.8914 -32.8887 -32.8851 -32.8847 -32.8229 -32.8053 -32.8034
    -6.4585  -6.2471  -6.1821  -6.0713  -5.9852  -5.9671  -5.8808  -5.8239
     5.2974   5.3458   5.4912   5.5953   5.7338   5.8900   5.9855   6.0846
     6.1771   6.2004   6.2857   6.4031   6.5050   6.6236   6.6720   6.8180
     6.9928   7.1347   7.2775   7.3718   7.6666   7.8232   7.9058   8.2061
     8.3000   8.5094   8.5642   8.7273   8.8253   9.0166   9.0449   9.0718
     9.1603   9.3013   9.3195   9.3554   9.3748   9.4504   9.6986   9.9322
    10.0825  10.2296  10.3301  10.6362  10.8331  10.9057  10.9957  11.8200
    11.9143  14.9309  15.0326  15.2141  15.3263  15.4127  15.4406  15.4749
    15.5560  15.6540  15.7088  15.7336  15.8113  15.9157  16.2023  16.3278
    16.4079  16.6896  17.6199

          k = 0.3536-0.3536 0.0000 (  5416 PWs)   bands (ev):

   -69.0336 -69.0326 -69.0323 -69.0306 -68.8964 -63.9080 -63.9074 -63.8254
   -37.9133 -37.9111 -37.9093 -37.9092 -37.9059 -37.9042 -37.9039 -37.9023
   -37.8911 -37.8909 -37.8904 -37.8870 -37.7703 -37.7702 -37.7605 -32.8942
   -32.8941 -32.8916 -32.8909 -32.8848 -32.8847 -32.8229 -32.8034 -32.8034
    -6.5490  -6.1803  -6.1340  -6.1011  -6.0164  -5.9305  -5.8575  -5.8383
     5.1359   5.2090   5.3699   5.3957   5.7224   5.8525   6.0556   6.1502
     6.2772   6.2792   6.4340   6.4725   6.6841   6.7637   6.7750   6.8156
     6.8544   7.0474   7.0639   7.3940   7.6194   7.7569   7.9181   8.3484
     8.4026   8.5090   8.7044   8.7944   8.9315   8.9346   9.0014   9.0838
     9.1913   9.2162   9.2681   9.2833   9.3918   9.4407   9.5415   9.5928
     9.7495  10.7864  10.8329  10.8920  11.0071  11.0075  11.1876  11.5819
    11.6405  14.5079  14.8430  15.2011  15.2493  15.3726  15.5014  15.6024
    15.6161  15.6413  15.7071  15.9052  15.9455  16.0995  16.1417  16.1870
    16.1874  16.8547  17.1664

          k = 0.0000 0.0000-0.7071 (  5434 PWs)   bands (ev):

   -69.0323 -69.0323 -69.0318 -69.0307 -68.8968 -63.9082 -63.9071 -63.8259
   -37.9051 -37.9048 -37.9040 -37.9039 -37.9023 -37.9022 -37.9020 -37.9015
   -37.8994 -37.8992 -37.8986 -37.8984 -37.7710 -37.7689 -37.7605 -32.8944
   -32.8939 -32.8896 -32.8882 -32.8851 -32.8850 -32.8229 -32.8057 -32.8050
    -6.4027  -6.3181  -6.1412  -6.0811  -5.9853  -5.9509  -5.8823  -5.8577
     5.2462   5.2527   5.6210   5.6339   5.7931   5.7979   6.0588   6.0650
     6.1577   6.1984   6.3916   6.4247   6.5982   6.6704   6.6857   6.7250
     6.8150   6.8283   7.4743   7.6594   7.8665   7.9135   7.9802   8.2494
     8.3043   8.4056   8.8065   8.8087   8.8796   8.9250   8.9254   9.1882
     9.3859   9.4313   9.4357   9.4418   9.5390   9.5476   9.5516   9.5662
     9.6587   9.8707   9.9390  10.1236  10.4039  10.6602  10.9441  12.2565
    12.2710  15.1712  15.2002  15.4107  15.4225  15.4391  15.4479  15.4592
    15.4738  15.5192  15.5351  15.5406  15.5590  15.7859  16.4192  16.7327
    17.0125  17.0595  17.5810

          k = 0.0000 0.3536-0.7071 (  5400 PWs)   bands (ev):

   -69.0320 -69.0320 -69.0316 -69.0314 -68.8968 -63.9077 -63.9077 -63.8259
   -37.9046 -37.9046 -37.9046 -37.9040 -37.9021 -37.9021 -37.9019 -37.9018
   -37.8994 -37.8989 -37.8989 -37.8984 -37.7699 -37.7699 -37.7605 -32.8941
   -32.8941 -32.8896 -32.8881 -32.8851 -32.8850 -32.8229 -32.8053 -32.8053
    -6.2891  -6.2851  -6.2116  -6.2116  -5.9611  -5.9478  -5.8593  -5.8593
     5.5453   5.5453   5.5525   5.6854   5.7931   5.8066   5.8638   5.8638
     6.2069   6.4025   6.4025   6.5147   6.5193   6.6241   6.6241   6.6483
     6.8717   7.1100   7.1966   7.1966   7.3504   7.4602   8.2299   8.2299
     8.3454   8.5503   8.5503   8.9884   9.1132   9.1184   9.1184   9.2447
     9.3125   9.3494   9.3494   9.3785   9.3963   9.4817   9.4817   9.5473
     9.7529   9.7529   9.9187  10.5365  10.9995  11.4586  11.4586  11.4732
    11.4834  15.2923  15.2942  15.3905  15.4309  15.4309  15.4629  15.4629
    15.5221  15.5656  15.5656  15.5873  15.6087  16.0937  16.1490  16.1490
    16.7499  16.9977  17.1685

          k = 0.0000 0.3536 0.0000 (  5425 PWs)   bands (ev):

   -69.0346 -69.0332 -69.0332 -69.0305 -68.8959 -63.9083 -63.9072 -63.8249
   -37.9179 -37.9156 -37.9124 -37.9124 -37.9066 -37.9041 -37.9041 -37.9015
   -37.8869 -37.8869 -37.8855 -37.8820 -37.7704 -37.7704 -37.7607 -32.8943
   -32.8940 -32.8936 -32.8936 -32.8844 -32.8844 -32.8229 -32.8015 -32.8015
    -6.7036  -6.1940  -6.0840  -5.9988  -5.9297  -5.9297  -5.9136  -5.8246
     4.7756   4.7756   5.0141   5.0513   5.8467   5.9969   5.9969   6.1707
     6.1707   6.3591   6.3591   6.5861   6.6640   6.8715   7.0466   7.0466
     7.1087   7.3270   7.5994   7.7526   7.8389   7.8389   7.9897   8.4228
     8.4228   8.5271   8.6100   8.8918   8.8918   8.9655   8.9655   8.9724
     8.9960   9.0860   9.1608   9.3674   9.3674   9.4193   9.6630   9.6630
     9.7714   9.8277  10.2649  10.8518  11.0157  11.2331  11.2331  12.2395
    12.2395  13.7932  14.5696  15.1490  15.1490  15.5249  15.5285  15.5285
    15.6362  15.7149  15.7149  15.8107  15.9544  16.0396  16.2326  16.4235
    17.0171  17.1392  17.2366

          k =-0.5303-0.1768 0.5303 (  5413 PWs)   bands (ev):

   -69.0342 -69.0334 -69.0329 -69.0306 -68.8956 -63.9074 -63.9069 -63.8245
   -37.9164 -37.9129 -37.9121 -37.9083 -37.9059 -37.9039 -37.9030 -37.9020
   -37.8915 -37.8889 -37.8863 -37.8836 -37.7710 -37.7709 -37.7616 -32.8946
   -32.8944 -32.8939 -32.8915 -32.8850 -32.8846 -32.8233 -32.8035 -32.8017
    -6.4786  -6.2296  -6.1549  -6.0857  -6.0231  -5.9876  -5.8875  -5.7680
     5.0934   5.1705   5.6043   5.6595   5.7644   5.8559   6.0144   6.1267
     6.2162   6.2455   6.2838   6.4585   6.5015   6.6685   6.8972   6.9042
     6.9204   7.0498   7.2343   7.5422   7.5857   7.6995   7.9912   8.0708
     8.2050   8.3876   8.6911   8.7640   8.7874   8.8684   9.0175   9.0341
     9.1700   9.2287   9.2617   9.5123   9.6018   9.6204   9.7082   9.7398
     9.9950  10.3057  10.3553  10.6229  10.7797  10.9959  11.0482  11.7476
    11.9205  14.6484  14.9510  15.2245  15.2418  15.3824  15.4363  15.5864
    15.6509  15.6699  15.6934  15.7170  15.8832  16.1137  16.2017  16.2495
    16.4695  16.6828  17.7557

          k =-0.3536 0.0000 0.3536 (  5416 PWs)   bands (ev):

   -69.0335 -69.0330 -69.0316 -69.0311 -68.8964 -63.9085 -63.9069 -63.8254
   -37.9148 -37.9148 -37.9061 -37.9053 -37.9035 -37.9024 -37.9024 -37.9017
   -37.8989 -37.8984 -37.8853 -37.8851 -37.7704 -37.7700 -37.7606 -32.8944
   -32.8939 -32.8936 -32.8888 -32.8852 -32.8844 -32.8229 -32.8053 -32.8016
    -6.5418  -6.2059  -6.1301  -6.0415  -6.0166  -5.9823  -5.9198  -5.7691
     5.1511   5.3211   5.4018   5.4285   5.5885   5.9487   5.9683   6.1167
     6.1347   6.2060   6.3161   6.3897   6.6765   6.7031   6.7450   6.7516
     7.0721   7.1964   7.3859   7.5405   7.7084   7.7432   8.1129   8.2972
     8.3363   8.3606   8.3887   8.4096   8.8527   8.9600   9.0465   9.0535
     9.1722   9.3018   9.3242   9.4666   9.5265   9.5355   9.5794   9.6641
     9.7326  10.6000  10.6930  10.8258  11.0313  11.0466  11.1879  11.6294
    11.7505  14.4993  14.8138  15.2104  15.2575  15.4204  15.4247  15.5091
    15.6152  15.6948  15.7474  15.9032  16.0431  16.0801  16.1234  16.1509
    16.4352  16.5002  17.3367

          k = 0.0000-0.7071 0.0000 (  5434 PWs)   bands (ev):

   -69.0348 -69.0338 -69.0338 -69.0306 -68.8948 -63.9066 -63.9066 -63.8237
   -37.9177 -37.9149 -37.9119 -37.9119 -37.9060 -37.9030 -37.9030 -37.9015
   -37.8867 -37.8867 -37.8854 -37.8820 -37.7716 -37.7716 -37.7628 -32.8950
   -32.8948 -32.8941 -32.8941 -32.8849 -32.8849 -32.8237 -32.8019 -32.8019
    -6.4658  -6.2523  -6.1167  -6.0623  -6.0258  -6.0258  -5.9376  -5.7311
     4.9481   4.9481   5.6731   5.9107   6.0157   6.0522   6.0522   6.1361
     6.1751   6.1751   6.2312   6.3096   6.5090   6.5090   6.5548   6.8462
     7.1927   7.3987   7.3987   7.5109   7.6265   7.6265   8.4089   8.4131
     8.4175   8.5428   8.5615   8.5615   8.7662   8.7662   8.8733   8.9727
     9.0920   9.2318   9.2318   9.5357   9.5357   9.8469   9.8469   9.8630
     9.8630   9.8882   9.9467  10.0149  10.2250  10.8491  10.9385  12.2442
    12.2442  14.5414  14.9082  15.2093  15.2093  15.4289  15.4289  15.5145
    15.5352  15.7135  15.7135  15.7774  16.0958  16.0986  16.1911  16.4406
    17.0164  17.3941  17.7038

          k = 0.3536-0.7071 0.0000 (  5400 PWs)   bands (ev):

   -69.0336 -69.0330 -69.0328 -69.0306 -68.8958 -63.9074 -63.9068 -63.8248
   -37.9132 -37.9108 -37.9091 -37.9087 -37.9055 -37.9034 -37.9033 -37.9026
   -37.8912 -37.8907 -37.8904 -37.8871 -37.7713 -37.7702 -37.7616 -32.8947
   -32.8943 -32.8919 -32.8911 -32.8850 -32.8850 -32.8233 -32.8037 -32.8034
    -6.3299  -6.2745  -6.1999  -6.1403  -6.0748  -5.9711  -5.8709  -5.7623
     5.3508   5.3628   5.5627   5.5834   5.8183   5.9791   6.0216   6.1207
     6.2246   6.2419   6.3178   6.3256   6.5660   6.5758   6.6976   6.7590
     6.8467   6.9238   7.3439   7.4725   7.5047   7.6571   8.2550   8.2561
     8.3085   8.3610   8.6901   8.6953   8.7765   8.8828   8.9590   9.1765
     9.1994   9.3322   9.3536   9.4393   9.5754   9.6398   9.7057   9.7328
     9.7542   9.8589   9.8626  10.4951  11.0152  11.4450  11.4541  11.4635
    11.5052  14.8291  15.2329  15.2490  15.3307  15.3318  15.4558  15.5027
    15.5945  15.6278  15.7177  15.7289  15.9856  16.0821  16.1815  16.3959
    16.4179  16.8856  17.1654

 ------ SPIN DOWN ----------


          k = 0.0000 0.0000 0.0000 (  5329 PWs)   bands (ev):

   -69.0750 -69.0729 -68.9515 -63.8567 -63.8547 -63.8547 -63.8527 -63.7575
   -37.9456 -37.9452 -37.9432 -37.9432 -37.9418 -37.9418 -37.8290 -37.8173
   -37.8173 -32.8613 -32.8604 -32.8540 -32.8540 -32.8473 -32.8466 -32.8466
   -32.8413 -32.8193 -32.8193 -32.8181 -32.8111 -32.7485 -32.7485 -32.7300
    -6.7532  -5.9728  -5.8548  -5.8301  -5.8301  -5.7705  -5.7164  -5.6622
     4.9820   4.9820   5.0048   5.0510   6.0098   6.0501   6.3474   6.3474
     6.3532   6.7317   6.8158   7.5803   7.5803   7.6121   7.9404   7.9404
     8.2573   8.2573   8.4980   8.5135   8.5135   8.5362   8.5362   8.5485
     8.7681   8.7695   9.0541   9.0813   9.1047   9.1047   9.5454   9.5487
     9.5487   9.5974   9.5974  10.9166  11.0510  12.2274  12.2887  12.7658
    14.0231  14.4220  14.4220  15.3678  15.4553  15.4595  15.4595  15.6796
    15.6933  15.7276  15.8272  15.8336  15.8850  15.8850  15.9127  15.9153
    16.2364  16.2364  16.3447  16.4785  16.4876  16.4876  16.4894  16.6609
    16.8709  17.0638  17.0638

          k =-0.1768 0.1768 0.1768 (  5402 PWs)   bands (ev):

   -69.0751 -69.0736 -68.9517 -63.8564 -63.8549 -63.8543 -63.8528 -63.7577
   -37.9453 -37.9450 -37.9430 -37.9427 -37.9417 -37.9412 -37.8287 -37.8182
   -37.8172 -32.8597 -32.8555 -32.8539 -32.8491 -32.8470 -32.8463 -32.8449
   -32.8421 -32.8246 -32.8219 -32.8185 -32.8134 -32.7497 -32.7492 -32.7311
    -6.6261  -5.9645  -5.9569  -5.8506  -5.8410  -5.7972  -5.7320  -5.6613
     5.2384   5.2588   5.2866   5.4175   6.1539   6.1888   6.2451   6.2721
     6.2843   6.7850   6.8340   7.2747   7.2968   7.4378   7.6503   7.7937
     7.9275   7.9374   8.1621   8.1860   8.3428   8.4996   8.5891   8.6697
     8.7732   8.8159   9.0086   9.1147   9.2070   9.2585   9.2972   9.4758
     9.5223   9.9458   9.9776  10.9422  11.0816  11.7874  11.8500  13.7115
    14.2779  14.5618  14.5832  15.4175  15.4631  15.4860  15.5262  15.6026
    15.6121  15.6361  15.6465  15.7481  15.8456  15.8563  15.8563  15.9335
    16.1280  16.1765  16.2367  16.2689  16.3086  16.5128  16.5757  16.6851
    16.7412  16.8060  17.6837

          k = 0.3536-0.3536-0.3536 (  5444 PWs)   bands (ev):

   -69.0753 -69.0743 -68.9518 -63.8561 -63.8552 -63.8540 -63.8529 -63.7579
   -37.9449 -37.9448 -37.9428 -37.9423 -37.9416 -37.9405 -37.8285 -37.8192
   -37.8171 -32.8581 -32.8557 -32.8490 -32.8464 -32.8456 -32.8434 -32.8386
   -32.8370 -32.8342 -32.8335 -32.8167 -32.8160 -32.7512 -32.7500 -32.7321
    -6.3100  -6.2952  -5.9541  -5.8540  -5.8460  -5.8130  -5.7344  -5.6618
     5.7268   5.7414   5.7910   5.9694   6.0315   6.0513   6.1650   6.5085
     6.6291   6.6426   6.6619   6.7141   6.7865   6.8152   7.2578   7.7325
     7.7902   7.8217   7.8696   8.0842   8.2508   8.4526   8.5390   8.5499
     8.5900   8.9852   9.0382   9.1695   9.2868   9.2908   9.2952   9.3069
     9.3667  10.7213  10.8829  10.9002  10.9734  11.1237  11.1261  14.6720
    14.8065  14.8215  14.8219  15.1055  15.1807  15.2731  15.3331  15.6430
    15.6700  15.7340  15.7605  15.7847  16.0292  16.0444  16.0774  16.1349
    16.1356  16.1356  16.1410  16.1517  16.1649  16.1998  16.2655  16.2808
    16.2909  16.3204  18.5063

          k = 0.0000 0.0000 0.3536 (  5425 PWs)   bands (ev):

   -69.0751 -69.0736 -68.9514 -63.8561 -63.8554 -63.8546 -63.8532 -63.7574
   -37.9454 -37.9448 -37.9431 -37.9424 -37.9412 -37.9412 -37.8288 -37.8184
   -37.8182 -32.8547 -32.8536 -32.8504 -32.8496 -32.8454 -32.8454 -32.8453
   -32.8424 -32.8243 -32.8240 -32.8236 -32.8171 -32.7505 -32.7488 -32.7310
    -6.5884  -5.9965  -5.9270  -5.8792  -5.8226  -5.7955  -5.7429  -5.6875
     5.2784   5.3850   5.4028   5.4544   6.0328   6.0459   6.3436   6.4143
     6.4538   6.6491   6.8259   7.1885   7.2576   7.3950   7.4045   7.7174
     7.9305   8.0250   8.3581   8.3640   8.3658   8.4073   8.4387   8.6670
     8.7365   8.7732   8.9821   9.1012   9.2574   9.2625   9.4997   9.5197
     9.5208   9.6521  10.0349  10.7767  10.9987  11.1063  12.2820  13.9619
    14.4890  14.5037  14.7192  15.3432  15.4784  15.5185  15.5239  15.5343
    15.5812  15.5985  15.6753  15.7184  15.7733  15.8455  15.8521  15.9784
    16.0335  16.1259  16.1543  16.1682  16.2720  16.3152  16.4956  17.0625
    17.0657  17.3360  17.4930

          k = 0.5303-0.5303-0.1768 (  5413 PWs)   bands (ev):

   -69.0752 -69.0743 -68.9516 -63.8560 -63.8553 -63.8542 -63.8536 -63.7576
   -37.9452 -37.9445 -37.9429 -37.9420 -37.9410 -37.9405 -37.8285 -37.8193
   -37.8182 -32.8524 -32.8506 -32.8477 -32.8468 -32.8455 -32.8440 -32.8373
   -32.8363 -32.8350 -32.8346 -32.8217 -32.8214 -32.7516 -32.7497 -32.7321
    -6.3461  -6.1363  -6.0337  -5.9189  -5.8563  -5.8066  -5.7095  -5.6676
     5.6645   5.7546   5.8453   5.8725   6.1093   6.1786   6.2649   6.3413
     6.3470   6.6274   6.6949   6.8348   7.0838   7.1800   7.3281   7.4273
     7.7072   7.7940   7.8291   8.1528   8.3229   8.3520   8.4217   8.5144
     8.7858   8.9277   9.0311   9.2189   9.3490   9.3685   9.4017   9.4812
     9.5039   9.9125  10.1689  10.6466  10.8412  11.0215  11.8777  14.6541
    14.9454  14.9520  15.0245  15.0817  15.3104  15.3532  15.4417  15.5476
    15.6286  15.6554  15.6703  15.7201  15.7750  15.7882  15.8238  15.8732
    15.9538  15.9817  15.9960  16.1624  16.2333  16.3348  16.6169  16.6583
    16.7555  16.7967  18.0399

          k = 0.3536-0.3536 0.0000 (  5416 PWs)   bands (ev):

   -69.0750 -69.0745 -68.9518 -63.8562 -63.8546 -63.8542 -63.8530 -63.7579
   -37.9450 -37.9447 -37.9429 -37.9423 -37.9410 -37.9410 -37.8285 -37.8181
   -37.8181 -32.8550 -32.8531 -32.8488 -32.8485 -32.8457 -32.8455 -32.8454
   -32.8433 -32.8243 -32.8241 -32.8234 -32.8173 -32.7506 -32.7505 -32.7322
    -6.4425  -6.0406  -6.0161  -5.9345  -5.8703  -5.7979  -5.7199  -5.6434
     5.5533   5.5612   5.7204   5.7604   6.0168   6.1411   6.3493   6.5349
     6.5518   6.5996   6.7018   6.8407   7.0604   7.1768   7.4780   7.5010
     7.7001   7.7512   7.9559   8.0731   8.2253   8.3232   8.3642   8.6483
     8.9713   9.0776   9.0935   9.1735   9.2594   9.2856   9.3136   9.3698
     9.5166   9.6100  10.7737  10.8818  10.9477  11.1096  11.6111  14.5162
    14.6716  14.7629  14.7681  15.3025  15.3678  15.4043  15.5149  15.5704
    15.6370  15.6452  15.6833  15.7662  15.7668  15.7841  15.9917  16.0395
    16.1065  16.1392  16.1677  16.1935  16.2121  16.2399  16.2683  16.2992
    16.5661  17.2779  17.4665

          k = 0.0000 0.0000-0.7071 (  5434 PWs)   bands (ev):

   -69.0752 -69.0742 -68.9513 -63.8561 -63.8550 -63.8545 -63.8545 -63.7573
   -37.9453 -37.9444 -37.9430 -37.9418 -37.9405 -37.9403 -37.8286 -37.8195
   -37.8191 -32.8490 -32.8473 -32.8454 -32.8443 -32.8401 -32.8395 -32.8390
   -32.8381 -32.8340 -32.8326 -32.8319 -32.8312 -32.7526 -32.7491 -32.7321
    -6.2602  -6.1997  -6.0209  -5.9440  -5.8199  -5.7993  -5.7690  -5.6686
     5.6500   5.6636   5.8486   5.9448   6.0467   6.0724   6.5406   6.5703
     6.6028   6.6321   6.6864   6.8029   6.8543   6.8827   7.4842   7.5636
     7.5965   7.6042   7.9502   8.3601   8.4159   8.4614   8.4706   8.6894
     8.6918   8.7772   8.8527   9.4178   9.4235   9.4268   9.4803   9.5550
     9.6221   9.6272   9.6461  10.2293  10.4185  10.9457  12.2875  14.5793
    14.9694  15.2051  15.2742  15.2814  15.4708  15.4721  15.4878  15.5014
    15.5072  15.5072  15.5215  15.5780  15.5824  15.6020  15.6056  15.7743
    15.7840  15.8291  15.8328  16.1527  16.2387  16.4990  17.0612  17.0648
    17.1460  17.5157  17.8558

          k = 0.0000 0.3536-0.7071 (  5400 PWs)   bands (ev):

   -69.0747 -69.0747 -68.9513 -63.8554 -63.8552 -63.8547 -63.8547 -63.7573
   -37.9448 -37.9448 -37.9430 -37.9417 -37.9405 -37.9404 -37.8285 -37.8193
   -37.8193 -32.8472 -32.8466 -32.8466 -32.8455 -32.8398 -32.8398 -32.8386
   -32.8385 -32.8341 -32.8324 -32.8317 -32.8317 -32.7508 -32.7508 -32.7321
    -6.1519  -6.1519  -6.1195  -6.0704  -5.7995  -5.7995  -5.7306  -5.6616
     5.8261   5.8261   5.9700   5.9996   6.1054   6.1806   6.1806   6.5687
     6.5967   6.6395   6.6395   6.8004   6.8004   6.8851   7.0270   7.3591
     7.7737   7.8434   7.9479   7.9479   8.3358   8.3751   8.3751   8.4575
     9.0131   9.1827   9.1827   9.2337   9.3619   9.3832   9.3969   9.3969
     9.5831   9.5831   9.5981  10.4609  11.0056  11.4770  11.4770  14.8490
    14.8490  15.2053  15.2626  15.3273  15.3489  15.5020  15.5020  15.5173
    15.5192  15.5192  15.5335  15.6414  15.6775  15.6775  15.6858  15.7722
    15.8780  16.0782  16.0782  16.1095  16.2350  16.2350  16.4648  16.5246
    17.2693  17.2693  17.5508

          k = 0.0000 0.3536 0.0000 (  5425 PWs)   bands (ev):

   -69.0754 -69.0743 -68.9524 -63.8564 -63.8538 -63.8538 -63.8522 -63.7585
   -37.9451 -37.9446 -37.9430 -37.9430 -37.9414 -37.9414 -37.8284 -37.8170
   -37.8170 -32.8618 -32.8580 -32.8534 -32.8534 -32.8477 -32.8461 -32.8461
   -32.8423 -32.8191 -32.8191 -32.8183 -32.8112 -32.7501 -32.7501 -32.7324
    -6.5954  -5.9531  -5.9335  -5.8691  -5.8534  -5.8534  -5.7785  -5.6021
     5.1753   5.2007   5.4361   5.4361   6.0583   6.0758   6.4030   6.4030
     6.5871   6.8258   6.8433   7.3850   7.3850   7.4384   7.6262   7.7493
     7.7493   7.8422   7.8422   8.1764   8.2296   8.4458   8.4458   8.7730
     8.8357   8.8357   9.0424   9.0920   9.0920   9.1718   9.5104   9.5104
     9.7582   9.7582  10.0342  10.9001  10.9336  11.1339  12.2499  13.9777
    14.0211  14.6949  14.6949  15.3674  15.4292  15.4858  15.5495  15.5495
    15.6419  15.6969  15.7579  15.7662  15.7763  15.7854  15.7854  15.9991
    15.9991  16.1083  16.1199  16.2482  16.2482  16.3455  16.4865  17.0697
    17.0697  17.4688  17.5758

          k =-0.5303-0.1768 0.5303 (  5413 PWs)   bands (ev):

   -69.0755 -69.0750 -68.9526 -63.8562 -63.8539 -63.8533 -63.8524 -63.7587
   -37.9451 -37.9441 -37.9428 -37.9425 -37.9413 -37.9407 -37.8282 -37.8180
   -37.8169 -32.8596 -32.8545 -32.8523 -32.8476 -32.8471 -32.8459 -32.8450
   -32.8435 -32.8246 -32.8220 -32.8182 -32.8136 -32.7514 -32.7509 -32.7335
    -6.3650  -6.1174  -5.9905  -5.9450  -5.8662  -5.8638  -5.7389  -5.5872
     5.4216   5.5190   5.9086   5.9154   6.0884   6.1530   6.3442   6.4440
     6.5414   6.7105   6.8902   7.0361   7.0630   7.1874   7.3280   7.3583
     7.4809   7.8882   8.0051   8.0863   8.1372   8.2587   8.4052   8.5344
     8.5428   8.9461   9.0079   9.0803   9.2252   9.3923   9.4469   9.7051
     9.7189   9.8612  10.1992  10.6963  10.9048  10.9605  11.8569  14.2670
    14.9492  14.9930  14.9991  15.2518  15.3286  15.3662  15.3818  15.6024
    15.6231  15.6278  15.6857  15.7146  15.7259  15.7591  15.8302  15.8658
    15.9753  15.9911  16.0266  16.2710  16.3356  16.4397  16.4481  16.6455
    16.7700  16.8103  18.1575

          k =-0.3536 0.0000 0.3536 (  5416 PWs)   bands (ev):

   -69.0755 -69.0740 -68.9518 -63.8559 -63.8553 -63.8537 -63.8532 -63.7579
   -37.9453 -37.9444 -37.9428 -37.9423 -37.9416 -37.9405 -37.8285 -37.8192
   -37.8171 -32.8569 -32.8565 -32.8480 -32.8478 -32.8458 -32.8433 -32.8381
   -32.8376 -32.8340 -32.8337 -32.8166 -32.8162 -32.7509 -32.7500 -32.7323
    -6.4364  -6.0913  -5.9585  -5.9403  -5.8492  -5.8381  -5.7110  -5.6403
     5.5302   5.6800   5.7939   5.8340   5.8837   6.1343   6.1937   6.4432
     6.5079   6.5185   6.8135   6.9410   7.0267   7.0933   7.2475   7.6913
     7.8415   7.8777   8.1630   8.2659   8.3115   8.3258   8.4234   8.4570
     8.7992   8.8285   8.8674   8.9804   9.1495   9.3896   9.4283   9.5311
     9.6198   9.7276  10.6718  10.8905  10.9004  11.1258  11.6684  14.6622
    14.7293  14.8193  14.8280  14.8338  15.3820  15.4052  15.4668  15.5242
    15.5326  15.6791  15.7945  15.8567  15.8819  15.9250  15.9931  16.0435
    16.1004  16.1162  16.1163  16.1385  16.2084  16.2115  16.2260  16.2859
    16.7835  16.9935  17.6487

          k = 0.0000-0.7071 0.0000 (  5434 PWs)   bands (ev):

   -69.0758 -69.0758 -68.9533 -63.8561 -63.8528 -63.8528 -63.8518 -63.7595
   -37.9450 -37.9437 -37.9427 -37.9427 -37.9410 -37.9410 -37.8279 -37.8167
   -37.8167 -32.8623 -32.8556 -32.8531 -32.8531 -32.8479 -32.8452 -32.8452
   -32.8433 -32.8189 -32.8189 -32.8184 -32.8112 -32.7518 -32.7518 -32.7350
    -6.3344  -6.1163  -5.9647  -5.9332  -5.8763  -5.8763  -5.8396  -5.5389
     5.2700   5.2779   5.8530   6.0665   6.2978   6.2978   6.6041   6.6041
     6.7168   6.7360   6.7360   6.8358   7.0568   7.1017   7.1017   7.6313
     7.8280   7.8465   7.9279   7.9279   7.9694   8.4861   8.4861   8.7765
     8.8709   8.8709   8.8860   8.9439   8.9439   9.1729   9.6190   9.6190
     9.6457   9.9557   9.9557  10.1319  10.6709  10.9513  12.2737  14.0198
    15.0682  15.1682  15.1682  15.2640  15.3432  15.3666  15.3704  15.5097
    15.5097  15.5693  15.5693  15.5859  15.6057  15.6253  15.8094  15.8134
    15.8134  15.9367  15.9367  16.3463  16.4120  16.4781  16.8378  17.0688
    17.0688  17.7408  17.9105

          k = 0.3536-0.7071 0.0000 (  5400 PWs)   bands (ev):

   -69.0755 -69.0750 -68.9523 -63.8562 -63.8539 -63.8537 -63.8530 -63.7584
   -37.9452 -37.9440 -37.9428 -37.9422 -37.9408 -37.9407 -37.8282 -37.8181
   -37.8179 -32.8553 -32.8507 -32.8492 -32.8480 -32.8459 -32.8455 -32.8447
   -32.8444 -32.8243 -32.8242 -32.8232 -32.8174 -32.7522 -32.7504 -32.7335
    -6.2068  -6.1400  -6.0895  -6.0187  -5.9102  -5.8115  -5.7037  -5.6035
     5.6099   5.6689   5.8469   5.9500   6.2293   6.2590   6.3494   6.4478
     6.5840   6.7220   6.7293   6.8384   6.9437   7.0583   7.0780   7.4582
     7.6972   7.7749   7.8712   8.1495   8.2367   8.3600   8.4124   8.4685
     8.8613   8.9032   8.9479   9.1796   9.2230   9.3722   9.4321   9.5120
     9.6377   9.7702   9.7999  10.4989  11.0105  11.4709  11.4901  14.5330
    14.8647  15.2486  15.2822  15.2833  15.3229  15.3627  15.3962  15.3963
    15.5019  15.5925  15.6010  15.7080  15.7106  15.8056  15.8129  15.8375
    15.8940  16.0623  16.1313  16.1409  16.1705  16.2471  16.4977  16.7044
    16.9995  17.2669  17.5524

     the Fermi energy is    12.4740 ev

!    total energy              =   -1946.24760800 Ry
     Harris-Foulkes estimate   =   -1946.24760794 Ry
     estimated scf accuracy    <          2.7E-09 Ry

     The total energy is the sum of the following terms:

     one-electron contribution =    -894.56413464 Ry
     hartree contribution      =     531.39788835 Ry
     xc contribution           =    -269.89716851 Ry
     ewald contribution        =   -1313.56707236 Ry
     Hubbard energy            =       0.38309614 Ry
     smearing contrib. (-TS)   =      -0.00021697 Ry

     total magnetization       =    10.01 Bohr mag/cell
     absolute magnetization    =    38.42 Bohr mag/cell

     convergence has been achieved in  13 iterations

     Forces acting on atoms (Ry/au):


     negative rho (up, down):  2.737E-03 4.596E-03
     atom    1 type  1   force =  -0.22312356E-29 -0.22312356E-29  0.44624712E-29
     atom    2 type  3   force =  -0.73472162E-03 -0.10842022E-18  0.10842022E-18
     atom    3 type  2   force =  -0.22312356E-29  0.00000000E+00  0.22312356E-29
     atom    4 type  3   force =   0.11156178E-29 -0.33468534E-29  0.11156178E-29
     atom    5 type  1   force =   0.00000000E+00  0.00000000E+00  0.44624712E-29
     atom    6 type  3   force =   0.00000000E+00  0.00000000E+00  0.73472162E-03
     atom    7 type  2   force =   0.11156178E-29  0.11156178E-29 -0.11156178E-29
     atom    8 type  3   force =   0.00000000E+00  0.29899640E-02  0.00000000E+00
     atom    9 type  2   force =  -0.22312356E-29  0.00000000E+00  0.22312356E-29
     atom   10 type  3   force =   0.00000000E+00 -0.29899640E-02  0.00000000E+00
     atom   11 type  1   force =   0.16734267E-29  0.55780890E-30 -0.50202801E-29
     atom   12 type  3   force =   0.10842022E-18 -0.10842022E-18 -0.73472162E-03
     atom   13 type  1   force =   0.00000000E+00  0.00000000E+00  0.00000000E+00
     atom   14 type  3   force =   0.11156178E-29  0.11156178E-29 -0.33468534E-29
     atom   15 type  1   force =   0.00000000E+00 -0.44624712E-29  0.44624712E-29
     atom   16 type  3   force =   0.73472162E-03 -0.10842022E-18  0.10842022E-18

     Total force =     0.004476     Total SCF correction =     0.000051


     entering subroutine stress ...


     negative rho (up, down):  2.737E-03 4.596E-03
          total   stress  (Ry/bohr**3)                   (kbar)     P=  -19.13
  -0.0001216526   0.0000000000   0.0000000000        -17.90      0.00      0.00
   0.0000000000  -0.0001467979  -0.0000000000          0.00    -21.59     -0.00
   0.0000000000   0.0000000000  -0.0001216526          0.00      0.00    -17.90


     Writing output data file mno_fm.scf.in.super.222.sub_frozen.044.save

     init_run     :     25.43s CPU     24.36s WALL (       1 calls)
     electrons    :    862.43s CPU    890.85s WALL (       1 calls)
     forces       :     70.00s CPU     78.43s WALL (       1 calls)
     stress       :    202.76s CPU    224.37s WALL (       1 calls)

     Called by init_run:
     wfcinit      :     23.99s CPU     22.83s WALL (       1 calls)
     potinit      :      0.23s CPU      0.26s WALL (       1 calls)

     Called by electrons:
     c_bands      :    765.81s CPU    796.76s WALL (      13 calls)
     sum_band     :     88.59s CPU     85.96s WALL (      13 calls)
     v_of_rho     :      2.05s CPU      2.07s WALL (      14 calls)
     newd         :      5.18s CPU      5.21s WALL (      14 calls)
     mix_rho      :      1.07s CPU      1.09s WALL (      13 calls)

     Called by c_bands:
     init_us_2    :      3.73s CPU      3.89s WALL (    1040 calls)
     cegterg      :    752.18s CPU    782.71s WALL (     338 calls)

     Called by *egterg:
     h_psi        :    374.83s CPU    372.55s WALL (    1378 calls)
     s_psi        :     53.18s CPU     41.03s WALL (    1664 calls)
     g_psi        :      0.52s CPU      0.49s WALL (    1014 calls)
     cdiaghg      :    192.76s CPU    244.17s WALL (    1352 calls)

     Called by h_psi:
     add_vuspsi   :     39.46s CPU     31.20s WALL (    1378 calls)
     vhpsi        :     35.52s CPU     45.14s WALL (    1378 calls)

     General routines
     calbec       :    320.24s CPU    343.22s WALL (   19240 calls)
     fft          :      1.92s CPU      2.00s WALL (     468 calls)
     ffts         :      0.63s CPU      0.63s WALL (     328 calls)
     fftw         :    276.49s CPU    280.10s WALL (  210392 calls)
     interpolate  :      0.25s CPU      0.26s WALL (      54 calls)
     davcio       :      0.00s CPU      0.01s WALL (      26 calls)

     Parallel routines
     fft_scatter  :    119.24s CPU    122.03s WALL (  211188 calls)
     Hubbard U routines
     new_ns       :      7.02s CPU      7.40s WALL (      13 calls)
     vhpsi        :     35.52s CPU     45.14s WALL (    1378 calls)
     force_hub    :     61.31s CPU     70.89s WALL (       1 calls)
     stres_hub    :    181.70s CPU    203.67s WALL (       1 calls)

     PWSCF        : 19m23.17s CPU    20m20.98s WALL


   This run was terminated on:  11:28:29  17Aug2017            

=------------------------------------------------------------------------------=
   JOB DONE.
=------------------------------------------------------------------------------=
