
     Program PWSCF v.5.1 starts on 14Aug2017 at 14:21:52 

     This program is part of the open-source Quantum ESPRESSO suite
     for quantum simulation of materials; please cite
         "P. Giannozzi et al., J. Phys.:Condens. Matter 21 395502 (2009);
          URL http://www.quantum-espresso.org", 
     in publications or presentations arising from this work. More details at
     http://www.quantum-espresso.org/quote

     Parallel version (MPI), running on     8 processors
     R & G space division:  proc/nbgrp/npool/nimage =       8
     Reading input from /tmp/mno_fm.scf.in.9605/mno_fm.scf.in.t
Warning: card &IONS ignored
Warning: card   ION_DYNAMICS='BFGS', ignored
Warning: card / ignored
Warning: card &CELL ignored
Warning: card  CELL_DYNAMICS = 'BFGS' ignored
Warning: card / ignored

     Current dimensions of program PWSCF are:
     Max number of different atomic species (ntypx) = 10
     Max number of k-points (npk) =  40000
     Max angular momentum in pseudopotentials (lmaxx) =  3

     Subspace diagonalization in iterative solution of the eigenvalue problem:
     a serial algorithm will be used


     Parallelization info
     --------------------
     sticks:   dense  smooth     PW     G-vecs:    dense   smooth      PW
     Min          62      51     15                  922      658     120
     Max          63      52     16                  926      675     123
     Sum         499     409    127                 7391     5329     965

     Generating pointlists ...
     new r_m :   0.2917 (alat units)  1.7495 (a.u.) for type    1
     new r_m :   0.2917 (alat units)  1.7495 (a.u.) for type    2


     bravais-lattice index     =            0
     lattice parameter (alat)  =     5.998073469  a.u.
     unit-cell volume          =     152.5880 (a.u.)^3
     number of atoms/cell      =            2
     number of atomic types    =            2
     number of electrons       =        21.00
     number of Kohn-Sham states=           15
     kinetic-energy cutoff     =      41.0000  Ry
     charge density cutoff     =     200.0000  Ry
     convergence threshold     =      1.0E-08
     mixing beta               =       0.3000
     number of iterations used =            8  local-TF  mixing
     Exchange-correlation      = SLA  PW   PSX  PSC ( 1  4 10  8 0)
     A smooth kinetic-energy cutoff is imposed at      40.0000 Ry
     height of the smooth step-function =             800.0000 Ry
     width of the smooth step-function  =               1.0000 Ry


     celldm(1)=   5.998073  celldm(2)=   0.000000  celldm(3)=   0.000000
     celldm(4)=   0.000000  celldm(5)=   0.000000  celldm(6)=   0.000000

     crystal axes: (cart. coord. in units of alat)
               a(1) = (   0.707106781187   0.707106781187   0.000000000000 )  
               a(2) = (   0.707106781187   0.000000000000   0.707106781187 )  
               a(3) = (   0.000000000000   0.707106781187   0.707106781187 )  

     reciprocal axes: (cart. coord. in units 2 pi/alat)
               b(1) = (  0.707107  0.707107 -0.707107 )  
               b(2) = (  0.707107 -0.707107  0.707107 )  
               b(3) = ( -0.707107  0.707107  0.707107 )  


     PseudoPot. # 1 for Mn read from file:
     /users/kfg/psuedo/gbrv_1.5/mn.pbesol.UPF
     MD5 check sum: 0716d5f563e6e95a34f9080f4c78c109
     Pseudo is Ultrasoft + core correction, Zval = 15.0
     Generated by new atomic code, or converted to UPF format
     Using radial grid of  859 points,  6 beta functions with: 
                l(1) =   0
                l(2) =   0
                l(3) =   1
                l(4) =   1
                l(5) =   2
                l(6) =   2
     Q(r) pseudized with  8 coefficients,  rinner =    0.950   0.950   0.950
                                                       0.950   0.950

     PseudoPot. # 2 for O  read from file:
     /users/kfg/psuedo/gbrv_1.5/o.pbesol.UPF
     MD5 check sum: 501638753501ef6325af9037351f7734
     Pseudo is Ultrasoft + core correction, Zval =  6.0
     Generated by new atomic code, or converted to UPF format
     Using radial grid of  737 points,  5 beta functions with: 
                l(1) =   0
                l(2) =   0
                l(3) =   1
                l(4) =   1
                l(5) =   2
     Q(r) pseudized with  8 coefficients,  rinner =    0.900   0.900   0.900
                                                       0.900   0.900

     atomic species   valence    mass     pseudopotential
        Mn            15.00    54.90000     Mn( 1.00)
        O              6.00    15.99900     O ( 1.00)

     Starting magnetic structure 
     atomic species   magnetization
        Mn           1.000
        O            0.000


     Simplified LDA+U calculation (l_max = 2) with parameters (eV):
     atomic species    L          U    alpha       J0     beta
        Mn             2     3.0000   0.0000   0.0000   0.0000



     48 Sym. Ops., with inversion, found



   Cartesian axes

     site n.     atom                  positions (alat units)
         1           Mn  tau(   1) = (    0.00000000000    0.00000000000    0.00000000000  )
         2           O   tau(   2) = (    0.70710678119    0.70710678119    0.70710678119  )

     number of k points=    58  gaussian smearing, width (Ry)=  0.0100
                       cart. coord. in units 2pi/alat
        k(    1) = (   0.0000000   0.0000000   0.0000000), wk =   0.0019531
        k(    2) = (  -0.0883883   0.0883883   0.0883883), wk =   0.0156250
        k(    3) = (  -0.1767767   0.1767767   0.1767767), wk =   0.0156250
        k(    4) = (  -0.2651650   0.2651650   0.2651650), wk =   0.0156250
        k(    5) = (   0.3535534  -0.3535534  -0.3535534), wk =   0.0078125
        k(    6) = (   0.0000000   0.0000000   0.1767767), wk =   0.0117188
        k(    7) = (  -0.0883883   0.0883883   0.2651650), wk =   0.0468750
        k(    8) = (  -0.1767767   0.1767767   0.3535534), wk =   0.0468750
        k(    9) = (   0.4419417  -0.4419417  -0.2651650), wk =   0.0468750
        k(   10) = (   0.3535534  -0.3535534  -0.1767767), wk =   0.0468750
        k(   11) = (   0.2651650  -0.2651650  -0.0883883), wk =   0.0468750
        k(   12) = (   0.1767767  -0.1767767   0.0000000), wk =   0.0234375
        k(   13) = (   0.0000000   0.0000000   0.3535534), wk =   0.0117188
        k(   14) = (  -0.0883883   0.0883883   0.4419417), wk =   0.0468750
        k(   15) = (   0.5303301  -0.5303301  -0.1767767), wk =   0.0468750
        k(   16) = (   0.4419417  -0.4419417  -0.0883883), wk =   0.0468750
        k(   17) = (   0.3535534  -0.3535534   0.0000000), wk =   0.0234375
        k(   18) = (   0.0000000   0.0000000   0.5303301), wk =   0.0117188
        k(   19) = (   0.6187184  -0.6187184  -0.0883883), wk =   0.0468750
        k(   20) = (   0.5303301  -0.5303301   0.0000000), wk =   0.0234375
        k(   21) = (   0.0000000   0.0000000  -0.7071068), wk =   0.0058594
        k(   22) = (   0.0000000   0.1767767   0.3535534), wk =   0.0468750
        k(   23) = (   0.6187184  -0.4419417  -0.2651650), wk =   0.0937500
        k(   24) = (   0.5303301  -0.3535534  -0.1767767), wk =   0.0468750
        k(   25) = (   0.7071068  -0.5303301  -0.1767767), wk =   0.0468750
        k(   26) = (   0.6187184  -0.4419417  -0.0883883), wk =   0.0937500
        k(   27) = (   0.5303301  -0.3535534   0.0000000), wk =   0.0468750
        k(   28) = (   0.0000000   0.1767767  -0.7071068), wk =   0.0234375
        k(   29) = (   0.0000000   0.3535534  -0.7071068), wk =   0.0117188
        k(   30) = (   0.0000000   0.0000000   0.0000000), wk =   0.0019531
        k(   31) = (  -0.0883883   0.0883883   0.0883883), wk =   0.0156250
        k(   32) = (  -0.1767767   0.1767767   0.1767767), wk =   0.0156250
        k(   33) = (  -0.2651650   0.2651650   0.2651650), wk =   0.0156250
        k(   34) = (   0.3535534  -0.3535534  -0.3535534), wk =   0.0078125
        k(   35) = (   0.0000000   0.0000000   0.1767767), wk =   0.0117188
        k(   36) = (  -0.0883883   0.0883883   0.2651650), wk =   0.0468750
        k(   37) = (  -0.1767767   0.1767767   0.3535534), wk =   0.0468750
        k(   38) = (   0.4419417  -0.4419417  -0.2651650), wk =   0.0468750
        k(   39) = (   0.3535534  -0.3535534  -0.1767767), wk =   0.0468750
        k(   40) = (   0.2651650  -0.2651650  -0.0883883), wk =   0.0468750
        k(   41) = (   0.1767767  -0.1767767   0.0000000), wk =   0.0234375
        k(   42) = (   0.0000000   0.0000000   0.3535534), wk =   0.0117188
        k(   43) = (  -0.0883883   0.0883883   0.4419417), wk =   0.0468750
        k(   44) = (   0.5303301  -0.5303301  -0.1767767), wk =   0.0468750
        k(   45) = (   0.4419417  -0.4419417  -0.0883883), wk =   0.0468750
        k(   46) = (   0.3535534  -0.3535534   0.0000000), wk =   0.0234375
        k(   47) = (   0.0000000   0.0000000   0.5303301), wk =   0.0117188
        k(   48) = (   0.6187184  -0.6187184  -0.0883883), wk =   0.0468750
        k(   49) = (   0.5303301  -0.5303301   0.0000000), wk =   0.0234375
        k(   50) = (   0.0000000   0.0000000  -0.7071068), wk =   0.0058594
        k(   51) = (   0.0000000   0.1767767   0.3535534), wk =   0.0468750
        k(   52) = (   0.6187184  -0.4419417  -0.2651650), wk =   0.0937500
        k(   53) = (   0.5303301  -0.3535534  -0.1767767), wk =   0.0468750
        k(   54) = (   0.7071068  -0.5303301  -0.1767767), wk =   0.0468750
        k(   55) = (   0.6187184  -0.4419417  -0.0883883), wk =   0.0937500
        k(   56) = (   0.5303301  -0.3535534   0.0000000), wk =   0.0468750
        k(   57) = (   0.0000000   0.1767767  -0.7071068), wk =   0.0234375
        k(   58) = (   0.0000000   0.3535534  -0.7071068), wk =   0.0117188

     Dense  grid:     7391 G-vectors     FFT dimensions: (  27,  27,  27)

     Smooth grid:     5329 G-vectors     FFT dimensions: (  25,  25,  25)

     Largest allocated arrays     est. size (Mb)     dimensions
        Kohn-Sham Wavefunctions         0.02 Mb     (      97,   15)
        Atomic Hubbard wavefuncts       0.01 Mb     (      97,    5)
        NL pseudopotentials             0.05 Mb     (      97,   31)
        Each V/rho on FFT grid          0.09 Mb     (    2916,   2)
        Each G-vector array             0.01 Mb     (     923)
        G-vector shells                 0.00 Mb     (     122)
     Largest temporary arrays     est. size (Mb)     dimensions
        Auxiliary wavefunctions         0.09 Mb     (      97,   60)
        Each subspace H/S matrix        0.05 Mb     (      60,   60)
        Each <psi_i|beta_j> matrix      0.01 Mb     (      31,   15)
        Arrays for rho mixing           0.36 Mb     (    2916,    8)

     Check: negative/imaginary core charge=   -0.000056    0.000000

     Initial potential from superposition of free atoms

     starting charge   20.49992, renormalised to   21.00000
     Number of +U iterations with fixed ns =  0
     Starting occupations:
 --- enter write_ns ---
 LDA+U parameters:
U( 1)     =  3.00000000
alpha( 1) =  0.00000000
atom    1   Tr[ns(na)] (up, down, total) =   5.00000  0.00000  5.00000
   spin  1
    eigenvalues: 
  1.000  1.000  1.000  1.000  1.000
    eigenvectors:
  1.000  0.000  0.000  0.000  0.000
  0.000  1.000  0.000  0.000  0.000
  0.000  0.000  1.000  0.000  0.000
  0.000  0.000  0.000  1.000  0.000
  0.000  0.000  0.000  0.000  1.000
    occupations:
  1.000  0.000  0.000  0.000  0.000
  0.000  1.000  0.000  0.000  0.000
  0.000  0.000  1.000  0.000  0.000
  0.000  0.000  0.000  1.000  0.000
  0.000  0.000  0.000  0.000  1.000
   spin  2
    eigenvalues: 
  0.000  0.000  0.000  0.000  0.000
    eigenvectors:
  1.000  0.000  0.000  0.000  0.000
  0.000  1.000  0.000  0.000  0.000
  0.000  0.000  1.000  0.000  0.000
  0.000  0.000  0.000  1.000  0.000
  0.000  0.000  0.000  0.000  1.000
    occupations:
  0.000  0.000  0.000  0.000  0.000
  0.000  0.000  0.000  0.000  0.000
  0.000  0.000  0.000  0.000  0.000
  0.000  0.000  0.000  0.000  0.000
  0.000  0.000  0.000  0.000  0.000
atomic mag. moment =     5.000000
N of occupied +U levels =    5.000000
 --- exit write_ns ---
 Atomic wfc used for LDA+U Projector are NOT orthogonalized
     Starting wfc are   17 randomized atomic wfcs

     total cpu time spent up to now is        0.7 secs

     per-process dynamical memory:     8.1 Mb

     Self-consistent Calculation

     iteration #  1     ecut=    41.00 Ry     beta=0.30
     Davidson diagonalization with overlap
     ethr =  1.00E-02,  avg # of iterations =  2.9
 --- enter write_ns ---
 LDA+U parameters:
U( 1)     =  3.00000000
alpha( 1) =  0.00000000
atom    1   Tr[ns(na)] (up, down, total) =   4.98839  0.19337  5.18176
   spin  1
    eigenvalues: 
  0.997  0.997  0.998  0.998  0.998
    eigenvectors:
  0.322  0.678  0.000  0.000  0.000
  0.000  0.000  0.130  0.224  0.647
  0.000  0.000  0.298  0.350  0.351
  0.678  0.322  0.000  0.000  0.000
  0.000  0.000  0.572  0.426  0.002
    occupations:
  0.997 -0.000 -0.000  0.000  0.000
 -0.000  0.998 -0.000  0.000  0.000
 -0.000 -0.000  0.998  0.000  0.000
  0.000  0.000  0.000  0.997 -0.000
  0.000  0.000  0.000 -0.000  0.998
   spin  2
    eigenvalues: 
  0.021  0.021  0.021  0.066  0.066
    eigenvectors:
  0.000  0.000  0.000  0.252  0.748
  0.141  0.284  0.575  0.000  0.000
  0.282  0.299  0.418  0.000  0.000
  0.000  0.000  0.000  0.748  0.252
  0.577  0.417  0.006  0.000  0.000
    occupations:
  0.066 -0.000 -0.000  0.000  0.000
 -0.000  0.021 -0.000  0.000  0.000
 -0.000 -0.000  0.021  0.000  0.000
  0.000  0.000  0.000  0.066 -0.000
  0.000  0.000  0.000 -0.000  0.021
atomic mag. moment =     4.795021
N of occupied +U levels =    5.181758
 --- exit write_ns ---

     negative rho (up, down):  0.000E+00 2.276E-04

     Magnetic moment per site:
     atom:    1    charge:   12.8379    magn:   10.2884    constr:    0.0000
     atom:    2    charge:    5.7479    magn:    0.1981    constr:    0.0000

     total cpu time spent up to now is        1.7 secs

     total energy              =    -242.22853873 Ry
     Harris-Foulkes estimate   =    -240.12024462 Ry
     estimated scf accuracy    <       3.20365292 Ry

     total magnetization       =     5.00 Bohr mag/cell
     absolute magnetization    =     5.23 Bohr mag/cell

     iteration #  2     ecut=    41.00 Ry     beta=0.30
     Davidson diagonalization with overlap
     ethr =  1.00E-02,  avg # of iterations =  1.2

     negative rho (up, down):  0.000E+00 8.303E-04

     Magnetic moment per site:
     atom:    1    charge:   12.7192    magn:    4.5627    constr:    0.0000
     atom:    2    charge:    5.9754    magn:   -0.0453    constr:    0.0000

     total cpu time spent up to now is        2.3 secs

     total energy              =    -243.20477620 Ry
     Harris-Foulkes estimate   =    -242.26158231 Ry
     estimated scf accuracy    <       1.58252860 Ry

     total magnetization       =     5.00 Bohr mag/cell
     absolute magnetization    =     5.15 Bohr mag/cell

     iteration #  3     ecut=    41.00 Ry     beta=0.30
     Davidson diagonalization with overlap
     ethr =  7.54E-03,  avg # of iterations =  1.6

     negative rho (up, down):  0.000E+00 9.003E-04

     Magnetic moment per site:
     atom:    1    charge:   12.6532    magn:    4.3238    constr:    0.0000
     atom:    2    charge:    5.9592    magn:    0.0668    constr:    0.0000

     total cpu time spent up to now is        3.1 secs

     total energy              =    -243.26952149 Ry
     Harris-Foulkes estimate   =    -243.28229142 Ry
     estimated scf accuracy    <       0.04589684 Ry

     total magnetization       =     5.00 Bohr mag/cell
     absolute magnetization    =     5.00 Bohr mag/cell

     iteration #  4     ecut=    41.00 Ry     beta=0.30
     Davidson diagonalization with overlap
     ethr =  2.19E-04,  avg # of iterations =  2.2

     negative rho (up, down):  0.000E+00 9.204E-04

     Magnetic moment per site:
     atom:    1    charge:   12.6391    magn:    4.2268    constr:    0.0000
     atom:    2    charge:    5.9678    magn:    0.0850    constr:    0.0000

     total cpu time spent up to now is        3.9 secs

     total energy              =    -243.27633418 Ry
     Harris-Foulkes estimate   =    -243.27678736 Ry
     estimated scf accuracy    <       0.00355659 Ry

     total magnetization       =     5.00 Bohr mag/cell
     absolute magnetization    =     5.00 Bohr mag/cell

     iteration #  5     ecut=    41.00 Ry     beta=0.30
     Davidson diagonalization with overlap
     ethr =  1.69E-05,  avg # of iterations =  1.9

     negative rho (up, down):  0.000E+00 9.392E-04

     Magnetic moment per site:
     atom:    1    charge:   12.6048    magn:    4.2920    constr:    0.0000
     atom:    2    charge:    5.9767    magn:    0.1590    constr:    0.0000

     total cpu time spent up to now is        4.7 secs

     total energy              =    -243.27643533 Ry
     Harris-Foulkes estimate   =    -243.27651787 Ry
     estimated scf accuracy    <       0.00154795 Ry

     total magnetization       =     5.00 Bohr mag/cell
     absolute magnetization    =     5.00 Bohr mag/cell

     iteration #  6     ecut=    41.00 Ry     beta=0.30
     Davidson diagonalization with overlap
     ethr =  7.37E-06,  avg # of iterations =  2.0

     negative rho (up, down):  0.000E+00 9.392E-04

     Magnetic moment per site:
     atom:    1    charge:   12.5978    magn:    4.2938    constr:    0.0000
     atom:    2    charge:    5.9778    magn:    0.1756    constr:    0.0000

     total cpu time spent up to now is        5.5 secs

     total energy              =    -243.27677605 Ry
     Harris-Foulkes estimate   =    -243.27676119 Ry
     estimated scf accuracy    <       0.00006346 Ry

     total magnetization       =     5.00 Bohr mag/cell
     absolute magnetization    =     5.00 Bohr mag/cell

     iteration #  7     ecut=    41.00 Ry     beta=0.30
     Davidson diagonalization with overlap
     ethr =  3.02E-07,  avg # of iterations =  2.0

     negative rho (up, down):  0.000E+00 9.353E-04

     Magnetic moment per site:
     atom:    1    charge:   12.5980    magn:    4.2840    constr:    0.0000
     atom:    2    charge:    5.9775    magn:    0.1766    constr:    0.0000

     total cpu time spent up to now is        6.3 secs

     total energy              =    -243.27679444 Ry
     Harris-Foulkes estimate   =    -243.27679200 Ry
     estimated scf accuracy    <       0.00001263 Ry

     total magnetization       =     5.00 Bohr mag/cell
     absolute magnetization    =     5.00 Bohr mag/cell

     iteration #  8     ecut=    41.00 Ry     beta=0.30
     Davidson diagonalization with overlap
     ethr =  6.01E-08,  avg # of iterations =  1.7

     negative rho (up, down):  0.000E+00 9.283E-04

     Magnetic moment per site:
     atom:    1    charge:   12.5989    magn:    4.2822    constr:    0.0000
     atom:    2    charge:    5.9768    magn:    0.1794    constr:    0.0000

     total cpu time spent up to now is        7.0 secs

     total energy              =    -243.27679672 Ry
     Harris-Foulkes estimate   =    -243.27679616 Ry
     estimated scf accuracy    <       0.00000150 Ry

     total magnetization       =     5.00 Bohr mag/cell
     absolute magnetization    =     5.00 Bohr mag/cell

     iteration #  9     ecut=    41.00 Ry     beta=0.30
     Davidson diagonalization with overlap
     ethr =  7.14E-09,  avg # of iterations =  2.1

     negative rho (up, down):  0.000E+00 9.280E-04

     Magnetic moment per site:
     atom:    1    charge:   12.5988    magn:    4.2821    constr:    0.0000
     atom:    2    charge:    5.9768    magn:    0.1803    constr:    0.0000

     total cpu time spent up to now is        7.9 secs

     total energy              =    -243.27679732 Ry
     Harris-Foulkes estimate   =    -243.27679730 Ry
     estimated scf accuracy    <       0.00000024 Ry

     total magnetization       =     5.00 Bohr mag/cell
     absolute magnetization    =     5.00 Bohr mag/cell

     iteration # 10     ecut=    41.00 Ry     beta=0.30
     Davidson diagonalization with overlap
     ethr =  1.13E-09,  avg # of iterations =  2.1

     negative rho (up, down):  0.000E+00 9.291E-04

     Magnetic moment per site:
     atom:    1    charge:   12.5988    magn:    4.2820    constr:    0.0000
     atom:    2    charge:    5.9768    magn:    0.1805    constr:    0.0000

     total cpu time spent up to now is        8.7 secs

     total energy              =    -243.27679741 Ry
     Harris-Foulkes estimate   =    -243.27679738 Ry
     estimated scf accuracy    <       0.00000001 Ry

     total magnetization       =     5.00 Bohr mag/cell
     absolute magnetization    =     5.00 Bohr mag/cell

     iteration # 11     ecut=    41.00 Ry     beta=0.30
     Davidson diagonalization with overlap
     ethr =  5.12E-11,  avg # of iterations =  2.0

     negative rho (up, down):  0.000E+00 9.286E-04

     Magnetic moment per site:
     atom:    1    charge:   12.5989    magn:    4.2820    constr:    0.0000
     atom:    2    charge:    5.9768    magn:    0.1805    constr:    0.0000

     total cpu time spent up to now is        9.5 secs

     End of self-consistent calculation
 --- enter write_ns ---
 LDA+U parameters:
U( 1)     =  3.00000000
alpha( 1) =  0.00000000
atom    1   Tr[ns(na)] (up, down, total) =   4.99185  0.45951  5.45136
   spin  1
    eigenvalues: 
  0.997  0.997  0.999  0.999  0.999
    eigenvectors:
  0.329  0.671  0.000  0.000  0.000
  0.000  0.000  0.143  0.320  0.536
  0.000  0.000  0.308  0.244  0.448
  0.671  0.329  0.000  0.000  0.000
  0.000  0.000  0.549  0.435  0.016
    occupations:
  0.997 -0.000 -0.000  0.000  0.000
 -0.000  0.999 -0.000  0.000  0.000
 -0.000 -0.000  0.999  0.000  0.000
  0.000  0.000  0.000  0.997 -0.000
  0.000  0.000  0.000 -0.000  0.999
   spin  2
    eigenvalues: 
  0.052  0.052  0.052  0.152  0.152
    eigenvectors:
  0.000  0.000  0.000  0.290  0.710
  0.140  0.149  0.711  0.000  0.000
  0.335  0.376  0.289  0.000  0.000
  0.000  0.000  0.000  0.710  0.290
  0.525  0.475  0.000  0.000  0.000
    occupations:
  0.152 -0.000 -0.000  0.000  0.000
 -0.000  0.052 -0.000  0.000  0.000
 -0.000 -0.000  0.052  0.000  0.000
  0.000  0.000  0.000  0.152 -0.000
  0.000  0.000  0.000 -0.000  0.052
atomic mag. moment =     4.532335
N of occupied +U levels =    5.451357
 --- exit write_ns ---

 ------ SPIN UP ------------


          k = 0.0000 0.0000 0.0000 (   645 PWs)   bands (ev):

   -68.9750 -37.8178 -37.8178 -37.8178  -7.0011   7.7827   7.7827   7.7827
     8.3676   8.3676   9.3353   9.3353   9.3353  11.9773  26.2645

          k =-0.0884 0.0884 0.0884 (   667 PWs)   bands (ev):

   -68.9743 -37.8262 -37.8189 -37.8189  -6.8696   7.2093   7.4856   7.4856
     8.0275   8.0275   8.9384  10.1607  10.1607  13.0561  24.6474

          k =-0.1768 0.1768 0.1768 (   670 PWs)   bands (ev):

   -68.9735 -37.8462 -37.8215 -37.8215  -6.5346   5.7380   6.6201   6.6201
     8.2992   8.2992   9.0560  11.2301  11.2301  14.6877  22.2304

          k =-0.2652 0.2652 0.2652 (   670 PWs)   bands (ev):

   -68.9739 -37.8659 -37.8241 -37.8241  -6.1651   4.4658   6.0189   6.0189
     8.6210   8.6210   9.4662  12.0232  12.0232  15.7196  20.6267

          k = 0.3536-0.3536-0.3536 (   652 PWs)   bands (ev):

   -68.9744 -37.8740 -37.8251 -37.8251  -5.9979   3.9717   5.8083   5.8083
     8.7604   8.7604   9.6970  12.3213  12.3213  15.9158  20.2148

          k = 0.0000 0.0000 0.1768 (   673 PWs)   bands (ev):

   -68.9740 -37.8255 -37.8210 -37.8210  -6.8381   6.8354   7.6191   7.6274
     7.6274   8.4325   9.5754   9.5754   9.8509  13.5438  24.8513

          k =-0.0884 0.0884 0.2652 (   672 PWs)   bands (ev):

   -68.9731 -37.8404 -37.8243 -37.8233  -6.6030   5.9001   6.8713   7.1602
     7.8868   8.4794   9.2521  10.2743  10.8301  14.9640  23.0762

          k =-0.1768 0.1768 0.3536 (   676 PWs)   bands (ev):

   -68.9727 -37.8594 -37.8269 -37.8269  -6.2795   4.9338   6.1153   6.4513
     8.2384   8.7134   9.4107  11.2015  11.5851  16.2179  21.0555

          k = 0.4419-0.4419-0.2652 (   677 PWs)   bands (ev):

   -68.9728 -37.8709 -37.8305 -37.8272  -6.0567   4.2966   5.8426   5.9981
     8.5910   8.7948   9.6152  11.7333  11.9521  16.7816  20.1231

          k = 0.3536-0.3536-0.1768 (   676 PWs)   bands (ev):

   -68.9728 -37.8683 -37.8318 -37.8252  -6.0960   4.4084   5.9190   6.0009
     8.6139   8.7214   9.5787  11.3226  12.2722  16.6594  20.3075

          k = 0.2652-0.2652-0.0884 (   664 PWs)   bands (ev):

   -68.9728 -37.8533 -37.8298 -37.8219  -6.3666   5.2333   6.2212   6.4873
     8.2773   8.6291   9.3873  10.5407  11.9944  15.7537  21.6198

          k = 0.1768-0.1768 0.0000 (   670 PWs)   bands (ev):

   -68.9735 -37.8357 -37.8245 -37.8193  -6.6825   6.3753   6.8343   7.0690
     7.9882   8.4251   9.4019   9.7136  11.1971  14.2690  23.4917

          k = 0.0000 0.0000 0.3536 (   681 PWs)   bands (ev):

   -68.9721 -37.8438 -37.8286 -37.8286  -6.5376   5.5844   7.2333   7.5626
     7.5626   8.5908   9.7592   9.7592   9.9974  15.9659  23.4681

          k =-0.0884 0.0884 0.4419 (   679 PWs)   bands (ev):

   -68.9712 -37.8559 -37.8335 -37.8318  -6.3715   5.3285   6.5968   7.1720
     7.8303   8.8001   9.4603  10.1556  10.5175  16.9658  21.5780

          k = 0.5303-0.5303-0.1768 (   684 PWs)   bands (ev):

   -68.9703 -37.8646 -37.8410 -37.8321  -6.1937   5.1033   5.9969   6.5492
     8.2185   8.8792   9.4563  10.6805  11.0131  17.9549  20.1874

          k = 0.4419-0.4419-0.0884 (   680 PWs)   bands (ev):

   -68.9700 -37.8641 -37.8466 -37.8295  -6.1154   4.8780   5.9337   6.1456
     8.6183   8.7128   9.5588  10.3646  11.8329  18.4601  19.8301

          k = 0.3536-0.3536 0.0000 (   676 PWs)   bands (ev):

   -68.9711 -37.8586 -37.8426 -37.8253  -6.1907   4.9208   6.0429   6.1665
     8.4531   8.8135   9.8589   9.8650  12.2267  17.2929  21.1620

          k = 0.0000 0.0000 0.5303 (   684 PWs)   bands (ev):

   -68.9704 -37.8616 -37.8358 -37.8358  -6.3906   5.5677   6.8596   7.8677
     7.8677   8.7518   9.4490   9.4490   9.6813  17.2512  20.8721

          k = 0.6187-0.6187-0.0884 (   678 PWs)   bands (ev):

   -68.9695 -37.8656 -37.8417 -37.8368  -6.3252   5.7809   6.4449   7.4034
     8.0475   8.9649   9.2199   9.7180   9.8221  17.6826  20.4316

          k = 0.5303-0.5303 0.0000 (   682 PWs)   bands (ev):

   -68.9688 -37.8615 -37.8522 -37.8343  -6.2111   5.6609   5.8933   6.6675
     8.3108   8.8680   9.4054   9.8176  10.8975  18.6929  20.4247

          k = 0.0000 0.0000-0.7071 (   692 PWs)   bands (ev):

   -68.9697 -37.8688 -37.8387 -37.8387  -6.3785   5.9817   6.7081   8.2559
     8.2559   8.8192   9.0237   9.0237   9.2283  17.2936  20.3633

          k = 0.0000 0.1768 0.3536 (   670 PWs)   bands (ev):

   -68.9720 -37.8506 -37.8328 -37.8251  -6.4039   5.3602   6.5750   6.6432
     8.0947   8.7271   9.6509   9.8249  11.4301  16.2336  22.2894

          k = 0.6187-0.4419-0.2652 (   674 PWs)   bands (ev):

   -68.9710 -37.8621 -37.8389 -37.8285  -6.1916   4.9290   6.0485   6.2969
     8.3831   8.8154   9.5446  10.4111  11.7629  17.4558  20.6204

          k = 0.5303-0.3536-0.1768 (   676 PWs)   bands (ev):

   -68.9706 -37.8673 -37.8407 -37.8303  -6.0987   4.7255   5.9159   6.1115
     8.5969   8.7509   9.5303  10.8143  11.7179  18.0812  19.8292

          k = 0.7071-0.5303-0.1768 (   680 PWs)   bands (ev):

   -68.9699 -37.8615 -37.8406 -37.8348  -6.2858   5.4379   6.4156   6.7101
     8.3092   8.8990   9.5079   9.6019  10.7495  17.7870  20.7542

          k = 0.6187-0.4419-0.0884 (   685 PWs)   bands (ev):

   -68.9688 -37.8615 -37.8491 -37.8362  -6.1945   5.5222   5.9864   6.4136
     8.5493   8.8821   9.3524   9.8493  10.9718  18.8875  20.1417

          k = 0.5303-0.3536 0.0000 (   680 PWs)   bands (ev):

   -68.9691 -37.8593 -37.8516 -37.8330  -6.1551   5.2261   5.9904   6.1996
     8.6958   8.7364   9.5832   9.8118  11.4800  19.0374  20.0787

          k = 0.0000 0.1768-0.7071 (   682 PWs)   bands (ev):

   -68.9688 -37.8651 -37.8438 -37.8397  -6.2877   5.9222   6.3416   6.8122
     8.6967   9.0240   9.1214   9.1417  10.2621  18.1032  20.3910

          k = 0.0000 0.3536-0.7071 (   684 PWs)   bands (ev):

   -68.9679 -37.8552 -37.8552 -37.8407  -6.1942   5.9681   5.9681   6.0879
     9.0243   9.1354   9.1515   9.1515  10.8329  19.3563  20.7105

 ------ SPIN DOWN ----------


          k = 0.0000 0.0000 0.0000 (   645 PWs)   bands (ev):

   -63.7868 -32.7374 -32.7374 -32.7374  -6.5814   9.6877   9.6877   9.6877
    13.4081  14.8697  14.8697  14.8697  15.1572  15.1572  27.1568

          k =-0.0884 0.0884 0.0884 (   667 PWs)   bands (ev):

   -63.7857 -32.7482 -32.7387 -32.7387  -6.4564   8.8249   9.4763   9.4763
    14.2499  14.9950  15.0236  15.0236  15.4623  15.4623  26.1240

          k =-0.1768 0.1768 0.1768 (   670 PWs)   bands (ev):

   -63.7822 -32.7743 -32.7417 -32.7417  -6.1376   7.4077   9.0382   9.0382
    14.9346  15.3984  15.3984  16.0794  16.1662  16.1662  24.0083

          k =-0.2652 0.2652 0.2652 (   670 PWs)   bands (ev):

   -63.7776 -32.8006 -32.7449 -32.7449  -5.7932   6.3284   8.6697   8.6697
    15.4494  15.8060  15.8060  16.8515  16.8515  17.0541  22.3569

          k = 0.3536-0.3536-0.3536 (   652 PWs)   bands (ev):

   -63.7754 -32.8115 -32.7462 -32.7462  -5.6423   5.9297   8.5317   8.5317
    15.8641  15.9868  15.9868  17.1313  17.1447  17.1447  21.8704

          k = 0.0000 0.0000 0.1768 (   673 PWs)   bands (ev):

   -63.7854 -32.7476 -32.7411 -32.7411  -6.4164   8.5746   9.4836   9.4836
    14.2838  14.6198  15.2291  15.2291  15.2342  16.0147  26.3042

          k =-0.0884 0.0884 0.2652 (   672 PWs)   bands (ev):

   -63.7829 -32.7668 -32.7451 -32.7436  -6.1666   7.6066   9.0770   9.1752
    14.5563  15.1528  15.4985  15.6085  15.6782  16.9924  24.8546

          k =-0.1768 0.1768 0.3536 (   676 PWs)   bands (ev):

   -63.7790 -32.7915 -32.7483 -32.7477  -5.8347   6.6696   8.5755   8.7932
    14.8577  15.8798  15.9062  16.2478  16.2877  17.8967  22.8566

          k = 0.4419-0.4419-0.2652 (   677 PWs)   bands (ev):

   -63.7763 -32.8061 -32.7520 -32.7488  -5.6193   6.1565   8.3093   8.5544
    15.4243  15.9446  16.0427  16.6572  16.9061  18.3483  21.8177

          k = 0.3536-0.3536-0.1768 (   676 PWs)   bands (ev):

   -63.7769 -32.8026 -32.7536 -32.7462  -5.6663   6.2622   8.3717   8.5543
    15.5111  15.8377  15.8953  16.3973  17.1426  18.1621  22.0183

          k = 0.2652-0.2652-0.0884 (   664 PWs)   bands (ev):

   -63.7803 -32.7835 -32.7511 -32.7422  -5.9429   6.9516   8.7374   8.7899
    15.0804  15.4499  15.6698  15.8865  16.8086  17.2359  23.4143

          k = 0.1768-0.1768 0.0000 (   670 PWs)   bands (ev):

   -63.7839 -32.7608 -32.7450 -32.7391  -6.2679   7.9706   9.1652   9.2325
    14.8749  14.9456  15.1192  15.4442  16.0459  16.1132  25.1771

          k = 0.0000 0.0000 0.3536 (   681 PWs)   bands (ev):

   -63.7816 -32.7713 -32.7504 -32.7504  -6.0156   7.2317   9.0960   9.0960
    14.0668  15.1568  15.4244  15.8984  15.8984  17.9430  25.4703

          k =-0.0884 0.0884 0.4419 (   679 PWs)   bands (ev):

   -63.7791 -32.7867 -32.7559 -32.7545  -5.7659   6.8033   8.6474   8.8529
    14.0838  15.7479  15.7713  16.1302  16.1507  18.7297  23.4105

          k = 0.5303-0.5303-0.1768 (   684 PWs)   bands (ev):

   -63.7772 -32.7964 -32.7640 -32.7550  -5.5620   6.6303   7.9994   8.6120
    14.5864  16.0658  16.1777  16.3020  16.3834  19.5624  21.9720

          k = 0.4419-0.4419-0.0884 (   680 PWs)   bands (ev):

   -63.7771 -32.7945 -32.7706 -32.7515  -5.5296   6.6477   7.7259   8.5056
    15.2949  15.7892  16.0019  16.1544  16.9479  20.0601  21.6019

          k = 0.3536-0.3536 0.0000 (   676 PWs)   bands (ev):

   -63.7783 -32.7891 -32.7656 -32.7462  -5.6899   6.6904   8.1185   8.5773
    15.4512  15.6081  15.6945  15.9938  17.1410  18.7477  22.8565

          k = 0.0000 0.0000 0.5303 (   684 PWs)   bands (ev):

   -63.7777 -32.7939 -32.7600 -32.7600  -5.6272   6.6635   8.8034   8.8034
    13.5737  15.6210  15.7574  16.3063  16.3063  19.1547  22.4097

          k = 0.6187-0.6187-0.0884 (   678 PWs)   bands (ev):

   -63.7767 -32.7982 -32.7665 -32.7614  -5.5016   6.6947   8.3400   8.6742
    13.7678  15.8916  15.9649  16.3192  16.3380  19.6614  21.6995

          k = 0.5303-0.5303 0.0000 (   682 PWs)   bands (ev):

   -63.7769 -32.7906 -32.7781 -32.7578  -5.4620   7.0401   7.4819   8.5516
    14.4778  16.0431  16.1193  16.2104  16.4246  20.6911  21.6903

          k = 0.0000 0.0000-0.7071 (   692 PWs)   bands (ev):

   -63.7761 -32.8030 -32.7641 -32.7641  -5.4753   6.5994   8.7014   8.7014
    13.3843  15.7044  15.8772  16.4006  16.4006  19.4815  21.3929

          k = 0.0000 0.1768 0.3536 (   670 PWs)   bands (ev):

   -63.7804 -32.7801 -32.7547 -32.7459  -5.9146   7.0183   8.7543   8.8170
    14.5824  15.4011  15.8100  15.9599  16.2223  17.9766  24.1269

          k = 0.6187-0.4419-0.2652 (   674 PWs)   bands (ev):

   -63.7779 -32.7936 -32.7618 -32.7499  -5.6521   6.6100   8.2018   8.5550
    14.9405  15.8059  16.0330  16.1078  16.7983  18.9923  22.4181

          k = 0.5303-0.3536-0.1768 (   676 PWs)   bands (ev):

   -63.7768 -32.7994 -32.7637 -32.7523  -5.5404   6.4753   7.9533   8.4561
    15.4129  15.5749  16.1675  16.3323  16.8565  19.6523  21.5750

          k = 0.7071-0.5303-0.1768 (   680 PWs)   bands (ev):

   -63.7776 -32.7929 -32.7648 -32.7577  -5.5833   6.7287   8.3842   8.5033
    14.1907  15.7341  16.1538  16.2850  16.2987  19.4832  22.3953

          k = 0.6187-0.4419-0.0884 (   685 PWs)   bands (ev):

   -63.7772 -32.7910 -32.7743 -32.7593  -5.4744   6.9579   7.7032   8.3408
    14.7484  15.7775  16.0205  16.3292  16.5065  20.6663  21.7896

          k = 0.5303-0.3536 0.0000 (   680 PWs)   bands (ev):

   -63.7774 -32.7879 -32.7771 -32.7552  -5.5027   6.9155   7.6252   8.3628
    15.3467  15.4235  15.9684  16.2319  16.7799  20.6354  21.9752

          k = 0.0000 0.1768-0.7071 (   682 PWs)   bands (ev):

   -63.7767 -32.7966 -32.7691 -32.7639  -5.4574   6.8262   8.2515   8.3192
    14.0392  15.8360  16.1387  16.1922  16.4014  20.1604  21.5556

          k = 0.0000 0.3536-0.7071 (   684 PWs)   bands (ev):

   -63.7773 -32.7822 -32.7822 -32.7638  -5.4391   7.4458   7.4458   7.9815
    15.2650  15.2650  15.8739  16.4022  16.4754  21.3446  22.2692

     the Fermi energy is    12.4715 ev

!    total energy              =    -243.27679744 Ry
     Harris-Foulkes estimate   =    -243.27679741 Ry
     estimated scf accuracy    <          4.4E-10 Ry

     The total energy is the sum of the following terms:

     one-electron contribution =    -111.85611507 Ry
     hartree contribution      =      66.48116210 Ry
     xc contribution           =     -33.75150478 Ry
     ewald contribution        =    -164.19588408 Ry
     Hubbard energy            =       0.04557551 Ry
     smearing contrib. (-TS)   =      -0.00003112 Ry

     total magnetization       =     5.00 Bohr mag/cell
     absolute magnetization    =     5.00 Bohr mag/cell

     convergence has been achieved in  11 iterations

     Forces acting on atoms (Ry/au):


     negative rho (up, down):  0.000E+00 9.286E-04
     atom    1 type  1   force =   0.00000000E+00  0.00000000E+00 -0.27890445E-30
     atom    2 type  2   force =   0.00000000E+00  0.00000000E+00  0.27890445E-30

     Total force =     0.000000     Total SCF correction =     0.000000


     entering subroutine stress ...


     negative rho (up, down):  0.000E+00 9.286E-04
          total   stress  (Ry/bohr**3)                   (kbar)     P=   -0.04
  -0.0000002769  -0.0000000000  -0.0000000000         -0.04     -0.00     -0.00
  -0.0000000000  -0.0000002769   0.0000000000         -0.00     -0.04      0.00
  -0.0000000000   0.0000000000  -0.0000002769         -0.00      0.00     -0.04


     Writing output data file mno_fm.scf.in.save

     init_run     :      0.54s CPU      0.55s WALL (       1 calls)
     electrons    :      8.66s CPU      8.81s WALL (       1 calls)
     forces       :      0.23s CPU      0.23s WALL (       1 calls)
     stress       :      1.40s CPU      1.41s WALL (       1 calls)

     Called by init_run:
     wfcinit      :      0.29s CPU      0.30s WALL (       1 calls)
     potinit      :      0.03s CPU      0.03s WALL (       1 calls)

     Called by electrons:
     c_bands      :      7.06s CPU      7.19s WALL (      11 calls)
     sum_band     :      1.24s CPU      1.25s WALL (      11 calls)
     v_of_rho     :      0.17s CPU      0.17s WALL (      12 calls)
     newd         :      0.11s CPU      0.12s WALL (      12 calls)
     mix_rho      :      0.07s CPU      0.07s WALL (      11 calls)

     Called by c_bands:
     init_us_2    :      0.25s CPU      0.25s WALL (    2088 calls)
     cegterg      :      6.73s CPU      6.89s WALL (     638 calls)

     Called by *egterg:
     h_psi        :      4.48s CPU      4.48s WALL (    1956 calls)
     s_psi        :      0.30s CPU      0.31s WALL (    2594 calls)
     g_psi        :      0.04s CPU      0.02s WALL (    1260 calls)
     cdiaghg      :      1.48s CPU      1.54s WALL (    1898 calls)

     Called by h_psi:
     add_vuspsi   :      0.21s CPU      0.22s WALL (    1956 calls)
     vhpsi        :      0.13s CPU      0.13s WALL (    1956 calls)

     General routines
     calbec       :      0.91s CPU      0.94s WALL (   11220 calls)
     fft          :      0.10s CPU      0.11s WALL (     406 calls)
     ffts         :      0.04s CPU      0.03s WALL (     270 calls)
     fftw         :      4.22s CPU      4.20s WALL (   55354 calls)
     interpolate  :      0.02s CPU      0.02s WALL (      46 calls)
     davcio       :      0.00s CPU      0.02s WALL (      58 calls)

     Parallel routines
     fft_scatter  :      1.98s CPU      2.00s WALL (   56030 calls)
     Hubbard U routines
     new_ns       :      0.04s CPU      0.04s WALL (      11 calls)
     vhpsi        :      0.13s CPU      0.13s WALL (    1956 calls)
     force_hub    :      0.12s CPU      0.12s WALL (       1 calls)
     stres_hub    :      1.08s CPU      1.09s WALL (       1 calls)

     PWSCF        :    11.44s CPU        11.67s WALL


   This run was terminated on:  14:22: 4  14Aug2017            

=------------------------------------------------------------------------------=
   JOB DONE.
=------------------------------------------------------------------------------=
