
     Program PWSCF v.5.1 starts on 16Aug2017 at 23:22:51 

     This program is part of the open-source Quantum ESPRESSO suite
     for quantum simulation of materials; please cite
         "P. Giannozzi et al., J. Phys.:Condens. Matter 21 395502 (2009);
          URL http://www.quantum-espresso.org", 
     in publications or presentations arising from this work. More details at
     http://www.quantum-espresso.org/quote

     Parallel version (MPI), running on     8 processors
     R & G space division:  proc/nbgrp/npool/nimage =       8
     Reading input from /tmp/mno_fm.scf.in.super.222.06.12127/mno_fm.scf.in.super.222.06.t
Warning: card &IONS ignored
Warning: card   ION_DYNAMICS='BFGS', ignored
Warning: card / ignored
Warning: card &CELL ignored
Warning: card  CELL_DYNAMICS = 'BFGS' ignored
Warning: card / ignored

     Current dimensions of program PWSCF are:
     Max number of different atomic species (ntypx) = 10
     Max number of k-points (npk) =  40000
     Max angular momentum in pseudopotentials (lmaxx) =  3
 kfg - two_fermi_energies  T

     Subspace diagonalization in iterative solution of the eigenvalue problem:
     a serial algorithm will be used


     Parallelization info
     --------------------
     sticks:   dense  smooth     PW     G-vecs:    dense   smooth      PW
     Min         246     204     56                 7264     5421     802
     Max         247     205     57                 7267     5438     805
     Sum        1969    1639    451                58119    43407    6423

     Generating pointlists ...
     new r_m :   0.1402 (alat units)  1.6817 (a.u.) for type    1
     new r_m :   0.1402 (alat units)  1.6817 (a.u.) for type    2


     bravais-lattice index     =            0
     lattice parameter (alat)  =    11.996146938  a.u.
     unit-cell volume          =    1220.7039 (a.u.)^3
     number of atoms/cell      =           16
     number of atomic types    =            2
     number of electrons       =       168.00 (up: 104.00, down:  64.00)
     number of Kohn-Sham states=          125
     kinetic-energy cutoff     =      41.0000  Ry
     charge density cutoff     =     200.0000  Ry
     convergence threshold     =      1.0E-08
     mixing beta               =       0.3000
     number of iterations used =            8  local-TF  mixing
     Exchange-correlation      = SLA  PW   PSX  PSC ( 1  4 10  8 0)
     A smooth kinetic-energy cutoff is imposed at      40.0000 Ry
     height of the smooth step-function =             800.0000 Ry
     width of the smooth step-function  =               1.0000 Ry


     celldm(1)=  11.996147  celldm(2)=   0.000000  celldm(3)=   0.000000
     celldm(4)=   0.000000  celldm(5)=   0.000000  celldm(6)=   0.000000

     crystal axes: (cart. coord. in units of alat)
               a(1) = (   0.707106781187   0.707106781187   0.000000000000 )  
               a(2) = (   0.707106781187   0.000000000000   0.707106781187 )  
               a(3) = (   0.000000000000   0.707106781187   0.707106781187 )  

     reciprocal axes: (cart. coord. in units 2 pi/alat)
               b(1) = (  0.707107  0.707107 -0.707107 )  
               b(2) = (  0.707107 -0.707107  0.707107 )  
               b(3) = ( -0.707107  0.707107  0.707107 )  


     PseudoPot. # 1 for Mn read from file:
     /users/kfg/psuedo/gbrv_1.5/mn.pbesol.UPF
     MD5 check sum: 0716d5f563e6e95a34f9080f4c78c109
     Pseudo is Ultrasoft + core correction, Zval = 15.0
     Generated by new atomic code, or converted to UPF format
     Using radial grid of  859 points,  6 beta functions with: 
                l(1) =   0
                l(2) =   0
                l(3) =   1
                l(4) =   1
                l(5) =   2
                l(6) =   2
     Q(r) pseudized with  8 coefficients,  rinner =    0.950   0.950   0.950
                                                       0.950   0.950

     PseudoPot. # 2 for O  read from file:
     /users/kfg/psuedo/gbrv_1.5/o.pbesol.UPF
     MD5 check sum: 501638753501ef6325af9037351f7734
     Pseudo is Ultrasoft + core correction, Zval =  6.0
     Generated by new atomic code, or converted to UPF format
     Using radial grid of  737 points,  5 beta functions with: 
                l(1) =   0
                l(2) =   0
                l(3) =   1
                l(4) =   1
                l(5) =   2
     Q(r) pseudized with  8 coefficients,  rinner =    0.900   0.900   0.900
                                                       0.900   0.900

     atomic species   valence    mass     pseudopotential
        Mn            15.00    54.90000     Mn( 1.00)
        O              6.00    15.99900     O ( 1.00)

     Starting magnetic structure 
     atomic species   magnetization
        Mn           1.000
        O            0.000


     Simplified LDA+U calculation (l_max = 2) with parameters (eV):
     atomic species    L          U    alpha       J0     beta
        Mn             2     3.0000   0.0000   0.0000   0.0000



     No symmetry found



   Cartesian axes

     site n.     atom                  positions (alat units)
         1           Mn  tau(   1) = (    0.00601315653   -0.00313830126   -0.00124147719  )
         2           O   tau(   2) = (    0.35938098815    0.35609109017    0.34776385959  )
         3           Mn  tau(   3) = (   -0.00390699830    0.35049908471    0.34830080350  )
         4           O   tau(   4) = (    0.35214736945    0.70091195304    0.70921401271  )
         5           Mn  tau(   5) = (    0.35537903211    0.00213662626    0.34997445620  )
         6           O   tau(   6) = (    0.70309522128    0.35735549364    0.71247336505  )
         7           Mn  tau(   7) = (    0.34955995436    0.35885525876    0.70169822926  )
         8           O   tau(   8) = (    0.70094248610    0.71346648722    1.06884670758  )
         9           Mn  tau(   9) = (    0.34703029296    0.34725582837    0.00825859781  )
        10           O   tau(  10) = (    0.70043443196    0.69963231342    0.34968124609  )
        11           Mn  tau(  11) = (    0.35578916973    0.70101321765    0.34675754786  )
        12           O   tau(  12) = (    0.69970538074    1.06123201475    0.71104974601  )
        13           Mn  tau(  13) = (    0.70224075290    0.35485986890    0.34871568105  )
        14           O   tau(  14) = (    1.06589052625    0.70810861374    0.70674030130  )
        15           Mn  tau(  15) = (    0.70227623353    0.70117436527    0.70791549527  )
        16           O   tau(  16) = (    1.06399204423    1.05423669204    1.06150365257  )

     number of k points=    72  gaussian smearing, width (Ry)=  0.0100
                       cart. coord. in units 2pi/alat
        k(    1) = (   0.0000000   0.0000000   0.0000000), wk =   0.0156250
        k(    2) = (  -0.1767767   0.1767767   0.1767767), wk =   0.0312500
        k(    3) = (   0.3535534  -0.3535534  -0.3535534), wk =   0.0156250
        k(    4) = (   0.0000000   0.0000000   0.3535534), wk =   0.0312500
        k(    5) = (   0.5303301  -0.5303301  -0.1767767), wk =   0.0312500
        k(    6) = (   0.3535534  -0.3535534   0.0000000), wk =   0.0312500
        k(    7) = (   0.0000000   0.0000000  -0.7071068), wk =   0.0156250
        k(    8) = (   0.0000000   0.3535534  -0.7071068), wk =   0.0312500
        k(    9) = (   0.1767767  -0.1767767   0.1767767), wk =   0.0312500
        k(   10) = (   0.1767767   0.1767767  -0.1767767), wk =   0.0312500
        k(   11) = (  -0.1767767  -0.1767767  -0.1767767), wk =   0.0312500
        k(   12) = (  -0.3535534   0.3535534  -0.3535534), wk =   0.0156250
        k(   13) = (  -0.3535534  -0.3535534   0.3535534), wk =   0.0156250
        k(   14) = (   0.3535534   0.3535534   0.3535534), wk =   0.0156250
        k(   15) = (   0.3535534   0.0000000   0.0000000), wk =   0.0312500
        k(   16) = (   0.0000000   0.3535534   0.0000000), wk =   0.0312500
        k(   17) = (  -0.5303301   0.5303301  -0.1767767), wk =   0.0312500
        k(   18) = (  -0.5303301  -0.5303301   0.1767767), wk =   0.0312500
        k(   19) = (   0.5303301   0.5303301   0.1767767), wk =   0.0312500
        k(   20) = (  -0.1767767   0.5303301   0.5303301), wk =   0.0312500
        k(   21) = (   0.1767767   0.5303301  -0.5303301), wk =   0.0312500
        k(   22) = (  -0.1767767  -0.5303301  -0.5303301), wk =   0.0312500
        k(   23) = (   0.1767767  -0.5303301   0.5303301), wk =   0.0312500
        k(   24) = (  -0.5303301  -0.1767767  -0.5303301), wk =   0.0312500
        k(   25) = (  -0.5303301   0.1767767   0.5303301), wk =   0.0312500
        k(   26) = (   0.5303301  -0.1767767   0.5303301), wk =   0.0312500
        k(   27) = (   0.5303301   0.1767767  -0.5303301), wk =   0.0312500
        k(   28) = (  -0.3535534  -0.3535534   0.0000000), wk =   0.0312500
        k(   29) = (   0.0000000   0.3535534   0.3535534), wk =   0.0312500
        k(   30) = (   0.0000000   0.3535534  -0.3535534), wk =   0.0312500
        k(   31) = (  -0.3535534   0.0000000  -0.3535534), wk =   0.0312500
        k(   32) = (  -0.3535534   0.0000000   0.3535534), wk =   0.0312500
        k(   33) = (  -0.7071068   0.0000000   0.0000000), wk =   0.0156250
        k(   34) = (   0.0000000  -0.7071068   0.0000000), wk =   0.0156250
        k(   35) = (   0.3535534  -0.0000000   0.7071068), wk =   0.0312500
        k(   36) = (   0.0000000  -0.7071068   0.3535534), wk =   0.0312500
        k(   37) = (   0.0000000   0.0000000   0.0000000), wk =   0.0156250
        k(   38) = (  -0.1767767   0.1767767   0.1767767), wk =   0.0312500
        k(   39) = (   0.3535534  -0.3535534  -0.3535534), wk =   0.0156250
        k(   40) = (   0.0000000   0.0000000   0.3535534), wk =   0.0312500
        k(   41) = (   0.5303301  -0.5303301  -0.1767767), wk =   0.0312500
        k(   42) = (   0.3535534  -0.3535534   0.0000000), wk =   0.0312500
        k(   43) = (   0.0000000   0.0000000  -0.7071068), wk =   0.0156250
        k(   44) = (   0.0000000   0.3535534  -0.7071068), wk =   0.0312500
        k(   45) = (   0.1767767  -0.1767767   0.1767767), wk =   0.0312500
        k(   46) = (   0.1767767   0.1767767  -0.1767767), wk =   0.0312500
        k(   47) = (  -0.1767767  -0.1767767  -0.1767767), wk =   0.0312500
        k(   48) = (  -0.3535534   0.3535534  -0.3535534), wk =   0.0156250
        k(   49) = (  -0.3535534  -0.3535534   0.3535534), wk =   0.0156250
        k(   50) = (   0.3535534   0.3535534   0.3535534), wk =   0.0156250
        k(   51) = (   0.3535534   0.0000000   0.0000000), wk =   0.0312500
        k(   52) = (   0.0000000   0.3535534   0.0000000), wk =   0.0312500
        k(   53) = (  -0.5303301   0.5303301  -0.1767767), wk =   0.0312500
        k(   54) = (  -0.5303301  -0.5303301   0.1767767), wk =   0.0312500
        k(   55) = (   0.5303301   0.5303301   0.1767767), wk =   0.0312500
        k(   56) = (  -0.1767767   0.5303301   0.5303301), wk =   0.0312500
        k(   57) = (   0.1767767   0.5303301  -0.5303301), wk =   0.0312500
        k(   58) = (  -0.1767767  -0.5303301  -0.5303301), wk =   0.0312500
        k(   59) = (   0.1767767  -0.5303301   0.5303301), wk =   0.0312500
        k(   60) = (  -0.5303301  -0.1767767  -0.5303301), wk =   0.0312500
        k(   61) = (  -0.5303301   0.1767767   0.5303301), wk =   0.0312500
        k(   62) = (   0.5303301  -0.1767767   0.5303301), wk =   0.0312500
        k(   63) = (   0.5303301   0.1767767  -0.5303301), wk =   0.0312500
        k(   64) = (  -0.3535534  -0.3535534   0.0000000), wk =   0.0312500
        k(   65) = (   0.0000000   0.3535534   0.3535534), wk =   0.0312500
        k(   66) = (   0.0000000   0.3535534  -0.3535534), wk =   0.0312500
        k(   67) = (  -0.3535534   0.0000000  -0.3535534), wk =   0.0312500
        k(   68) = (  -0.3535534   0.0000000   0.3535534), wk =   0.0312500
        k(   69) = (  -0.7071068   0.0000000   0.0000000), wk =   0.0156250
        k(   70) = (   0.0000000  -0.7071068   0.0000000), wk =   0.0156250
        k(   71) = (   0.3535534  -0.0000000   0.7071068), wk =   0.0312500
        k(   72) = (   0.0000000  -0.7071068   0.3535534), wk =   0.0312500

     Dense  grid:    58119 G-vectors     FFT dimensions: (  54,  54,  54)

     Smooth grid:    43407 G-vectors     FFT dimensions: (  50,  50,  50)

     Largest allocated arrays     est. size (Mb)     dimensions
        Kohn-Sham Wavefunctions         1.31 Mb     (     688,  125)
        Atomic Hubbard wavefuncts       0.42 Mb     (     688,   40)
        NL pseudopotentials             2.60 Mb     (     688,  248)
        Each V/rho on FFT grid          0.62 Mb     (   20412,   2)
        Each G-vector array             0.06 Mb     (    7265)
        G-vector shells                 0.00 Mb     (     487)
     Largest temporary arrays     est. size (Mb)     dimensions
        Auxiliary wavefunctions         5.25 Mb     (     688,  500)
        Each subspace H/S matrix        3.81 Mb     (     500,  500)
        Each <psi_i|beta_j> matrix      0.47 Mb     (     248,  125)
        Arrays for rho mixing           2.49 Mb     (   20412,    8)

     Check: negative/imaginary core charge=   -0.000059    0.000000

     Initial potential from superposition of free atoms

     starting charge  163.99935, renormalised to  168.00000
     Number of +U iterations with fixed ns =  0
     Starting occupations:
 --- enter write_ns ---
 LDA+U parameters:
U( 1)     =  3.00000000
alpha( 1) =  0.00000000
atom    1   Tr[ns(na)] (up, down, total) =   5.00000  0.00000  5.00000
   spin  1
    eigenvalues: 
  1.000  1.000  1.000  1.000  1.000
    eigenvectors:
  1.000  0.000  0.000  0.000  0.000
  0.000  1.000  0.000  0.000  0.000
  0.000  0.000  1.000  0.000  0.000
  0.000  0.000  0.000  1.000  0.000
  0.000  0.000  0.000  0.000  1.000
    occupations:
  1.000  0.000  0.000  0.000  0.000
  0.000  1.000  0.000  0.000  0.000
  0.000  0.000  1.000  0.000  0.000
  0.000  0.000  0.000  1.000  0.000
  0.000  0.000  0.000  0.000  1.000
   spin  2
    eigenvalues: 
  0.000  0.000  0.000  0.000  0.000
    eigenvectors:
  1.000  0.000  0.000  0.000  0.000
  0.000  1.000  0.000  0.000  0.000
  0.000  0.000  1.000  0.000  0.000
  0.000  0.000  0.000  1.000  0.000
  0.000  0.000  0.000  0.000  1.000
    occupations:
  0.000  0.000  0.000  0.000  0.000
  0.000  0.000  0.000  0.000  0.000
  0.000  0.000  0.000  0.000  0.000
  0.000  0.000  0.000  0.000  0.000
  0.000  0.000  0.000  0.000  0.000
atomic mag. moment =     5.000000
atom    3   Tr[ns(na)] (up, down, total) =   5.00000  0.00000  5.00000
   spin  1
    eigenvalues: 
  1.000  1.000  1.000  1.000  1.000
    eigenvectors:
  1.000  0.000  0.000  0.000  0.000
  0.000  1.000  0.000  0.000  0.000
  0.000  0.000  1.000  0.000  0.000
  0.000  0.000  0.000  1.000  0.000
  0.000  0.000  0.000  0.000  1.000
    occupations:
  1.000  0.000  0.000  0.000  0.000
  0.000  1.000  0.000  0.000  0.000
  0.000  0.000  1.000  0.000  0.000
  0.000  0.000  0.000  1.000  0.000
  0.000  0.000  0.000  0.000  1.000
   spin  2
    eigenvalues: 
  0.000  0.000  0.000  0.000  0.000
    eigenvectors:
  1.000  0.000  0.000  0.000  0.000
  0.000  1.000  0.000  0.000  0.000
  0.000  0.000  1.000  0.000  0.000
  0.000  0.000  0.000  1.000  0.000
  0.000  0.000  0.000  0.000  1.000
    occupations:
  0.000  0.000  0.000  0.000  0.000
  0.000  0.000  0.000  0.000  0.000
  0.000  0.000  0.000  0.000  0.000
  0.000  0.000  0.000  0.000  0.000
  0.000  0.000  0.000  0.000  0.000
atomic mag. moment =     5.000000
atom    5   Tr[ns(na)] (up, down, total) =   5.00000  0.00000  5.00000
   spin  1
    eigenvalues: 
  1.000  1.000  1.000  1.000  1.000
    eigenvectors:
  1.000  0.000  0.000  0.000  0.000
  0.000  1.000  0.000  0.000  0.000
  0.000  0.000  1.000  0.000  0.000
  0.000  0.000  0.000  1.000  0.000
  0.000  0.000  0.000  0.000  1.000
    occupations:
  1.000  0.000  0.000  0.000  0.000
  0.000  1.000  0.000  0.000  0.000
  0.000  0.000  1.000  0.000  0.000
  0.000  0.000  0.000  1.000  0.000
  0.000  0.000  0.000  0.000  1.000
   spin  2
    eigenvalues: 
  0.000  0.000  0.000  0.000  0.000
    eigenvectors:
  1.000  0.000  0.000  0.000  0.000
  0.000  1.000  0.000  0.000  0.000
  0.000  0.000  1.000  0.000  0.000
  0.000  0.000  0.000  1.000  0.000
  0.000  0.000  0.000  0.000  1.000
    occupations:
  0.000  0.000  0.000  0.000  0.000
  0.000  0.000  0.000  0.000  0.000
  0.000  0.000  0.000  0.000  0.000
  0.000  0.000  0.000  0.000  0.000
  0.000  0.000  0.000  0.000  0.000
atomic mag. moment =     5.000000
atom    7   Tr[ns(na)] (up, down, total) =   5.00000  0.00000  5.00000
   spin  1
    eigenvalues: 
  1.000  1.000  1.000  1.000  1.000
    eigenvectors:
  1.000  0.000  0.000  0.000  0.000
  0.000  1.000  0.000  0.000  0.000
  0.000  0.000  1.000  0.000  0.000
  0.000  0.000  0.000  1.000  0.000
  0.000  0.000  0.000  0.000  1.000
    occupations:
  1.000  0.000  0.000  0.000  0.000
  0.000  1.000  0.000  0.000  0.000
  0.000  0.000  1.000  0.000  0.000
  0.000  0.000  0.000  1.000  0.000
  0.000  0.000  0.000  0.000  1.000
   spin  2
    eigenvalues: 
  0.000  0.000  0.000  0.000  0.000
    eigenvectors:
  1.000  0.000  0.000  0.000  0.000
  0.000  1.000  0.000  0.000  0.000
  0.000  0.000  1.000  0.000  0.000
  0.000  0.000  0.000  1.000  0.000
  0.000  0.000  0.000  0.000  1.000
    occupations:
  0.000  0.000  0.000  0.000  0.000
  0.000  0.000  0.000  0.000  0.000
  0.000  0.000  0.000  0.000  0.000
  0.000  0.000  0.000  0.000  0.000
  0.000  0.000  0.000  0.000  0.000
atomic mag. moment =     5.000000
atom    9   Tr[ns(na)] (up, down, total) =   5.00000  0.00000  5.00000
   spin  1
    eigenvalues: 
  1.000  1.000  1.000  1.000  1.000
    eigenvectors:
  1.000  0.000  0.000  0.000  0.000
  0.000  1.000  0.000  0.000  0.000
  0.000  0.000  1.000  0.000  0.000
  0.000  0.000  0.000  1.000  0.000
  0.000  0.000  0.000  0.000  1.000
    occupations:
  1.000  0.000  0.000  0.000  0.000
  0.000  1.000  0.000  0.000  0.000
  0.000  0.000  1.000  0.000  0.000
  0.000  0.000  0.000  1.000  0.000
  0.000  0.000  0.000  0.000  1.000
   spin  2
    eigenvalues: 
  0.000  0.000  0.000  0.000  0.000
    eigenvectors:
  1.000  0.000  0.000  0.000  0.000
  0.000  1.000  0.000  0.000  0.000
  0.000  0.000  1.000  0.000  0.000
  0.000  0.000  0.000  1.000  0.000
  0.000  0.000  0.000  0.000  1.000
    occupations:
  0.000  0.000  0.000  0.000  0.000
  0.000  0.000  0.000  0.000  0.000
  0.000  0.000  0.000  0.000  0.000
  0.000  0.000  0.000  0.000  0.000
  0.000  0.000  0.000  0.000  0.000
atomic mag. moment =     5.000000
atom   11   Tr[ns(na)] (up, down, total) =   5.00000  0.00000  5.00000
   spin  1
    eigenvalues: 
  1.000  1.000  1.000  1.000  1.000
    eigenvectors:
  1.000  0.000  0.000  0.000  0.000
  0.000  1.000  0.000  0.000  0.000
  0.000  0.000  1.000  0.000  0.000
  0.000  0.000  0.000  1.000  0.000
  0.000  0.000  0.000  0.000  1.000
    occupations:
  1.000  0.000  0.000  0.000  0.000
  0.000  1.000  0.000  0.000  0.000
  0.000  0.000  1.000  0.000  0.000
  0.000  0.000  0.000  1.000  0.000
  0.000  0.000  0.000  0.000  1.000
   spin  2
    eigenvalues: 
  0.000  0.000  0.000  0.000  0.000
    eigenvectors:
  1.000  0.000  0.000  0.000  0.000
  0.000  1.000  0.000  0.000  0.000
  0.000  0.000  1.000  0.000  0.000
  0.000  0.000  0.000  1.000  0.000
  0.000  0.000  0.000  0.000  1.000
    occupations:
  0.000  0.000  0.000  0.000  0.000
  0.000  0.000  0.000  0.000  0.000
  0.000  0.000  0.000  0.000  0.000
  0.000  0.000  0.000  0.000  0.000
  0.000  0.000  0.000  0.000  0.000
atomic mag. moment =     5.000000
atom   13   Tr[ns(na)] (up, down, total) =   5.00000  0.00000  5.00000
   spin  1
    eigenvalues: 
  1.000  1.000  1.000  1.000  1.000
    eigenvectors:
  1.000  0.000  0.000  0.000  0.000
  0.000  1.000  0.000  0.000  0.000
  0.000  0.000  1.000  0.000  0.000
  0.000  0.000  0.000  1.000  0.000
  0.000  0.000  0.000  0.000  1.000
    occupations:
  1.000  0.000  0.000  0.000  0.000
  0.000  1.000  0.000  0.000  0.000
  0.000  0.000  1.000  0.000  0.000
  0.000  0.000  0.000  1.000  0.000
  0.000  0.000  0.000  0.000  1.000
   spin  2
    eigenvalues: 
  0.000  0.000  0.000  0.000  0.000
    eigenvectors:
  1.000  0.000  0.000  0.000  0.000
  0.000  1.000  0.000  0.000  0.000
  0.000  0.000  1.000  0.000  0.000
  0.000  0.000  0.000  1.000  0.000
  0.000  0.000  0.000  0.000  1.000
    occupations:
  0.000  0.000  0.000  0.000  0.000
  0.000  0.000  0.000  0.000  0.000
  0.000  0.000  0.000  0.000  0.000
  0.000  0.000  0.000  0.000  0.000
  0.000  0.000  0.000  0.000  0.000
atomic mag. moment =     5.000000
atom   15   Tr[ns(na)] (up, down, total) =   5.00000  0.00000  5.00000
   spin  1
    eigenvalues: 
  1.000  1.000  1.000  1.000  1.000
    eigenvectors:
  1.000  0.000  0.000  0.000  0.000
  0.000  1.000  0.000  0.000  0.000
  0.000  0.000  1.000  0.000  0.000
  0.000  0.000  0.000  1.000  0.000
  0.000  0.000  0.000  0.000  1.000
    occupations:
  1.000  0.000  0.000  0.000  0.000
  0.000  1.000  0.000  0.000  0.000
  0.000  0.000  1.000  0.000  0.000
  0.000  0.000  0.000  1.000  0.000
  0.000  0.000  0.000  0.000  1.000
   spin  2
    eigenvalues: 
  0.000  0.000  0.000  0.000  0.000
    eigenvectors:
  1.000  0.000  0.000  0.000  0.000
  0.000  1.000  0.000  0.000  0.000
  0.000  0.000  1.000  0.000  0.000
  0.000  0.000  0.000  1.000  0.000
  0.000  0.000  0.000  0.000  1.000
    occupations:
  0.000  0.000  0.000  0.000  0.000
  0.000  0.000  0.000  0.000  0.000
  0.000  0.000  0.000  0.000  0.000
  0.000  0.000  0.000  0.000  0.000
  0.000  0.000  0.000  0.000  0.000
atomic mag. moment =     5.000000
N of occupied +U levels =   40.000000
 --- exit write_ns ---
 Atomic wfc used for LDA+U Projector are NOT orthogonalized
     Starting wfc are  136 randomized atomic wfcs

     total cpu time spent up to now is       60.1 secs

     Self-consistent Calculation

     iteration #  1     ecut=    41.00 Ry     beta=0.30
     Davidson diagonalization with overlap
     ethr =  1.00E-02,  avg # of iterations =  3.3
 --- enter write_ns ---
 LDA+U parameters:
U( 1)     =  3.00000000
alpha( 1) =  0.00000000
atom    1   Tr[ns(na)] (up, down, total) =   4.98634  0.20181  5.18815
   spin  1
    eigenvalues: 
  0.996  0.996  0.998  0.998  0.998
    eigenvectors:
  0.982  0.013  0.001  0.003  0.001
  0.001  0.000  0.038  0.000  0.961
  0.003  0.001  0.001  0.994  0.000
  0.013  0.980  0.005  0.001  0.000
  0.000  0.006  0.955  0.001  0.038
    occupations:
  0.996  0.000 -0.000  0.000  0.000
  0.000  0.998  0.000  0.000  0.000
 -0.000  0.000  0.998 -0.000  0.000
  0.000  0.000 -0.000  0.996  0.000
  0.000  0.000  0.000  0.000  0.998
   spin  2
    eigenvalues: 
  0.021  0.021  0.023  0.066  0.071
    eigenvectors:
  0.000  0.001  0.000  0.127  0.873
  0.015  0.003  0.983  0.000  0.000
  0.001  0.996  0.002  0.000  0.001
  0.000  0.000  0.000  0.873  0.127
  0.984  0.001  0.015  0.000  0.000
    occupations:
  0.070  0.000  0.001 -0.002  0.000
  0.000  0.023 -0.000 -0.000  0.000
  0.001 -0.000  0.021 -0.000 -0.000
 -0.002 -0.000 -0.000  0.067 -0.001
  0.000  0.000 -0.000 -0.001  0.021
atomic mag. moment =     4.784529
atom    3   Tr[ns(na)] (up, down, total) =   4.98782  0.18713  5.17495
   spin  1
    eigenvalues: 
  0.997  0.997  0.998  0.998  0.998
    eigenvectors:
  0.966  0.032  0.000  0.001  0.001
  0.002  0.004  0.004  0.221  0.769
  0.000  0.000  0.007  0.765  0.227
  0.031  0.962  0.002  0.002  0.003
  0.000  0.002  0.987  0.011  0.000
    occupations:
  0.997  0.000 -0.000  0.000 -0.000
  0.000  0.998  0.000 -0.000 -0.000
 -0.000  0.000  0.998  0.000  0.000
  0.000 -0.000  0.000  0.997 -0.000
 -0.000 -0.000  0.000 -0.000  0.998
   spin  2
    eigenvalues: 
  0.019  0.020  0.021  0.061  0.066
    eigenvectors:
  0.000  0.000  0.000  0.154  0.846
  0.001  0.006  0.993  0.000  0.000
  0.064  0.929  0.007  0.000  0.000
  0.000  0.000  0.000  0.845  0.154
  0.935  0.064  0.000  0.000  0.000
    occupations:
  0.065  0.000  0.001 -0.002 -0.000
  0.000  0.021  0.000  0.001 -0.000
  0.001  0.000  0.020  0.001  0.000
 -0.002  0.001  0.001  0.062  0.001
 -0.000 -0.000  0.000  0.001  0.019
atomic mag. moment =     4.800688
atom    5   Tr[ns(na)] (up, down, total) =   4.98790  0.19031  5.17821
   spin  1
    eigenvalues: 
  0.997  0.997  0.998  0.998  0.998
    eigenvectors:
  0.891  0.107  0.001  0.000  0.001
  0.000  0.015  0.049  0.224  0.711
  0.001  0.000  0.030  0.705  0.264
  0.108  0.875  0.005  0.001  0.011
  0.000  0.003  0.916  0.069  0.013
    occupations:
  0.997  0.000  0.000  0.000 -0.000
  0.000  0.998  0.000  0.000  0.000
  0.000  0.000  0.998  0.000 -0.000
  0.000  0.000  0.000  0.997 -0.000
 -0.000  0.000 -0.000 -0.000  0.998
   spin  2
    eigenvalues: 
  0.020  0.020  0.021  0.063  0.067
    eigenvectors:
  0.001  0.000  0.000  0.163  0.836
  0.003  0.046  0.950  0.001  0.000
  0.299  0.657  0.043  0.000  0.000
  0.000  0.000  0.001  0.836  0.163
  0.698  0.296  0.006  0.000  0.000
    occupations:
  0.066 -0.000 -0.001 -0.001 -0.001
 -0.000  0.021  0.000 -0.001 -0.000
 -0.001  0.000  0.020 -0.000 -0.000
 -0.001 -0.001 -0.000  0.064  0.001
 -0.001 -0.000 -0.000  0.001  0.020
atomic mag. moment =     4.797582
atom    7   Tr[ns(na)] (up, down, total) =   4.98784  0.19202  5.17986
   spin  1
    eigenvalues: 
  0.996  0.997  0.998  0.998  0.998
    eigenvectors:
  0.259  0.739  0.001  0.000  0.000
  0.000  0.001  0.990  0.008  0.000
  0.001  0.000  0.003  0.615  0.381
  0.740  0.259  0.000  0.000  0.000
  0.000  0.000  0.005  0.377  0.618
    occupations:
  0.997 -0.000 -0.000 -0.000 -0.000
 -0.000  0.998  0.000  0.000 -0.000
 -0.000  0.000  0.998 -0.000  0.000
 -0.000  0.000 -0.000  0.997  0.000
 -0.000 -0.000  0.000  0.000  0.998
   spin  2
    eigenvalues: 
  0.020  0.021  0.021  0.063  0.068
    eigenvectors:
  0.000  0.000  0.000  0.833  0.166
  0.997  0.002  0.001  0.000  0.000
  0.003  0.995  0.002  0.000  0.000
  0.000  0.000  0.000  0.166  0.833
  0.001  0.002  0.997  0.000  0.000
    occupations:
  0.064  0.000  0.001  0.002  0.000
  0.000  0.020 -0.000 -0.000  0.000
  0.001 -0.000  0.021  0.000 -0.000
  0.002 -0.000  0.000  0.067  0.001
  0.000  0.000 -0.000  0.001  0.021
atomic mag. moment =     4.795815
atom    9   Tr[ns(na)] (up, down, total) =   4.98732  0.19552  5.18284
   spin  1
    eigenvalues: 
  0.996  0.997  0.998  0.998  0.998
    eigenvectors:
  0.991  0.000  0.002  0.004  0.003
  0.005  0.001  0.042  0.012  0.940
  0.004  0.000  0.172  0.786  0.038
  0.000  0.999  0.000  0.000  0.000
  0.000  0.000  0.784  0.198  0.019
    occupations:
  0.996  0.000  0.000  0.000  0.000
  0.000  0.998 -0.000  0.000 -0.000
  0.000 -0.000  0.998  0.000 -0.000
  0.000  0.000  0.000  0.997 -0.000
  0.000 -0.000 -0.000 -0.000  0.998
   spin  2
    eigenvalues: 
  0.020  0.021  0.022  0.064  0.069
    eigenvectors:
  0.000  0.000  0.000  0.134  0.866
  0.004  0.003  0.993  0.000  0.000
  0.008  0.989  0.002  0.000  0.000
  0.000  0.000  0.000  0.866  0.134
  0.988  0.007  0.005  0.000  0.000
    occupations:
  0.068 -0.001 -0.001 -0.002 -0.000
 -0.001  0.022  0.000  0.000 -0.000
 -0.001  0.000  0.021  0.000 -0.000
 -0.002  0.000  0.000  0.065 -0.001
 -0.000 -0.000 -0.000 -0.001  0.020
atomic mag. moment =     4.791798
atom   11   Tr[ns(na)] (up, down, total) =   4.98684  0.19820  5.18504
   spin  1
    eigenvalues: 
  0.996  0.996  0.998  0.998  0.998
    eigenvectors:
  0.253  0.743  0.000  0.001  0.002
  0.001  0.001  0.837  0.123  0.038
  0.001  0.002  0.049  0.002  0.946
  0.744  0.253  0.002  0.001  0.000
  0.002  0.000  0.111  0.873  0.013
    occupations:
  0.996 -0.000 -0.000 -0.000 -0.000
 -0.000  0.998 -0.000  0.000  0.000
 -0.000 -0.000  0.998 -0.000  0.000
 -0.000  0.000 -0.000  0.996 -0.000
 -0.000  0.000  0.000 -0.000  0.998
   spin  2
    eigenvalues: 
  0.021  0.021  0.022  0.065  0.069
    eigenvectors:
  0.000  0.000  0.001  0.844  0.155
  0.951  0.040  0.009  0.000  0.000
  0.048  0.746  0.205  0.000  0.000
  0.000  0.000  0.000  0.155  0.844
  0.000  0.214  0.785  0.000  0.000
    occupations:
  0.066  0.000  0.001  0.001  0.001
  0.000  0.021 -0.000  0.001 -0.000
  0.001 -0.000  0.021  0.000  0.000
  0.001  0.001  0.000  0.068 -0.001
  0.001 -0.000  0.000 -0.001  0.022
atomic mag. moment =     4.788641
atom   13   Tr[ns(na)] (up, down, total) =   4.98598  0.20311  5.18909
   spin  1
    eigenvalues: 
  0.995  0.996  0.998  0.998  0.998
    eigenvectors:
  0.264  0.735  0.000  0.001  0.000
  0.000  0.000  0.995  0.003  0.001
  0.002  0.000  0.002  0.886  0.110
  0.734  0.265  0.000  0.001  0.000
  0.000  0.000  0.003  0.108  0.889
    occupations:
  0.996 -0.000  0.000 -0.000 -0.000
 -0.000  0.998  0.000 -0.000 -0.000
  0.000  0.000  0.998  0.000  0.000
 -0.000 -0.000  0.000  0.996 -0.000
 -0.000 -0.000  0.000 -0.000  0.998
   spin  2
    eigenvalues: 
  0.021  0.022  0.022  0.067  0.071
    eigenvectors:
  0.000  0.000  0.000  0.853  0.146
  0.985  0.003  0.012  0.000  0.000
  0.007  0.890  0.102  0.000  0.000
  0.000  0.000  0.000  0.146  0.853
  0.008  0.107  0.886  0.000  0.000
    occupations:
  0.067 -0.000 -0.001  0.002  0.000
 -0.000  0.021 -0.000 -0.000  0.000
 -0.001 -0.000  0.022 -0.001 -0.000
  0.002 -0.000 -0.001  0.070 -0.000
  0.000  0.000 -0.000 -0.000  0.022
atomic mag. moment =     4.782874
atom   15   Tr[ns(na)] (up, down, total) =   4.98834  0.18624  5.17459
   spin  1
    eigenvalues: 
  0.997  0.997  0.998  0.998  0.998
    eigenvectors:
  0.223  0.776  0.000  0.000  0.000
  0.001  0.000  0.991  0.000  0.008
  0.001  0.000  0.000  0.999  0.000
  0.775  0.224  0.001  0.001  0.000
  0.000  0.000  0.008  0.000  0.991
    occupations:
  0.997  0.000 -0.000 -0.000  0.000
  0.000  0.998  0.000  0.000 -0.000
 -0.000  0.000  0.998 -0.000 -0.000
 -0.000  0.000 -0.000  0.997  0.000
  0.000 -0.000 -0.000  0.000  0.998
   spin  2
    eigenvalues: 
  0.019  0.020  0.020  0.061  0.066
    eigenvectors:
  0.000  0.001  0.000  0.891  0.108
  0.997  0.000  0.003  0.000  0.000
  0.000  0.998  0.001  0.001  0.000
  0.000  0.000  0.000  0.108  0.892
  0.003  0.001  0.995  0.000  0.000
    occupations:
  0.062 -0.000 -0.001  0.001 -0.000
 -0.000  0.019  0.000  0.000 -0.000
 -0.001  0.000  0.020 -0.000  0.000
  0.001  0.000 -0.000  0.065  0.001
 -0.000 -0.000  0.000  0.001  0.021
atomic mag. moment =     4.802102
N of occupied +U levels =   41.452735
 --- exit write_ns ---

     negative rho (up, down):  0.000E+00 3.785E-04

     Magnetic moment per site:
     atom:    1    charge:   12.6679    magn:   10.1513    constr:    0.0000
     atom:    2    charge:    5.6120    magn:    0.1794    constr:    0.0000
     atom:    3    charge:   12.6618    magn:   10.1504    constr:    0.0000
     atom:    4    charge:    5.6079    magn:    0.1764    constr:    0.0000
     atom:    5    charge:   12.6631    magn:   10.1510    constr:    0.0000
     atom:    6    charge:    5.5970    magn:    0.1682    constr:    0.0000
     atom:    7    charge:   12.6639    magn:   10.1512    constr:    0.0000
     atom:    8    charge:    5.5898    magn:    0.1626    constr:    0.0000
     atom:    9    charge:   12.6659    magn:   10.1515    constr:    0.0000
     atom:   10    charge:    5.5945    magn:    0.1661    constr:    0.0000
     atom:   11    charge:   12.6664    magn:   10.1510    constr:    0.0000
     atom:   12    charge:    5.5870    magn:    0.1607    constr:    0.0000
     atom:   13    charge:   12.6689    magn:   10.1513    constr:    0.0000
     atom:   14    charge:    5.5758    magn:    0.1524    constr:    0.0000
     atom:   15    charge:   12.6610    magn:   10.1504    constr:    0.0000
     atom:   16    charge:    5.5733    magn:    0.1505    constr:    0.0000

     total cpu time spent up to now is      289.6 secs

     total energy              =   -1937.81448930 Ry
     Harris-Foulkes estimate   =   -1920.99225464 Ry
     estimated scf accuracy    <      25.67210476 Ry

     total magnetization       =    40.00 Bohr mag/cell
     absolute magnetization    =    41.80 Bohr mag/cell

     iteration #  2     ecut=    41.00 Ry     beta=0.30
     Davidson diagonalization with overlap
     ethr =  1.00E-02,  avg # of iterations =  1.1

     negative rho (up, down):  0.000E+00 1.679E-03

     Magnetic moment per site:
     atom:    1    charge:   12.5574    magn:    4.4888    constr:    0.0000
     atom:    2    charge:    5.8303    magn:   -0.0479    constr:    0.0000
     atom:    3    charge:   12.5537    magn:    4.4879    constr:    0.0000
     atom:    4    charge:    5.8257    magn:   -0.0493    constr:    0.0000
     atom:    5    charge:   12.5546    magn:    4.4888    constr:    0.0000
     atom:    6    charge:    5.8138    magn:   -0.0530    constr:    0.0000
     atom:    7    charge:   12.5551    magn:    4.4891    constr:    0.0000
     atom:    8    charge:    5.8060    magn:   -0.0554    constr:    0.0000
     atom:    9    charge:   12.5565    magn:    4.4890    constr:    0.0000
     atom:   10    charge:    5.8110    magn:   -0.0539    constr:    0.0000
     atom:   11    charge:   12.5565    magn:    4.4885    constr:    0.0000
     atom:   12    charge:    5.8028    magn:   -0.0562    constr:    0.0000
     atom:   13    charge:   12.5582    magn:    4.4883    constr:    0.0000
     atom:   14    charge:    5.7905    magn:   -0.0599    constr:    0.0000
     atom:   15    charge:   12.5533    magn:    4.4885    constr:    0.0000
     atom:   16    charge:    5.7879    magn:   -0.0608    constr:    0.0000

     total cpu time spent up to now is      426.2 secs

     total energy              =   -1945.62659109 Ry
     Harris-Foulkes estimate   =   -1938.07955888 Ry
     estimated scf accuracy    <      12.66462466 Ry

     total magnetization       =    40.00 Bohr mag/cell
     absolute magnetization    =    41.21 Bohr mag/cell

     iteration #  3     ecut=    41.00 Ry     beta=0.30
     Davidson diagonalization with overlap
     ethr =  7.54E-03,  avg # of iterations =  2.0

     negative rho (up, down):  0.000E+00 1.930E-03

     Magnetic moment per site:
     atom:    1    charge:   12.4924    magn:    4.2273    constr:    0.0000
     atom:    2    charge:    5.8064    magn:    0.0662    constr:    0.0000
     atom:    3    charge:   12.4862    magn:    4.2310    constr:    0.0000
     atom:    4    charge:    5.8017    magn:    0.0648    constr:    0.0000
     atom:    5    charge:   12.4876    magn:    4.2313    constr:    0.0000
     atom:    6    charge:    5.7891    magn:    0.0606    constr:    0.0000
     atom:    7    charge:   12.4885    magn:    4.2311    constr:    0.0000
     atom:    8    charge:    5.7807    magn:    0.0576    constr:    0.0000
     atom:    9    charge:   12.4905    magn:    4.2296    constr:    0.0000
     atom:   10    charge:    5.7860    magn:    0.0593    constr:    0.0000
     atom:   11    charge:   12.4910    magn:    4.2279    constr:    0.0000
     atom:   12    charge:    5.7773    magn:    0.0566    constr:    0.0000
     atom:   13    charge:   12.4934    magn:    4.2262    constr:    0.0000
     atom:   14    charge:    5.7643    magn:    0.0523    constr:    0.0000
     atom:   15    charge:   12.4856    magn:    4.2325    constr:    0.0000
     atom:   16    charge:    5.7616    magn:    0.0513    constr:    0.0000

     total cpu time spent up to now is      618.3 secs

     total energy              =   -1946.14283233 Ry
     Harris-Foulkes estimate   =   -1946.24420068 Ry
     estimated scf accuracy    <       0.36815634 Ry

     total magnetization       =    40.00 Bohr mag/cell
     absolute magnetization    =    40.00 Bohr mag/cell

     iteration #  4     ecut=    41.00 Ry     beta=0.30
     Davidson diagonalization with overlap
     ethr =  2.19E-04,  avg # of iterations =  2.7

     negative rho (up, down):  0.000E+00 1.995E-03

     Magnetic moment per site:
     atom:    1    charge:   12.4800    magn:    4.1416    constr:    0.0000
     atom:    2    charge:    5.8140    magn:    0.0845    constr:    0.0000
     atom:    3    charge:   12.4733    magn:    4.1460    constr:    0.0000
     atom:    4    charge:    5.8094    magn:    0.0830    constr:    0.0000
     atom:    5    charge:   12.4749    magn:    4.1462    constr:    0.0000
     atom:    6    charge:    5.7969    magn:    0.0789    constr:    0.0000
     atom:    7    charge:   12.4757    magn:    4.1460    constr:    0.0000
     atom:    8    charge:    5.7885    magn:    0.0759    constr:    0.0000
     atom:    9    charge:   12.4778    magn:    4.1443    constr:    0.0000
     atom:   10    charge:    5.7937    magn:    0.0775    constr:    0.0000
     atom:   11    charge:   12.4785    magn:    4.1424    constr:    0.0000
     atom:   12    charge:    5.7851    magn:    0.0748    constr:    0.0000
     atom:   13    charge:   12.4811    magn:    4.1405    constr:    0.0000
     atom:   14    charge:    5.7721    magn:    0.0706    constr:    0.0000
     atom:   15    charge:   12.4726    magn:    4.1476    constr:    0.0000
     atom:   16    charge:    5.7694    magn:    0.0695    constr:    0.0000

     total cpu time spent up to now is      813.5 secs

     total energy              =   -1946.19688317 Ry
     Harris-Foulkes estimate   =   -1946.20075000 Ry
     estimated scf accuracy    <       0.02816936 Ry

     total magnetization       =    40.00 Bohr mag/cell
     absolute magnetization    =    40.00 Bohr mag/cell

     iteration #  5     ecut=    41.00 Ry     beta=0.30
     Davidson diagonalization with overlap
     ethr =  1.68E-05,  avg # of iterations =  2.5

     negative rho (up, down):  0.000E+00 2.101E-03

     Magnetic moment per site:
     atom:    1    charge:   12.4473    magn:    4.2090    constr:    0.0000
     atom:    2    charge:    5.8199    magn:    0.1613    constr:    0.0000
     atom:    3    charge:   12.4387    magn:    4.2155    constr:    0.0000
     atom:    4    charge:    5.8154    magn:    0.1599    constr:    0.0000
     atom:    5    charge:   12.4406    magn:    4.2154    constr:    0.0000
     atom:    6    charge:    5.8028    magn:    0.1558    constr:    0.0000
     atom:    7    charge:   12.4418    magn:    4.2150    constr:    0.0000
     atom:    8    charge:    5.7944    magn:    0.1525    constr:    0.0000
     atom:    9    charge:   12.4443    magn:    4.2127    constr:    0.0000
     atom:   10    charge:    5.7997    magn:    0.1541    constr:    0.0000
     atom:   11    charge:   12.4454    magn:    4.2101    constr:    0.0000
     atom:   12    charge:    5.7910    magn:    0.1515    constr:    0.0000
     atom:   13    charge:   12.4486    magn:    4.2076    constr:    0.0000
     atom:   14    charge:    5.7782    magn:    0.1471    constr:    0.0000
     atom:   15    charge:   12.4379    magn:    4.2176    constr:    0.0000
     atom:   16    charge:    5.7755    magn:    0.1460    constr:    0.0000

     total cpu time spent up to now is      979.4 secs

     total energy              =   -1946.19768622 Ry
     Harris-Foulkes estimate   =   -1946.19829760 Ry
     estimated scf accuracy    <       0.01259535 Ry

     total magnetization       =    40.00 Bohr mag/cell
     absolute magnetization    =    40.00 Bohr mag/cell
 kfg - setting two_fermi_energies to FALSE

     iteration #  6     ecut=    41.00 Ry     beta=0.30
     Davidson diagonalization with overlap
     ethr =  7.50E-06,  avg # of iterations =  2.2

     negative rho (up, down):  0.000E+00 2.097E-03

     Magnetic moment per site:
     atom:    1    charge:   12.4418    magn:    4.2093    constr:    0.0000
     atom:    2    charge:    5.8208    magn:    0.1762    constr:    0.0000
     atom:    3    charge:   12.4326    magn:    4.2158    constr:    0.0000
     atom:    4    charge:    5.8162    magn:    0.1749    constr:    0.0000
     atom:    5    charge:   12.4346    magn:    4.2158    constr:    0.0000
     atom:    6    charge:    5.8036    magn:    0.1712    constr:    0.0000
     atom:    7    charge:   12.4358    magn:    4.2154    constr:    0.0000
     atom:    8    charge:    5.7951    magn:    0.1680    constr:    0.0000
     atom:    9    charge:   12.4385    magn:    4.2130    constr:    0.0000
     atom:   10    charge:    5.8004    magn:    0.1695    constr:    0.0000
     atom:   11    charge:   12.4398    magn:    4.2103    constr:    0.0000
     atom:   12    charge:    5.7917    magn:    0.1671    constr:    0.0000
     atom:   13    charge:   12.4432    magn:    4.2078    constr:    0.0000
     atom:   14    charge:    5.7787    magn:    0.1630    constr:    0.0000
     atom:   15    charge:   12.4316    magn:    4.2181    constr:    0.0000
     atom:   16    charge:    5.7760    magn:    0.1620    constr:    0.0000

     total cpu time spent up to now is     1155.0 secs

     total energy              =   -1946.20043895 Ry
     Harris-Foulkes estimate   =   -1946.20032189 Ry
     estimated scf accuracy    <       0.00051716 Ry

     total magnetization       =    40.00 Bohr mag/cell
     absolute magnetization    =    40.00 Bohr mag/cell

     iteration #  7     ecut=    41.00 Ry     beta=0.30
     Davidson diagonalization with overlap
     ethr =  3.08E-07,  avg # of iterations =  2.3

     negative rho (up, down):  0.000E+00 2.074E-03

     Magnetic moment per site:
     atom:    1    charge:   12.4418    magn:    4.2002    constr:    0.0000
     atom:    2    charge:    5.8204    magn:    0.1784    constr:    0.0000
     atom:    3    charge:   12.4323    magn:    4.2065    constr:    0.0000
     atom:    4    charge:    5.8158    magn:    0.1772    constr:    0.0000
     atom:    5    charge:   12.4343    magn:    4.2065    constr:    0.0000
     atom:    6    charge:    5.8031    magn:    0.1736    constr:    0.0000
     atom:    7    charge:   12.4356    magn:    4.2062    constr:    0.0000
     atom:    8    charge:    5.7946    magn:    0.1706    constr:    0.0000
     atom:    9    charge:   12.4384    magn:    4.2038    constr:    0.0000
     atom:   10    charge:    5.8000    magn:    0.1720    constr:    0.0000
     atom:   11    charge:   12.4397    magn:    4.2011    constr:    0.0000
     atom:   12    charge:    5.7912    magn:    0.1697    constr:    0.0000
     atom:   13    charge:   12.4432    magn:    4.1987    constr:    0.0000
     atom:   14    charge:    5.7781    magn:    0.1659    constr:    0.0000
     atom:   15    charge:   12.4313    magn:    4.2088    constr:    0.0000
     atom:   16    charge:    5.7754    magn:    0.1649    constr:    0.0000

     total cpu time spent up to now is     1332.9 secs

     total energy              =   -1946.20057266 Ry
     Harris-Foulkes estimate   =   -1946.20055528 Ry
     estimated scf accuracy    <       0.00012087 Ry

     total magnetization       =    40.00 Bohr mag/cell
     absolute magnetization    =    40.00 Bohr mag/cell

     iteration #  8     ecut=    41.00 Ry     beta=0.30
     Davidson diagonalization with overlap
     ethr =  7.19E-08,  avg # of iterations =  1.5

     negative rho (up, down):  0.000E+00 2.036E-03

     Magnetic moment per site:
     atom:    1    charge:   12.4430    magn:    4.1988    constr:    0.0000
     atom:    2    charge:    5.8198    magn:    0.1807    constr:    0.0000
     atom:    3    charge:   12.4332    magn:    4.2049    constr:    0.0000
     atom:    4    charge:    5.8152    magn:    0.1795    constr:    0.0000
     atom:    5    charge:   12.4353    magn:    4.2050    constr:    0.0000
     atom:    6    charge:    5.8025    magn:    0.1762    constr:    0.0000
     atom:    7    charge:   12.4366    magn:    4.2048    constr:    0.0000
     atom:    8    charge:    5.7941    magn:    0.1733    constr:    0.0000
     atom:    9    charge:   12.4394    magn:    4.2025    constr:    0.0000
     atom:   10    charge:    5.7994    magn:    0.1746    constr:    0.0000
     atom:   11    charge:   12.4408    magn:    4.1998    constr:    0.0000
     atom:   12    charge:    5.7906    magn:    0.1724    constr:    0.0000
     atom:   13    charge:   12.4444    magn:    4.1974    constr:    0.0000
     atom:   14    charge:    5.7776    magn:    0.1688    constr:    0.0000
     atom:   15    charge:   12.4322    magn:    4.2073    constr:    0.0000
     atom:   16    charge:    5.7749    magn:    0.1679    constr:    0.0000

     total cpu time spent up to now is     1485.1 secs

     total energy              =   -1946.20059261 Ry
     Harris-Foulkes estimate   =   -1946.20059131 Ry
     estimated scf accuracy    <       0.00001701 Ry

     total magnetization       =    40.00 Bohr mag/cell
     absolute magnetization    =    40.00 Bohr mag/cell

     iteration #  9     ecut=    41.00 Ry     beta=0.30
     Davidson diagonalization with overlap
     ethr =  1.01E-08,  avg # of iterations =  2.0

     negative rho (up, down):  0.000E+00 2.033E-03

     Magnetic moment per site:
     atom:    1    charge:   12.4429    magn:    4.1988    constr:    0.0000
     atom:    2    charge:    5.8197    magn:    0.1817    constr:    0.0000
     atom:    3    charge:   12.4331    magn:    4.2049    constr:    0.0000
     atom:    4    charge:    5.8151    magn:    0.1806    constr:    0.0000
     atom:    5    charge:   12.4352    magn:    4.2051    constr:    0.0000
     atom:    6    charge:    5.8025    magn:    0.1773    constr:    0.0000
     atom:    7    charge:   12.4365    magn:    4.2048    constr:    0.0000
     atom:    8    charge:    5.7940    magn:    0.1744    constr:    0.0000
     atom:    9    charge:   12.4393    magn:    4.2025    constr:    0.0000
     atom:   10    charge:    5.7993    magn:    0.1757    constr:    0.0000
     atom:   11    charge:   12.4407    magn:    4.1998    constr:    0.0000
     atom:   12    charge:    5.7906    magn:    0.1736    constr:    0.0000
     atom:   13    charge:   12.4443    magn:    4.1974    constr:    0.0000
     atom:   14    charge:    5.7775    magn:    0.1700    constr:    0.0000
     atom:   15    charge:   12.4321    magn:    4.2073    constr:    0.0000
     atom:   16    charge:    5.7748    magn:    0.1691    constr:    0.0000

     total cpu time spent up to now is     1661.0 secs

     total energy              =   -1946.20059643 Ry
     Harris-Foulkes estimate   =   -1946.20059710 Ry
     estimated scf accuracy    <       0.00000348 Ry

     total magnetization       =    40.00 Bohr mag/cell
     absolute magnetization    =    40.00 Bohr mag/cell

     iteration # 10     ecut=    41.00 Ry     beta=0.30
     Davidson diagonalization with overlap
     ethr =  2.07E-09,  avg # of iterations =  2.0

     negative rho (up, down):  0.000E+00 2.034E-03

     Magnetic moment per site:
     atom:    1    charge:   12.4430    magn:    4.1988    constr:    0.0000
     atom:    2    charge:    5.8196    magn:    0.1819    constr:    0.0000
     atom:    3    charge:   12.4332    magn:    4.2048    constr:    0.0000
     atom:    4    charge:    5.8151    magn:    0.1808    constr:    0.0000
     atom:    5    charge:   12.4353    magn:    4.2050    constr:    0.0000
     atom:    6    charge:    5.8024    magn:    0.1776    constr:    0.0000
     atom:    7    charge:   12.4366    magn:    4.2047    constr:    0.0000
     atom:    8    charge:    5.7939    magn:    0.1746    constr:    0.0000
     atom:    9    charge:   12.4395    magn:    4.2024    constr:    0.0000
     atom:   10    charge:    5.7992    magn:    0.1759    constr:    0.0000
     atom:   11    charge:   12.4409    magn:    4.1997    constr:    0.0000
     atom:   12    charge:    5.7905    magn:    0.1739    constr:    0.0000
     atom:   13    charge:   12.4445    magn:    4.1973    constr:    0.0000
     atom:   14    charge:    5.7775    magn:    0.1703    constr:    0.0000
     atom:   15    charge:   12.4322    magn:    4.2072    constr:    0.0000
     atom:   16    charge:    5.7748    magn:    0.1694    constr:    0.0000

     total cpu time spent up to now is     1839.0 secs

     total energy              =   -1946.20059725 Ry
     Harris-Foulkes estimate   =   -1946.20059721 Ry
     estimated scf accuracy    <       0.00000038 Ry

     total magnetization       =    40.00 Bohr mag/cell
     absolute magnetization    =    40.00 Bohr mag/cell

     iteration # 11     ecut=    41.00 Ry     beta=0.30
     Davidson diagonalization with overlap
     ethr =  2.27E-10,  avg # of iterations =  2.0

     negative rho (up, down):  0.000E+00 2.040E-03

     Magnetic moment per site:
     atom:    1    charge:   12.4430    magn:    4.1989    constr:    0.0000
     atom:    2    charge:    5.8197    magn:    0.1816    constr:    0.0000
     atom:    3    charge:   12.4332    magn:    4.2049    constr:    0.0000
     atom:    4    charge:    5.8151    magn:    0.1805    constr:    0.0000
     atom:    5    charge:   12.4353    magn:    4.2051    constr:    0.0000
     atom:    6    charge:    5.8025    magn:    0.1772    constr:    0.0000
     atom:    7    charge:   12.4366    magn:    4.2048    constr:    0.0000
     atom:    8    charge:    5.7940    magn:    0.1743    constr:    0.0000
     atom:    9    charge:   12.4394    magn:    4.2025    constr:    0.0000
     atom:   10    charge:    5.7993    magn:    0.1756    constr:    0.0000
     atom:   11    charge:   12.4409    magn:    4.1998    constr:    0.0000
     atom:   12    charge:    5.7905    magn:    0.1736    constr:    0.0000
     atom:   13    charge:   12.4444    magn:    4.1974    constr:    0.0000
     atom:   14    charge:    5.7775    magn:    0.1701    constr:    0.0000
     atom:   15    charge:   12.4322    magn:    4.2073    constr:    0.0000
     atom:   16    charge:    5.7748    magn:    0.1691    constr:    0.0000

     total cpu time spent up to now is     2010.5 secs

     total energy              =   -1946.20059742 Ry
     Harris-Foulkes estimate   =   -1946.20059731 Ry
     estimated scf accuracy    <       0.00000011 Ry

     total magnetization       =    40.00 Bohr mag/cell
     absolute magnetization    =    40.00 Bohr mag/cell

     iteration # 12     ecut=    41.00 Ry     beta=0.30
     Davidson diagonalization with overlap
     ethr =  6.34E-11,  avg # of iterations =  2.0

     negative rho (up, down):  0.000E+00 2.040E-03

     Magnetic moment per site:
     atom:    1    charge:   12.4430    magn:    4.1988    constr:    0.0000
     atom:    2    charge:    5.8197    magn:    0.1816    constr:    0.0000
     atom:    3    charge:   12.4332    magn:    4.2049    constr:    0.0000
     atom:    4    charge:    5.8151    magn:    0.1805    constr:    0.0000
     atom:    5    charge:   12.4353    magn:    4.2050    constr:    0.0000
     atom:    6    charge:    5.8025    magn:    0.1773    constr:    0.0000
     atom:    7    charge:   12.4366    magn:    4.2048    constr:    0.0000
     atom:    8    charge:    5.7940    magn:    0.1744    constr:    0.0000
     atom:    9    charge:   12.4394    magn:    4.2025    constr:    0.0000
     atom:   10    charge:    5.7993    magn:    0.1756    constr:    0.0000
     atom:   11    charge:   12.4409    magn:    4.1998    constr:    0.0000
     atom:   12    charge:    5.7905    magn:    0.1736    constr:    0.0000
     atom:   13    charge:   12.4444    magn:    4.1974    constr:    0.0000
     atom:   14    charge:    5.7775    magn:    0.1701    constr:    0.0000
     atom:   15    charge:   12.4322    magn:    4.2073    constr:    0.0000
     atom:   16    charge:    5.7748    magn:    0.1692    constr:    0.0000

     total cpu time spent up to now is     2187.9 secs

     total energy              =   -1946.20059750 Ry
     Harris-Foulkes estimate   =   -1946.20059745 Ry
     estimated scf accuracy    <       0.00000001 Ry

     total magnetization       =    40.00 Bohr mag/cell
     absolute magnetization    =    40.00 Bohr mag/cell

     iteration # 13     ecut=    41.00 Ry     beta=0.30
     Davidson diagonalization with overlap
     ethr =  6.50E-12,  avg # of iterations =  1.5

     negative rho (up, down):  0.000E+00 2.038E-03

     Magnetic moment per site:
     atom:    1    charge:   12.4430    magn:    4.1988    constr:    0.0000
     atom:    2    charge:    5.8197    magn:    0.1816    constr:    0.0000
     atom:    3    charge:   12.4332    magn:    4.2049    constr:    0.0000
     atom:    4    charge:    5.8151    magn:    0.1805    constr:    0.0000
     atom:    5    charge:   12.4353    magn:    4.2050    constr:    0.0000
     atom:    6    charge:    5.8025    magn:    0.1773    constr:    0.0000
     atom:    7    charge:   12.4366    magn:    4.2048    constr:    0.0000
     atom:    8    charge:    5.7940    magn:    0.1744    constr:    0.0000
     atom:    9    charge:   12.4394    magn:    4.2025    constr:    0.0000
     atom:   10    charge:    5.7993    magn:    0.1756    constr:    0.0000
     atom:   11    charge:   12.4409    magn:    4.1997    constr:    0.0000
     atom:   12    charge:    5.7906    magn:    0.1736    constr:    0.0000
     atom:   13    charge:   12.4444    magn:    4.1974    constr:    0.0000
     atom:   14    charge:    5.7775    magn:    0.1701    constr:    0.0000
     atom:   15    charge:   12.4322    magn:    4.2073    constr:    0.0000
     atom:   16    charge:    5.7748    magn:    0.1692    constr:    0.0000

     total cpu time spent up to now is     2348.9 secs

     End of self-consistent calculation
 --- enter write_ns ---
 LDA+U parameters:
U( 1)     =  3.00000000
alpha( 1) =  0.00000000
atom    1   Tr[ns(na)] (up, down, total) =   4.98970  0.47233  5.46204
   spin  1
    eigenvalues: 
  0.996  0.997  0.999  0.999  0.999
    eigenvectors:
  0.954  0.042  0.000  0.003  0.000
  0.001  0.000  0.129  0.412  0.458
  0.002  0.001  0.014  0.561  0.422
  0.043  0.952  0.004  0.001  0.000
  0.000  0.005  0.853  0.023  0.119
    occupations:
  0.996  0.000 -0.000  0.000  0.000
  0.000  0.999  0.000  0.000  0.000
 -0.000  0.000  0.999 -0.000  0.000
  0.000  0.000 -0.000  0.997  0.000
  0.000  0.000  0.000  0.000  0.999
   spin  2
    eigenvalues: 
  0.052  0.053  0.055  0.150  0.161
    eigenvectors:
  0.000  0.001  0.000  0.119  0.880
  0.007  0.006  0.987  0.000  0.000
  0.009  0.986  0.005  0.000  0.000
  0.000  0.000  0.000  0.880  0.120
  0.984  0.007  0.008  0.000  0.000
    occupations:
  0.160 -0.000  0.002 -0.003  0.000
 -0.000  0.055 -0.000 -0.000  0.000
  0.002 -0.000  0.053 -0.000 -0.000
 -0.003 -0.000 -0.000  0.152 -0.002
  0.000  0.000 -0.000 -0.002  0.052
atomic mag. moment =     4.517366
atom    3   Tr[ns(na)] (up, down, total) =   4.99210  0.45300  5.44510
   spin  1
    eigenvalues: 
  0.997  0.998  0.999  0.999  0.999
    eigenvectors:
  0.906  0.093  0.000  0.001  0.000
  0.002  0.001  0.095  0.811  0.091
  0.000  0.000  0.002  0.092  0.906
  0.092  0.905  0.001  0.001  0.000
  0.000  0.001  0.902  0.095  0.003
    occupations:
  0.997  0.000 -0.000  0.000 -0.000
  0.000  0.999  0.000 -0.000 -0.000
 -0.000  0.000  0.999 -0.000 -0.000
  0.000 -0.000 -0.000  0.998 -0.000
 -0.000 -0.000 -0.000 -0.000  0.999
   spin  2
    eigenvalues: 
  0.050  0.051  0.053  0.144  0.155
    eigenvectors:
  0.000  0.000  0.000  0.173  0.827
  0.000  0.007  0.993  0.000  0.000
  0.095  0.898  0.007  0.000  0.000
  0.000  0.000  0.000  0.827  0.173
  0.905  0.095  0.000  0.000  0.000
    occupations:
  0.153 -0.000  0.002 -0.004 -0.001
 -0.000  0.053  0.000  0.001  0.000
  0.002  0.000  0.051  0.001  0.000
 -0.004  0.001  0.001  0.146  0.001
 -0.001  0.000  0.000  0.001  0.050
atomic mag. moment =     4.539105
atom    5   Tr[ns(na)] (up, down, total) =   4.99197  0.45622  5.44818
   spin  1
    eigenvalues: 
  0.997  0.998  0.999  0.999  0.999
    eigenvectors:
  0.830  0.169  0.000  0.000  0.001
  0.001  0.009  0.134  0.469  0.387
  0.000  0.001  0.024  0.383  0.592
  0.169  0.821  0.003  0.002  0.005
  0.000  0.001  0.839  0.146  0.015
    occupations:
  0.997  0.000  0.000  0.000 -0.000
  0.000  0.999  0.000  0.000  0.000
  0.000  0.000  0.999  0.000  0.000
  0.000  0.000  0.000  0.998 -0.000
 -0.000  0.000  0.000 -0.000  0.999
   spin  2
    eigenvalues: 
  0.050  0.051  0.053  0.147  0.155
    eigenvectors:
  0.000  0.000  0.000  0.180  0.819
  0.001  0.024  0.974  0.000  0.000
  0.292  0.685  0.022  0.000  0.000
  0.000  0.000  0.000  0.819  0.180
  0.706  0.291  0.003  0.000  0.000
    occupations:
  0.153  0.000 -0.002 -0.003 -0.001
  0.000  0.053  0.000 -0.002 -0.000
 -0.002  0.000  0.051 -0.001 -0.000
 -0.003 -0.002 -0.001  0.148  0.001
 -0.001 -0.000 -0.000  0.001  0.051
atomic mag. moment =     4.535750
atom    7   Tr[ns(na)] (up, down, total) =   4.99185  0.45827  5.45013
   spin  1
    eigenvalues: 
  0.997  0.998  0.999  0.999  0.999
    eigenvectors:
  0.236  0.763  0.000  0.000  0.000
  0.000  0.000  0.875  0.113  0.011
  0.001  0.000  0.031  0.497  0.471
  0.764  0.236  0.000  0.000  0.000
  0.000  0.000  0.093  0.389  0.517
    occupations:
  0.998 -0.000 -0.000 -0.000 -0.000
 -0.000  0.999  0.000 -0.000 -0.000
 -0.000  0.000  0.999 -0.000  0.000
 -0.000 -0.000 -0.000  0.997  0.000
 -0.000 -0.000  0.000  0.000  0.999
   spin  2
    eigenvalues: 
  0.050  0.053  0.053  0.146  0.157
    eigenvectors:
  0.000  0.000  0.000  0.830  0.170
  1.000  0.000  0.000  0.000  0.000
  0.000  0.930  0.070  0.000  0.000
  0.000  0.000  0.000  0.170  0.830
  0.000  0.070  0.930  0.000  0.000
    occupations:
  0.148  0.001  0.002  0.004  0.000
  0.001  0.050  0.000 -0.000  0.000
  0.002  0.000  0.053  0.001 -0.000
  0.004 -0.000  0.001  0.155  0.001
  0.000  0.000 -0.000  0.001  0.053
atomic mag. moment =     4.533580
atom    9   Tr[ns(na)] (up, down, total) =   4.99113  0.46367  5.45479
   spin  1
    eigenvalues: 
  0.997  0.997  0.999  0.999  0.999
    eigenvectors:
  0.981  0.012  0.003  0.002  0.002
  0.003  0.001  0.112  0.000  0.884
  0.003  0.000  0.251  0.707  0.039
  0.013  0.987  0.000  0.000  0.000
  0.000  0.000  0.634  0.291  0.075
    occupations:
  0.997  0.000  0.000  0.000  0.000
  0.000  0.999 -0.000  0.000 -0.000
  0.000 -0.000  0.999  0.000 -0.000
  0.000  0.000  0.000  0.997  0.000
  0.000 -0.000 -0.000  0.000  0.999
   spin  2
    eigenvalues: 
  0.051  0.052  0.054  0.148  0.158
    eigenvectors:
  0.000  0.000  0.000  0.137  0.862
  0.003  0.000  0.997  0.000  0.000
  0.001  0.999  0.000  0.000  0.000
  0.000  0.000  0.000  0.863  0.137
  0.997  0.000  0.003  0.000  0.000
    occupations:
  0.157 -0.001 -0.002 -0.004 -0.000
 -0.001  0.054 -0.000  0.000 -0.000
 -0.002 -0.000  0.052 -0.000  0.000
 -0.004  0.000 -0.000  0.149 -0.001
 -0.000 -0.000  0.000 -0.001  0.051
atomic mag. moment =     4.527463
atom   11   Tr[ns(na)] (up, down, total) =   4.99037  0.46823  5.45859
   spin  1
    eigenvalues: 
  0.997  0.997  0.999  0.999  0.999
    eigenvectors:
  0.240  0.756  0.000  0.002  0.002
  0.000  0.001  0.644  0.195  0.161
  0.001  0.002  0.128  0.032  0.837
  0.758  0.241  0.001  0.000  0.000
  0.001  0.000  0.228  0.770  0.000
    occupations:
  0.997 -0.000 -0.000 -0.000 -0.000
 -0.000  0.999 -0.000  0.000  0.000
 -0.000 -0.000  0.999 -0.000  0.000
 -0.000  0.000 -0.000  0.997 -0.000
 -0.000  0.000  0.000 -0.000  0.999
   spin  2
    eigenvalues: 
  0.052  0.054  0.054  0.151  0.158
    eigenvectors:
  0.000  0.000  0.000  0.843  0.156
  0.973  0.020  0.008  0.000  0.000
  0.027  0.663  0.309  0.000  0.000
  0.000  0.000  0.000  0.156  0.843
  0.000  0.317  0.682  0.000  0.000
    occupations:
  0.152  0.000  0.002  0.003  0.001
  0.000  0.052 -0.000  0.001 -0.000
  0.002 -0.000  0.054  0.001  0.000
  0.003  0.001  0.001  0.157 -0.001
  0.001 -0.000  0.000 -0.001  0.054
atomic mag. moment =     4.522140
atom   13   Tr[ns(na)] (up, down, total) =   4.98921  0.47476  5.46397
   spin  1
    eigenvalues: 
  0.996  0.997  0.999  0.999  0.999
    eigenvectors:
  0.217  0.782  0.000  0.001  0.000
  0.000  0.000  0.994  0.000  0.006
  0.002  0.000  0.004  0.209  0.784
  0.781  0.218  0.000  0.000  0.001
  0.000  0.000  0.001  0.790  0.209
    occupations:
  0.996 -0.000  0.000 -0.000 -0.000
 -0.000  0.999  0.000 -0.000  0.000
  0.000  0.000  0.999  0.000  0.000
 -0.000 -0.000  0.000  0.996 -0.000
 -0.000  0.000  0.000 -0.000  0.999
   spin  2
    eigenvalues: 
  0.052  0.055  0.055  0.152  0.161
    eigenvectors:
  0.000  0.000  0.000  0.843  0.157
  0.991  0.002  0.007  0.000  0.000
  0.006  0.804  0.189  0.000  0.000
  0.000  0.000  0.000  0.157  0.842
  0.003  0.193  0.804  0.000  0.000
    occupations:
  0.153  0.000 -0.002  0.004  0.001
  0.000  0.052 -0.000 -0.001  0.000
 -0.002 -0.000  0.055 -0.002 -0.000
  0.004 -0.001 -0.002  0.160 -0.001
  0.001  0.000 -0.000 -0.001  0.055
atomic mag. moment =     4.514445
atom   15   Tr[ns(na)] (up, down, total) =   4.99277  0.45018  5.44296
   spin  1
    eigenvalues: 
  0.997  0.998  0.999  0.999  0.999
    eigenvectors:
  0.189  0.811  0.000  0.000  0.000
  0.000  0.000  0.939  0.008  0.052
  0.000  0.000  0.004  0.976  0.020
  0.810  0.189  0.000  0.000  0.000
  0.000  0.000  0.057  0.015  0.928
    occupations:
  0.998  0.000  0.000 -0.000  0.000
  0.000  0.999 -0.000  0.000 -0.000
  0.000 -0.000  0.999 -0.000 -0.000
 -0.000  0.000 -0.000  0.998  0.000
  0.000 -0.000 -0.000  0.000  0.999
   spin  2
    eigenvalues: 
  0.049  0.051  0.052  0.143  0.154
    eigenvectors:
  0.000  0.000  0.000  0.887  0.112
  0.998  0.002  0.000  0.000  0.000
  0.002  0.987  0.011  0.000  0.000
  0.000  0.000  0.000  0.112  0.887
  0.001  0.011  0.988  0.000  0.000
    occupations:
  0.145 -0.000 -0.002  0.003 -0.000
 -0.000  0.049  0.000  0.000 -0.000
 -0.002  0.000  0.051 -0.001  0.000
  0.003  0.000 -0.001  0.153  0.001
 -0.000 -0.000  0.000  0.001  0.052
atomic mag. moment =     4.542594
N of occupied +U levels =   43.625760
 --- exit write_ns ---

 ------ SPIN UP ------------


          k = 0.0000 0.0000 0.0000 (  5329 PWs)   bands (ev):

   -69.0878 -69.0767 -69.0310 -69.0061 -68.9656 -68.9164 -68.8707 -68.8559
   -37.9778 -37.9625 -37.9574 -37.9478 -37.9445 -37.9278 -37.9111 -37.8975
   -37.8928 -37.8788 -37.8766 -37.8587 -37.8489 -37.8313 -37.8261 -37.7937
   -37.7889 -37.7736 -37.7562 -37.7379 -37.7343 -37.7278 -37.7256 -37.7050
    -7.0504  -6.5383  -6.4642  -6.3969  -6.0016  -5.9994  -5.9066  -5.8612
     3.9413   3.9557   3.9580   3.9637   5.7306   5.7471   5.7580   5.7743
     5.7807   5.7949   5.7976   5.8084   5.9960   6.0082   6.0132   6.6892
     6.7039   6.7155   7.7153   7.7395   7.7539   8.1274   8.1906   8.2106
     8.2397   8.2496   8.2923   8.3935   8.4315   8.7204   8.7249   8.7420
     8.7465   8.7561   8.7595   8.7653   8.7741   8.8328   8.8387   8.8588
     8.9959   9.0130   9.0285   9.0373   9.0471   9.0573   9.1772   9.2084
     9.2309   9.4202   9.4237   9.4399   9.6985   9.7078   9.7126   9.7219
    11.9397  12.3022  12.3043  12.3145  12.3164  12.3277  12.3339  12.3370
    12.3477  15.8914  15.9028  15.9151  15.9296  17.2761  17.2916  17.2937
    20.0859  20.1620  20.1932  20.2236  20.3712  20.4050  20.4234  22.6343
    22.6511  22.6754  24.0789  24.1055  24.1224

          k =-0.1768 0.1768 0.1768 (  5402 PWs)   bands (ev):

   -69.0870 -69.0758 -69.0302 -69.0052 -68.9649 -68.9156 -68.8700 -68.8551
   -37.9768 -37.9614 -37.9567 -37.9473 -37.9430 -37.9274 -37.9122 -37.8991
   -37.8923 -37.8804 -37.8764 -37.8602 -37.8486 -37.8325 -37.8261 -37.7940
   -37.7882 -37.7739 -37.7574 -37.7392 -37.7358 -37.7287 -37.7276 -37.7058
    -6.9289  -6.5285  -6.4293  -6.3485  -6.1191  -6.0539  -5.9520  -5.9101
     4.2668   4.2748   4.2820   4.4431   5.6934   5.7225   5.7714   5.7877
     5.8119   5.8462   5.9766   5.9837   5.9966   6.0117   6.0501   6.4374
     6.4568   6.4684   7.1786   7.3494   7.3832   7.4048   7.4906   7.5130
     7.9648   8.0138   8.0190   8.0770   8.0896   8.5735   8.5846   8.5983
     8.6225   8.6280   8.7572   8.7794   8.7894   8.9156   8.9726   8.9814
     9.0061   9.2061   9.2217   9.2409   9.4810   9.6055   9.6169   9.6282
     9.6807   9.7017   9.7282   9.8351   9.8537   9.8653  10.1836  10.1926
    11.7193  11.7277  11.7401  11.9471  11.9534  11.9744  12.0329  12.0358
    13.0475  15.6952  16.7516  16.7622  16.7852  17.6644  17.6808  17.6912
    20.0214  20.0860  20.1093  20.3937  20.4237  20.4793  20.7081  22.0126
    22.0305  22.0654  23.0865  23.1162  23.1365

          k = 0.3536-0.3536-0.3536 (  5444 PWs)   bands (ev):

   -69.0862 -69.0750 -69.0294 -69.0044 -68.9641 -68.9148 -68.8692 -68.8543
   -37.9758 -37.9602 -37.9560 -37.9467 -37.9411 -37.9268 -37.9142 -37.9012
   -37.8898 -37.8834 -37.8761 -37.8615 -37.8484 -37.8338 -37.8257 -37.7948
   -37.7870 -37.7740 -37.7586 -37.7408 -37.7373 -37.7307 -37.7284 -37.7065
    -6.6820  -6.6183  -6.3838  -6.2908  -6.2506  -6.1420  -6.0013  -5.9518
     4.9276   5.0000   5.0550   5.0983   5.1531   5.2413   5.6036   5.6431
     5.8645   5.9268   5.9600   6.0516   6.1369   6.1584   6.4095   6.4193
     6.4332   6.4925   6.5298   6.5965   6.6554   6.7099   6.7243   6.7548
     8.0894   8.1305   8.1633   8.1974   8.2291   8.2941   8.2971   8.3199
     8.3458   8.3835   8.8001   8.8361   8.8564   8.8757   8.9100   8.9419
     9.0292   9.1193   9.4061   9.4187   9.4372   9.4934   9.5077   9.5217
    10.5711  10.6106  10.6285  10.6874  10.7174  10.7572  10.8686  10.9723
    10.9975  11.0287  11.0726  11.1427  11.1698  11.2565  11.3156  11.3582
    14.6289  14.7076  17.7280  17.7884  17.9205  17.9852  18.0822  18.1203
    19.9925  20.0709  20.1466  20.1573  20.3204  20.4058  21.5434  21.6451
    21.6660  21.8768  21.9037  21.9489  22.1935

          k = 0.0000 0.0000 0.3536 (  5425 PWs)   bands (ev):

   -69.0867 -69.0756 -69.0299 -69.0049 -68.9646 -68.9153 -68.8697 -68.8549
   -37.9742 -37.9615 -37.9588 -37.9460 -37.9435 -37.9301 -37.9100 -37.8982
   -37.8913 -37.8806 -37.8777 -37.8600 -37.8494 -37.8313 -37.8267 -37.7954
   -37.7889 -37.7757 -37.7558 -37.7386 -37.7357 -37.7291 -37.7275 -37.7076
    -6.9013  -6.5426  -6.4054  -6.3546  -6.1024  -6.0887  -5.9637  -5.9188
     4.3499   4.3720   4.4012   4.4102   5.5384   5.8098   5.8354   5.8667
     5.8840   5.9184   5.9485   5.9779   5.9845   6.0183   6.0411   6.3386
     6.3557   6.8028   6.8237   6.8547   6.8807   7.5929   7.6143   7.6350
     7.8624   7.8666   8.3984   8.5324   8.5498   8.5945   8.6161   8.6536
     8.6774   8.7035   8.7137   8.7218   8.7967   8.8450   9.0147   9.0301
     9.0868   9.1057   9.1527   9.1632   9.4388   9.4496   9.5492   9.5652
     9.5848   9.5948   9.6373   9.6614   9.6753   9.8825  10.2598  10.2901
    11.2999  11.3140  11.3507  11.3646  12.2567  12.2671  12.2803  12.2977
    13.5317  16.4470  16.5092  16.7765  16.8173  17.2655  18.0887  18.0980
    20.0518  20.1526  20.3292  20.3917  20.4619  20.5251  20.9061  21.6679
    21.7123  22.8643  23.0024  23.0144  23.1664

          k = 0.5303-0.5303-0.1768 (  5413 PWs)   bands (ev):

   -69.0859 -69.0748 -69.0291 -69.0041 -68.9638 -68.9145 -68.8689 -68.8541
   -37.9729 -37.9602 -37.9585 -37.9455 -37.9420 -37.9296 -37.9113 -37.9002
   -37.8887 -37.8839 -37.8775 -37.8613 -37.8492 -37.8327 -37.8261 -37.7961
   -37.7878 -37.7761 -37.7570 -37.7400 -37.7373 -37.7299 -37.7293 -37.7084
    -6.7043  -6.5855  -6.3769  -6.3207  -6.2395  -6.1472  -6.0014  -5.9424
     4.8378   4.8754   4.8999   5.1735   5.3237   5.4831   5.5189   5.7428
     5.9091   5.9408   5.9893   6.0706   6.1089   6.1461   6.1796   6.2779
     6.2929   6.3778   6.4419   6.5699   6.6248   6.8820   7.1627   7.1846
     7.8155   7.8764   8.2449   8.3445   8.3675   8.4804   8.5322   8.5522
     8.6186   8.6467   8.6981   8.7832   8.8023   8.8128   8.8956   8.9033
     9.2444   9.3115   9.3498   9.4230   9.4668   9.5445   9.5554   9.5819
     9.8421   9.8635  10.1582  10.2823  10.3360  10.4078  10.4192  10.5275
    10.5674  10.8497  10.9953  11.0005  11.7520  11.7856  11.8523  12.0070
    14.9399  15.7163  16.9006  17.4300  17.4813  18.4664  18.8426  18.8755
    19.8037  20.1230  20.1354  20.5712  20.6260  20.9530  21.0484  21.2779
    21.6331  21.7295  22.0231  22.0541  22.6158

          k = 0.3536-0.3536 0.0000 (  5416 PWs)   bands (ev):

   -69.0862 -69.0751 -69.0294 -69.0044 -68.9641 -68.9148 -68.8691 -68.8543
   -37.9731 -37.9607 -37.9581 -37.9454 -37.9412 -37.9301 -37.9147 -37.8990
   -37.8919 -37.8804 -37.8773 -37.8595 -37.8505 -37.8326 -37.8266 -37.7949
   -37.7887 -37.7737 -37.7571 -37.7387 -37.7366 -37.7306 -37.7285 -37.7091
    -6.7728  -6.5214  -6.4362  -6.2896  -6.1989  -6.1686  -5.9958  -5.9276
     4.6798   4.6986   4.8765   4.9181   5.4167   5.4363   5.6041   5.8490
     5.8617   5.9490   6.0186   6.0717   6.1040   6.1311   6.3486   6.3844
     6.4094   6.4429   6.4797   6.7112   6.7432   6.7503   6.8716   7.0735
     7.9655   8.1754   8.2096   8.2763   8.3059   8.3462   8.4226   8.5981
     8.6070   8.6816   8.7193   8.7446   8.7518   8.8790   8.8907   8.9018
     9.3445   9.3664   9.3995   9.4350   9.5015   9.5281   9.5337   9.5657
     9.5953   9.6507   9.7442   9.8808  10.7088  10.7200  10.7926  10.8171
    10.9469  11.1824  11.2184  11.2625  11.5629  11.6235  11.7261  11.7410
    14.2483  16.1487  16.2194  17.7291  17.7764  18.0797  18.1176  18.6619
    19.7970  19.8136  20.3506  20.4493  20.7204  20.8281  21.0221  21.1710
    21.7564  21.8102  21.9172  21.9851  23.4851

          k = 0.0000 0.0000-0.7071 (  5434 PWs)   bands (ev):

   -69.0856 -69.0746 -69.0288 -69.0039 -68.9636 -68.9143 -68.8686 -68.8538
   -37.9682 -37.9629 -37.9602 -37.9433 -37.9430 -37.9328 -37.9087 -37.8993
   -37.8875 -37.8847 -37.8788 -37.8611 -37.8502 -37.8316 -37.8264 -37.7976
   -37.7886 -37.7779 -37.7554 -37.7388 -37.7372 -37.7304 -37.7297 -37.7102
    -6.6696  -6.6368  -6.3583  -6.3379  -6.1980  -6.1692  -5.9916  -5.9541
     4.8670   4.8804   4.8881   4.8965   5.4864   5.5796   5.8521   5.8927
     5.9049   5.9557   5.9743   5.9886   6.0391   6.0615   6.0810   6.1130
     6.1421   6.1856   6.2992   6.3493   7.1830   7.2582   7.5382   7.5498
     7.5795   7.5842   8.4191   8.4243   8.4410   8.4658   8.5484   8.5973
     8.7776   8.7906   8.7932   8.8180   9.0220   9.0395   9.0945   9.1068
     9.1140   9.1213   9.2232   9.2269   9.6803   9.7082   9.7346   9.7618
     9.7992   9.8095   9.8495   9.8761   9.8868   9.9318   9.9485   9.9799
    10.0176  10.1031  10.8462  10.8637  12.2127  12.2239  12.2375  12.2561
    15.9052  15.9535  17.0046  17.0696  17.4876  17.5718  19.3286  19.3376
    20.5741  20.6464  20.6690  20.7207  20.9523  21.0536  21.1319  21.1687
    21.3660  21.4761  21.5855  21.7274  23.2010

          k = 0.0000 0.3536-0.7071 (  5400 PWs)   bands (ev):

   -69.0857 -69.0745 -69.0288 -69.0038 -68.9636 -68.9142 -68.8686 -68.8538
   -37.9726 -37.9595 -37.9586 -37.9440 -37.9417 -37.9297 -37.9125 -37.9007
   -37.8910 -37.8814 -37.8791 -37.8606 -37.8496 -37.8318 -37.8270 -37.7961
   -37.7879 -37.7753 -37.7577 -37.7400 -37.7384 -37.7312 -37.7296 -37.7084
    -6.6537  -6.5522  -6.4310  -6.3239  -6.2553  -6.1484  -6.0345  -5.9258
     5.0581   5.1373   5.1938   5.2781   5.2847   5.3104   5.3702   5.4271
     5.9183   5.9284   6.0212   6.0424   6.1155   6.1511   6.2043   6.2460
     6.4222   6.4870   6.6028   6.6383   6.6483   6.6975   6.7351   6.7764
     8.0321   8.0613   8.0947   8.1244   8.6177   8.6301   8.6537   8.6833
     8.6893   8.7083   8.7178   8.7236   8.7470   8.7709   8.7971   8.8097
     9.5066   9.5147   9.5609   9.5850   9.6114   9.6315   9.6755   9.6952
     9.7315   9.7609   9.8032   9.8330   9.8714   9.9083   9.9394   9.9855
    11.3051  11.3371  11.3772  11.4091  11.5207  11.5398  11.5784  11.6331
    15.9999  16.1728  16.2500  16.4229  18.7513  18.9335  19.0692  19.2491
    19.9537  19.9932  20.1142  20.2103  20.5673  20.7163  20.7939  21.0646
    22.1838  22.2705  22.3289  22.3892  22.7131

          k = 0.1768-0.1768 0.1768 (  5402 PWs)   bands (ev):

   -69.0870 -69.0759 -69.0302 -69.0052 -68.9649 -68.9156 -68.8699 -68.8551
   -37.9744 -37.9618 -37.9585 -37.9460 -37.9430 -37.9306 -37.9130 -37.8971
   -37.8928 -37.8788 -37.8775 -37.8581 -37.8507 -37.8315 -37.8268 -37.7943
   -37.7897 -37.7735 -37.7558 -37.7375 -37.7352 -37.7293 -37.7267 -37.7084
    -6.9310  -6.5134  -6.4403  -6.3485  -6.1179  -6.0574  -5.9677  -5.8939
     4.2496   4.2710   4.2924   4.4479   5.6986   5.7196   5.7587   5.8191
     5.8342   5.8439   5.9386   5.9869   5.9963   6.0272   6.0365   6.4243
     6.4448   6.4819   7.1666   7.3708   7.3878   7.4210   7.4930   7.5315
     7.9535   7.9973   8.0269   8.0538   8.1005   8.5689   8.5812   8.5927
     8.6169   8.6291   8.7713   8.7753   8.7912   8.8917   8.9610   8.9682
     9.0219   9.2080   9.2191   9.2438   9.4790   9.6128   9.6235   9.6310
     9.6831   9.6971   9.7315   9.8400   9.8525   9.8728  10.1876  10.1942
    11.7125  11.7334  11.7580  11.9451  11.9581  11.9686  12.0248  12.0321
    13.0457  15.6840  16.7466  16.7591  16.7897  17.6353  17.6856  17.7265
    20.0139  20.0395  20.1632  20.3461  20.4199  20.5088  20.7291  21.9908
    22.0169  22.0990  23.0578  23.1184  23.1694

          k = 0.1768 0.1768-0.1768 (  5402 PWs)   bands (ev):

   -69.0870 -69.0759 -69.0302 -69.0052 -68.9649 -68.9156 -68.8699 -68.8551
   -37.9744 -37.9614 -37.9589 -37.9466 -37.9436 -37.9303 -37.9107 -37.8986
   -37.8925 -37.8787 -37.8770 -37.8588 -37.8496 -37.8313 -37.8280 -37.7942
   -37.7888 -37.7745 -37.7561 -37.7380 -37.7358 -37.7285 -37.7269 -37.7076
    -6.9318  -6.5142  -6.4337  -6.3516  -6.1235  -6.0591  -5.9630  -5.8934
     4.2523   4.2698   4.2899   4.4486   5.6934   5.7224   5.7591   5.8361
     5.8449   5.8592   5.9405   5.9743   5.9879   6.0094   6.0357   6.4154
     6.4374   6.4878   7.1704   7.3667   7.4049   7.4190   7.4884   7.5307
     7.9523   8.0095   8.0174   8.0542   8.0971   8.5564   8.5836   8.5973
     8.6177   8.6293   8.7589   8.7818   8.7909   8.9312   8.9610   8.9707
     9.0086   9.2099   9.2208   9.2387   9.4744   9.6064   9.6158   9.6200
     9.6871   9.7037   9.7202   9.8459   9.8548   9.8713  10.1851  10.1933
    11.7085  11.7373  11.7545  11.9469  11.9558  11.9694  12.0294  12.0388
    13.0466  15.6914  16.7376  16.7688  16.7870  17.6365  17.6869  17.7178
    20.0312  20.0694  20.1117  20.3381  20.4568  20.5115  20.7114  21.9880
    22.0240  22.0976  23.0807  23.1063  23.1467

          k =-0.1768-0.1768-0.1768 (  5402 PWs)   bands (ev):

   -69.0870 -69.0758 -69.0302 -69.0052 -68.9649 -68.9156 -68.8700 -68.8551
   -37.9775 -37.9617 -37.9572 -37.9463 -37.9438 -37.9276 -37.9101 -37.8968
   -37.8914 -37.8812 -37.8788 -37.8613 -37.8479 -37.8303 -37.8252 -37.7954
   -37.7902 -37.7753 -37.7577 -37.7389 -37.7352 -37.7296 -37.7261 -37.7054
    -6.9288  -6.5306  -6.4271  -6.3488  -6.1199  -6.0537  -5.9456  -5.9156
     4.2589   4.2767   4.2805   4.4503   5.6873   5.7268   5.7611   5.7902
     5.8106   5.8353   5.9706   5.9893   6.0049   6.0265   6.0469   6.4410
     6.4493   6.4711   7.1851   7.3621   7.3882   7.4060   7.4741   7.5134
     7.9795   7.9865   8.0273   8.0616   8.0968   8.5779   8.5881   8.6069
     8.6211   8.6306   8.7590   8.7732   8.7837   8.9033   8.9730   8.9825
     9.0296   9.2036   9.2160   9.2314   9.4782   9.6035   9.6190   9.6269
     9.6946   9.7071   9.7336   9.8326   9.8487   9.8570  10.1852  10.1908
    11.7192  11.7300  11.7471  11.9465  11.9542  11.9703  12.0325  12.0378
    13.0458  15.6878  16.7519  16.7580  16.7984  17.6517  17.6754  17.6921
    20.0104  20.0784  20.1085  20.3784  20.4463  20.4963  20.7088  22.0087
    22.0413  22.0719  23.0914  23.1148  23.1379

          k =-0.3536 0.3536-0.3536 (  5444 PWs)   bands (ev):

   -69.0861 -69.0751 -69.0294 -69.0044 -68.9641 -68.9148 -68.8691 -68.8543
   -37.9695 -37.9612 -37.9609 -37.9430 -37.9416 -37.9341 -37.9155 -37.8967
   -37.8927 -37.8793 -37.8777 -37.8575 -37.8527 -37.8315 -37.8274 -37.7952
   -37.7904 -37.7731 -37.7554 -37.7368 -37.7362 -37.7310 -37.7275 -37.7121
    -6.7259  -6.4944  -6.4766  -6.2972  -6.2162  -6.1581  -6.0242  -5.9278
     4.8673   4.9577   5.0375   5.1337   5.1965   5.2975   5.5687   5.7526
     5.8208   5.9327   5.9351   6.0716   6.1051   6.1454   6.2977   6.4042
     6.4542   6.5155   6.5792   6.5945   6.6591   6.6909   6.7365   6.8248
     8.0914   8.1031   8.1859   8.2078   8.2292   8.2537   8.2817   8.3176
     8.3580   8.3735   8.8135   8.8513   8.8597   8.8724   8.8894   8.9157
     9.0392   9.0958   9.4069   9.4447   9.4585   9.4906   9.4950   9.5188
    10.5728  10.6269  10.6410  10.6656  10.7221  10.7427  10.9086  10.9545
    11.0027  11.0567  11.1104  11.1295  11.1935  11.2339  11.2969  11.3247
    14.6044  14.7203  17.7031  17.7656  17.8868  17.9722  18.1291  18.1721
    19.8688  20.0749  20.1936  20.2485  20.2880  20.4070  21.5302  21.5985
    21.6598  21.8699  21.9452  22.0177  22.2147

          k =-0.3536-0.3536 0.3536 (  5444 PWs)   bands (ev):

   -69.0861 -69.0751 -69.0294 -69.0044 -68.9641 -68.9148 -68.8691 -68.8543
   -37.9687 -37.9632 -37.9596 -37.9453 -37.9422 -37.9336 -37.9104 -37.8998
   -37.8921 -37.8789 -37.8771 -37.8589 -37.8503 -37.8313 -37.8299 -37.7947
   -37.7887 -37.7753 -37.7560 -37.7381 -37.7371 -37.7292 -37.7283 -37.7101
    -6.7330  -6.4994  -6.4343  -6.3391  -6.1968  -6.1757  -6.0154  -5.9267
     4.8658   4.9477   5.0125   5.1505   5.2219   5.3048   5.5654   5.7708
     5.8527   5.9454   5.9639   6.0294   6.0701   6.1288   6.3011   6.3799
     6.4157   6.4918   6.5771   6.6216   6.6583   6.6989   6.7656   6.8385
     8.0941   8.1197   8.1612   8.2002   8.2316   8.2630   8.2801   8.3307
     8.3521   8.3735   8.8004   8.8423   8.8579   8.8955   8.8974   8.9382
     9.0209   9.1185   9.3845   9.4255   9.4500   9.4813   9.5003   9.5342
    10.5606  10.5788  10.6145  10.6884  10.7459  10.7723  10.9280  10.9719
    11.0020  11.0088  11.0590  11.0930  11.2182  11.2749  11.3028  11.3608
    14.6021  14.7308  17.6778  17.8071  17.9014  17.9405  18.1358  18.1717
    19.9534  19.9655  20.1392  20.1819  20.3623  20.4840  21.5707  21.6514
    21.6900  21.8644  21.9013  21.9420  22.2325

          k = 0.3536 0.3536 0.3536 (  5444 PWs)   bands (ev):

   -69.0862 -69.0750 -69.0293 -69.0044 -68.9641 -68.9148 -68.8692 -68.8543
   -37.9772 -37.9610 -37.9570 -37.9450 -37.9427 -37.9273 -37.9091 -37.8962
   -37.8878 -37.8860 -37.8811 -37.8641 -37.8469 -37.8293 -37.8238 -37.7973
   -37.7917 -37.7769 -37.7592 -37.7399 -37.7360 -37.7313 -37.7266 -37.7057
    -6.6687  -6.6375  -6.3686  -6.3019  -6.2508  -6.1414  -5.9898  -5.9616
     4.9411   4.9892   5.0537   5.0823   5.1687   5.2190   5.6168   5.6379
     5.8758   5.9174   5.9405   6.0428   6.1419   6.1792   6.3720   6.4464
     6.4659   6.5177   6.5234   6.5810   6.6706   6.6977   6.7046   6.7677
     8.0784   8.1306   8.1373   8.1968   8.2171   8.2852   8.3211   8.3443
     8.3606   8.3779   8.7906   8.8188   8.8375   8.8952   8.9237   8.9484
     9.0257   9.1323   9.4055   9.4149   9.4195   9.4938   9.5173   9.5236
    10.5544  10.6041  10.6410  10.6800  10.7452  10.7801  10.8502  10.9524
    10.9770  11.0453  11.0953  11.1470  11.1482  11.2303  11.3302  11.3829
    14.6204  14.7127  17.7537  17.7930  17.9224  17.9964  18.0296  18.0842
    19.9873  20.0590  20.0595  20.2381  20.3567  20.4050  21.5728  21.7003
    21.7368  21.8415  21.8648  21.9551  22.1537

          k = 0.3536 0.0000 0.0000 (  5425 PWs)   bands (ev):

   -69.0867 -69.0756 -69.0299 -69.0049 -68.9646 -68.9153 -68.8697 -68.8548
   -37.9765 -37.9606 -37.9568 -37.9462 -37.9426 -37.9274 -37.9134 -37.8996
   -37.8928 -37.8794 -37.8783 -37.8592 -37.8491 -37.8314 -37.8269 -37.7943
   -37.7880 -37.7732 -37.7581 -37.7393 -37.7369 -37.7301 -37.7277 -37.7058
    -6.9024  -6.5053  -6.4772  -6.3156  -6.0981  -6.0868  -5.9839  -5.9083
     4.3513   4.3836   4.3901   4.4163   5.5403   5.7800   5.8534   5.8867
     5.8910   5.9052   5.9340   5.9647   5.9949   6.0158   6.0319   6.3516
     6.3720   6.8143   6.8381   6.8465   6.8562   7.5581   7.5905   7.6355
     7.8534   7.9079   8.4142   8.5384   8.5733   8.6029   8.6097   8.6444
     8.6736   8.7089   8.7177   8.7384   8.7670   8.8155   9.0137   9.0270
[...]
   -32.9001 -32.8838 -32.8813 -32.8716 -32.8648 -32.8510 -32.8400 -32.8235
   -32.8139 -32.8095 -32.8010 -32.7854 -32.7782 -32.7618 -32.7530 -32.7285
   -32.7216 -32.7038 -32.6929 -32.6742 -32.6674 -32.6636 -32.6611 -32.6400
    -6.2349  -6.0528  -5.7932  -5.7196  -5.6469  -5.5588  -5.3796  -5.3324
     6.5353   6.5793   6.6126   6.7953   6.9033   6.9666   7.0201   7.4606
     7.6557   7.6829   7.8277   8.1606   8.2130   8.3293   8.3836   8.4590
     8.5110   8.5414   8.6691   8.7258   8.7810   8.9781   9.1116   9.2176
    14.0691  14.5282  14.7013  14.7185  14.8990  14.9491  15.0685  15.1349
    15.2861  15.4190  15.4833  15.5742  15.6139  15.6547  15.6976  15.7456
    15.7587  15.7764  15.7989  15.8237  15.8504  15.8819  15.9643  15.9930
    16.0042  16.0271  16.0541  16.0894  16.1026  16.1498  16.1808  16.1847
    16.3297  16.3342  16.5132  16.5262  16.7790  16.7874  16.8410  16.9545
    17.0154  17.2305  18.6935  18.9949  19.0286  20.0721  20.6303  20.6749
    21.5488  21.7594  21.8396  22.3650  22.4351  22.7084  22.7434  22.9374
    23.3857  23.4768  23.8162  23.8565  24.5599

          k = 0.5303-0.1768 0.5303 (  5413 PWs)   bands (ev):

   -63.8907 -63.8829 -63.8368 -63.8122 -63.7748 -63.7287 -63.6840 -63.6711
   -32.8942 -32.8868 -32.8840 -32.8690 -32.8634 -32.8582 -32.8408 -32.8200
   -32.8170 -32.8045 -32.8026 -32.7829 -32.7813 -32.7600 -32.7543 -32.7282
   -32.7245 -32.7031 -32.6907 -32.6727 -32.6670 -32.6642 -32.6575 -32.6449
    -6.2589  -5.9482  -5.9101  -5.6965  -5.6060  -5.5893  -5.3895  -5.3194
     6.5008   6.5658   6.6168   6.8260   6.8929   6.9879   7.0254   7.5446
     7.5875   7.7094   7.8255   8.1339   8.1813   8.2871   8.3277   8.4768
     8.5169   8.5711   8.7151   8.7550   8.8106   8.9025   9.1416   9.2250
    14.0636  14.5259  14.6916  14.7007  14.9129  14.9542  15.0482  15.1499
    15.2829  15.4057  15.4973  15.5571  15.6229  15.6591  15.7226  15.7271
    15.7554  15.7835  15.7934  15.8220  15.8611  15.8792  15.9566  15.9905
    16.0212  16.0425  16.0648  16.0933  16.1102  16.1236  16.1739  16.1869
    16.3303  16.3365  16.5068  16.5240  16.7787  16.8082  16.8303  16.9479
    17.0123  17.2381  18.7018  18.9718  19.0209  20.0858  20.6303  20.6926
    21.5767  21.7124  21.8524  22.3492  22.4285  22.7062  22.7500  22.9113
    23.3881  23.5107  23.7994  23.8659  24.5687

          k = 0.5303 0.1768-0.5303 (  5413 PWs)   bands (ev):

   -63.8907 -63.8829 -63.8368 -63.8122 -63.7748 -63.7287 -63.6840 -63.6711
   -32.8938 -32.8886 -32.8831 -32.8716 -32.8629 -32.8574 -32.8366 -32.8218
   -32.8172 -32.8050 -32.8017 -32.7833 -32.7799 -32.7605 -32.7559 -32.7282
   -32.7226 -32.7052 -32.6912 -32.6728 -32.6675 -32.6632 -32.6585 -32.6433
    -6.2637  -5.9499  -5.8786  -5.7284  -5.6337  -5.5580  -5.3832  -5.3226
     6.4998   6.5623   6.6046   6.8313   6.9036   6.9954   7.0356   7.5462
     7.6135   7.6985   7.7968   8.1304   8.1658   8.2980   8.3420   8.4449
     8.5485   8.5837   8.7121   8.7396   8.7693   8.9200   9.1434   9.2377
    14.0673  14.5306  14.6756  14.6974  14.9262  14.9621  15.0446  15.1590
    15.2944  15.3990  15.4969  15.5783  15.6327  15.6546  15.6947  15.7227
    15.7415  15.7759  15.8120  15.8317  15.8505  15.8849  15.9602  15.9886
    16.0144  16.0396  16.0489  16.0812  16.0955  16.1535  16.1735  16.1957
    16.3286  16.3357  16.5069  16.5285  16.7795  16.7922  16.8419  16.9535
    17.0160  17.2296  18.6923  18.9837  19.0322  20.0689  20.6448  20.6860
    21.5652  21.7225  21.8149  22.3740  22.4700  22.7054  22.7386  22.9122
    23.4175  23.4649  23.8104  23.8625  24.5689

          k =-0.3536-0.3536 0.0000 (  5416 PWs)   bands (ev):

   -63.8906 -63.8826 -63.8366 -63.8120 -63.7745 -63.7285 -63.6838 -63.6708
   -32.9022 -32.8849 -32.8833 -32.8704 -32.8674 -32.8518 -32.8348 -32.8228
   -32.8164 -32.8059 -32.8049 -32.7855 -32.7777 -32.7579 -32.7551 -32.7292
   -32.7218 -32.7066 -32.6927 -32.6742 -32.6676 -32.6640 -32.6587 -32.6383
    -6.3358  -5.9512  -5.8432  -5.6995  -5.6360  -5.5151  -5.4063  -5.3198
     6.3926   6.4285   6.6019   6.6442   6.7528   6.7987   7.0713   7.4442
     7.7978   7.9478   8.0770   8.2585   8.3005   8.3909   8.4392   8.4795
     8.5021   8.5724   8.6642   8.6748   8.7676   8.8725   9.2326   9.2721
    14.1617  14.1793  14.4271  14.8082  14.8513  14.8785  14.9402  15.0999
    15.3839  15.3924  15.4440  15.5647  15.5714  15.7140  15.7282  15.8360
    15.8742  15.8947  15.9103  15.9473  16.0185  16.0422  16.0791  16.0959
    16.1238  16.1635  16.1839  16.2038  16.2268  16.2418  16.2600  16.2794
    16.2897  16.3114  16.3216  16.3669  16.3847  16.4318  16.5146  16.8606
    16.8669  17.8208  17.9603  19.4262  19.4631  19.6758  19.7038  20.6729
    21.5406  21.5655  21.6971  22.2810  22.3748  22.4693  22.8086  22.9726
    23.5837  23.6185  23.7330  23.7910  25.1741

          k = 0.0000 0.3536 0.3536 (  5416 PWs)   bands (ev):

   -63.8907 -63.8825 -63.8366 -63.8120 -63.7745 -63.7284 -63.6839 -63.6708
   -32.9054 -32.8844 -32.8797 -32.8708 -32.8679 -32.8478 -32.8374 -32.8237
   -32.8132 -32.8110 -32.8036 -32.7879 -32.7762 -32.7598 -32.7516 -32.7291
   -32.7216 -32.7054 -32.6943 -32.6753 -32.6675 -32.6639 -32.6609 -32.6358
    -6.3232  -5.9978  -5.8430  -5.6539  -5.6225  -5.5093  -5.4433  -5.3139
     6.4287   6.4506   6.5597   6.6519   6.7124   6.8237   7.0536   7.3940
     7.8016   7.9488   8.1779   8.2930   8.3018   8.3576   8.4198   8.4601
     8.4768   8.5606   8.6654   8.7398   8.7859   8.8597   9.1930   9.2656
    14.1564  14.1750  14.4504  14.8187  14.8457  14.8760  14.9189  15.1012
    15.3823  15.3971  15.4454  15.5599  15.5796  15.7111  15.7236  15.8510
    15.8746  15.8934  15.9009  15.9579  16.0140  16.0250  16.0839  16.1098
    16.1381  16.1600  16.1826  16.1925  16.2173  16.2291  16.2572  16.2859
    16.2889  16.3163  16.3338  16.3480  16.3912  16.4592  16.4975  16.8524
    16.8804  17.7350  18.0567  19.3967  19.4606  19.6495  19.7343  20.6849
    21.5285  21.5593  21.7198  22.3289  22.3938  22.4399  22.7047  23.0177
    23.5844  23.6101  23.7396  23.8209  25.1932

          k = 0.0000 0.3536-0.3536 (  5416 PWs)   bands (ev):

   -63.8905 -63.8827 -63.8366 -63.8119 -63.7746 -63.7284 -63.6838 -63.6709
   -32.8941 -32.8888 -32.8840 -32.8709 -32.8650 -32.8579 -32.8395 -32.8224
   -32.8181 -32.8028 -32.8022 -32.7828 -32.7802 -32.7600 -32.7571 -32.7278
   -32.7214 -32.7033 -32.6898 -32.6727 -32.6679 -32.6634 -32.6590 -32.6430
    -6.3445  -5.8875  -5.8336  -5.8033  -5.5865  -5.5395  -5.3909  -5.3210
     6.3456   6.4620   6.5852   6.6654   6.7197   6.8374   7.0805   7.4757
     7.8667   7.9169   7.9832   8.2051   8.3425   8.3666   8.4264   8.5286
     8.5422   8.5912   8.6310   8.6557   8.7808   8.8449   9.2571   9.2767
    14.1255  14.2044  14.4290  14.8042  14.8349  14.9021  14.9274  15.0961
    15.3865  15.3973  15.4318  15.5535  15.5726  15.7067  15.7487  15.8574
    15.8750  15.8927  15.8949  15.9679  16.0222  16.0297  16.0833  16.1247
    16.1424  16.1652  16.1818  16.1918  16.2167  16.2290  16.2531  16.2752
    16.2912  16.3214  16.3319  16.3563  16.3903  16.4198  16.5050  16.8576
    16.8793  17.7355  18.0545  19.3942  19.5122  19.6405  19.6988  20.6613
    21.5489  21.6182  21.7155  22.2655  22.3282  22.4881  22.7182  23.0213
    23.6006  23.6310  23.6996  23.8378  25.1841

          k =-0.3536 0.0000-0.3536 (  5416 PWs)   bands (ev):

   -63.8906 -63.8826 -63.8366 -63.8120 -63.7745 -63.7285 -63.6838 -63.6708
   -32.9019 -32.8850 -32.8825 -32.8684 -32.8682 -32.8524 -32.8386 -32.8210
   -32.8165 -32.8063 -32.8049 -32.7844 -32.7798 -32.7576 -32.7531 -32.7290
   -32.7237 -32.7049 -32.6922 -32.6739 -32.6672 -32.6648 -32.6583 -32.6393
    -6.3332  -5.9491  -5.8705  -5.6708  -5.6277  -5.5233  -5.4146  -5.3175
     6.4007   6.4329   6.6143   6.6175   6.7521   6.7941   7.0690   7.4354
     7.7909   7.9626   8.0952   8.2397   8.2967   8.3718   8.4457   8.4957
     8.5200   8.5701   8.6577   8.6914   8.7800   8.8640   9.2135   9.2768
    14.1417  14.1926  14.4411  14.8073  14.8421  14.8776  14.9244  15.0997
    15.3917  15.3981  15.4240  15.5507  15.5738  15.7045  15.7361  15.8575
    15.8743  15.8887  15.9059  15.9876  16.0171  16.0517  16.0836  16.1033
    16.1324  16.1582  16.1873  16.2021  16.2219  16.2447  16.2620  16.2802
    16.2938  16.3082  16.3291  16.3476  16.3777  16.4140  16.4957  16.8633
    16.8710  17.8523  17.9299  19.4217  19.4540  19.6853  19.7183  20.6710
    21.5399  21.5594  21.6752  22.3000  22.3791  22.4955  22.8292  22.9190
    23.5761  23.6223  23.7539  23.7781  25.1774

          k =-0.3536 0.0000 0.3536 (  5416 PWs)   bands (ev):

   -63.8906 -63.8826 -63.8366 -63.8119 -63.7745 -63.7284 -63.6838 -63.6708
   -32.9006 -32.8848 -32.8815 -32.8730 -32.8665 -32.8510 -32.8380 -32.8261
   -32.8182 -32.8046 -32.8011 -32.7836 -32.7789 -32.7615 -32.7564 -32.7276
   -32.7183 -32.7043 -32.6920 -32.6744 -32.6691 -32.6629 -32.6609 -32.6388
    -6.3367  -5.9416  -5.8516  -5.7047  -5.6299  -5.5176  -5.4051  -5.3198
     6.3916   6.4320   6.6039   6.6397   6.7545   6.7967   7.0734   7.4520
     7.8136   7.9435   8.0583   8.2470   8.2872   8.3877   8.4661   8.4813
     8.5078   8.5880   8.6512   8.6736   8.7528   8.8738   9.2294   9.2748
    14.1538  14.1851  14.4406  14.8212  14.8548  14.8764  14.9299  15.0907
    15.3914  15.3984  15.4295  15.5544  15.5679  15.7047  15.7310  15.8558
    15.8748  15.8894  15.9010  15.9719  16.0192  16.0386  16.0903  16.1162
    16.1309  16.1568  16.1829  16.2020  16.2242  16.2425  16.2563  16.2773
    16.2897  16.3156  16.3292  16.3464  16.3888  16.4133  16.4939  16.8630
    16.8667  17.8485  17.9402  19.4390  19.4802  19.6624  19.7039  20.6556
    21.5553  21.5681  21.6881  22.2525  22.3691  22.5098  22.8475  22.9208
    23.6061  23.6281  23.7326  23.7725  25.1619

          k =-0.7071 0.0000 0.0000 (  5434 PWs)   bands (ev):

   -63.8910 -63.8830 -63.8371 -63.8124 -63.7750 -63.7288 -63.6843 -63.6713
   -32.9025 -32.8798 -32.8789 -32.8683 -32.8633 -32.8467 -32.8452 -32.8286
   -32.8177 -32.8058 -32.8041 -32.7823 -32.7792 -32.7586 -32.7552 -32.7269
   -32.7169 -32.7002 -32.6965 -32.6758 -32.6717 -32.6659 -32.6634 -32.6363
    -6.1680  -6.0241  -5.8547  -5.7010  -5.6843  -5.5668  -5.4339  -5.2960
     6.5832   6.6610   6.6775   6.7013   7.1606   7.2341   7.3432   7.3974
     7.4982   7.5732   7.7686   7.9658   8.1118   8.1440   8.1764   8.3034
     8.4288   8.5605   8.5812   8.6029   9.0500   9.0802   9.1547   9.2479
    14.0503  14.0660  15.0796  15.1233  15.1260  15.1798  15.2281  15.2466
    15.3666  15.3763  15.4041  15.4209  15.4716  15.4825  15.5764  15.6136
    15.6392  15.6647  15.6765  15.6966  15.7162  15.7346  15.8602  15.8626
    15.8977  15.9095  15.9390  15.9559  15.9729  15.9894  16.0072  16.0277
    16.3952  16.4101  16.4695  16.4941  17.1271  17.1297  17.1423  17.1613
    17.7876  18.0833  18.6499  18.7264  18.7705  18.8692  21.2821  21.3045
    22.0809  22.0980  22.4086  22.4457  22.7257  22.7881  22.8523  22.8963
    23.2266  23.3071  23.3783  23.4614  24.8720

          k = 0.0000-0.7071 0.0000 (  5434 PWs)   bands (ev):

   -63.8909 -63.8831 -63.8370 -63.8124 -63.7750 -63.7289 -63.6842 -63.6714
   -32.8940 -32.8861 -32.8835 -32.8702 -32.8616 -32.8574 -32.8381 -32.8194
   -32.8121 -32.8103 -32.8020 -32.7850 -32.7795 -32.7601 -32.7526 -32.7294
   -32.7255 -32.7050 -32.6921 -32.6727 -32.6666 -32.6637 -32.6573 -32.6452
    -6.1321  -6.0896  -5.7743  -5.7105  -5.6787  -5.6553  -5.3569  -5.3313
     6.6248   6.6399   6.6673   6.6912   7.1665   7.2116   7.4135   7.4545
     7.4701   7.4788   7.8122   7.8778   8.1065   8.1196   8.2487   8.3016
     8.4963   8.5390   8.5565   8.5878   9.1089   9.1182   9.1425   9.1705
    14.0353  14.0790  15.0463  15.0842  15.1717  15.1976  15.2242  15.2505
    15.3874  15.4001  15.4162  15.4527  15.4696  15.5208  15.5611  15.5817
    15.6284  15.6323  15.6679  15.7064  15.7140  15.7284  15.8494  15.8656
    15.8996  15.9119  15.9367  15.9605  15.9704  15.9945  16.0042  16.0087
    16.4014  16.4043  16.4826  16.4930  17.1178  17.1235  17.1464  17.1577
    17.9057  17.9763  18.4664  18.6042  18.9123  19.0402  21.3170  21.3285
    22.2014  22.2383  22.2684  22.2836  22.6951  22.7690  22.9167  22.9556
    23.0463  23.2461  23.3702  23.5682  24.8976

          k = 0.3536-0.0000 0.7071 (  5400 PWs)   bands (ev):

   -63.8909 -63.8831 -63.8370 -63.8124 -63.7750 -63.7289 -63.6842 -63.6714
   -32.8927 -32.8880 -32.8833 -32.8696 -32.8633 -32.8567 -32.8356 -32.8218
   -32.8111 -32.8096 -32.8032 -32.7851 -32.7798 -32.7594 -32.7533 -32.7301
   -32.7227 -32.7072 -32.6905 -32.6735 -32.6672 -32.6638 -32.6590 -32.6433
    -6.1019  -6.0690  -5.8558  -5.8169  -5.6087  -5.5764  -5.3659  -5.3347
     6.7787   6.7985   6.8903   6.9016   6.9895   7.0200   7.0538   7.0694
     7.5874   7.6210   7.6521   7.6840   8.2987   8.3128   8.3229   8.3563
     8.6314   8.6817   8.7614   8.7852   8.8339   8.8718   8.9459   8.9942
    14.4969  14.5320  14.5857  14.6120  15.1832  15.2224  15.3069  15.3311
    15.3523  15.3692  15.3861  15.4226  15.4377  15.4624  15.4820  15.4971
    15.7354  15.7761  15.8344  15.8902  15.8989  15.9096  15.9429  15.9487
    15.9704  15.9800  15.9928  16.0028  16.1144  16.1650  16.2230  16.2308
    16.2505  16.2566  16.2978  16.3300  16.7666  16.7736  16.7953  16.8143
    17.8822  17.9397  18.0067  18.0639  20.5466  20.6050  20.6637  20.7262
    21.8508  21.9173  21.9819  22.0661  22.2630  22.3118  22.4075  22.4617
    24.0706  24.1040  24.1575  24.1880  24.5710

          k = 0.0000-0.7071 0.3536 (  5400 PWs)   bands (ev):

   -63.8910 -63.8831 -63.8371 -63.8124 -63.7750 -63.7289 -63.6843 -63.6713
   -32.8990 -32.8819 -32.8815 -32.8685 -32.8642 -32.8516 -32.8414 -32.8237
   -32.8166 -32.8059 -32.8034 -32.7839 -32.7791 -32.7590 -32.7548 -32.7278
   -32.7216 -32.7028 -32.6940 -32.6742 -32.6687 -32.6648 -32.6616 -32.6398
    -6.1313  -6.0053  -5.9213  -5.7909  -5.6329  -5.5116  -5.4276  -5.3083
     6.7248   6.8480   6.9000   6.9454   6.9805   6.9853   7.0425   7.0810
     7.5389   7.6188   7.6569   7.7316   8.2477   8.3159   8.3532   8.3779
     8.6523   8.6936   8.7284   8.7882   8.8245   8.8627   8.9051   9.0383
    14.5182  14.5421  14.5666  14.6066  15.1633  15.2127  15.2836  15.3253
    15.3511  15.3797  15.4015  15.4167  15.4370  15.4730  15.4964  15.5059
    15.7352  15.7535  15.8591  15.8914  15.9026  15.9160  15.9377  15.9488
    15.9576  15.9722  15.9909  16.0111  16.1105  16.1557  16.2262  16.2364
    16.2452  16.2543  16.2946  16.3567  16.7455  16.7770  16.8038  16.8295
    17.7960  17.9468  18.0172  18.1514  20.4097  20.5738  20.6558  20.8535
    21.7922  21.9214  21.9736  22.0835  22.1863  22.3749  22.4276  22.5707
    24.0057  24.1317  24.1585  24.2101  24.5948

     the Fermi energy is    12.4762 ev

!    total energy              =   -1946.20059756 Ry
     Harris-Foulkes estimate   =   -1946.20059750 Ry
     estimated scf accuracy    <          2.5E-09 Ry

     The total energy is the sum of the following terms:

     one-electron contribution =    -897.22800001 Ry
     hartree contribution      =     533.01304759 Ry
     xc contribution           =    -270.02603198 Ry
     ewald contribution        =   -1312.32637113 Ry
     Hubbard energy            =       0.36700467 Ry
     smearing contrib. (-TS)   =      -0.00024669 Ry

     total magnetization       =    40.00 Bohr mag/cell
     absolute magnetization    =    40.00 Bohr mag/cell

     convergence has been achieved in  13 iterations

     Forces acting on atoms (Ry/au):


     negative rho (up, down):  0.000E+00 2.038E-03
     atom    1 type  1   force =  -0.21206837E-01  0.18894375E-02 -0.33841024E-02
     atom    2 type  2   force =  -0.20024976E-01 -0.64790808E-02  0.10913085E-01
     atom    3 type  1   force =  -0.10143686E-01  0.11008087E-02  0.15712757E-01
     atom    4 type  2   force =   0.16425133E-02  0.58464318E-02 -0.15877239E-02
     atom    5 type  1   force =  -0.42034896E-02 -0.16358375E-01  0.20911127E-01
     atom    6 type  2   force =   0.51782511E-02 -0.20581907E-02 -0.36998036E-02
     atom    7 type  1   force =  -0.48713240E-03 -0.23453375E-01  0.12932245E-01
     atom    8 type  2   force =   0.89853420E-02 -0.10066151E-01 -0.12780940E-01
     atom    9 type  1   force =   0.93886580E-02  0.13868624E-01 -0.31380126E-01
     atom   10 type  2   force =   0.15074155E-01  0.11235810E-01  0.80942532E-02
     atom   11 type  1   force =  -0.89344838E-02  0.21485750E-01 -0.18079620E-02
     atom   12 type  2   force =   0.96838864E-02 -0.10532705E-01 -0.13483709E-01
     atom   13 type  1   force =   0.21986152E-01 -0.68445834E-02  0.71440839E-02
     atom   14 type  2   force =  -0.14697225E-01  0.14371683E-02 -0.56303306E-02
     atom   15 type  1   force =   0.14223417E-01  0.13249652E-01 -0.28890679E-02
     atom   16 type  2   force =  -0.64645454E-02  0.56787787E-02  0.93621424E-03

     Total force =     0.084588     Total SCF correction =     0.000244


     entering subroutine stress ...


     negative rho (up, down):  0.000E+00 2.038E-03
          total   stress  (Ry/bohr**3)                   (kbar)     P=    4.86
   0.0000334340  -0.0000017789   0.0000001945          4.92     -0.26      0.03
  -0.0000017789   0.0000300742   0.0000016945         -0.26      4.42      0.25
   0.0000001945   0.0000016945   0.0000356686          0.03      0.25      5.25


     Writing output data file mno_fm.scf.in.super.222.066.save

     init_run     :     58.94s CPU     59.96s WALL (       1 calls)
     electrons    :   2110.57s CPU   2288.84s WALL (       1 calls)
     forces       :    156.43s CPU    182.75s WALL (       1 calls)
     stress       :    471.91s CPU    540.01s WALL (       1 calls)

     Called by init_run:
     wfcinit      :     58.06s CPU     59.04s WALL (       1 calls)
     potinit      :      0.17s CPU      0.19s WALL (       1 calls)

     Called by electrons:
     c_bands      :   1889.55s CPU   2051.44s WALL (      13 calls)
     sum_band     :    215.24s CPU    231.27s WALL (      13 calls)
     v_of_rho     :      1.51s CPU      1.64s WALL (      14 calls)
     newd         :      3.64s CPU      3.69s WALL (      14 calls)
     mix_rho      :      0.78s CPU      0.93s WALL (      13 calls)

     Called by c_bands:
     init_us_2    :      6.79s CPU      7.41s WALL (    2880 calls)
     cegterg      :   1855.40s CPU   2015.66s WALL (     936 calls)

     Called by *egterg:
     h_psi        :    960.15s CPU   1040.59s WALL (    2962 calls)
     s_psi        :    129.53s CPU    103.37s WALL (    3754 calls)
     g_psi        :      1.40s CPU      1.28s WALL (    1954 calls)
     cdiaghg      :    425.03s CPU    533.39s WALL (    2890 calls)

     Called by h_psi:
     add_vuspsi   :     96.16s CPU     79.74s WALL (    2962 calls)
     vhpsi        :     82.87s CPU    103.06s WALL (    2962 calls)

     General routines
     calbec       :    763.06s CPU    854.01s WALL (   51572 calls)
     fft          :      1.35s CPU      1.52s WALL (     468 calls)
     ffts         :      0.51s CPU      0.61s WALL (     326 calls)
     fftw         :    741.85s CPU    837.80s WALL (  666750 calls)
     interpolate  :      0.24s CPU      0.26s WALL (      54 calls)
     davcio       :      0.02s CPU      0.03s WALL (      72 calls)

     Parallel routines
     fft_scatter  :    295.95s CPU    335.63s WALL (  667544 calls)
     Hubbard U routines
     new_ns       :     17.51s CPU     19.69s WALL (      13 calls)
     vhpsi        :     82.87s CPU    103.06s WALL (    2962 calls)
     force_hub    :    140.26s CPU    168.01s WALL (       1 calls)
     stres_hub    :    437.84s CPU    505.80s WALL (       1 calls)

     PWSCF        : 46m43.54s CPU    51m18.31s WALL


   This run was terminated on:   0:14: 9  17Aug2017            

=------------------------------------------------------------------------------=
   JOB DONE.
=------------------------------------------------------------------------------=
