
     Program PWSCF v.5.1 starts on 17Aug2017 at 11:28:51 

     This program is part of the open-source Quantum ESPRESSO suite
     for quantum simulation of materials; please cite
         "P. Giannozzi et al., J. Phys.:Condens. Matter 21 395502 (2009);
          URL http://www.quantum-espresso.org", 
     in publications or presentations arising from this work. More details at
     http://www.quantum-espresso.org/quote

     Parallel version (MPI), running on     8 processors
     R & G space division:  proc/nbgrp/npool/nimage =       8
     Reading input from /tmp/mno_fm.scf.in.super.222.sub_frozen.05.6545/mno_fm.scf.in.super.222.sub_frozen.05.t
Warning: card &IONS ignored
Warning: card   ION_DYNAMICS='BFGS', ignored
Warning: card / ignored
Warning: card &CELL ignored
Warning: card  CELL_DYNAMICS = 'BFGS' ignored
Warning: card / ignored

     Current dimensions of program PWSCF are:
     Max number of different atomic species (ntypx) = 10
     Max number of k-points (npk) =  40000
     Max angular momentum in pseudopotentials (lmaxx) =  3
 kfg - two_fermi_energies  T

     Subspace diagonalization in iterative solution of the eigenvalue problem:
     a serial algorithm will be used

     Found symmetry operation: I + (  0.0000  0.0000 -0.5000)
     This is a supercell, fractional translations are disabled

     Parallelization info
     --------------------
     sticks:   dense  smooth     PW     G-vecs:    dense   smooth      PW
     Min         246     204     56                 7264     5421     802
     Max         247     205     57                 7267     5438     805
     Sum        1969    1639    451                58119    43407    6423

     Generating pointlists ...
     new r_m :   0.1458 (alat units)  1.7495 (a.u.) for type    1
     new r_m :   0.1458 (alat units)  1.7495 (a.u.) for type    2
     new r_m :   0.1458 (alat units)  1.7495 (a.u.) for type    3


     bravais-lattice index     =            0
     lattice parameter (alat)  =    11.996146938  a.u.
     unit-cell volume          =    1220.7039 (a.u.)^3
     number of atoms/cell      =           16
     number of atomic types    =            3
     number of electrons       =       168.00 (up:  84.00, down:  84.00)
     number of Kohn-Sham states=          101
     kinetic-energy cutoff     =      41.0000  Ry
     charge density cutoff     =     200.0000  Ry
     convergence threshold     =      1.0E-08
     mixing beta               =       0.3000
     number of iterations used =            8  local-TF  mixing
     Exchange-correlation      = SLA  PW   PSX  PSC ( 1  4 10  8 0)
     A smooth kinetic-energy cutoff is imposed at      40.0000 Ry
     height of the smooth step-function =             800.0000 Ry
     width of the smooth step-function  =               1.0000 Ry


     celldm(1)=  11.996147  celldm(2)=   0.000000  celldm(3)=   0.000000
     celldm(4)=   0.000000  celldm(5)=   0.000000  celldm(6)=   0.000000

     crystal axes: (cart. coord. in units of alat)
               a(1) = (   0.707106781187   0.707106781187   0.000000000000 )  
               a(2) = (   0.707106781187   0.000000000000   0.707106781187 )  
               a(3) = (   0.000000000000   0.707106781187   0.707106781187 )  

     reciprocal axes: (cart. coord. in units 2 pi/alat)
               b(1) = (  0.707107  0.707107 -0.707107 )  
               b(2) = (  0.707107 -0.707107  0.707107 )  
               b(3) = ( -0.707107  0.707107  0.707107 )  


     PseudoPot. # 1 for Mn read from file:
     /users/kfg/psuedo/gbrv_1.5/mn.pbesol.UPF
     MD5 check sum: 0716d5f563e6e95a34f9080f4c78c109
     Pseudo is Ultrasoft + core correction, Zval = 15.0
     Generated by new atomic code, or converted to UPF format
     Using radial grid of  859 points,  6 beta functions with: 
                l(1) =   0
                l(2) =   0
                l(3) =   1
                l(4) =   1
                l(5) =   2
                l(6) =   2
     Q(r) pseudized with  8 coefficients,  rinner =    0.950   0.950   0.950
                                                       0.950   0.950

     PseudoPot. # 2 for Mn read from file:
     /users/kfg/psuedo/gbrv_1.5/mn.pbesol.UPF
     MD5 check sum: 0716d5f563e6e95a34f9080f4c78c109
     Pseudo is Ultrasoft + core correction, Zval = 15.0
     Generated by new atomic code, or converted to UPF format
     Using radial grid of  859 points,  6 beta functions with: 
                l(1) =   0
                l(2) =   0
                l(3) =   1
                l(4) =   1
                l(5) =   2
                l(6) =   2
     Q(r) pseudized with  8 coefficients,  rinner =    0.950   0.950   0.950
                                                       0.950   0.950

     PseudoPot. # 3 for O  read from file:
     /users/kfg/psuedo/gbrv_1.5/o.pbesol.UPF
     MD5 check sum: 501638753501ef6325af9037351f7734
     Pseudo is Ultrasoft + core correction, Zval =  6.0
     Generated by new atomic code, or converted to UPF format
     Using radial grid of  737 points,  5 beta functions with: 
                l(1) =   0
                l(2) =   0
                l(3) =   1
                l(4) =   1
                l(5) =   2
     Q(r) pseudized with  8 coefficients,  rinner =    0.900   0.900   0.900
                                                       0.900   0.900

     atomic species   valence    mass     pseudopotential
        Mn            15.00    54.90000     Mn( 1.00)
        Fe            15.00    54.90000     Mn( 1.00)
        O              6.00    15.99900     O ( 1.00)

     Starting magnetic structure 
     atomic species   magnetization
        Mn           1.000
        Fe          -1.000
        O            0.000


     Simplified LDA+U calculation (l_max = 2) with parameters (eV):
     atomic species    L          U    alpha       J0     beta
        Mn             2     3.0000   0.0000   0.0000   0.0000
        Fe             2     3.0000   0.0000   0.0000   0.0000



     12 Sym. Ops., with inversion, found



   Cartesian axes

     site n.     atom                  positions (alat units)
         1           Fe  tau(   1) = (    0.00000000000    0.00000000000    0.00000000000  )
         2           O   tau(   2) = (    0.35355339059    0.35355339059    0.35355339059  )
         3           Fe  tau(   3) = (    0.00000000000    0.35355339059    0.35355339059  )
         4           O   tau(   4) = (    0.35355339059    0.70710678119    0.70710678119  )
         5           Mn  tau(   5) = (    0.35355339059    0.00000000000    0.35355339059  )
         6           O   tau(   6) = (    0.70710678119    0.35355339059    0.70710678119  )
         7           Mn  tau(   7) = (    0.35355339059    0.35355339059    0.70710678119  )
         8           O   tau(   8) = (    0.70710678119    0.70710678119    1.06066017178  )
         9           Fe  tau(   9) = (    0.35355339059    0.35355339059    0.00000000000  )
        10           O   tau(  10) = (    0.70710678119    0.70710678119    0.35355339059  )
        11           Fe  tau(  11) = (    0.35355339059    0.70710678119    0.35355339059  )
        12           O   tau(  12) = (    0.70710678119    1.06066017178    0.70710678119  )
        13           Mn  tau(  13) = (    0.70710678119    0.35355339059    0.35355339059  )
        14           O   tau(  14) = (    1.06066017178    0.70710678119    0.70710678119  )
        15           Mn  tau(  15) = (    0.70710678119    0.70710678119    0.70710678119  )
        16           O   tau(  16) = (    1.06066017178    1.06066017178    1.06066017178  )

     number of k points=    26  gaussian smearing, width (Ry)=  0.0100
                       cart. coord. in units 2pi/alat
        k(    1) = (   0.0000000   0.0000000   0.0000000), wk =   0.0156250
        k(    2) = (  -0.1767767   0.1767767   0.1767767), wk =   0.0937500
        k(    3) = (   0.3535534  -0.3535534  -0.3535534), wk =   0.0468750
        k(    4) = (   0.0000000   0.0000000   0.3535534), wk =   0.0937500
        k(    5) = (   0.5303301  -0.5303301  -0.1767767), wk =   0.0937500
        k(    6) = (   0.3535534  -0.3535534   0.0000000), wk =   0.0937500
        k(    7) = (   0.0000000   0.0000000  -0.7071068), wk =   0.0468750
        k(    8) = (   0.0000000   0.3535534  -0.7071068), wk =   0.0937500
        k(    9) = (  -0.1767767   0.1767767  -0.1767767), wk =   0.0312500
        k(   10) = (   0.3535534  -0.3535534   0.3535534), wk =   0.0156250
        k(   11) = (   0.5303301   0.5303301   0.1767767), wk =   0.1875000
        k(   12) = (   0.5303301  -0.1767767   0.5303301), wk =   0.0937500
        k(   13) = (   0.3535534   0.3535534   0.0000000), wk =   0.0937500
        k(   14) = (   0.0000000   0.0000000   0.0000000), wk =   0.0156250
        k(   15) = (  -0.1767767   0.1767767   0.1767767), wk =   0.0937500
        k(   16) = (   0.3535534  -0.3535534  -0.3535534), wk =   0.0468750
        k(   17) = (   0.0000000   0.0000000   0.3535534), wk =   0.0937500
        k(   18) = (   0.5303301  -0.5303301  -0.1767767), wk =   0.0937500
        k(   19) = (   0.3535534  -0.3535534   0.0000000), wk =   0.0937500
        k(   20) = (   0.0000000   0.0000000  -0.7071068), wk =   0.0468750
        k(   21) = (   0.0000000   0.3535534  -0.7071068), wk =   0.0937500
        k(   22) = (  -0.1767767   0.1767767  -0.1767767), wk =   0.0312500
        k(   23) = (   0.3535534  -0.3535534   0.3535534), wk =   0.0156250
        k(   24) = (   0.5303301   0.5303301   0.1767767), wk =   0.1875000
        k(   25) = (   0.5303301  -0.1767767   0.5303301), wk =   0.0937500
        k(   26) = (   0.3535534   0.3535534   0.0000000), wk =   0.0937500

     Dense  grid:    58119 G-vectors     FFT dimensions: (  54,  54,  54)

     Smooth grid:    43407 G-vectors     FFT dimensions: (  50,  50,  50)

     Largest allocated arrays     est. size (Mb)     dimensions
        Kohn-Sham Wavefunctions         1.06 Mb     (     687,  101)
        Atomic Hubbard wavefuncts       0.42 Mb     (     687,   40)
        NL pseudopotentials             2.60 Mb     (     687,  248)
        Each V/rho on FFT grid          0.62 Mb     (   20412,   2)
        Each G-vector array             0.06 Mb     (    7265)
        G-vector shells                 0.00 Mb     (     487)
     Largest temporary arrays     est. size (Mb)     dimensions
        Auxiliary wavefunctions         4.24 Mb     (     687,  404)
        Each subspace H/S matrix        2.49 Mb     (     404,  404)
        Each <psi_i|beta_j> matrix      0.38 Mb     (     248,  101)
        Arrays for rho mixing           2.49 Mb     (   20412,    8)

     Check: negative/imaginary core charge=   -0.000056    0.000000

     Initial potential from superposition of free atoms

     starting charge  163.99935, renormalised to  168.00000
     Number of +U iterations with fixed ns =  0
     Starting occupations:
 --- enter write_ns ---
 LDA+U parameters:
U( 1)     =  3.00000000
alpha( 1) =  0.00000000
U( 2)     =  3.00000000
alpha( 2) =  0.00000000
atom    1   Tr[ns(na)] (up, down, total) =   0.00000  5.00000  5.00000
   spin  1
    eigenvalues: 
  0.000  0.000  0.000  0.000  0.000
    eigenvectors:
  1.000  0.000  0.000  0.000  0.000
  0.000  1.000  0.000  0.000  0.000
  0.000  0.000  1.000  0.000  0.000
  0.000  0.000  0.000  1.000  0.000
  0.000  0.000  0.000  0.000  1.000
    occupations:
  0.000  0.000  0.000  0.000  0.000
  0.000  0.000  0.000  0.000  0.000
  0.000  0.000  0.000  0.000  0.000
  0.000  0.000  0.000  0.000  0.000
  0.000  0.000  0.000  0.000  0.000
   spin  2
    eigenvalues: 
  1.000  1.000  1.000  1.000  1.000
    eigenvectors:
  1.000  0.000  0.000  0.000  0.000
  0.000  1.000  0.000  0.000  0.000
  0.000  0.000  1.000  0.000  0.000
  0.000  0.000  0.000  1.000  0.000
  0.000  0.000  0.000  0.000  1.000
    occupations:
  1.000  0.000  0.000  0.000  0.000
  0.000  1.000  0.000  0.000  0.000
  0.000  0.000  1.000  0.000  0.000
  0.000  0.000  0.000  1.000  0.000
  0.000  0.000  0.000  0.000  1.000
atomic mag. moment =    -5.000000
atom    3   Tr[ns(na)] (up, down, total) =   0.00000  5.00000  5.00000
   spin  1
    eigenvalues: 
  0.000  0.000  0.000  0.000  0.000
    eigenvectors:
  1.000  0.000  0.000  0.000  0.000
  0.000  1.000  0.000  0.000  0.000
  0.000  0.000  1.000  0.000  0.000
  0.000  0.000  0.000  1.000  0.000
  0.000  0.000  0.000  0.000  1.000
    occupations:
  0.000  0.000  0.000  0.000  0.000
  0.000  0.000  0.000  0.000  0.000
  0.000  0.000  0.000  0.000  0.000
  0.000  0.000  0.000  0.000  0.000
  0.000  0.000  0.000  0.000  0.000
   spin  2
    eigenvalues: 
  1.000  1.000  1.000  1.000  1.000
    eigenvectors:
  1.000  0.000  0.000  0.000  0.000
  0.000  1.000  0.000  0.000  0.000
  0.000  0.000  1.000  0.000  0.000
  0.000  0.000  0.000  1.000  0.000
  0.000  0.000  0.000  0.000  1.000
    occupations:
  1.000  0.000  0.000  0.000  0.000
  0.000  1.000  0.000  0.000  0.000
  0.000  0.000  1.000  0.000  0.000
  0.000  0.000  0.000  1.000  0.000
  0.000  0.000  0.000  0.000  1.000
atomic mag. moment =    -5.000000
atom    5   Tr[ns(na)] (up, down, total) =   5.00000  0.00000  5.00000
   spin  1
    eigenvalues: 
  1.000  1.000  1.000  1.000  1.000
    eigenvectors:
  1.000  0.000  0.000  0.000  0.000
  0.000  1.000  0.000  0.000  0.000
  0.000  0.000  1.000  0.000  0.000
  0.000  0.000  0.000  1.000  0.000
  0.000  0.000  0.000  0.000  1.000
    occupations:
  1.000  0.000  0.000  0.000  0.000
  0.000  1.000  0.000  0.000  0.000
  0.000  0.000  1.000  0.000  0.000
  0.000  0.000  0.000  1.000  0.000
  0.000  0.000  0.000  0.000  1.000
   spin  2
    eigenvalues: 
  0.000  0.000  0.000  0.000  0.000
    eigenvectors:
  1.000  0.000  0.000  0.000  0.000
  0.000  1.000  0.000  0.000  0.000
  0.000  0.000  1.000  0.000  0.000
  0.000  0.000  0.000  1.000  0.000
  0.000  0.000  0.000  0.000  1.000
    occupations:
  0.000  0.000  0.000  0.000  0.000
  0.000  0.000  0.000  0.000  0.000
  0.000  0.000  0.000  0.000  0.000
  0.000  0.000  0.000  0.000  0.000
  0.000  0.000  0.000  0.000  0.000
atomic mag. moment =     5.000000
atom    7   Tr[ns(na)] (up, down, total) =   5.00000  0.00000  5.00000
   spin  1
    eigenvalues: 
  1.000  1.000  1.000  1.000  1.000
    eigenvectors:
  1.000  0.000  0.000  0.000  0.000
  0.000  1.000  0.000  0.000  0.000
  0.000  0.000  1.000  0.000  0.000
  0.000  0.000  0.000  1.000  0.000
  0.000  0.000  0.000  0.000  1.000
    occupations:
  1.000  0.000  0.000  0.000  0.000
  0.000  1.000  0.000  0.000  0.000
  0.000  0.000  1.000  0.000  0.000
  0.000  0.000  0.000  1.000  0.000
  0.000  0.000  0.000  0.000  1.000
   spin  2
    eigenvalues: 
  0.000  0.000  0.000  0.000  0.000
    eigenvectors:
  1.000  0.000  0.000  0.000  0.000
  0.000  1.000  0.000  0.000  0.000
  0.000  0.000  1.000  0.000  0.000
  0.000  0.000  0.000  1.000  0.000
  0.000  0.000  0.000  0.000  1.000
    occupations:
  0.000  0.000  0.000  0.000  0.000
  0.000  0.000  0.000  0.000  0.000
  0.000  0.000  0.000  0.000  0.000
  0.000  0.000  0.000  0.000  0.000
  0.000  0.000  0.000  0.000  0.000
atomic mag. moment =     5.000000
atom    9   Tr[ns(na)] (up, down, total) =   0.00000  5.00000  5.00000
   spin  1
    eigenvalues: 
  0.000  0.000  0.000  0.000  0.000
    eigenvectors:
  1.000  0.000  0.000  0.000  0.000
  0.000  1.000  0.000  0.000  0.000
  0.000  0.000  1.000  0.000  0.000
  0.000  0.000  0.000  1.000  0.000
  0.000  0.000  0.000  0.000  1.000
    occupations:
  0.000  0.000  0.000  0.000  0.000
  0.000  0.000  0.000  0.000  0.000
  0.000  0.000  0.000  0.000  0.000
  0.000  0.000  0.000  0.000  0.000
  0.000  0.000  0.000  0.000  0.000
   spin  2
    eigenvalues: 
  1.000  1.000  1.000  1.000  1.000
    eigenvectors:
  1.000  0.000  0.000  0.000  0.000
  0.000  1.000  0.000  0.000  0.000
  0.000  0.000  1.000  0.000  0.000
  0.000  0.000  0.000  1.000  0.000
  0.000  0.000  0.000  0.000  1.000
    occupations:
  1.000  0.000  0.000  0.000  0.000
  0.000  1.000  0.000  0.000  0.000
  0.000  0.000  1.000  0.000  0.000
  0.000  0.000  0.000  1.000  0.000
  0.000  0.000  0.000  0.000  1.000
atomic mag. moment =    -5.000000
atom   11   Tr[ns(na)] (up, down, total) =   0.00000  5.00000  5.00000
   spin  1
    eigenvalues: 
  0.000  0.000  0.000  0.000  0.000
    eigenvectors:
  1.000  0.000  0.000  0.000  0.000
  0.000  1.000  0.000  0.000  0.000
  0.000  0.000  1.000  0.000  0.000
  0.000  0.000  0.000  1.000  0.000
  0.000  0.000  0.000  0.000  1.000
    occupations:
  0.000  0.000  0.000  0.000  0.000
  0.000  0.000  0.000  0.000  0.000
  0.000  0.000  0.000  0.000  0.000
  0.000  0.000  0.000  0.000  0.000
  0.000  0.000  0.000  0.000  0.000
   spin  2
    eigenvalues: 
  1.000  1.000  1.000  1.000  1.000
    eigenvectors:
  1.000  0.000  0.000  0.000  0.000
  0.000  1.000  0.000  0.000  0.000
  0.000  0.000  1.000  0.000  0.000
  0.000  0.000  0.000  1.000  0.000
  0.000  0.000  0.000  0.000  1.000
    occupations:
  1.000  0.000  0.000  0.000  0.000
  0.000  1.000  0.000  0.000  0.000
  0.000  0.000  1.000  0.000  0.000
  0.000  0.000  0.000  1.000  0.000
  0.000  0.000  0.000  0.000  1.000
atomic mag. moment =    -5.000000
atom   13   Tr[ns(na)] (up, down, total) =   5.00000  0.00000  5.00000
   spin  1
    eigenvalues: 
  1.000  1.000  1.000  1.000  1.000
    eigenvectors:
  1.000  0.000  0.000  0.000  0.000
  0.000  1.000  0.000  0.000  0.000
  0.000  0.000  1.000  0.000  0.000
  0.000  0.000  0.000  1.000  0.000
  0.000  0.000  0.000  0.000  1.000
    occupations:
  1.000  0.000  0.000  0.000  0.000
  0.000  1.000  0.000  0.000  0.000
  0.000  0.000  1.000  0.000  0.000
  0.000  0.000  0.000  1.000  0.000
  0.000  0.000  0.000  0.000  1.000
   spin  2
    eigenvalues: 
  0.000  0.000  0.000  0.000  0.000
    eigenvectors:
  1.000  0.000  0.000  0.000  0.000
  0.000  1.000  0.000  0.000  0.000
  0.000  0.000  1.000  0.000  0.000
  0.000  0.000  0.000  1.000  0.000
  0.000  0.000  0.000  0.000  1.000
    occupations:
  0.000  0.000  0.000  0.000  0.000
  0.000  0.000  0.000  0.000  0.000
  0.000  0.000  0.000  0.000  0.000
  0.000  0.000  0.000  0.000  0.000
  0.000  0.000  0.000  0.000  0.000
atomic mag. moment =     5.000000
atom   15   Tr[ns(na)] (up, down, total) =   5.00000  0.00000  5.00000
   spin  1
    eigenvalues: 
  1.000  1.000  1.000  1.000  1.000
    eigenvectors:
  1.000  0.000  0.000  0.000  0.000
  0.000  1.000  0.000  0.000  0.000
  0.000  0.000  1.000  0.000  0.000
  0.000  0.000  0.000  1.000  0.000
  0.000  0.000  0.000  0.000  1.000
    occupations:
  1.000  0.000  0.000  0.000  0.000
  0.000  1.000  0.000  0.000  0.000
  0.000  0.000  1.000  0.000  0.000
  0.000  0.000  0.000  1.000  0.000
  0.000  0.000  0.000  0.000  1.000
   spin  2
    eigenvalues: 
  0.000  0.000  0.000  0.000  0.000
    eigenvectors:
  1.000  0.000  0.000  0.000  0.000
  0.000  1.000  0.000  0.000  0.000
  0.000  0.000  1.000  0.000  0.000
  0.000  0.000  0.000  1.000  0.000
  0.000  0.000  0.000  0.000  1.000
    occupations:
  0.000  0.000  0.000  0.000  0.000
  0.000  0.000  0.000  0.000  0.000
  0.000  0.000  0.000  0.000  0.000
  0.000  0.000  0.000  0.000  0.000
  0.000  0.000  0.000  0.000  0.000
atomic mag. moment =     5.000000
N of occupied +U levels =   40.000000
 --- exit write_ns ---
 Atomic wfc used for LDA+U Projector are NOT orthogonalized
     Starting wfc are  136 randomized atomic wfcs

     total cpu time spent up to now is       24.3 secs

     per-process dynamical memory:    66.6 Mb

     Self-consistent Calculation

     iteration #  1     ecut=    41.00 Ry     beta=0.30
     Davidson diagonalization with overlap
     ethr =  1.00E-02,  avg # of iterations =  4.4
 --- enter write_ns ---
 LDA+U parameters:
U( 1)     =  3.00000000
alpha( 1) =  0.00000000
U( 2)     =  3.00000000
alpha( 2) =  0.00000000
atom    1   Tr[ns(na)] (up, down, total) =   0.19717  4.99494  5.19211
   spin  1
    eigenvalues: 
  0.023  0.023  0.024  0.063  0.063
    eigenvectors:
  0.000  0.000  0.000  0.222  0.778
  0.655  0.012  0.333  0.000  0.000
  0.097  0.570  0.333  0.000  0.000
  0.000  0.000  0.000  0.778  0.222
  0.248  0.418  0.333  0.000  0.000
    occupations:
  0.063 -0.000  0.000  0.000  0.001
 -0.000  0.024 -0.000 -0.001  0.000
  0.000 -0.000  0.024 -0.001 -0.000
  0.000 -0.001 -0.001  0.063 -0.000
  0.001  0.000 -0.000 -0.000  0.024
   spin  2
    eigenvalues: 
  0.998  0.998  0.999  1.000  1.000
    eigenvectors:
  0.001  0.001  0.000  0.195  0.803
  0.644  0.022  0.333  0.000  0.001
  0.075  0.591  0.333  0.001  0.000
  0.001  0.001  0.000  0.803  0.195
  0.280  0.386  0.333  0.000  0.001
    occupations:
  1.000 -0.000  0.000  0.000  0.000
 -0.000  0.999 -0.000 -0.000  0.000
  0.000 -0.000  0.999 -0.000 -0.000
  0.000 -0.000 -0.000  1.000 -0.000
  0.000  0.000 -0.000 -0.000  0.999
atomic mag. moment =    -4.797768
atom    3   Tr[ns(na)] (up, down, total) =   0.19721  4.99493  5.19215
   spin  1
    eigenvalues: 
  0.023  0.023  0.024  0.063  0.063
    eigenvectors:
  0.000  0.000  0.000  0.750  0.250
  0.169  0.500  0.331  0.000  0.000
  0.661  0.000  0.339  0.000  0.000
  0.000  0.000  0.000  0.250  0.750
  0.169  0.500  0.331  0.000  0.000
    occupations:
  0.063 -0.000  0.000 -0.000  0.001
 -0.000  0.024 -0.000 -0.001  0.000
  0.000 -0.000  0.024 -0.001 -0.000
 -0.000 -0.001 -0.001  0.063  0.000
  0.001  0.000 -0.000  0.000  0.024
   spin  2
    eigenvalues: 
  0.998  0.998  0.999  1.000  1.000
    eigenvectors:
  0.000  0.001  0.000  0.749  0.250
  0.165  0.499  0.334  0.001  0.000
  0.668  0.000  0.331  0.000  0.001
  0.001  0.000  0.000  0.250  0.749
  0.165  0.499  0.334  0.001  0.000
    occupations:
  1.000 -0.000  0.000 -0.000  0.000
 -0.000  0.999 -0.000 -0.000  0.000
  0.000 -0.000  0.998 -0.000 -0.000
 -0.000 -0.000 -0.000  1.000 -0.000
  0.000  0.000 -0.000 -0.000  0.999
atomic mag. moment =    -4.797720
atom    5   Tr[ns(na)] (up, down, total) =   4.99491  0.19725  5.19216
   spin  1
    eigenvalues: 
  0.998  0.998  0.999  1.000  1.000
    eigenvectors:
  0.000  0.001  0.000  0.749  0.250
  0.667  0.000  0.332  0.000  0.001
  0.166  0.499  0.334  0.001  0.000
  0.001  0.000  0.000  0.250  0.749
  0.166  0.499  0.334  0.001  0.000
    occupations:
  1.000 -0.000  0.000  0.000  0.000
 -0.000  0.998 -0.000 -0.000  0.000
  0.000 -0.000  0.998 -0.000 -0.000
  0.000 -0.000 -0.000  1.000 -0.000
  0.000  0.000 -0.000 -0.000  0.998
   spin  2
    eigenvalues: 
  0.023  0.023  0.024  0.063  0.063
    eigenvectors:
  0.000  0.000  0.000  0.750  0.250
  0.672  0.000  0.328  0.000  0.000
  0.164  0.500  0.336  0.000  0.000
  0.000  0.000  0.000  0.250  0.750
  0.164  0.500  0.336  0.000  0.000
    occupations:
  0.063 -0.000  0.000  0.000  0.001
 -0.000  0.024 -0.000 -0.001  0.000
  0.000 -0.000  0.024 -0.001 -0.000
  0.000 -0.001 -0.001  0.063  0.000
  0.001  0.000 -0.000  0.000  0.024
atomic mag. moment =     4.797661
atom    7   Tr[ns(na)] (up, down, total) =   4.99491  0.19725  5.19216
   spin  1
    eigenvalues: 
  0.998  0.998  0.999  1.000  1.000
    eigenvectors:
  0.002  0.000  0.000  0.000  0.998
  0.166  0.499  0.334  0.001  0.000
  0.166  0.499  0.334  0.001  0.000
  0.000  0.002  0.000  0.998  0.000
  0.667  0.000  0.332  0.000  0.001
    occupations:
  1.000 -0.000  0.000  0.000  0.000
 -0.000  0.998 -0.000 -0.000  0.000
  0.000 -0.000  0.998 -0.000 -0.000
  0.000 -0.000 -0.000  1.000 -0.000
  0.000  0.000 -0.000 -0.000  0.998
   spin  2
    eigenvalues: 
  0.023  0.023  0.024  0.063  0.063
    eigenvectors:
  0.001  0.000  0.000  0.000  0.999
  0.164  0.500  0.336  0.000  0.000
  0.164  0.500  0.336  0.000  0.000
  0.000  0.001  0.000  0.999  0.000
  0.672  0.000  0.328  0.000  0.000
    occupations:
  0.063 -0.000  0.000  0.000  0.001
 -0.000  0.024 -0.000 -0.001  0.000
  0.000 -0.000  0.024 -0.001 -0.000
  0.000 -0.001 -0.001  0.063 -0.000
  0.001  0.000 -0.000 -0.000  0.024
atomic mag. moment =     4.797661
atom    9   Tr[ns(na)] (up, down, total) =   0.19721  4.99493  5.19215
   spin  1
    eigenvalues: 
  0.023  0.023  0.024  0.063  0.063
    eigenvectors:
  0.001  0.000  0.000  0.000  0.999
  0.169  0.500  0.331  0.000  0.000
  0.169  0.500  0.331  0.000  0.000
  0.000  0.001  0.000  0.999  0.000
  0.661  0.000  0.339  0.000  0.000
    occupations:
  0.063 -0.000  0.000  0.000  0.001
 -0.000  0.024 -0.000 -0.001  0.000
  0.000 -0.000  0.024 -0.001 -0.000
  0.000 -0.001 -0.001  0.063 -0.000
  0.001  0.000 -0.000 -0.000  0.024
   spin  2
    eigenvalues: 
  0.998  0.998  0.999  1.000  1.000
    eigenvectors:
  0.002  0.000  0.000  0.000  0.998
  0.165  0.499  0.334  0.001  0.000
  0.165  0.499  0.334  0.001  0.000
  0.000  0.002  0.000  0.998  0.000
  0.668  0.000  0.331  0.000  0.001
    occupations:
  1.000 -0.000  0.000  0.000  0.000
 -0.000  0.999 -0.000 -0.000  0.000
  0.000 -0.000  0.999 -0.000 -0.000
  0.000 -0.000 -0.000  1.000 -0.000
  0.000  0.000 -0.000 -0.000  0.998
atomic mag. moment =    -4.797720
atom   11   Tr[ns(na)] (up, down, total) =   0.19721  4.99493  5.19215
   spin  1
    eigenvalues: 
  0.023  0.023  0.024  0.063  0.063
    eigenvectors:
  0.000  0.000  0.000  0.750  0.250
  0.661  0.000  0.339  0.000  0.000
  0.169  0.500  0.331  0.000  0.000
  0.000  0.000  0.000  0.250  0.750
  0.169  0.500  0.331  0.000  0.000
    occupations:
  0.063 -0.000  0.000  0.000  0.001
 -0.000  0.024 -0.000 -0.001  0.000
  0.000 -0.000  0.024 -0.001 -0.000
  0.000 -0.001 -0.001  0.063 -0.000
  0.001  0.000 -0.000 -0.000  0.024
   spin  2
    eigenvalues: 
  0.998  0.998  0.999  1.000  1.000
    eigenvectors:
  0.000  0.001  0.000  0.749  0.250
  0.668  0.000  0.331  0.000  0.001
  0.165  0.499  0.334  0.001  0.000
  0.001  0.000  0.000  0.250  0.749
  0.165  0.499  0.334  0.001  0.000
    occupations:
  1.000 -0.000  0.000  0.000  0.000
 -0.000  0.998 -0.000 -0.000  0.000
  0.000 -0.000  0.999 -0.000 -0.000
  0.000 -0.000 -0.000  1.000  0.000
  0.000  0.000 -0.000  0.000  0.999
atomic mag. moment =    -4.797720
atom   13   Tr[ns(na)] (up, down, total) =   4.99491  0.19725  5.19216
   spin  1
    eigenvalues: 
  0.998  0.998  0.999  1.000  1.000
    eigenvectors:
  0.000  0.001  0.000  0.749  0.250
  0.166  0.499  0.334  0.001  0.000
  0.667  0.000  0.332  0.000  0.001
  0.001  0.000  0.000  0.250  0.749
  0.166  0.499  0.334  0.001  0.000
    occupations:
  1.000 -0.000  0.000 -0.000  0.000
 -0.000  0.998 -0.000 -0.000  0.000
  0.000 -0.000  0.998 -0.000 -0.000
 -0.000 -0.000 -0.000  1.000  0.000
  0.000  0.000 -0.000  0.000  0.998
   spin  2
    eigenvalues: 
  0.023  0.023  0.024  0.063  0.063
    eigenvectors:
  0.000  0.000  0.000  0.750  0.250
  0.164  0.500  0.336  0.000  0.000
  0.672  0.000  0.328  0.000  0.000
  0.000  0.000  0.000  0.250  0.750
  0.164  0.500  0.336  0.000  0.000
    occupations:
  0.063 -0.000  0.000 -0.000  0.001
 -0.000  0.024 -0.000 -0.001  0.000
  0.000 -0.000  0.024 -0.001 -0.000
 -0.000 -0.001 -0.001  0.063 -0.000
  0.001  0.000 -0.000 -0.000  0.024
atomic mag. moment =     4.797661
atom   15   Tr[ns(na)] (up, down, total) =   4.99490  0.19715  5.19205
   spin  1
    eigenvalues: 
  0.998  0.998  0.999  1.000  1.000
    eigenvectors:
  0.001  0.001  0.000  0.208  0.791
  0.646  0.020  0.333  0.000  0.001
  0.078  0.588  0.333  0.001  0.000
  0.001  0.001  0.000  0.791  0.208
  0.275  0.391  0.333  0.000  0.001
    occupations:
  1.000 -0.000  0.000  0.000  0.000
 -0.000  0.998 -0.000 -0.000  0.000
  0.000 -0.000  0.998 -0.000 -0.000
  0.000 -0.000 -0.000  1.000 -0.000
  0.000  0.000 -0.000 -0.000  0.998
   spin  2
    eigenvalues: 
  0.023  0.023  0.024  0.063  0.063
    eigenvectors:
  0.000  0.000  0.000  0.235  0.765
  0.658  0.008  0.333  0.000  0.000
  0.107  0.559  0.333  0.000  0.000
  0.000  0.000  0.000  0.765  0.235
  0.234  0.432  0.333  0.000  0.000
    occupations:
  0.063 -0.000  0.000  0.000  0.001
 -0.000  0.024 -0.000 -0.001  0.000
  0.000 -0.000  0.024 -0.001 -0.000
  0.000 -0.001 -0.001  0.063 -0.000
  0.001  0.000 -0.000 -0.000  0.024
atomic mag. moment =     4.797747
N of occupied +U levels =   41.537086
 --- exit write_ns ---

     negative rho (up, down):  9.258E-04 9.261E-04

     Magnetic moment per site:
     atom:    1    charge:   12.8390    magn:  -10.2592    constr:    0.0000
     atom:    2    charge:    5.7474    magn:    0.0000    constr:    0.0000
     atom:    3    charge:   12.8390    magn:  -10.2592    constr:    0.0000
     atom:    4    charge:    5.7474    magn:    0.0000    constr:    0.0000
     atom:    5    charge:   12.8390    magn:   10.2592    constr:    0.0000
     atom:    6    charge:    5.7474    magn:    0.0000    constr:    0.0000
     atom:    7    charge:   12.8390    magn:   10.2592    constr:    0.0000
     atom:    8    charge:    5.7474    magn:    0.0000    constr:    0.0000
     atom:    9    charge:   12.8390    magn:  -10.2592    constr:    0.0000
     atom:   10    charge:    5.7474    magn:    0.0000    constr:    0.0000
     atom:   11    charge:   12.8390    magn:  -10.2592    constr:    0.0000
     atom:   12    charge:    5.7474    magn:    0.0000    constr:    0.0000
     atom:   13    charge:   12.8390    magn:   10.2592    constr:    0.0000
     atom:   14    charge:    5.7474    magn:    0.0000    constr:    0.0000
     atom:   15    charge:   12.8390    magn:   10.2592    constr:    0.0000
     atom:   16    charge:    5.7474    magn:    0.0000    constr:    0.0000

     total cpu time spent up to now is       94.0 secs

     total energy              =   -1937.91761377 Ry
     Harris-Foulkes estimate   =   -1921.68848375 Ry
     estimated scf accuracy    <      25.39805360 Ry

     total magnetization       =     0.00 Bohr mag/cell
     absolute magnetization    =    40.76 Bohr mag/cell

     iteration #  2     ecut=    41.00 Ry     beta=0.30
     Davidson diagonalization with overlap
     ethr =  1.00E-02,  avg # of iterations =  1.1

     negative rho (up, down):  3.344E-03 3.344E-03

     Magnetic moment per site:
     atom:    1    charge:   12.7196    magn:   -4.5265    constr:    0.0000
     atom:    2    charge:    5.9790    magn:    0.0000    constr:    0.0000
     atom:    3    charge:   12.7196    magn:   -4.5264    constr:    0.0000
     atom:    4    charge:    5.9791    magn:    0.0000    constr:    0.0000
     atom:    5    charge:   12.7196    magn:    4.5263    constr:    0.0000
     atom:    6    charge:    5.9791    magn:    0.0000    constr:    0.0000
     atom:    7    charge:   12.7196    magn:    4.5263    constr:    0.0000
     atom:    8    charge:    5.9791    magn:    0.0000    constr:    0.0000
     atom:    9    charge:   12.7196    magn:   -4.5264    constr:    0.0000
     atom:   10    charge:    5.9791    magn:    0.0000    constr:    0.0000
     atom:   11    charge:   12.7196    magn:   -4.5264    constr:    0.0000
     atom:   12    charge:    5.9791    magn:    0.0000    constr:    0.0000
     atom:   13    charge:   12.7196    magn:    4.5263    constr:    0.0000
     atom:   14    charge:    5.9791    magn:    0.0000    constr:    0.0000
     atom:   15    charge:   12.7196    magn:    4.5262    constr:    0.0000
     atom:   16    charge:    5.9790    magn:    0.0000    constr:    0.0000

     total cpu time spent up to now is      136.0 secs

     total energy              =   -1945.60076619 Ry
     Harris-Foulkes estimate   =   -1938.18395245 Ry
     estimated scf accuracy    <      12.61697214 Ry

     total magnetization       =    -0.00 Bohr mag/cell
     absolute magnetization    =    40.33 Bohr mag/cell

     iteration #  3     ecut=    41.00 Ry     beta=0.30
     Davidson diagonalization with overlap
     ethr =  7.51E-03,  avg # of iterations =  4.0

     negative rho (up, down):  3.549E-03 3.549E-03

     Magnetic moment per site:
     atom:    1    charge:   12.6426    magn:   -4.2959    constr:    0.0000
     atom:    2    charge:    5.9559    magn:    0.0002    constr:    0.0000
     atom:    3    charge:   12.6428    magn:   -4.2954    constr:    0.0000
     atom:    4    charge:    5.9558    magn:    0.0001    constr:    0.0000
     atom:    5    charge:   12.6429    magn:    4.2953    constr:    0.0000
     atom:    6    charge:    5.9558    magn:    0.0001    constr:    0.0000
     atom:    7    charge:   12.6429    magn:    4.2953    constr:    0.0000
     atom:    8    charge:    5.9558    magn:    0.0001    constr:    0.0000
     atom:    9    charge:   12.6428    magn:   -4.2954    constr:    0.0000
     atom:   10    charge:    5.9558    magn:    0.0001    constr:    0.0000
     atom:   11    charge:   12.6428    magn:   -4.2954    constr:    0.0000
     atom:   12    charge:    5.9558    magn:    0.0001    constr:    0.0000
     atom:   13    charge:   12.6429    magn:    4.2953    constr:    0.0000
     atom:   14    charge:    5.9558    magn:    0.0001    constr:    0.0000
     atom:   15    charge:   12.6428    magn:    4.2956    constr:    0.0000
     atom:   16    charge:    5.9559    magn:    0.0002    constr:    0.0000

     total cpu time spent up to now is      203.7 secs

     total energy              =   -1946.15031425 Ry
     Harris-Foulkes estimate   =   -1946.29161420 Ry
     estimated scf accuracy    <       0.41256180 Ry

     total magnetization       =    -0.00 Bohr mag/cell
     absolute magnetization    =    38.11 Bohr mag/cell

     iteration #  4     ecut=    41.00 Ry     beta=0.30
     Davidson diagonalization with overlap
     ethr =  2.46E-04,  avg # of iterations =  7.1

     negative rho (up, down):  3.611E-03 3.611E-03

     Magnetic moment per site:
     atom:    1    charge:   12.6350    magn:   -4.1923    constr:    0.0000
     atom:    2    charge:    5.9665    magn:    0.0002    constr:    0.0000
     atom:    3    charge:   12.6352    magn:   -4.1919    constr:    0.0000
     atom:    4    charge:    5.9665    magn:    0.0001    constr:    0.0000
     atom:    5    charge:   12.6353    magn:    4.1918    constr:    0.0000
     atom:    6    charge:    5.9665    magn:    0.0001    constr:    0.0000
     atom:    7    charge:   12.6353    magn:    4.1918    constr:    0.0000
     atom:    8    charge:    5.9665    magn:    0.0001    constr:    0.0000
     atom:    9    charge:   12.6352    magn:   -4.1919    constr:    0.0000
     atom:   10    charge:    5.9665    magn:    0.0001    constr:    0.0000
     atom:   11    charge:   12.6352    magn:   -4.1919    constr:    0.0000
     atom:   12    charge:    5.9665    magn:    0.0001    constr:    0.0000
     atom:   13    charge:   12.6353    magn:    4.1918    constr:    0.0000
     atom:   14    charge:    5.9665    magn:    0.0001    constr:    0.0000
     atom:   15    charge:   12.6352    magn:    4.1921    constr:    0.0000
     atom:   16    charge:    5.9665    magn:    0.0002    constr:    0.0000

     total cpu time spent up to now is      313.6 secs

     total energy              =   -1946.25631827 Ry
     Harris-Foulkes estimate   =   -1946.26268326 Ry
     estimated scf accuracy    <       0.02919851 Ry

     total magnetization       =    -0.00 Bohr mag/cell
     absolute magnetization    =    37.89 Bohr mag/cell

     iteration #  5     ecut=    41.00 Ry     beta=0.30
     Davidson diagonalization with overlap
     ethr =  1.74E-05,  avg # of iterations =  6.5

     negative rho (up, down):  3.638E-03 3.638E-03

     Magnetic moment per site:
     atom:    1    charge:   12.6072    magn:   -4.2340    constr:    0.0000
     atom:    2    charge:    5.9726    magn:    0.0001    constr:    0.0000
     atom:    3    charge:   12.6072    magn:   -4.2339    constr:    0.0000
     atom:    4    charge:    5.9726    magn:    0.0000    constr:    0.0000
     atom:    5    charge:   12.6073    magn:    4.2338    constr:    0.0000
     atom:    6    charge:    5.9726    magn:    0.0000    constr:    0.0000
     atom:    7    charge:   12.6073    magn:    4.2338    constr:    0.0000
     atom:    8    charge:    5.9726    magn:    0.0000    constr:    0.0000
     atom:    9    charge:   12.6072    magn:   -4.2339    constr:    0.0000
     atom:   10    charge:    5.9726    magn:    0.0000    constr:    0.0000
     atom:   11    charge:   12.6072    magn:   -4.2339    constr:    0.0000
     atom:   12    charge:    5.9726    magn:    0.0000    constr:    0.0000
     atom:   13    charge:   12.6073    magn:    4.2338    constr:    0.0000
     atom:   14    charge:    5.9726    magn:    0.0000    constr:    0.0000
     atom:   15    charge:   12.6073    magn:    4.2339    constr:    0.0000
     atom:   16    charge:    5.9726    magn:    0.0001    constr:    0.0000

     total cpu time spent up to now is      400.9 secs

     total energy              =   -1946.25874487 Ry
     Harris-Foulkes estimate   =   -1946.25900367 Ry
     estimated scf accuracy    <       0.00877086 Ry

     total magnetization       =    -0.00 Bohr mag/cell
     absolute magnetization    =    37.78 Bohr mag/cell
 kfg - setting two_fermi_energies to FALSE

     iteration #  6     ecut=    41.00 Ry     beta=0.30
     Davidson diagonalization with overlap
     ethr =  5.22E-06,  avg # of iterations =  4.7

     negative rho (up, down):  3.625E-03 3.625E-03

     Magnetic moment per site:
     atom:    1    charge:   12.6023    magn:   -4.2425    constr:    0.0000
     atom:    2    charge:    5.9730    magn:    0.0000    constr:    0.0000
     atom:    3    charge:   12.6024    magn:   -4.2425    constr:    0.0000
     atom:    4    charge:    5.9730    magn:    0.0000    constr:    0.0000
     atom:    5    charge:   12.6024    magn:    4.2425    constr:    0.0000
     atom:    6    charge:    5.9730    magn:    0.0000    constr:    0.0000
     atom:    7    charge:   12.6024    magn:    4.2425    constr:    0.0000
     atom:    8    charge:    5.9730    magn:    0.0000    constr:    0.0000
     atom:    9    charge:   12.6024    magn:   -4.2425    constr:    0.0000
     atom:   10    charge:    5.9730    magn:    0.0000    constr:    0.0000
     atom:   11    charge:   12.6024    magn:   -4.2425    constr:    0.0000
     atom:   12    charge:    5.9730    magn:    0.0000    constr:    0.0000
     atom:   13    charge:   12.6024    magn:    4.2425    constr:    0.0000
     atom:   14    charge:    5.9730    magn:    0.0000    constr:    0.0000
     atom:   15    charge:   12.6024    magn:    4.2425    constr:    0.0000
     atom:   16    charge:    5.9730    magn:    0.0000    constr:    0.0000

     total cpu time spent up to now is      486.1 secs

     total energy              =   -1946.26033247 Ry
     Harris-Foulkes estimate   =   -1946.26033683 Ry
     estimated scf accuracy    <       0.00043441 Ry

     total magnetization       =     0.00 Bohr mag/cell
     absolute magnetization    =    37.69 Bohr mag/cell

     iteration #  7     ecut=    41.00 Ry     beta=0.30
     Davidson diagonalization with overlap
     ethr =  2.59E-07,  avg # of iterations =  2.6

     negative rho (up, down):  3.613E-03 3.613E-03

     Magnetic moment per site:
     atom:    1    charge:   12.6008    magn:   -4.2303    constr:    0.0000
     atom:    2    charge:    5.9728    magn:    0.0000    constr:    0.0000
     atom:    3    charge:   12.6008    magn:   -4.2303    constr:    0.0000
     atom:    4    charge:    5.9728    magn:   -0.0000    constr:    0.0000
     atom:    5    charge:   12.6008    magn:    4.2303    constr:    0.0000
     atom:    6    charge:    5.9728    magn:   -0.0000    constr:    0.0000
     atom:    7    charge:   12.6008    magn:    4.2303    constr:    0.0000
     atom:    8    charge:    5.9728    magn:   -0.0000    constr:    0.0000
     atom:    9    charge:   12.6008    magn:   -4.2303    constr:    0.0000
     atom:   10    charge:    5.9728    magn:   -0.0000    constr:    0.0000
     atom:   11    charge:   12.6008    magn:   -4.2303    constr:    0.0000
     atom:   12    charge:    5.9728    magn:   -0.0000    constr:    0.0000
     atom:   13    charge:   12.6008    magn:    4.2303    constr:    0.0000
     atom:   14    charge:    5.9728    magn:   -0.0000    constr:    0.0000
     atom:   15    charge:   12.6008    magn:    4.2303    constr:    0.0000
     atom:   16    charge:    5.9728    magn:    0.0000    constr:    0.0000

     total cpu time spent up to now is      540.6 secs

     total energy              =   -1946.26037473 Ry
     Harris-Foulkes estimate   =   -1946.26036507 Ry
     estimated scf accuracy    <       0.00009560 Ry

     total magnetization       =     0.00 Bohr mag/cell
     absolute magnetization    =    37.68 Bohr mag/cell

     iteration #  8     ecut=    41.00 Ry     beta=0.30
     Davidson diagonalization with overlap
     ethr =  5.69E-08,  avg # of iterations =  3.8

     negative rho (up, down):  3.597E-03 3.597E-03

     Magnetic moment per site:
     atom:    1    charge:   12.6009    magn:   -4.2300    constr:    0.0000
     atom:    2    charge:    5.9723    magn:    0.0000    constr:    0.0000
     atom:    3    charge:   12.6010    magn:   -4.2300    constr:    0.0000
     atom:    4    charge:    5.9723    magn:   -0.0000    constr:    0.0000
     atom:    5    charge:   12.6010    magn:    4.2300    constr:    0.0000
     atom:    6    charge:    5.9723    magn:   -0.0000    constr:    0.0000
     atom:    7    charge:   12.6010    magn:    4.2300    constr:    0.0000
     atom:    8    charge:    5.9723    magn:   -0.0000    constr:    0.0000
     atom:    9    charge:   12.6010    magn:   -4.2300    constr:    0.0000
     atom:   10    charge:    5.9723    magn:   -0.0000    constr:    0.0000
     atom:   11    charge:   12.6010    magn:   -4.2300    constr:    0.0000
     atom:   12    charge:    5.9723    magn:   -0.0000    constr:    0.0000
     atom:   13    charge:   12.6010    magn:    4.2300    constr:    0.0000
     atom:   14    charge:    5.9723    magn:   -0.0000    constr:    0.0000
     atom:   15    charge:   12.6010    magn:    4.2300    constr:    0.0000
     atom:   16    charge:    5.9723    magn:    0.0000    constr:    0.0000

     total cpu time spent up to now is      611.2 secs

     total energy              =   -1946.26038813 Ry
     Harris-Foulkes estimate   =   -1946.26038857 Ry
     estimated scf accuracy    <       0.00000645 Ry

     total magnetization       =    -0.00 Bohr mag/cell
     absolute magnetization    =    37.67 Bohr mag/cell

     iteration #  9     ecut=    41.00 Ry     beta=0.30
     Davidson diagonalization with overlap
     ethr =  3.84E-09,  avg # of iterations =  3.4

     negative rho (up, down):  3.587E-03 3.588E-03

     Magnetic moment per site:
     atom:    1    charge:   12.6008    magn:   -4.2299    constr:    0.0000
     atom:    2    charge:    5.9722    magn:    0.0000    constr:    0.0000
     atom:    3    charge:   12.6008    magn:   -4.2299    constr:    0.0000
     atom:    4    charge:    5.9722    magn:   -0.0000    constr:    0.0000
     atom:    5    charge:   12.6008    magn:    4.2299    constr:    0.0000
     atom:    6    charge:    5.9722    magn:   -0.0000    constr:    0.0000
     atom:    7    charge:   12.6008    magn:    4.2299    constr:    0.0000
     atom:    8    charge:    5.9722    magn:   -0.0000    constr:    0.0000
     atom:    9    charge:   12.6008    magn:   -4.2299    constr:    0.0000
     atom:   10    charge:    5.9722    magn:   -0.0000    constr:    0.0000
     atom:   11    charge:   12.6008    magn:   -4.2299    constr:    0.0000
     atom:   12    charge:    5.9722    magn:   -0.0000    constr:    0.0000
     atom:   13    charge:   12.6008    magn:    4.2299    constr:    0.0000
     atom:   14    charge:    5.9722    magn:   -0.0000    constr:    0.0000
     atom:   15    charge:   12.6008    magn:    4.2299    constr:    0.0000
     atom:   16    charge:    5.9722    magn:    0.0000    constr:    0.0000

     total cpu time spent up to now is      690.5 secs

     total energy              =   -1946.26039048 Ry
     Harris-Foulkes estimate   =   -1946.26039082 Ry
     estimated scf accuracy    <       0.00000296 Ry

     total magnetization       =     0.00 Bohr mag/cell
     absolute magnetization    =    37.67 Bohr mag/cell

     iteration # 10     ecut=    41.00 Ry     beta=0.30
     Davidson diagonalization with overlap
     ethr =  1.76E-09,  avg # of iterations =  2.8

     negative rho (up, down):  3.588E-03 3.588E-03

     Magnetic moment per site:
     atom:    1    charge:   12.6008    magn:   -4.2299    constr:    0.0000
     atom:    2    charge:    5.9722    magn:    0.0000    constr:    0.0000
     atom:    3    charge:   12.6008    magn:   -4.2299    constr:    0.0000
     atom:    4    charge:    5.9722    magn:   -0.0000    constr:    0.0000
     atom:    5    charge:   12.6008    magn:    4.2299    constr:    0.0000
     atom:    6    charge:    5.9722    magn:   -0.0000    constr:    0.0000
     atom:    7    charge:   12.6008    magn:    4.2299    constr:    0.0000
     atom:    8    charge:    5.9722    magn:   -0.0000    constr:    0.0000
     atom:    9    charge:   12.6008    magn:   -4.2299    constr:    0.0000
     atom:   10    charge:    5.9722    magn:   -0.0000    constr:    0.0000
     atom:   11    charge:   12.6008    magn:   -4.2299    constr:    0.0000
     atom:   12    charge:    5.9722    magn:   -0.0000    constr:    0.0000
     atom:   13    charge:   12.6008    magn:    4.2299    constr:    0.0000
     atom:   14    charge:    5.9722    magn:   -0.0000    constr:    0.0000
     atom:   15    charge:   12.6008    magn:    4.2299    constr:    0.0000
     atom:   16    charge:    5.9722    magn:    0.0000    constr:    0.0000

     total cpu time spent up to now is      756.7 secs

     total energy              =   -1946.26039125 Ry
     Harris-Foulkes estimate   =   -1946.26039101 Ry
     estimated scf accuracy    <       0.00000002 Ry

     total magnetization       =     0.00 Bohr mag/cell
     absolute magnetization    =    37.67 Bohr mag/cell

     iteration # 11     ecut=    41.00 Ry     beta=0.30
     Davidson diagonalization with overlap
     ethr =  1.20E-11,  avg # of iterations =  4.2

     negative rho (up, down):  3.589E-03 3.589E-03

     Magnetic moment per site:
     atom:    1    charge:   12.6008    magn:   -4.2299    constr:    0.0000
     atom:    2    charge:    5.9722    magn:    0.0000    constr:    0.0000
     atom:    3    charge:   12.6008    magn:   -4.2299    constr:    0.0000
     atom:    4    charge:    5.9722    magn:   -0.0000    constr:    0.0000
     atom:    5    charge:   12.6008    magn:    4.2299    constr:    0.0000
     atom:    6    charge:    5.9722    magn:   -0.0000    constr:    0.0000
     atom:    7    charge:   12.6008    magn:    4.2299    constr:    0.0000
     atom:    8    charge:    5.9722    magn:   -0.0000    constr:    0.0000
     atom:    9    charge:   12.6008    magn:   -4.2299    constr:    0.0000
     atom:   10    charge:    5.9722    magn:   -0.0000    constr:    0.0000
     atom:   11    charge:   12.6008    magn:   -4.2299    constr:    0.0000
     atom:   12    charge:    5.9722    magn:   -0.0000    constr:    0.0000
     atom:   13    charge:   12.6008    magn:    4.2299    constr:    0.0000
     atom:   14    charge:    5.9722    magn:   -0.0000    constr:    0.0000
     atom:   15    charge:   12.6008    magn:    4.2299    constr:    0.0000
     atom:   16    charge:    5.9722    magn:    0.0000    constr:    0.0000

     total cpu time spent up to now is      841.1 secs

     total energy              =   -1946.26039137 Ry
     Harris-Foulkes estimate   =   -1946.26039126 Ry
     estimated scf accuracy    <       0.00000002 Ry

     total magnetization       =     0.00 Bohr mag/cell
     absolute magnetization    =    37.67 Bohr mag/cell

     iteration # 12     ecut=    41.00 Ry     beta=0.30
     Davidson diagonalization with overlap
     ethr =  1.20E-11,  avg # of iterations =  3.3

     negative rho (up, down):  3.588E-03 3.588E-03

     Magnetic moment per site:
     atom:    1    charge:   12.6008    magn:   -4.2299    constr:    0.0000
     atom:    2    charge:    5.9722    magn:   -0.0000    constr:    0.0000
     atom:    3    charge:   12.6008    magn:   -4.2299    constr:    0.0000
     atom:    4    charge:    5.9722    magn:   -0.0000    constr:    0.0000
     atom:    5    charge:   12.6008    magn:    4.2299    constr:    0.0000
     atom:    6    charge:    5.9722    magn:   -0.0000    constr:    0.0000
     atom:    7    charge:   12.6008    magn:    4.2299    constr:    0.0000
     atom:    8    charge:    5.9722    magn:   -0.0000    constr:    0.0000
     atom:    9    charge:   12.6008    magn:   -4.2299    constr:    0.0000
     atom:   10    charge:    5.9722    magn:   -0.0000    constr:    0.0000
     atom:   11    charge:   12.6008    magn:   -4.2299    constr:    0.0000
     atom:   12    charge:    5.9722    magn:   -0.0000    constr:    0.0000
     atom:   13    charge:   12.6008    magn:    4.2299    constr:    0.0000
     atom:   14    charge:    5.9722    magn:   -0.0000    constr:    0.0000
     atom:   15    charge:   12.6008    magn:    4.2299    constr:    0.0000
     atom:   16    charge:    5.9722    magn:   -0.0000    constr:    0.0000

     total cpu time spent up to now is      910.5 secs

     End of self-consistent calculation
 --- enter write_ns ---
 LDA+U parameters:
U( 1)     =  3.00000000
alpha( 1) =  0.00000000
U( 2)     =  3.00000000
alpha( 2) =  0.00000000
atom    1   Tr[ns(na)] (up, down, total) =   0.49928  4.98545  5.48473
   spin  1
    eigenvalues: 
  0.056  0.057  0.057  0.165  0.165
    eigenvectors:
  0.000  0.000  0.000  0.255  0.744
  0.333  0.657  0.009  0.000  0.000
  0.333  0.105  0.561  0.000  0.000
  0.000  0.000  0.000  0.744  0.255
  0.333  0.237  0.429  0.000  0.000
    occupations:
  0.165  0.001 -0.001  0.000 -0.002
  0.001  0.056  0.000  0.002 -0.000
 -0.001  0.000  0.056  0.002  0.000
  0.000  0.002  0.002  0.165 -0.000
 -0.002 -0.000  0.000 -0.000  0.056
   spin  2
    eigenvalues: 
  0.996  0.996  0.997  0.998  0.998
    eigenvectors:
  0.701  0.129  0.000  0.017  0.153
  0.002  0.112  0.333  0.531  0.023
  0.073  0.041  0.333  0.245  0.309
  0.129  0.701  0.000  0.153  0.017
  0.096  0.018  0.333  0.055  0.499
    occupations:
  0.997 -0.000  0.000  0.000  0.000
 -0.000  0.997  0.000 -0.000 -0.000
  0.000  0.000  0.997 -0.000  0.000
  0.000 -0.000 -0.000  0.997 -0.000
  0.000 -0.000  0.000 -0.000  0.997
atomic mag. moment =    -4.486166
atom    3   Tr[ns(na)] (up, down, total) =   0.49928  4.98545  5.48473
   spin  1
    eigenvalues: 
  0.056  0.057  0.057  0.165  0.165
    eigenvectors:
  0.000  0.000  0.001  0.749  0.250
  0.333  0.167  0.500  0.000  0.000
  0.333  0.666  0.000  0.000  0.000
  0.000  0.001  0.000  0.250  0.749
  0.333  0.167  0.500  0.000  0.000
    occupations:
  0.165  0.001 -0.001 -0.000 -0.002
  0.001  0.056  0.000  0.002 -0.000
 -0.001  0.000  0.056  0.002  0.000
 -0.000  0.002  0.002  0.165  0.000
 -0.002 -0.000  0.000  0.000  0.056
   spin  2
    eigenvalues: 
  0.996  0.996  0.997  0.998  0.998
    eigenvectors:
  0.208  0.623  0.000  0.042  0.127
  0.028  0.085  0.333  0.138  0.415
  0.113  0.000  0.333  0.554  0.000
  0.623  0.208  0.000  0.127  0.042
  0.028  0.085  0.333  0.138  0.415
    occupations:
  0.997 -0.000  0.000  0.000  0.000
 -0.000  0.997  0.000 -0.000 -0.000
  0.000  0.000  0.997 -0.000  0.000
  0.000 -0.000 -0.000  0.997 -0.000
  0.000 -0.000  0.000 -0.000  0.997
atomic mag. moment =    -4.486166
atom    5   Tr[ns(na)] (up, down, total) =   4.98545  0.49928  5.48472
   spin  1
    eigenvalues: 
  0.996  0.996  0.997  0.998  0.998
    eigenvectors:
  0.208  0.623  0.000  0.042  0.127
  0.113  0.000  0.333  0.554  0.000
  0.028  0.085  0.333  0.138  0.415
  0.623  0.208  0.000  0.127  0.042
  0.028  0.085  0.333  0.138  0.415
    occupations:
  0.997 -0.000  0.000 -0.000  0.000
 -0.000  0.997  0.000 -0.000 -0.000
  0.000  0.000  0.997 -0.000  0.000
 -0.000 -0.000 -0.000  0.997  0.000
  0.000 -0.000  0.000  0.000  0.997
   spin  2
    eigenvalues: 
  0.056  0.057  0.057  0.165  0.165
    eigenvectors:
  0.000  0.000  0.001  0.749  0.250
  0.333  0.666  0.000  0.000  0.000
  0.333  0.167  0.500  0.000  0.000
  0.000  0.001  0.000  0.250  0.749
  0.333  0.167  0.500  0.000  0.000
    occupations:
  0.165  0.001 -0.001  0.000 -0.002
  0.001  0.056  0.000  0.002 -0.000
 -0.001  0.000  0.056  0.002  0.000
  0.000  0.002  0.002  0.165 -0.000
 -0.002 -0.000  0.000 -0.000  0.056
atomic mag. moment =     4.486167
atom    7   Tr[ns(na)] (up, down, total) =   4.98545  0.49928  5.48472
   spin  1
    eigenvalues: 
  0.996  0.996  0.997  0.998  0.998
    eigenvectors:
  0.830  0.000  0.000  0.170  0.000
  0.028  0.085  0.333  0.138  0.415
  0.028  0.085  0.333  0.138  0.415
  0.000  0.830  0.000  0.000  0.170
  0.113  0.000  0.333  0.554  0.000
    occupations:
  0.997 -0.000  0.000  0.000  0.000
 -0.000  0.997  0.000 -0.000 -0.000
  0.000  0.000  0.997 -0.000  0.000
  0.000 -0.000 -0.000  0.997 -0.000
  0.000 -0.000  0.000 -0.000  0.997
   spin  2
    eigenvalues: 
  0.056  0.057  0.057  0.165  0.165
    eigenvectors:
  0.000  0.001  0.000  0.000  0.999
  0.333  0.167  0.500  0.000  0.000
  0.333  0.167  0.500  0.000  0.000
  0.000  0.000  0.001  0.999  0.000
  0.333  0.666  0.000  0.000  0.000
    occupations:
  0.165  0.001 -0.001  0.000 -0.002
  0.001  0.056  0.000  0.002 -0.000
 -0.001  0.000  0.056  0.002  0.000
  0.000  0.002  0.002  0.165 -0.000
 -0.002 -0.000  0.000 -0.000  0.056
atomic mag. moment =     4.486167
atom    9   Tr[ns(na)] (up, down, total) =   0.49928  4.98545  5.48473
   spin  1
    eigenvalues: 
  0.056  0.057  0.057  0.165  0.165
    eigenvectors:
  0.000  0.001  0.000  0.000  0.999
  0.333  0.167  0.500  0.000  0.000
  0.333  0.167  0.500  0.000  0.000
  0.000  0.000  0.001  0.999  0.000
  0.333  0.666  0.000  0.000  0.000
    occupations:
  0.165  0.001 -0.001  0.000 -0.002
  0.001  0.056  0.000  0.002 -0.000
 -0.001  0.000  0.056  0.002  0.000
  0.000  0.002  0.002  0.165 -0.000
 -0.002 -0.000  0.000 -0.000  0.056
   spin  2
    eigenvalues: 
  0.996  0.996  0.997  0.998  0.998
    eigenvectors:
  0.830  0.000  0.000  0.170  0.000
  0.028  0.085  0.333  0.138  0.415
  0.028  0.085  0.333  0.138  0.415
  0.000  0.830  0.000  0.000  0.170
  0.113  0.000  0.333  0.554  0.000
    occupations:
  0.997 -0.000  0.000  0.000  0.000
 -0.000  0.997  0.000 -0.000 -0.000
  0.000  0.000  0.997 -0.000  0.000
  0.000 -0.000 -0.000  0.997 -0.000
  0.000 -0.000  0.000 -0.000  0.997
atomic mag. moment =    -4.486166
atom   11   Tr[ns(na)] (up, down, total) =   0.49928  4.98545  5.48473
   spin  1
    eigenvalues: 
  0.056  0.057  0.057  0.165  0.165
    eigenvectors:
  0.000  0.000  0.001  0.749  0.250
  0.333  0.666  0.000  0.000  0.000
  0.333  0.167  0.500  0.000  0.000
  0.000  0.001  0.000  0.250  0.749
  0.333  0.167  0.500  0.000  0.000
    occupations:
  0.165  0.001 -0.001  0.000 -0.002
  0.001  0.056  0.000  0.002 -0.000
 -0.001  0.000  0.056  0.002  0.000
  0.000  0.002  0.002  0.165 -0.000
 -0.002 -0.000  0.000 -0.000  0.056
   spin  2
    eigenvalues: 
  0.996  0.996  0.997  0.998  0.998
    eigenvectors:
  0.208  0.623  0.000  0.042  0.127
  0.113  0.000  0.333  0.554  0.000
  0.028  0.085  0.333  0.138  0.415
  0.623  0.208  0.000  0.127  0.042
  0.028  0.085  0.333  0.138  0.415
    occupations:
  0.997 -0.000  0.000 -0.000  0.000
 -0.000  0.997  0.000 -0.000 -0.000
  0.000  0.000  0.997 -0.000  0.000
 -0.000 -0.000 -0.000  0.997  0.000
  0.000 -0.000  0.000  0.000  0.997
atomic mag. moment =    -4.486166
atom   13   Tr[ns(na)] (up, down, total) =   4.98545  0.49928  5.48472
   spin  1
    eigenvalues: 
  0.996  0.996  0.997  0.998  0.998
    eigenvectors:
  0.208  0.623  0.000  0.042  0.127
  0.028  0.085  0.333  0.138  0.415
  0.113  0.000  0.333  0.554  0.000
  0.623  0.208  0.000  0.127  0.042
  0.028  0.085  0.333  0.138  0.415
    occupations:
  0.997 -0.000  0.000  0.000  0.000
 -0.000  0.997  0.000 -0.000 -0.000
  0.000  0.000  0.997 -0.000  0.000
  0.000 -0.000 -0.000  0.997 -0.000
  0.000 -0.000  0.000 -0.000  0.997
   spin  2
    eigenvalues: 
  0.056  0.057  0.057  0.165  0.165
    eigenvectors:
  0.000  0.000  0.001  0.749  0.250
  0.333  0.167  0.500  0.000  0.000
  0.333  0.666  0.000  0.000  0.000
  0.000  0.001  0.000  0.250  0.749
  0.333  0.167  0.500  0.000  0.000
    occupations:
  0.165  0.001 -0.001 -0.000 -0.002
  0.001  0.056  0.000  0.002 -0.000
 -0.001  0.000  0.056  0.002  0.000
 -0.000  0.002  0.002  0.165  0.000
 -0.002 -0.000  0.000  0.000  0.056
atomic mag. moment =     4.486167
atom   15   Tr[ns(na)] (up, down, total) =   4.98545  0.49928  5.48472
   spin  1
    eigenvalues: 
  0.996  0.996  0.997  0.998  0.998
    eigenvectors:
  0.686  0.145  0.000  0.017  0.153
  0.001  0.112  0.333  0.531  0.023
  0.075  0.038  0.333  0.245  0.308
  0.145  0.686  0.000  0.153  0.017
  0.093  0.020  0.333  0.055  0.499
    occupations:
  0.997 -0.000  0.000  0.000  0.000
 -0.000  0.997  0.000 -0.000 -0.000
  0.000  0.000  0.997 -0.000  0.000
  0.000 -0.000 -0.000  0.997 -0.000
  0.000 -0.000  0.000 -0.000  0.997
   spin  2
    eigenvalues: 
  0.056  0.057  0.057  0.165  0.165
    eigenvectors:
  0.000  0.000  0.000  0.296  0.703
  0.333  0.661  0.005  0.000  0.000
  0.333  0.120  0.546  0.000  0.000
  0.000  0.000  0.000  0.703  0.296
  0.333  0.218  0.448  0.000  0.000
    occupations:
  0.165  0.001 -0.001  0.000 -0.002
  0.001  0.056  0.000  0.002 -0.000
 -0.001  0.000  0.056  0.002  0.000
  0.000  0.002  0.002  0.165 -0.000
 -0.002 -0.000  0.000 -0.000  0.056
atomic mag. moment =     4.486167
N of occupied +U levels =   43.877805
 --- exit write_ns ---

 ------ SPIN UP ------------


          k = 0.0000 0.0000 0.0000 (  5329 PWs)   bands (ev):

   -68.9471 -68.9436 -68.9436 -68.9436 -63.8134 -63.8090 -63.8090 -63.8090
   -37.8360 -37.8360 -37.8360 -37.8239 -37.8175 -37.8175 -37.8175 -37.8043
   -37.8043 -37.8043 -37.7939 -37.7939 -32.8292 -32.8292 -32.8292 -32.8003
   -32.7912 -32.7912 -32.7912 -32.7870 -32.7870 -32.7870 -32.7736 -32.7736
    -6.8290  -5.9776  -5.9776  -5.9776  -5.8605  -5.8605  -5.8605  -5.8604
     4.7506   4.7642   4.7642   4.7642   6.2586   6.2586   6.2586   6.5433
     6.5433   6.6409   6.6409   6.6409   6.6423   6.6423   6.6423   7.9295
     7.9295   7.9296   8.3077   8.3077   8.4403   8.4404   8.4404   8.4412
     8.4412   8.4412   8.8945   8.9129   8.9129   8.9129   9.3509   9.3509
     9.3509   9.4699   9.4699   9.4719  10.7343  10.7343  10.9859  10.9859
    10.9859  11.0938  11.0938  11.0938  12.6435  14.7047  14.7047  14.7047
    15.3566  15.4023  15.4023  16.0915  16.0915  16.0915  16.1387  16.1387
    16.1387  16.2584  16.2584  16.4680  16.4773

          k =-0.1768 0.1768 0.1768 (  5402 PWs)   bands (ev):

   -68.9463 -68.9438 -68.9432 -68.9432 -63.8129 -63.8098 -63.8092 -63.8092
   -37.8330 -37.8330 -37.8300 -37.8229 -37.8184 -37.8174 -37.8174 -37.8081
   -37.8081 -37.8029 -37.8002 -37.7955 -32.8245 -32.8245 -32.8210 -32.7992
   -32.7927 -32.7914 -32.7914 -32.7911 -32.7911 -32.7850 -32.7817 -32.7755
    -6.7010  -6.0194  -5.9813  -5.9813  -5.9611  -5.8790  -5.8593  -5.8593
     5.0338   5.0423   5.0423   5.1937   6.1026   6.1026   6.1741   6.4603
     6.5810   6.5810   6.6421   6.6504   6.7376   6.8708   6.8708   7.3486
     7.3486   7.7921   7.8283   8.0826   8.1109   8.2065   8.2065   8.5090
     8.7112   8.7398   8.7398   8.9040   9.0766   9.0766   9.1478   9.3349
     9.3449   9.3449   9.3507   9.3833  10.9053  10.9055  10.9055  10.9500
    11.0415  11.0415  11.0669  11.1267  13.6015  14.6886  14.8850  14.8850
    15.1398  15.4439  15.5081  15.7203  15.7203  15.7810  15.9836  16.0184
    16.0813  16.0813  16.1789  16.2081  16.2081

          k = 0.3536-0.3536-0.3536 (  5444 PWs)   bands (ev):

   -68.9448 -68.9448 -68.9428 -68.9428 -63.8115 -63.8115 -63.8094 -63.8094
   -37.8286 -37.8286 -37.8205 -37.8205 -37.8173 -37.8173 -37.8153 -37.8153
   -37.8131 -37.8131 -37.7992 -37.7992 -32.8183 -32.8183 -32.8014 -32.8014
   -32.7969 -32.7968 -32.7960 -32.7960 -32.7916 -32.7916 -32.7802 -32.7802
    -6.3749  -6.3749  -5.9848  -5.9848  -5.9216  -5.9216  -5.8585  -5.8585
     5.6208   5.6208   5.7186   5.7186   5.7663   5.7663   6.1785   6.1785
     6.5485   6.5485   6.6516   6.6516   6.7471   6.7472   6.8268   6.8269
     7.1666   7.1666   7.8421   7.8421   7.9529   7.9529   8.1784   8.1784
     8.5906   8.5906   8.9497   8.9497   9.2023   9.2023   9.3017   9.3018
     9.3020   9.3020   9.3036   9.3036  10.7907  10.7908  11.0275  11.0275
    11.1009  11.1009  11.1428  11.1428  14.7369  14.7369  15.1718  15.1718
    15.2748  15.2748  15.3480  15.3480  15.7600  15.7600  15.7623  15.7623
    16.0557  16.0557  16.0657  16.0657  16.0666

          k = 0.0000 0.0000 0.3536 (  5425 PWs)   bands (ev):

   -68.9465 -68.9440 -68.9435 -68.9435 -63.8127 -63.8097 -63.8088 -63.8088
   -37.8328 -37.8328 -37.8301 -37.8228 -37.8183 -37.8171 -37.8171 -37.8081
   -37.8081 -37.8028 -37.8003 -37.7954 -32.8248 -32.8248 -32.8210 -32.7993
   -32.7928 -32.7920 -32.7920 -32.7909 -32.7909 -32.7851 -32.7816 -32.7756
    -6.6655  -6.0882  -5.9581  -5.9581  -5.9220  -5.8885  -5.8855  -5.8855
     5.1255   5.1284   5.1379   5.1379   5.9350   6.2803   6.2803   6.4918
     6.5346   6.5346   6.6385   6.7017   6.7603   6.7603   6.9120   7.3251
     7.3251   7.7717   7.9018   7.9018   8.0733   8.1033   8.1596   8.3649
     8.5779   8.7058   8.8298   8.8298   9.0860   9.0860   9.1941   9.3766
     9.3766   9.4949   9.5464   9.6570  10.6967  10.7322  10.7500  10.9141
    10.9141  10.9172  11.0614  11.0614  13.8689  14.7818  14.8196  14.8196
    15.2565  15.3195  15.4826  15.5782  15.7897  15.7897  15.9806  15.9986
    16.0109  16.0109  16.0224  16.1897  16.1897

          k = 0.5303-0.5303-0.1768 (  5413 PWs)   bands (ev):

   -68.9451 -68.9448 -68.9431 -68.9431 -63.8115 -63.8111 -63.8090 -63.8090
   -37.8284 -37.8284 -37.8207 -37.8202 -37.8170 -37.8170 -37.8155 -37.8152
   -37.8132 -37.8132 -37.7992 -37.7991 -32.8186 -32.8186 -32.8015 -32.8010
   -32.7969 -32.7969 -32.7965 -32.7959 -32.7919 -32.7919 -32.7803 -32.7803
    -6.4273  -6.2057  -6.1001  -5.9838  -5.9838  -5.8628  -5.8614  -5.8614
     5.5317   5.5782   5.5782   5.6962   6.0117   6.0117   6.0698   6.3938
     6.5575   6.5575   6.6064   6.7501   6.7741   6.7741   6.8421   6.8782
     7.0208   7.0208   7.7410   7.7410   7.8507   7.9183   8.1515   8.2865
     8.5398   8.6123   8.9672   8.9672   9.1900   9.1900   9.3151   9.4466
     9.4466   9.4600   9.4720   9.4801  10.6456  10.7394  10.7394  10.7739
    10.9103  10.9497  10.9498  11.0402  14.7120  14.9414  15.0363  15.1516
    15.2615  15.2615  15.3820  15.3820  15.6355  15.6712  15.7484  15.7576
    15.9177  15.9177  16.1506  16.1506  16.2516

          k = 0.3536-0.3536 0.0000 (  5416 PWs)   bands (ev):

   -68.9468 -68.9446 -68.9439 -68.9439 -63.8124 -63.8088 -63.8083 -63.8083
   -37.8326 -37.8326 -37.8296 -37.8228 -37.8177 -37.8168 -37.8168 -37.8080
   -37.8080 -37.8028 -37.8003 -37.7954 -32.8251 -32.8251 -32.8216 -32.7994
   -32.7937 -32.7922 -32.7922 -32.7912 -32.7912 -32.7852 -32.7816 -32.7756
    -6.5140  -6.1257  -6.0973  -6.0369  -6.0368  -5.8550  -5.8050  -5.8049
     5.3387   5.3387   5.5241   5.5629   5.8980   5.8980   6.1130   6.3921
     6.4557   6.4557   6.5018   6.7284   6.7517   7.0257   7.0257   7.4092
     7.4092   7.5498   7.6772   7.8207   7.8208   8.0561   8.0677   8.0934
     8.4357   8.6216   8.7762   8.7762   9.0841   9.0841   9.1049   9.1514
     9.4716   9.5398   9.5398   9.7321  10.6965  10.7859  10.7859  10.9248
    10.9248  10.9645  11.1342  11.2471  14.5644  14.5830  14.8157  14.8157
    15.0196  15.3737  15.4918  15.7658  15.7658  15.8210  15.9170  15.9595
    16.0088  16.0438  16.0440  16.0721  16.1441

          k = 0.0000 0.0000-0.7071 (  5434 PWs)   bands (ev):

   -68.9451 -68.9451 -68.9434 -68.9434 -63.8112 -63.8112 -63.8086 -63.8086
   -37.8282 -37.8282 -37.8204 -37.8204 -37.8167 -37.8167 -37.8153 -37.8153
   -37.8133 -37.8133 -37.7991 -37.7991 -32.8189 -32.8189 -32.8012 -32.8012
   -32.7970 -32.7970 -32.7963 -32.7963 -32.7922 -32.7922 -32.7804 -32.7804
    -6.3256  -6.3256  -5.9824  -5.9824  -5.9739  -5.9739  -5.8647  -5.8647
     5.5025   5.5025   5.6051   5.6051   6.2054   6.2054   6.3235   6.3235
     6.5586   6.5586   6.7478   6.7478   6.7639   6.7639   6.8712   6.8713
     6.8744   6.8744   7.4701   7.4701   7.9282   7.9282   8.3120   8.3120
     8.5949   8.5949   8.9520   8.9520   9.1966   9.1966   9.4995   9.4995
     9.6498   9.6498   9.9066   9.9066  10.0372  10.0372  10.4655  10.4655
    10.7967  10.7968  11.0311  11.0311  14.8553  14.8554  15.0132  15.0132
    15.2756  15.2756  15.4085  15.4085  15.5953  15.5953  15.7448  15.7448
    15.7924  15.7924  16.1320  16.1320  16.3513

          k = 0.0000 0.3536-0.7071 (  5400 PWs)   bands (ev):

   -68.9454 -68.9444 -68.9444 -68.9429 -63.8118 -63.8098 -63.8098 -63.8083
   -37.8290 -37.8233 -37.8233 -37.8213 -37.8185 -37.8185 -37.8184 -37.8161
   -37.8103 -37.8043 -37.8043 -37.7989 -32.8190 -32.8127 -32.8127 -32.8034
   -32.7970 -32.7945 -32.7945 -32.7944 -32.7914 -32.7863 -32.7863 -32.7797
    -6.2293  -6.2115  -6.2115  -6.1704  -5.9221  -5.8623  -5.8623  -5.8261
     5.7403   5.7403   5.7737   5.8018   5.8385   6.0292   6.0292   6.1441
     6.3375   6.5710   6.5710   6.7697   6.7874   6.7874   6.9296   7.0524
     7.2731   7.3312   7.4518   7.4518   7.4540   7.9461   7.9461   8.3873
     8.5428   8.6766   8.6766   8.9119   9.2569   9.3064   9.3304   9.3304
     9.5303   9.7226   9.7226   9.8699  10.2245  10.4540  10.4540  10.6918
    10.8947  10.9913  10.9913  11.0626  14.9711  14.9711  15.0002  15.2196
    15.2451  15.2691  15.4393  15.4393  15.5098  15.5098  15.7500  15.7550
    15.7806  16.0346  16.0468  16.0468  16.1367

          k =-0.1768 0.1768-0.1768 (  5402 PWs)   bands (ev):

   -68.9477 -68.9443 -68.9443 -68.9443 -63.8128 -63.8081 -63.8081 -63.8081
   -37.8357 -37.8357 -37.8357 -37.8237 -37.8169 -37.8169 -37.8169 -37.8042
   -37.8042 -37.8042 -37.7938 -37.7938 -32.8297 -32.8297 -32.8297 -32.8006
   -32.7920 -32.7920 -32.7920 -32.7871 -32.7871 -32.7871 -32.7737 -32.7737
    -6.7015  -6.0252  -6.0252  -6.0252  -6.0184  -5.8150  -5.8150  -5.8149
     4.9860   4.9861   4.9861   5.1562   6.1258   6.1258   6.1258   6.6129
     6.6129   6.6460   6.6460   6.6460   6.6589   6.6589   6.6589   7.7711
     7.7711   7.7711   8.2198   8.3179   8.3179   8.3223   8.3223   8.3223
     8.3984   8.3985   8.3985   8.9135   8.9135   8.9135   9.1178   9.1178
     9.1924   9.4609   9.4609   9.4609  10.9548  10.9548  10.9548  11.0650
    11.0650  11.0650  11.0771  11.0771  13.6151  14.5788  14.5788  14.5788
    15.0983  15.3728  15.3728  15.9936  15.9936  15.9936  16.1305  16.1305
    16.1305  16.1529  16.1529  16.2026  16.2026

          k = 0.3536-0.3536 0.3536 (  5444 PWs)   bands (ev):

   -68.9483 -68.9450 -68.9450 -68.9450 -63.8121 -63.8072 -63.8071 -63.8071
   -37.8353 -37.8353 -37.8353 -37.8235 -37.8163 -37.8163 -37.8163 -37.8041
   -37.8041 -37.8041 -37.7938 -37.7938 -32.8303 -32.8303 -32.8303 -32.8010
   -32.7929 -32.7929 -32.7929 -32.7873 -32.7873 -32.7873 -32.7738 -32.7738
    -6.4012  -6.3486  -6.0583  -6.0583  -6.0582  -5.7841  -5.7841  -5.7840
     5.2857   5.2858   5.2858   5.8313   6.1631   6.1631   6.1631   6.3288
     6.3288   6.3288   6.6513   6.6513   6.6513   6.6915   6.6915   7.2307
     7.6997   7.6997   7.6997   8.2613   8.2613   8.2613   8.3316   8.3316
     8.3582   8.3582   8.3582   8.8364   8.8364   8.9139   8.9139   8.9139
     9.1195   9.5186   9.5186   9.5186  10.8420  10.8420  10.8420  11.1438
    11.1438  11.1438  11.3399  11.3399  14.4796  14.4796  14.4796  14.7083
    15.0318  15.3423  15.3423  15.7697  15.9297  15.9297  15.9297  16.0477
    16.0477  16.1189  16.1189  16.1191  16.1903

          k = 0.5303 0.5303 0.1768 (  5413 PWs)   bands (ev):

   -68.9453 -68.9442 -68.9440 -68.9426 -63.8118 -63.8103 -63.8100 -63.8086
   -37.8292 -37.8236 -37.8234 -37.8212 -37.8189 -37.8186 -37.8183 -37.8162
   -37.8102 -37.8043 -37.8043 -37.7989 -32.8187 -32.8126 -32.8122 -32.8034
   -32.7972 -32.7946 -32.7944 -32.7939 -32.7911 -32.7863 -32.7862 -32.7797
    -6.4249  -6.1955  -6.1401  -5.9632  -5.9351  -5.9082  -5.8801  -5.8391
     5.5002   5.5545   5.5564   5.8365   5.9635   6.0267   6.1545   6.3293
     6.3469   6.4339   6.6820   6.6982   6.7448   6.8809   6.8879   7.0635
     7.1601   7.3314   7.4052   7.5416   7.5690   7.9030   8.3480   8.5023
     8.5957   8.6110   8.7145   8.9141   9.2630   9.2742   9.3071   9.3617
     9.4176   9.5025   9.5808   9.6135  10.4606  10.6643  10.7362  10.7559
    10.9357  10.9450  10.9786  11.1117  14.7858  14.9155  15.0252  15.1691
    15.2609  15.2870  15.3487  15.4511  15.5734  15.7125  15.7196  15.7773
    15.8125  16.0360  16.0545  16.1309  16.1410

          k = 0.5303-0.1768 0.5303 (  5413 PWs)   bands (ev):

   -68.9470 -68.9447 -68.9442 -68.9442 -63.8122 -63.8086 -63.8079 -63.8079
   -37.8325 -37.8325 -37.8296 -37.8227 -37.8176 -37.8165 -37.8165 -37.8080
   -37.8080 -37.8027 -37.8003 -37.7954 -32.8254 -32.8254 -32.8216 -32.7995
   -32.7938 -32.7927 -32.7927 -32.7911 -32.7911 -32.7852 -32.7816 -32.7757
    -6.4241  -6.1946  -6.1543  -6.0276  -6.0276  -5.8226  -5.8171  -5.8171
     5.4538   5.4602   5.4602   5.7728   5.8164   6.0864   6.0864   6.3001
     6.3435   6.3435   6.6929   6.7374   6.8175   6.9362   6.9362   7.4331
     7.4331   7.5412   7.5412   7.6379   7.8178   8.0295   8.0496   8.1436
     8.3060   8.5167   8.8050   8.8050   9.0971   9.0971   9.1954   9.2193
     9.5625   9.5625   9.6925   9.7077  10.5369  10.7250  10.7480  10.7480
    10.9857  11.0017  11.0017  11.0937  14.6562  14.7083  14.7653  14.7653
    15.1149  15.3230  15.4666  15.5588  15.8592  15.8592  15.9214  15.9214
    15.9303  16.0160  16.1573  16.1573  16.1792

          k = 0.3536 0.3536 0.0000 (  5416 PWs)   bands (ev):

   -68.9452 -68.9438 -68.9438 -68.9424 -63.8119 -63.8106 -63.8106 -63.8089
   -37.8294 -37.8237 -37.8237 -37.8211 -37.8190 -37.8190 -37.8183 -37.8165
   -37.8101 -37.8043 -37.8043 -37.7989 -32.8184 -32.8122 -32.8122 -32.8035
   -32.7973 -32.7947 -32.7937 -32.7937 -32.7908 -32.7862 -32.7862 -32.7796
    -6.5138  -6.1088  -6.1088  -5.9682  -5.9681  -5.8838  -5.8627  -5.8626
     5.4171   5.4202   5.5578   5.5578   6.0040   6.0040   6.1620   6.3654
     6.4675   6.6530   6.6670   6.6967   6.6967   6.8972   6.9262   6.9262
     7.2163   7.2782   7.2782   7.5909   7.8038   8.2247   8.2247   8.5021
     8.6471   8.7018   8.7018   8.9084   9.2384   9.2384   9.2779   9.2865
     9.2921   9.4240   9.4240   9.6697  10.6487  10.7494  10.7494  10.9104
    10.9411  11.0688  11.0688  11.0884  14.6253  14.9788  14.9788  15.1397
    15.2638  15.3031  15.3737  15.3737  15.6804  15.7557  15.7557  15.8036
    15.8303  16.0345  16.0346  16.0444  16.1578

 ------ SPIN DOWN ----------


          k = 0.0000 0.0000 0.0000 (  5329 PWs)   bands (ev):

   -68.9471 -68.9436 -68.9436 -68.9436 -63.8134 -63.8090 -63.8090 -63.8090
   -37.8360 -37.8360 -37.8360 -37.8239 -37.8175 -37.8175 -37.8175 -37.8043
   -37.8043 -37.8043 -37.7939 -37.7939 -32.8292 -32.8292 -32.8292 -32.8003
   -32.7911 -32.7911 -32.7911 -32.7870 -32.7870 -32.7870 -32.7736 -32.7736
    -6.8290  -5.9776  -5.9776  -5.9776  -5.8605  -5.8605  -5.8605  -5.8604
     4.7505   4.7642   4.7642   4.7642   6.2586   6.2586   6.2586   6.5433
     6.5433   6.6408   6.6409   6.6409   6.6423   6.6423   6.6423   7.9295
     7.9295   7.9295   8.3077   8.3077   8.4403   8.4404   8.4404   8.4412
     8.4412   8.4412   8.8945   8.9129   8.9129   8.9129   9.3509   9.3509
     9.3509   9.4699   9.4699   9.4719  10.7343  10.7343  10.9859  10.9859
    10.9859  11.0938  11.0938  11.0938  12.6435  14.7047  14.7047  14.7047
    15.3566  15.4023  15.4023  16.0915  16.0915  16.0915  16.1387  16.1387
    16.1387  16.2584  16.2584  16.4680  16.4680

          k =-0.1768 0.1768 0.1768 (  5402 PWs)   bands (ev):

   -68.9463 -68.9438 -68.9432 -68.9432 -63.8129 -63.8098 -63.8092 -63.8092
   -37.8330 -37.8330 -37.8301 -37.8229 -37.8184 -37.8174 -37.8174 -37.8081
   -37.8081 -37.8029 -37.8003 -37.7955 -32.8245 -32.8245 -32.8210 -32.7992
   -32.7927 -32.7914 -32.7914 -32.7911 -32.7911 -32.7850 -32.7817 -32.7755
    -6.7010  -6.0194  -5.9813  -5.9813  -5.9611  -5.8790  -5.8593  -5.8593
     5.0338   5.0423   5.0423   5.1937   6.1026   6.1026   6.1741   6.4603
     6.5809   6.5810   6.6421   6.6504   6.7375   6.8708   6.8708   7.3486
     7.3486   7.7921   7.8283   8.0826   8.1109   8.2065   8.2065   8.5090
     8.7112   8.7398   8.7398   8.9040   9.0766   9.0766   9.1477   9.3349
     9.3448   9.3449   9.3507   9.3833  10.9053  10.9054  10.9055  10.9500
    11.0415  11.0415  11.0669  11.1267  13.6015  14.6886  14.8851  14.8851
    15.1398  15.4439  15.5081  15.7203  15.7203  15.7810  15.9836  16.0184
    16.0813  16.0813  16.1789  16.2081  16.2081

          k = 0.3536-0.3536-0.3536 (  5444 PWs)   bands (ev):

   -68.9448 -68.9448 -68.9428 -68.9428 -63.8115 -63.8115 -63.8094 -63.8094
   -37.8286 -37.8286 -37.8205 -37.8205 -37.8173 -37.8173 -37.8153 -37.8153
   -37.8131 -37.8131 -37.7992 -37.7992 -32.8182 -32.8182 -32.8013 -32.8013
   -32.7968 -32.7968 -32.7960 -32.7960 -32.7916 -32.7916 -32.7802 -32.7802
    -6.3749  -6.3749  -5.9848  -5.9848  -5.9216  -5.9216  -5.8585  -5.8585
     5.6208   5.6208   5.7186   5.7186   5.7663   5.7663   6.1785   6.1785
     6.5485   6.5485   6.6516   6.6516   6.7471   6.7472   6.8268   6.8268
     7.1666   7.1666   7.8421   7.8421   7.9529   7.9529   8.1784   8.1784
     8.5906   8.5906   8.9496   8.9496   9.2023   9.2023   9.3017   9.3018
     9.3020   9.3020   9.3035   9.3036  10.7907  10.7908  11.0274  11.0274
    11.1009  11.1009  11.1428  11.1428  14.7369  14.7369  15.1719  15.1719
    15.2748  15.2748  15.3480  15.3480  15.7600  15.7600  15.7623  15.7623
    16.0557  16.0558  16.0657  16.0658  16.0666

          k = 0.0000 0.0000 0.3536 (  5425 PWs)   bands (ev):

   -68.9465 -68.9440 -68.9435 -68.9435 -63.8127 -63.8097 -63.8088 -63.8088
   -37.8328 -37.8328 -37.8301 -37.8228 -37.8183 -37.8171 -37.8171 -37.8081
   -37.8081 -37.8028 -37.8003 -37.7954 -32.8248 -32.8248 -32.8210 -32.7993
   -32.7928 -32.7920 -32.7920 -32.7909 -32.7909 -32.7851 -32.7816 -32.7756
    -6.6655  -6.0882  -5.9581  -5.9581  -5.9220  -5.8885  -5.8855  -5.8855
     5.1255   5.1284   5.1379   5.1379   5.9350   6.2803   6.2803   6.4918
     6.5346   6.5346   6.6385   6.7017   6.7603   6.7603   6.9120   7.3251
     7.3251   7.7717   7.9018   7.9018   8.0733   8.1033   8.1596   8.3649
     8.5779   8.7058   8.8298   8.8298   9.0860   9.0860   9.1940   9.3766
     9.3766   9.4949   9.5464   9.6570  10.6967  10.7322  10.7500  10.9141
    10.9141  10.9172  11.0614  11.0614  13.8689  14.7818  14.8196  14.8196
    15.2565  15.3195  15.4826  15.5782  15.7897  15.7897  15.9806  15.9987
    16.0109  16.0109  16.0224  16.1897  16.1897

          k = 0.5303-0.5303-0.1768 (  5413 PWs)   bands (ev):

   -68.9451 -68.9448 -68.9431 -68.9431 -63.8115 -63.8111 -63.8090 -63.8090
   -37.8284 -37.8284 -37.8207 -37.8203 -37.8170 -37.8170 -37.8155 -37.8152
   -37.8132 -37.8132 -37.7992 -37.7992 -32.8186 -32.8185 -32.8015 -32.8010
   -32.7969 -32.7969 -32.7965 -32.7959 -32.7919 -32.7919 -32.7803 -32.7803
    -6.4273  -6.2057  -6.1001  -5.9838  -5.9838  -5.8628  -5.8614  -5.8614
     5.5317   5.5782   5.5782   5.6962   6.0117   6.0117   6.0698   6.3938
     6.5575   6.5575   6.6064   6.7501   6.7741   6.7741   6.8421   6.8782
     7.0208   7.0208   7.7410   7.7410   7.8507   7.9182   8.1515   8.2865
     8.5398   8.6122   8.9672   8.9672   9.1900   9.1900   9.3151   9.4466
     9.4466   9.4600   9.4720   9.4801  10.6456  10.7394  10.7394  10.7739
    10.9102  10.9497  10.9498  11.0402  14.7120  14.9414  15.0363  15.1516
    15.2615  15.2615  15.3820  15.3820  15.6355  15.6712  15.7484  15.7576
    15.9177  15.9177  16.1506  16.1506  16.2515

          k = 0.3536-0.3536 0.0000 (  5416 PWs)   bands (ev):

   -68.9468 -68.9446 -68.9439 -68.9439 -63.8124 -63.8088 -63.8083 -63.8083
   -37.8326 -37.8326 -37.8296 -37.8228 -37.8177 -37.8168 -37.8168 -37.8080
   -37.8080 -37.8028 -37.8003 -37.7955 -32.8251 -32.8251 -32.8216 -32.7994
   -32.7937 -32.7922 -32.7922 -32.7912 -32.7912 -32.7851 -32.7816 -32.7756
    -6.5140  -6.1257  -6.0973  -6.0369  -6.0368  -5.8550  -5.8050  -5.8049
     5.3387   5.3387   5.5241   5.5629   5.8980   5.8980   6.1130   6.3921
     6.4557   6.4557   6.5018   6.7284   6.7517   7.0257   7.0257   7.4092
     7.4092   7.5498   7.6772   7.8207   7.8208   8.0560   8.0677   8.0933
     8.4357   8.6216   8.7761   8.7762   9.0841   9.0841   9.1049   9.1514
     9.4716   9.5398   9.5398   9.7321  10.6965  10.7859  10.7859  10.9247
    10.9248  10.9645  11.1342  11.2471  14.5644  14.5830  14.8157  14.8157
    15.0196  15.3737  15.4918  15.7658  15.7658  15.8210  15.9170  15.9595
    16.0088  16.0438  16.0441  16.0721  16.1442

          k = 0.0000 0.0000-0.7071 (  5434 PWs)   bands (ev):

   -68.9451 -68.9451 -68.9434 -68.9434 -63.8112 -63.8112 -63.8086 -63.8086
   -37.8282 -37.8282 -37.8204 -37.8204 -37.8168 -37.8168 -37.8153 -37.8153
   -37.8133 -37.8133 -37.7991 -37.7991 -32.8189 -32.8188 -32.8012 -32.8012
   -32.7970 -32.7970 -32.7963 -32.7963 -32.7922 -32.7922 -32.7804 -32.7804
    -6.3256  -6.3256  -5.9824  -5.9824  -5.9739  -5.9739  -5.8647  -5.8647
     5.5025   5.5025   5.6051   5.6051   6.2054   6.2054   6.3235   6.3235
     6.5586   6.5586   6.7478   6.7478   6.7639   6.7639   6.8712   6.8713
     6.8744   6.8744   7.4701   7.4701   7.9282   7.9282   8.3120   8.3120
     8.5949   8.5949   8.9520   8.9520   9.1966   9.1966   9.4995   9.4995
     9.6498   9.6498   9.9066   9.9066  10.0371  10.0372  10.4655  10.4655
    10.7967  10.7968  11.0311  11.0311  14.8554  14.8554  15.0132  15.0132
    15.2756  15.2756  15.4085  15.4085  15.5953  15.5953  15.7448  15.7448
    15.7924  15.7924  16.1320  16.1320  16.3513

          k = 0.0000 0.3536-0.7071 (  5400 PWs)   bands (ev):

   -68.9454 -68.9444 -68.9444 -68.9429 -63.8118 -63.8098 -63.8098 -63.8083
   -37.8290 -37.8233 -37.8233 -37.8213 -37.8185 -37.8185 -37.8184 -37.8161
   -37.8104 -37.8043 -37.8043 -37.7989 -32.8190 -32.8127 -32.8127 -32.8034
   -32.7970 -32.7945 -32.7945 -32.7944 -32.7914 -32.7862 -32.7862 -32.7797
    -6.2293  -6.2115  -6.2115  -6.1704  -5.9221  -5.8623  -5.8623  -5.8261
     5.7403   5.7403   5.7737   5.8018   5.8385   6.0292   6.0292   6.1441
     6.3375   6.5710   6.5710   6.7697   6.7874   6.7874   6.9296   7.0524
     7.2731   7.3312   7.4518   7.4518   7.4540   7.9461   7.9461   8.3873
     8.5428   8.6766   8.6766   8.9119   9.2569   9.3064   9.3304   9.3304
     9.5303   9.7226   9.7226   9.8699  10.2245  10.4540  10.4540  10.6917
    10.8947  10.9913  10.9913  11.0626  14.9711  14.9711  15.0002  15.2196
    15.2451  15.2692  15.4393  15.4393  15.5098  15.5098  15.7500  15.7550
    15.7806  16.0346  16.0468  16.0468  16.1367

          k =-0.1768 0.1768-0.1768 (  5402 PWs)   bands (ev):

   -68.9477 -68.9443 -68.9443 -68.9443 -63.8127 -63.8081 -63.8081 -63.8081
   -37.8357 -37.8357 -37.8357 -37.8237 -37.8169 -37.8169 -37.8169 -37.8042
   -37.8042 -37.8042 -37.7939 -37.7939 -32.8297 -32.8297 -32.8297 -32.8006
   -32.7920 -32.7920 -32.7920 -32.7871 -32.7871 -32.7871 -32.7737 -32.7737
    -6.7015  -6.0253  -6.0253  -6.0252  -6.0184  -5.8150  -5.8150  -5.8149
     4.9860   4.9861   4.9861   5.1562   6.1258   6.1258   6.1258   6.6129
     6.6129   6.6460   6.6460   6.6460   6.6589   6.6589   6.6589   7.7711
     7.7711   7.7711   8.2198   8.3179   8.3179   8.3223   8.3223   8.3223
     8.3984   8.3985   8.3985   8.9135   8.9135   8.9135   9.1178   9.1178
     9.1924   9.4609   9.4609   9.4609  10.9548  10.9548  10.9548  11.0649
    11.0650  11.0650  11.0771  11.0771  13.6151  14.5788  14.5788  14.5788
    15.0983  15.3728  15.3728  15.9936  15.9936  15.9936  16.1306  16.1306
    16.1306  16.1529  16.1529  16.2026  16.2026

          k = 0.3536-0.3536 0.3536 (  5444 PWs)   bands (ev):

   -68.9483 -68.9450 -68.9450 -68.9450 -63.8121 -63.8071 -63.8071 -63.8071
   -37.8353 -37.8353 -37.8353 -37.8235 -37.8164 -37.8163 -37.8163 -37.8041
   -37.8041 -37.8041 -37.7938 -37.7938 -32.8303 -32.8303 -32.8303 -32.8009
   -32.7929 -32.7928 -32.7928 -32.7873 -32.7873 -32.7873 -32.7737 -32.7737
    -6.4012  -6.3486  -6.0583  -6.0583  -6.0582  -5.7841  -5.7841  -5.7840
     5.2857   5.2858   5.2858   5.8313   6.1631   6.1631   6.1631   6.3288
     6.3288   6.3288   6.6513   6.6513   6.6513   6.6915   6.6915   7.2307
     7.6997   7.6997   7.6997   8.2612   8.2612   8.2612   8.3316   8.3316
     8.3582   8.3582   8.3582   8.8364   8.8364   8.9139   8.9139   8.9139
     9.1195   9.5186   9.5186   9.5186  10.8420  10.8420  10.8420  11.1438
    11.1438  11.1438  11.3399  11.3399  14.4796  14.4796  14.4796  14.7083
    15.0318  15.3423  15.3423  15.7697  15.9298  15.9298  15.9298  16.0477
    16.0478  16.1190  16.1901  16.1903  16.1903

          k = 0.5303 0.5303 0.1768 (  5413 PWs)   bands (ev):

   -68.9453 -68.9442 -68.9440 -68.9427 -63.8118 -63.8103 -63.8100 -63.8086
   -37.8292 -37.8237 -37.8234 -37.8212 -37.8189 -37.8186 -37.8184 -37.8163
   -37.8102 -37.8043 -37.8043 -37.7989 -32.8187 -32.8126 -32.8122 -32.8034
   -32.7972 -32.7946 -32.7944 -32.7939 -32.7911 -32.7863 -32.7862 -32.7797
    -6.4249  -6.1955  -6.1401  -5.9632  -5.9351  -5.9082  -5.8801  -5.8392
     5.5002   5.5545   5.5564   5.8365   5.9635   6.0267   6.1545   6.3293
     6.3469   6.4339   6.6820   6.6981   6.7448   6.8809   6.8879   7.0635
     7.1601   7.3314   7.4052   7.5416   7.5690   7.9030   8.3480   8.5023
     8.5957   8.6110   8.7145   8.9141   9.2630   9.2742   9.3071   9.3617
     9.4175   9.5025   9.5808   9.6135  10.4606  10.6643  10.7362  10.7559
    10.9357  10.9450  10.9786  11.1117  14.7858  14.9155  15.0252  15.1691
    15.2609  15.2870  15.3487  15.4511  15.5734  15.7125  15.7197  15.7773
    15.8125  16.0360  16.0545  16.1309  16.1410

          k = 0.5303-0.1768 0.5303 (  5413 PWs)   bands (ev):

   -68.9470 -68.9448 -68.9442 -68.9442 -63.8122 -63.8086 -63.8079 -63.8079
   -37.8325 -37.8325 -37.8296 -37.8227 -37.8176 -37.8165 -37.8165 -37.8080
   -37.8080 -37.8027 -37.8003 -37.7954 -32.8254 -32.8254 -32.8216 -32.7995
   -32.7938 -32.7927 -32.7927 -32.7911 -32.7911 -32.7852 -32.7816 -32.7757
    -6.4241  -6.1946  -6.1543  -6.0276  -6.0276  -5.8226  -5.8171  -5.8171
     5.4538   5.4602   5.4602   5.7728   5.8164   6.0864   6.0864   6.3001
     6.3435   6.3435   6.6929   6.7374   6.8175   6.9362   6.9362   7.4331
     7.4331   7.5412   7.5412   7.6379   7.8178   8.0295   8.0496   8.1436
     8.3060   8.5167   8.8050   8.8050   9.0971   9.0971   9.1954   9.2193
     9.5625   9.5625   9.6925   9.7077  10.5369  10.7250  10.7480  10.7480
    10.9857  11.0016  11.0017  11.0937  14.6562  14.7083  14.7653  14.7653
    15.1149  15.3231  15.4666  15.5588  15.8592  15.8592  15.9214  15.9214
    15.9303  16.0160  16.1574  16.1574  16.2242

          k = 0.3536 0.3536 0.0000 (  5416 PWs)   bands (ev):

   -68.9452 -68.9438 -68.9438 -68.9424 -63.8119 -63.8105 -63.8105 -63.8089
   -37.8294 -37.8237 -37.8237 -37.8211 -37.8190 -37.8190 -37.8183 -37.8165
   -37.8101 -37.8043 -37.8043 -37.7989 -32.8184 -32.8121 -32.8121 -32.8035
   -32.7973 -32.7947 -32.7937 -32.7937 -32.7908 -32.7862 -32.7862 -32.7796
    -6.5138  -6.1088  -6.1088  -5.9682  -5.9681  -5.8838  -5.8627  -5.8626
     5.4171   5.4201   5.5578   5.5578   6.0040   6.0040   6.1620   6.3654
     6.4675   6.6530   6.6670   6.6967   6.6967   6.8971   6.9262   6.9262
     7.2163   7.2782   7.2782   7.5909   7.8038   8.2247   8.2247   8.5021
     8.6471   8.7018   8.7018   8.9084   9.2384   9.2384   9.2779   9.2864
     9.2921   9.4240   9.4240   9.6697  10.6486  10.7494  10.7494  10.9104
    10.9411  11.0688  11.0688  11.0884  14.6253  14.9788  14.9788  15.1397
    15.2638  15.3031  15.3737  15.3737  15.6804  15.7557  15.7557  15.8036
    15.8303  16.0345  16.0346  16.0444  16.1578

     the Fermi energy is    12.0480 ev

!    total energy              =   -1946.26039148 Ry
     Harris-Foulkes estimate   =   -1946.26039137 Ry
     estimated scf accuracy    <          1.3E-09 Ry

     The total energy is the sum of the following terms:

     one-electron contribution =    -894.92866209 Ry
     hartree contribution      =     531.71040844 Ry
     xc contribution           =    -269.87164110 Ry
     ewald contribution        =   -1313.56707236 Ry
     Hubbard energy            =       0.39657563 Ry
     smearing contrib. (-TS)   =      -0.00000000 Ry

     total magnetization       =     0.00 Bohr mag/cell
     absolute magnetization    =    37.67 Bohr mag/cell

     convergence has been achieved in  12 iterations

     Forces acting on atoms (Ry/au):


     negative rho (up, down):  3.588E-03 3.588E-03
     atom    1 type  2   force =   0.00000000E+00  0.00000000E+00  0.00000000E+00
     atom    2 type  3   force =   0.20126910E-06 -0.20126910E-06  0.20126910E-06
     atom    3 type  2   force =   0.00000000E+00  0.00000000E+00 -0.59499616E-29
     atom    4 type  3   force =   0.26596475E-06 -0.19468056E-06  0.19468056E-06
     atom    5 type  1   force =   0.44624712E-29 -0.14874904E-29 -0.44624712E-29
     atom    6 type  3   force =  -0.19468056E-06  0.26596475E-06 -0.19468056E-06
     atom    7 type  1   force =  -0.29749808E-29  0.29749808E-29  0.00000000E+00
     atom    8 type  3   force =  -0.19468056E-06  0.19468056E-06 -0.26596475E-06
     atom    9 type  2   force =   0.14874904E-29  0.14874904E-29  0.14874904E-29
     atom   10 type  3   force =   0.19468056E-06 -0.19468056E-06  0.26596475E-06
     atom   11 type  2   force =   0.52062164E-29 -0.37187260E-29 -0.74374519E-30
     atom   12 type  3   force =   0.19468056E-06 -0.26596475E-06  0.19468056E-06
     atom   13 type  1   force =   0.44624712E-29  0.14874904E-29 -0.14874904E-29
     atom   14 type  3   force =  -0.26596475E-06  0.19468056E-06 -0.19468056E-06
     atom   15 type  1   force =   0.29749808E-29 -0.29749808E-29  0.29749808E-29
     atom   16 type  3   force =  -0.20126910E-06  0.20126910E-06 -0.20126910E-06

     Total force =     0.000001     Total SCF correction =     0.000011
     SCF correction compared to forces is large: reduce conv_thr to get better values


     entering subroutine stress ...


     negative rho (up, down):  3.588E-03 3.588E-03
          total   stress  (Ry/bohr**3)                   (kbar)     P=  -29.15
  -0.0001981237   0.0000709237  -0.0000709237        -29.15     10.43    -10.43
   0.0000709237  -0.0001981237   0.0000709237         10.43    -29.15     10.43
  -0.0000709237   0.0000709237  -0.0001981237        -10.43     10.43    -29.15


     Writing output data file mno_fm.scf.in.super.222.sub_frozen.055.save

     init_run     :     25.10s CPU     23.92s WALL (       1 calls)
     electrons    :    845.20s CPU    886.27s WALL (       1 calls)
     forces       :     57.88s CPU     65.05s WALL (       1 calls)
     stress       :    181.15s CPU    197.32s WALL (       1 calls)

     Called by init_run:
     wfcinit      :     23.76s CPU     22.53s WALL (       1 calls)
     potinit      :      0.21s CPU      0.22s WALL (       1 calls)

     Called by electrons:
     c_bands      :    763.70s CPU    807.20s WALL (      12 calls)
     sum_band     :     74.34s CPU     71.87s WALL (      12 calls)
     v_of_rho     :      1.84s CPU      1.84s WALL (      13 calls)
     newd         :      4.62s CPU      4.62s WALL (      13 calls)
     mix_rho      :      0.98s CPU      0.98s WALL (      12 calls)

     Called by c_bands:
     init_us_2    :      3.69s CPU      3.78s WALL (     988 calls)
     cegterg      :    751.39s CPU    794.42s WALL (     312 calls)

     Called by *egterg:
     h_psi        :    347.62s CPU    347.33s WALL (    1585 calls)
     s_psi        :     49.75s CPU     38.53s WALL (    1871 calls)
     g_psi        :      0.45s CPU      0.48s WALL (    1247 calls)
     cdiaghg      :    223.85s CPU    283.54s WALL (    1559 calls)

     Called by h_psi:
     add_vuspsi   :     37.60s CPU     29.88s WALL (    1585 calls)
     vhpsi        :     34.25s CPU     43.84s WALL (    1585 calls)

     General routines
     calbec       :    286.31s CPU    304.75s WALL (   19602 calls)
     fft          :      1.62s CPU      1.63s WALL (     437 calls)
     ffts         :      0.58s CPU      0.56s WALL (     301 calls)
     fftw         :    248.42s CPU    252.12s WALL (  194004 calls)
     interpolate  :      0.23s CPU      0.23s WALL (      50 calls)
     davcio       :      0.01s CPU      0.01s WALL (      26 calls)

     Parallel routines
     fft_scatter  :    106.44s CPU    108.76s WALL (  194742 calls)
     Hubbard U routines
     new_ns       :      6.12s CPU      6.33s WALL (      12 calls)
     vhpsi        :     34.25s CPU     43.84s WALL (    1585 calls)
     force_hub    :     50.78s CPU     59.09s WALL (       1 calls)
     stres_hub    :    164.33s CPU    180.75s WALL (       1 calls)

     PWSCF        : 18m31.53s CPU    19m35.23s WALL


   This run was terminated on:  11:48:26  17Aug2017            

=------------------------------------------------------------------------------=
   JOB DONE.
=------------------------------------------------------------------------------=
