
     Program PWSCF v.5.1 starts on  9Mar2018 at  9:53:31 

     This program is part of the open-source Quantum ESPRESSO suite
     for quantum simulation of materials; please cite
         "P. Giannozzi et al., J. Phys.:Condens. Matter 21 395502 (2009);
          URL http://www.quantum-espresso.org", 
     in publications or presentations arising from this work. More details at
     http://www.quantum-espresso.org/quote

     Parallel version (MPI), running on     8 processors
     R & G space division:  proc/nbgrp/npool/nimage =       8
     Reading input from /tmp/mno_fm.in.vol2.2771/mno_fm.in.vol2.t
Warning: card &IONS ignored
Warning: card   ION_DYNAMICS='BFGS', ignored
Warning: card / ignored
Warning: card &CELL ignored
Warning: card  CELL_DYNAMICS = 'BFGS' ignored
Warning: card / ignored

     Current dimensions of program PWSCF are:
     Max number of different atomic species (ntypx) = 10
     Max number of k-points (npk) =  40000
     Max angular momentum in pseudopotentials (lmaxx) =  3
 kfg - two_fermi_energies  F

     Subspace diagonalization in iterative solution of the eigenvalue problem:
     a serial algorithm will be used


     Parallelization info
     --------------------
     sticks:   dense  smooth     PW     G-vecs:    dense   smooth      PW
     Min          62      49     15                  903      648     120
     Max          63      50     16                  906      658     123
     Sum         499     397    127                 7239     5209     965

     Generating pointlists ...
     new r_m :   0.2917 (alat units)  1.7403 (a.u.) for type    1
     new r_m :   0.2917 (alat units)  1.7403 (a.u.) for type    2


     bravais-lattice index     =            0
     lattice parameter (alat)  =     5.966448825  a.u.
     unit-cell volume          =     150.1871 (a.u.)^3
     number of atoms/cell      =            2
     number of atomic types    =            2
     number of electrons       =        21.00
     number of Kohn-Sham states=           15
     kinetic-energy cutoff     =      41.0000  Ry
     charge density cutoff     =     200.0000  Ry
     convergence threshold     =      1.0E-08
     mixing beta               =       0.3000
     number of iterations used =            8  local-TF  mixing
     Exchange-correlation      = SLA  PW   PSX  PSC ( 1  4 10  8 0)
     A smooth kinetic-energy cutoff is imposed at      40.0000 Ry
     height of the smooth step-function =             800.0000 Ry
     width of the smooth step-function  =               1.0000 Ry


     celldm(1)=   5.966449  celldm(2)=   0.000000  celldm(3)=   0.000000
     celldm(4)=   0.000000  celldm(5)=   0.000000  celldm(6)=   0.000000

     crystal axes: (cart. coord. in units of alat)
               a(1) = (   0.707106781187   0.707106781187   0.000000000000 )  
               a(2) = (   0.707106781187   0.000000000000   0.707106781187 )  
               a(3) = (   0.000000000000   0.707106781187   0.707106781187 )  

     reciprocal axes: (cart. coord. in units 2 pi/alat)
               b(1) = (  0.707107  0.707107 -0.707107 )  
               b(2) = (  0.707107 -0.707107  0.707107 )  
               b(3) = ( -0.707107  0.707107  0.707107 )  


     PseudoPot. # 1 for Mn read from file:
     /users/kfg/psuedo/gbrv_1.5/mn.pbesol.UPF
     MD5 check sum: 0716d5f563e6e95a34f9080f4c78c109
     Pseudo is Ultrasoft + core correction, Zval = 15.0
     Generated by new atomic code, or converted to UPF format
     Using radial grid of  859 points,  6 beta functions with: 
                l(1) =   0
                l(2) =   0
                l(3) =   1
                l(4) =   1
                l(5) =   2
                l(6) =   2
     Q(r) pseudized with  8 coefficients,  rinner =    0.950   0.950   0.950
                                                       0.950   0.950

     PseudoPot. # 2 for O  read from file:
     /users/kfg/psuedo/gbrv_1.5/o.pbesol.UPF
     MD5 check sum: 501638753501ef6325af9037351f7734
     Pseudo is Ultrasoft + core correction, Zval =  6.0
     Generated by new atomic code, or converted to UPF format
     Using radial grid of  737 points,  5 beta functions with: 
                l(1) =   0
                l(2) =   0
                l(3) =   1
                l(4) =   1
                l(5) =   2
     Q(r) pseudized with  8 coefficients,  rinner =    0.900   0.900   0.900
                                                       0.900   0.900

     atomic species   valence    mass     pseudopotential
        Mn            15.00    54.90000     Mn( 1.00)
        O              6.00    15.99900     O ( 1.00)

     Starting magnetic structure 
     atomic species   magnetization
        Mn           1.000
        O            0.000


     Simplified LDA+U calculation (l_max = 2) with parameters (eV):
     atomic species    L          U    alpha       J0     beta
        Mn             2     3.0000   0.0000   0.0000   0.0000



     48 Sym. Ops., with inversion, found



   Cartesian axes

     site n.     atom                  positions (alat units)
         1           Mn  tau(   1) = (    0.00000000000    0.00000000000    0.00000000000  )
         2           O   tau(   2) = (    0.70710678119    0.70710678119    0.70710678119  )

     number of k points=    58  gaussian smearing, width (Ry)=  0.0100
                       cart. coord. in units 2pi/alat
        k(    1) = (   0.0000000   0.0000000   0.0000000), wk =   0.0019531
        k(    2) = (  -0.0883883   0.0883883   0.0883883), wk =   0.0156250
        k(    3) = (  -0.1767767   0.1767767   0.1767767), wk =   0.0156250
        k(    4) = (  -0.2651650   0.2651650   0.2651650), wk =   0.0156250
        k(    5) = (   0.3535534  -0.3535534  -0.3535534), wk =   0.0078125
        k(    6) = (   0.0000000   0.0000000   0.1767767), wk =   0.0117188
        k(    7) = (  -0.0883883   0.0883883   0.2651650), wk =   0.0468750
        k(    8) = (  -0.1767767   0.1767767   0.3535534), wk =   0.0468750
        k(    9) = (   0.4419417  -0.4419417  -0.2651650), wk =   0.0468750
        k(   10) = (   0.3535534  -0.3535534  -0.1767767), wk =   0.0468750
        k(   11) = (   0.2651650  -0.2651650  -0.0883883), wk =   0.0468750
        k(   12) = (   0.1767767  -0.1767767   0.0000000), wk =   0.0234375
        k(   13) = (   0.0000000   0.0000000   0.3535534), wk =   0.0117188
        k(   14) = (  -0.0883883   0.0883883   0.4419417), wk =   0.0468750
        k(   15) = (   0.5303301  -0.5303301  -0.1767767), wk =   0.0468750
        k(   16) = (   0.4419417  -0.4419417  -0.0883883), wk =   0.0468750
        k(   17) = (   0.3535534  -0.3535534   0.0000000), wk =   0.0234375
        k(   18) = (   0.0000000   0.0000000   0.5303301), wk =   0.0117188
        k(   19) = (   0.6187184  -0.6187184  -0.0883883), wk =   0.0468750
        k(   20) = (   0.5303301  -0.5303301   0.0000000), wk =   0.0234375
        k(   21) = (   0.0000000   0.0000000  -0.7071068), wk =   0.0058594
        k(   22) = (   0.0000000   0.1767767   0.3535534), wk =   0.0468750
        k(   23) = (   0.6187184  -0.4419417  -0.2651650), wk =   0.0937500
        k(   24) = (   0.5303301  -0.3535534  -0.1767767), wk =   0.0468750
        k(   25) = (   0.7071068  -0.5303301  -0.1767767), wk =   0.0468750
        k(   26) = (   0.6187184  -0.4419417  -0.0883883), wk =   0.0937500
        k(   27) = (   0.5303301  -0.3535534   0.0000000), wk =   0.0468750
        k(   28) = (   0.0000000   0.1767767  -0.7071068), wk =   0.0234375
        k(   29) = (   0.0000000   0.3535534  -0.7071068), wk =   0.0117188
        k(   30) = (   0.0000000   0.0000000   0.0000000), wk =   0.0019531
        k(   31) = (  -0.0883883   0.0883883   0.0883883), wk =   0.0156250
        k(   32) = (  -0.1767767   0.1767767   0.1767767), wk =   0.0156250
        k(   33) = (  -0.2651650   0.2651650   0.2651650), wk =   0.0156250
        k(   34) = (   0.3535534  -0.3535534  -0.3535534), wk =   0.0078125
        k(   35) = (   0.0000000   0.0000000   0.1767767), wk =   0.0117188
        k(   36) = (  -0.0883883   0.0883883   0.2651650), wk =   0.0468750
        k(   37) = (  -0.1767767   0.1767767   0.3535534), wk =   0.0468750
        k(   38) = (   0.4419417  -0.4419417  -0.2651650), wk =   0.0468750
        k(   39) = (   0.3535534  -0.3535534  -0.1767767), wk =   0.0468750
        k(   40) = (   0.2651650  -0.2651650  -0.0883883), wk =   0.0468750
        k(   41) = (   0.1767767  -0.1767767   0.0000000), wk =   0.0234375
        k(   42) = (   0.0000000   0.0000000   0.3535534), wk =   0.0117188
        k(   43) = (  -0.0883883   0.0883883   0.4419417), wk =   0.0468750
        k(   44) = (   0.5303301  -0.5303301  -0.1767767), wk =   0.0468750
        k(   45) = (   0.4419417  -0.4419417  -0.0883883), wk =   0.0468750
        k(   46) = (   0.3535534  -0.3535534   0.0000000), wk =   0.0234375
        k(   47) = (   0.0000000   0.0000000   0.5303301), wk =   0.0117188
        k(   48) = (   0.6187184  -0.6187184  -0.0883883), wk =   0.0468750
        k(   49) = (   0.5303301  -0.5303301   0.0000000), wk =   0.0234375
        k(   50) = (   0.0000000   0.0000000  -0.7071068), wk =   0.0058594
        k(   51) = (   0.0000000   0.1767767   0.3535534), wk =   0.0468750
        k(   52) = (   0.6187184  -0.4419417  -0.2651650), wk =   0.0937500
        k(   53) = (   0.5303301  -0.3535534  -0.1767767), wk =   0.0468750
        k(   54) = (   0.7071068  -0.5303301  -0.1767767), wk =   0.0468750
        k(   55) = (   0.6187184  -0.4419417  -0.0883883), wk =   0.0937500
        k(   56) = (   0.5303301  -0.3535534   0.0000000), wk =   0.0468750
        k(   57) = (   0.0000000   0.1767767  -0.7071068), wk =   0.0234375
        k(   58) = (   0.0000000   0.3535534  -0.7071068), wk =   0.0117188

     Dense  grid:     7239 G-vectors     FFT dimensions: (  27,  27,  27)

     Smooth grid:     5209 G-vectors     FFT dimensions: (  25,  25,  25)

     Largest allocated arrays     est. size (Mb)     dimensions
        Kohn-Sham Wavefunctions         0.02 Mb     (      92,   15)
        Atomic Hubbard wavefuncts       0.01 Mb     (      92,    5)
        NL pseudopotentials             0.04 Mb     (      92,   31)
        Each V/rho on FFT grid          0.09 Mb     (    2916,   2)
        Each G-vector array             0.01 Mb     (     905)
        G-vector shells                 0.00 Mb     (     118)
     Largest temporary arrays     est. size (Mb)     dimensions
        Auxiliary wavefunctions         0.08 Mb     (      92,   60)
        Each subspace H/S matrix        0.05 Mb     (      60,   60)
        Each <psi_i|beta_j> matrix      0.01 Mb     (      31,   15)
        Arrays for rho mixing           0.36 Mb     (    2916,    8)

     Check: negative/imaginary core charge=   -0.000058    0.000000

     Initial potential from superposition of free atoms

     starting charge   20.49992, renormalised to   21.00000
     Number of +U iterations with fixed ns =  0
     Starting occupations:
 --- enter write_ns ---
 LDA+U parameters:
U( 1)     =  3.00000000
alpha( 1) =  0.00000000
atom    1   Tr[ns(na)] (up, down, total) =   5.00000  0.00000  5.00000
   spin  1
    eigenvalues: 
  1.000  1.000  1.000  1.000  1.000
    eigenvectors:
  1.000  0.000  0.000  0.000  0.000
  0.000  1.000  0.000  0.000  0.000
  0.000  0.000  1.000  0.000  0.000
  0.000  0.000  0.000  1.000  0.000
  0.000  0.000  0.000  0.000  1.000
    occupations:
  1.000  0.000  0.000  0.000  0.000
  0.000  1.000  0.000  0.000  0.000
  0.000  0.000  1.000  0.000  0.000
  0.000  0.000  0.000  1.000  0.000
  0.000  0.000  0.000  0.000  1.000
   spin  2
    eigenvalues: 
  0.000  0.000  0.000  0.000  0.000
    eigenvectors:
  1.000  0.000  0.000  0.000  0.000
  0.000  1.000  0.000  0.000  0.000
  0.000  0.000  1.000  0.000  0.000
  0.000  0.000  0.000  1.000  0.000
  0.000  0.000  0.000  0.000  1.000
    occupations:
  0.000  0.000  0.000  0.000  0.000
  0.000  0.000  0.000  0.000  0.000
  0.000  0.000  0.000  0.000  0.000
  0.000  0.000  0.000  0.000  0.000
  0.000  0.000  0.000  0.000  0.000
atomic mag. moment =     5.000000
N of occupied +U levels =    5.000000
 --- exit write_ns ---
 Atomic wfc used for LDA+U Projector are NOT orthogonalized
     Starting wfc are   17 randomized atomic wfcs

     total cpu time spent up to now is        0.6 secs

     Self-consistent Calculation

     iteration #  1     ecut=    41.00 Ry     beta=0.30
     Davidson diagonalization with overlap
     ethr =  1.00E-02,  avg # of iterations =  2.9
 --- enter write_ns ---
 LDA+U parameters:
U( 1)     =  3.00000000
alpha( 1) =  0.00000000
atom    1   Tr[ns(na)] (up, down, total) =   4.98810  0.19947  5.18757
   spin  1
    eigenvalues: 
  0.997  0.997  0.998  0.998  0.998
    eigenvectors:
  0.263  0.737  0.000  0.000  0.000
  0.000  0.000  0.133  0.235  0.632
  0.000  0.000  0.304  0.331  0.365
  0.737  0.263  0.000  0.000  0.000
  0.000  0.000  0.563  0.433  0.003
    occupations:
  0.997 -0.000 -0.000  0.000  0.000
 -0.000  0.998 -0.000  0.000  0.000
 -0.000 -0.000  0.998  0.000  0.000
  0.000  0.000  0.000  0.997 -0.000
  0.000  0.000  0.000 -0.000  0.998
   spin  2
    eigenvalues: 
  0.021  0.021  0.021  0.068  0.068
    eigenvectors:
  0.000  0.000  0.000  0.383  0.617
  0.133  0.197  0.670  0.000  0.000
  0.290  0.381  0.330  0.000  0.000
  0.000  0.000  0.000  0.617  0.383
  0.577  0.422  0.000  0.000  0.000
    occupations:
  0.068 -0.000 -0.000  0.000  0.000
 -0.000  0.021 -0.000  0.000  0.000
 -0.000 -0.000  0.021  0.000  0.000
  0.000  0.000  0.000  0.068 -0.000
  0.000  0.000  0.000 -0.000  0.021
atomic mag. moment =     4.788637
N of occupied +U levels =    5.187569
 --- exit write_ns ---

     negative rho (up, down):  0.000E+00 2.249E-04

     Magnetic moment per site:
     atom:    1    charge:   12.8208    magn:   10.2723    constr:    0.0000
     atom:    2    charge:    5.7381    magn:    0.2018    constr:    0.0000

     total cpu time spent up to now is        1.5 secs

     total energy              =    -242.22722989 Ry
     Harris-Foulkes estimate   =    -240.13403432 Ry
     estimated scf accuracy    <       3.20144686 Ry

     total magnetization       =     5.00 Bohr mag/cell
     absolute magnetization    =     5.22 Bohr mag/cell

     iteration #  2     ecut=    41.00 Ry     beta=0.30
     Davidson diagonalization with overlap
     ethr =  1.00E-02,  avg # of iterations =  1.2

     negative rho (up, down):  0.000E+00 8.175E-04

     Magnetic moment per site:
     atom:    1    charge:   12.7030    magn:    4.5507    constr:    0.0000
     atom:    2    charge:    5.9656    magn:   -0.0408    constr:    0.0000

     total cpu time spent up to now is        2.2 secs

     total energy              =    -243.20388933 Ry
     Harris-Foulkes estimate   =    -242.26002870 Ry
     estimated scf accuracy    <       1.58147502 Ry

     total magnetization       =     5.00 Bohr mag/cell
     absolute magnetization    =     5.14 Bohr mag/cell

     iteration #  3     ecut=    41.00 Ry     beta=0.30
     Davidson diagonalization with overlap
     ethr =  7.53E-03,  avg # of iterations =  1.7

     negative rho (up, down):  0.000E+00 8.847E-04

     Magnetic moment per site:
     atom:    1    charge:   12.6378    magn:    4.3154    constr:    0.0000
     atom:    2    charge:    5.9484    magn:    0.0736    constr:    0.0000

     total cpu time spent up to now is        2.9 secs

     total energy              =    -243.26929784 Ry
     Harris-Foulkes estimate   =    -243.28186414 Ry
     estimated scf accuracy    <       0.04545693 Ry

     total magnetization       =     5.00 Bohr mag/cell
     absolute magnetization    =     5.00 Bohr mag/cell

     iteration #  4     ecut=    41.00 Ry     beta=0.30
     Davidson diagonalization with overlap
     ethr =  2.16E-04,  avg # of iterations =  2.1

     negative rho (up, down):  0.000E+00 9.044E-04

     Magnetic moment per site:
     atom:    1    charge:   12.6240    magn:    4.2159    constr:    0.0000
     atom:    2    charge:    5.9569    magn:    0.0917    constr:    0.0000

     total cpu time spent up to now is        3.7 secs

     total energy              =    -243.27612984 Ry
     Harris-Foulkes estimate   =    -243.27654816 Ry
     estimated scf accuracy    <       0.00345372 Ry

     total magnetization       =     5.00 Bohr mag/cell
     absolute magnetization    =     5.00 Bohr mag/cell

     iteration #  5     ecut=    41.00 Ry     beta=0.30
     Davidson diagonalization with overlap
     ethr =  1.64E-05,  avg # of iterations =  1.7

     negative rho (up, down):  0.000E+00 9.220E-04

     Magnetic moment per site:
     atom:    1    charge:   12.5908    magn:    4.2781    constr:    0.0000
     atom:    2    charge:    5.9655    magn:    0.1655    constr:    0.0000

     total cpu time spent up to now is        4.4 secs

     total energy              =    -243.27625368 Ry
     Harris-Foulkes estimate   =    -243.27631352 Ry
     estimated scf accuracy    <       0.00147556 Ry

     total magnetization       =     5.00 Bohr mag/cell
     absolute magnetization    =     5.00 Bohr mag/cell

     iteration #  6     ecut=    41.00 Ry     beta=0.30
     Davidson diagonalization with overlap
     ethr =  7.03E-06,  avg # of iterations =  2.1

     negative rho (up, down):  0.000E+00 9.218E-04

     Magnetic moment per site:
     atom:    1    charge:   12.5841    magn:    4.2807    constr:    0.0000
     atom:    2    charge:    5.9665    magn:    0.1818    constr:    0.0000

     total cpu time spent up to now is        5.1 secs

     total energy              =    -243.27658572 Ry
     Harris-Foulkes estimate   =    -243.27657060 Ry
     estimated scf accuracy    <       0.00006158 Ry

     total magnetization       =     5.00 Bohr mag/cell
     absolute magnetization    =     5.00 Bohr mag/cell

     iteration #  7     ecut=    41.00 Ry     beta=0.30
     Davidson diagonalization with overlap
     ethr =  2.93E-07,  avg # of iterations =  2.0

     negative rho (up, down):  0.000E+00 9.182E-04

     Magnetic moment per site:
     atom:    1    charge:   12.5842    magn:    4.2711    constr:    0.0000
     atom:    2    charge:    5.9662    magn:    0.1830    constr:    0.0000

     total cpu time spent up to now is        5.9 secs

     total energy              =    -243.27660322 Ry
     Harris-Foulkes estimate   =    -243.27660064 Ry
     estimated scf accuracy    <       0.00001239 Ry

     total magnetization       =     5.00 Bohr mag/cell
     absolute magnetization    =     5.00 Bohr mag/cell

     iteration #  8     ecut=    41.00 Ry     beta=0.30
     Davidson diagonalization with overlap
     ethr =  5.90E-08,  avg # of iterations =  1.8

     negative rho (up, down):  0.000E+00 9.116E-04

     Magnetic moment per site:
     atom:    1    charge:   12.5851    magn:    4.2692    constr:    0.0000
     atom:    2    charge:    5.9655    magn:    0.1856    constr:    0.0000

     total cpu time spent up to now is        6.6 secs

     total energy              =    -243.27660550 Ry
     Harris-Foulkes estimate   =    -243.27660494 Ry
     estimated scf accuracy    <       0.00000144 Ry

     total magnetization       =     5.00 Bohr mag/cell
     absolute magnetization    =     5.00 Bohr mag/cell

     iteration #  9     ecut=    41.00 Ry     beta=0.30
     Davidson diagonalization with overlap
     ethr =  6.88E-09,  avg # of iterations =  2.1

     negative rho (up, down):  0.000E+00 9.112E-04

     Magnetic moment per site:
     atom:    1    charge:   12.5850    magn:    4.2691    constr:    0.0000
     atom:    2    charge:    5.9655    magn:    0.1866    constr:    0.0000

     total cpu time spent up to now is        7.4 secs

     total energy              =    -243.27660608 Ry
     Harris-Foulkes estimate   =    -243.27660606 Ry
     estimated scf accuracy    <       0.00000022 Ry

     total magnetization       =     5.00 Bohr mag/cell
     absolute magnetization    =     5.00 Bohr mag/cell

     iteration # 10     ecut=    41.00 Ry     beta=0.30
     Davidson diagonalization with overlap
     ethr =  1.03E-09,  avg # of iterations =  2.1

     negative rho (up, down):  0.000E+00 9.122E-04

     Magnetic moment per site:
     atom:    1    charge:   12.5851    magn:    4.2690    constr:    0.0000
     atom:    2    charge:    5.9655    magn:    0.1868    constr:    0.0000

     total cpu time spent up to now is        8.1 secs

     total energy              =    -243.27660616 Ry
     Harris-Foulkes estimate   =    -243.27660613 Ry
     estimated scf accuracy    <       0.00000001 Ry

     total magnetization       =     5.00 Bohr mag/cell
     absolute magnetization    =     5.00 Bohr mag/cell

     iteration # 11     ecut=    41.00 Ry     beta=0.30
     Davidson diagonalization with overlap
     ethr =  5.70E-11,  avg # of iterations =  2.0

     negative rho (up, down):  0.000E+00 9.117E-04

     Magnetic moment per site:
     atom:    1    charge:   12.5851    magn:    4.2690    constr:    0.0000
     atom:    2    charge:    5.9655    magn:    0.1868    constr:    0.0000

     total cpu time spent up to now is        8.9 secs

     End of self-consistent calculation
 --- enter write_ns ---
 LDA+U parameters:
U( 1)     =  3.00000000
alpha( 1) =  0.00000000
atom    1   Tr[ns(na)] (up, down, total) =   4.99136  0.47008  5.46144
   spin  1
    eigenvalues: 
  0.997  0.997  0.999  0.999  0.999
    eigenvectors:
  0.242  0.758  0.000  0.000  0.000
  0.000  0.000  0.128  0.256  0.616
  0.000  0.000  0.288  0.333  0.379
  0.758  0.242  0.000  0.000  0.000
  0.000  0.000  0.585  0.411  0.004
    occupations:
  0.997 -0.000 -0.000  0.000  0.000
 -0.000  0.999 -0.000  0.000  0.000
 -0.000 -0.000  0.999  0.000  0.000
  0.000  0.000  0.000  0.997 -0.000
  0.000  0.000  0.000 -0.000  0.999
   spin  2
    eigenvalues: 
  0.053  0.053  0.053  0.155  0.155
    eigenvectors:
  0.000  0.000  0.000  0.271  0.729
  0.156  0.260  0.584  0.000  0.000
  0.315  0.275  0.410  0.000  0.000
  0.000  0.000  0.000  0.729  0.271
  0.529  0.465  0.006  0.000  0.000
    occupations:
  0.155 -0.000 -0.000  0.000  0.000
 -0.000  0.053 -0.000  0.000  0.000
 -0.000 -0.000  0.053  0.000  0.000
  0.000  0.000  0.000  0.155 -0.000
  0.000  0.000  0.000 -0.000  0.053
atomic mag. moment =     4.521288
N of occupied +U levels =    5.461440
 --- exit write_ns ---

 ------ SPIN UP ------------


          k = 0.0000 0.0000 0.0000 (   645 PWs)   bands (ev):

   -68.6783 -37.5214 -37.5214 -37.5214  -6.8509   8.0524   8.0524   8.0524
     8.6541   8.6541   9.5501   9.5501   9.5501  12.3237  26.5822

          k =-0.0884 0.0884 0.0884 (   655 PWs)   bands (ev):

   -68.6775 -37.5304 -37.5225 -37.5225  -6.7152   7.4430   7.7278   7.7278
     8.3007   8.3007   9.1910  10.4225  10.4225  13.3976  24.9981

          k =-0.1768 0.1768 0.1768 (   655 PWs)   bands (ev):

   -68.6766 -37.5519 -37.5253 -37.5253  -6.3692   5.9288   6.8351   6.8351
     8.5837   8.5837   9.3348  11.5238  11.5238  15.0345  22.5969

          k =-0.2652 0.2652 0.2652 (   664 PWs)   bands (ev):

   -68.6770 -37.5731 -37.5280 -37.5280  -5.9864   4.6279   6.2197   6.2197
     8.9160   8.9160   9.7592  12.3382  12.3382  16.0504  21.0176

          k = 0.3536-0.3536-0.3536 (   652 PWs)   bands (ev):

   -68.6774 -37.5818 -37.5291 -37.5291  -5.8128   4.1223   6.0044   6.0044
     9.0601   9.0601   9.9974  12.6444  12.6444  16.2260  20.6282

          k = 0.0000 0.0000 0.1768 (   665 PWs)   bands (ev):

   -68.6772 -37.5297 -37.5248 -37.5248  -6.6828   7.0513   7.8779   7.8779
     7.8830   8.7209   9.8148   9.8148  10.1450  13.8865  25.1919

          k =-0.0884 0.0884 0.2652 (   666 PWs)   bands (ev):

   -68.6761 -37.5456 -37.5284 -37.5272  -6.4401   6.0931   7.0942   7.3877
     8.1543   8.7691   9.5324  10.5466  11.1258  15.3169  23.4376

          k =-0.1768 0.1768 0.3536 (   656 PWs)   bands (ev):

   -68.6757 -37.5661 -37.5311 -37.5311  -6.1055   5.1044   6.3169   6.6603
     8.5184   9.0113   9.7040  11.4994  11.8982  16.5686  21.4353

          k = 0.4419-0.4419-0.2652 (   666 PWs)   bands (ev):

   -68.6757 -37.5785 -37.5350 -37.5314  -5.8744   4.4527   6.0371   6.1974
     8.8840   9.0955   9.9135  12.0517  12.2683  17.1079  20.5316

          k = 0.3536-0.3536-0.1768 (   663 PWs)   bands (ev):

   -68.6757 -37.5756 -37.5364 -37.5292  -5.9151   4.5675   6.1169   6.1980
     8.9090   9.0191   9.8750  11.6321  12.5950  16.9911  20.7076

          k = 0.2652-0.2652-0.0884 (   652 PWs)   bands (ev):

   -68.6758 -37.5595 -37.5343 -37.5258  -6.1955   5.4116   6.4262   6.6966
     8.5620   8.9231   9.6757  10.8295  12.3079  16.1044  21.9883

          k = 0.1768-0.1768 0.0000 (   658 PWs)   bands (ev):

   -68.6766 -37.5407 -37.5286 -37.5230  -6.5222   6.5799   7.0539   7.2997
     8.2642   8.7129   9.6920   9.9621  11.4886  14.6159  23.8444

          k = 0.0000 0.0000 0.3536 (   649 PWs)   bands (ev):

   -68.6750 -37.5493 -37.5329 -37.5329  -6.3730   5.7670   7.4838   7.7948
     7.7948   8.8839  10.0274  10.0274  10.3146  16.3314  23.8886

          k =-0.0884 0.0884 0.4419 (   671 PWs)   bands (ev):

   -68.6740 -37.5623 -37.5382 -37.5363  -6.2018   5.5022   6.8122   7.3923
     8.0847   9.1006   9.7559  10.4374  10.8261  17.3388  21.9675

          k = 0.5303-0.5303-0.1768 (   672 PWs)   bands (ev):

   -68.6730 -37.5716 -37.5463 -37.5367  -6.0178   5.2717   6.1902   6.7570
     8.4934   9.1828   9.7544  10.9936  11.3132  18.3223  20.5740

          k = 0.4419-0.4419-0.0884 (   676 PWs)   bands (ev):

   -68.6728 -37.5712 -37.5522 -37.5338  -5.9363   5.0444   6.1208   6.3463
     8.9114   9.0113   9.8534  10.6727  12.1497  18.8045  20.2410

          k = 0.3536-0.3536 0.0000 (   670 PWs)   bands (ev):

   -68.6740 -37.5652 -37.5479 -37.5293  -6.0138   5.0903   6.2428   6.3616
     8.7436   9.1156  10.1439  10.1668  12.5492  17.6494  21.5147

          k = 0.0000 0.0000 0.5303 (   664 PWs)   bands (ev):

   -68.6732 -37.5684 -37.5407 -37.5407  -6.2227   5.7389   7.0979   8.0889
     8.0889   9.0497   9.7343   9.7343  10.0062  17.6349  21.2522

          k = 0.6187-0.6187-0.0884 (   668 PWs)   bands (ev):

   -68.6722 -37.5727 -37.5470 -37.5417  -6.1554   5.9510   6.6574   7.6213
     8.2892   9.2712   9.5219  10.0311  10.1064  18.0731  20.7988

          k = 0.5303-0.5303 0.0000 (   670 PWs)   bands (ev):

   -68.6714 -37.5682 -37.5583 -37.5390  -6.0367   5.8455   6.0684   6.8757
     8.5834   9.1716   9.7043  10.1281  11.1986  19.0920  20.7834

          k = 0.0000 0.0000-0.7071 (   652 PWs)   bands (ev):

   -68.6724 -37.5761 -37.5438 -37.5438  -6.2112   6.1481   6.9417   8.4552
     8.4552   9.1193   9.3321   9.3321   9.5570  17.6837  20.7278

          k = 0.0000 0.1768 0.3536 (   662 PWs)   bands (ev):

   -68.6750 -37.5566 -37.5375 -37.5292  -6.2345   5.5390   6.7863   6.8577
     8.3671   9.0258   9.9530  10.0940  11.7376  16.5954  22.6450

          k = 0.6187-0.4419-0.2652 (   664 PWs)   bands (ev):

   -68.6739 -37.5690 -37.5440 -37.5328  -6.0150   5.0968   6.2457   6.4993
     8.6668   9.1171   9.8394  10.7105  12.0793  17.8144  21.0069

          k = 0.5303-0.3536-0.1768 (   676 PWs)   bands (ev):

   -68.6734 -37.5746 -37.5459 -37.5348  -5.9188   4.8884   6.1070   6.3111
     8.8903   9.0491   9.8260  11.1255  12.0330  18.4193  20.2409

          k = 0.7071-0.5303-0.1768 (   666 PWs)   bands (ev):

   -68.6727 -37.5683 -37.5459 -37.5396  -6.1137   5.6093   6.6236   6.9195
     8.5710   9.2043   9.7907   9.9098  11.0553  18.1695  21.1355

          k = 0.6187-0.4419-0.0884 (   671 PWs)   bands (ev):

   -68.6714 -37.5683 -37.5550 -37.5411  -6.0193   5.6976   6.1739   6.6160
     8.8305   9.1844   9.6467  10.1544  11.2789  19.2814  20.5130

          k = 0.5303-0.3536 0.0000 (   678 PWs)   bands (ev):

   -68.6718 -37.5660 -37.5577 -37.5377  -5.9779   5.3987   6.1765   6.3994
     8.9899   9.0335   9.8709  10.1203  11.7941  19.4107  20.4766

          k = 0.0000 0.1768-0.7071 (   670 PWs)   bands (ev):

   -68.6714 -37.5722 -37.5492 -37.5448  -6.1166   6.0936   6.5482   7.0194
     8.9316   9.3325   9.4414   9.4418  10.5626  18.5007  20.7527

          k = 0.0000 0.3536-0.7071 (   684 PWs)   bands (ev):

   -68.6705 -37.5615 -37.5615 -37.5459  -6.0192   6.1517   6.1517   6.2828
     9.3329   9.4271   9.4271   9.4572  11.1425  19.7697  21.0703

 ------ SPIN DOWN ----------


          k = 0.0000 0.0000 0.0000 (   645 PWs)   bands (ev):

   -63.4946 -32.4456 -32.4456 -32.4456  -6.4172   9.9148   9.9148   9.9148
    13.7611  15.1252  15.1252  15.1252  15.4244  15.4244  27.4895

          k =-0.0884 0.0884 0.0884 (   655 PWs)   bands (ev):

   -63.4933 -32.4572 -32.4470 -32.4470  -6.2879   9.0450   9.6962   9.6962
    14.5926  15.2644  15.2834  15.2834  15.7397  15.7397  26.4849

          k =-0.1768 0.1768 0.1768 (   655 PWs)   bands (ev):

   -63.4895 -32.4852 -32.4502 -32.4502  -5.9578   7.6054   9.2446   9.2446
    15.2094  15.6686  15.6686  16.4295  16.4654  16.4654  24.3896

          k =-0.2652 0.2652 0.2652 (   664 PWs)   bands (ev):

   -63.4846 -32.5134 -32.4536 -32.4536  -5.6004   6.5042   8.8657   8.8657
    15.7278  16.0882  16.0882  17.1708  17.1708  17.3983  22.7604

          k = 0.3536-0.3536-0.3536 (   652 PWs)   bands (ev):

   -63.4823 -32.5251 -32.4550 -32.4550  -5.4436   6.0965   8.7240   8.7240
    16.1536  16.2747  16.2747  17.4514  17.4725  17.4725  22.2955

          k = 0.0000 0.0000 0.1768 (   665 PWs)   bands (ev):

   -63.4930 -32.4565 -32.4496 -32.4496  -6.2466   8.7869   9.7060   9.7060
    14.6204  14.8681  15.4956  15.4956  15.5035  16.3197  26.6610

          k =-0.0884 0.0884 0.2652 (   666 PWs)   bands (ev):

   -63.4903 -32.4771 -32.4538 -32.4522  -5.9884   7.8048   9.2874   9.3892
    14.8078  15.4693  15.7732  15.8917  15.9607  17.3318  25.2327

          k =-0.1768 0.1768 0.3536 (   656 PWs)   bands (ev):

   -63.4861 -32.5036 -32.4572 -32.4566  -5.6446   6.8512   8.7723   8.9958
    15.1179  16.1661  16.1913  16.5709  16.5900  18.2521  23.2505

          k = 0.4419-0.4419-0.2652 (   666 PWs)   bands (ev):

   -63.4832 -32.5193 -32.4611 -32.4577  -5.4209   6.3271   8.5008   8.7493
    15.6996  16.2349  16.3320  16.9773  17.2264  18.6886  22.2369

          k = 0.3536-0.3536-0.1768 (   663 PWs)   bands (ev):

   -63.4838 -32.5156 -32.4629 -32.4549  -5.4696   6.4349   8.5663   8.7476
    15.7905  16.1203  16.1844  16.7096  17.4703  18.5051  22.4295

          k = 0.2652-0.2652-0.0884 (   652 PWs)   bands (ev):

   -63.4875 -32.4951 -32.4603 -32.4506  -5.7565   7.1389   8.9419   8.9883
    15.3509  15.7210  15.9679  16.1737  17.1268  17.5887  23.7986

          k = 0.1768-0.1768 0.0000 (   658 PWs)   bands (ev):

   -63.4914 -32.4708 -32.4538 -32.4474  -6.0929   8.1769   9.3741   9.4489
    15.1916  15.2055  15.3811  15.7165  16.3685  16.4108  25.5466

          k = 0.0000 0.0000 0.3536 (   649 PWs)   bands (ev):

   -63.4889 -32.4819 -32.4595 -32.4595  -5.8331   7.4202   9.3117   9.3117
    14.3008  15.4739  15.6990  16.1844  16.1844  18.3054  25.8993

          k =-0.0884 0.0884 0.4419 (   671 PWs)   bands (ev):

   -63.4862 -32.4985 -32.4654 -32.4639  -5.5755   6.9848   8.8530   9.0627
    14.3202  16.0320  16.0881  16.4227  16.4438  19.1049  23.8124

          k = 0.5303-0.5303-0.1768 (   672 PWs)   bands (ev):

   -63.4842 -32.5089 -32.4741 -32.4644  -5.3645   6.8086   8.1918   8.8135
    14.8382  16.3624  16.4702  16.6129  16.6874  19.9363  22.3727

          k = 0.4419-0.4419-0.0884 (   676 PWs)   bands (ev):

   -63.4840 -32.5069 -32.4812 -32.4606  -5.3301   6.8245   7.9157   8.7012
    15.5678  16.0756  16.2888  16.4597  17.2689  20.4200  22.0174

          k = 0.3536-0.3536 0.0000 (   670 PWs)   bands (ev):

   -63.4854 -32.5011 -32.4758 -32.4549  -5.4952   6.8693   8.3153   8.7717
    15.7276  15.9018  15.9723  16.2863  17.4685  19.1118  23.2286

          k = 0.0000 0.0000 0.5303 (   664 PWs)   bands (ev):

   -63.4846 -32.5062 -32.4697 -32.4697  -5.4340   6.8426   9.0158   9.0158
    13.7962  15.9011  16.0705  16.6029  16.6029  19.5383  22.8025

          k = 0.6187-0.6187-0.0884 (   668 PWs)   bands (ev):

   -63.4836 -32.5108 -32.4768 -32.4712  -5.3047   6.8747   8.5436   8.8828
    13.9970  16.1800  16.2746  16.6164  16.6348  20.0526  22.0814

          k = 0.5303-0.5303 0.0000 (   670 PWs)   bands (ev):

   -63.4838 -32.5026 -32.4893 -32.4674  -5.2626   7.2240   7.6705   8.7532
    14.7269  16.3493  16.4121  16.5032  16.7294  21.0959  22.0639

          k = 0.0000 0.0000-0.7071 (   652 PWs)   bands (ev):

   -63.4829 -32.5159 -32.4741 -32.4741  -5.2787   6.7789   8.9133   8.9133
    13.6027  15.9869  16.1863  16.6991  16.6991  19.8728  21.7700

          k = 0.0000 0.1768 0.3536 (   662 PWs)   bands (ev):

   -63.4876 -32.4913 -32.4641 -32.4547  -5.7280   7.2049   8.9621   9.0199
    14.8319  15.6983  16.0932  16.2490  16.5332  18.3384  24.5035

          k = 0.6187-0.4419-0.2652 (   664 PWs)   bands (ev):

   -63.4849 -32.5059 -32.4717 -32.4589  -5.4565   6.7881   8.3976   8.7523
    15.2019  16.1007  16.3236  16.4040  17.1183  19.3593  22.8167

          k = 0.5303-0.3536-0.1768 (   676 PWs)   bands (ev):

   -63.4837 -32.5121 -32.4738 -32.4615  -5.3409   6.6502   8.1440   8.6512
    15.6886  15.8539  16.4604  16.6434  17.1748  20.0054  21.9943

          k = 0.7071-0.5303-0.1768 (   666 PWs)   bands (ev):

   -63.4846 -32.5051 -32.4749 -32.4673  -5.3876   6.9084   8.5872   8.7052
    14.4310  16.0295  16.4481  16.5810  16.6076  19.8676  22.7896

          k = 0.6187-0.4419-0.0884 (   671 PWs)   bands (ev):

   -63.4841 -32.5030 -32.4852 -32.4690  -5.2750   7.1404   7.8942   8.5388
    15.0046  16.0635  16.3224  16.6259  16.8150  21.0598  22.1829

          k = 0.5303-0.3536 0.0000 (   678 PWs)   bands (ev):

   -63.4843 -32.4997 -32.4882 -32.4647  -5.3034   7.0959   7.8159   8.5580
    15.6184  15.7000  16.2693  16.5261  17.0964  21.0178  22.3849

          k = 0.0000 0.1768-0.7071 (   670 PWs)   bands (ev):

   -63.4836 -32.5090 -32.4795 -32.4740  -5.2590   7.0080   8.4532   8.5209
    14.2762  16.1339  16.4308  16.4950  16.6998  20.5615  21.9314

          k = 0.0000 0.3536-0.7071 (   684 PWs)   bands (ev):

   -63.4842 -32.4935 -32.4935 -32.4739  -5.2390   7.6347   7.6347   8.1743
    15.5345  15.5345  16.1750  16.7006  16.7824  21.7640  22.6483

     the Fermi energy is    12.7944 ev

!    total energy              =    -243.27660619 Ry
     Harris-Foulkes estimate   =    -243.27660616 Ry
     estimated scf accuracy    <          4.0E-10 Ry

     The total energy is the sum of the following terms:

     one-electron contribution =    -110.49636577 Ry
     hartree contribution      =      66.01083108 Ry
     xc contribution           =     -33.77137692 Ry
     ewald contribution        =    -165.06619010 Ry
     Hubbard energy            =       0.04652661 Ry
     smearing contrib. (-TS)   =      -0.00003110 Ry

     total magnetization       =     5.00 Bohr mag/cell
     absolute magnetization    =     5.00 Bohr mag/cell

     convergence has been achieved in  11 iterations

     Forces acting on atoms (Ry/au):


     negative rho (up, down):  0.000E+00 9.117E-04
     atom    1 type  1   force =   0.00000000E+00  0.00000000E+00  0.00000000E+00
     atom    2 type  2   force =   0.18593630E-30 -0.18593630E-30  0.00000000E+00

     Total force =     0.000000     Total SCF correction =     0.000000


     entering subroutine stress ...


     negative rho (up, down):  0.000E+00 9.117E-04
          total   stress  (Ry/bohr**3)                   (kbar)     P=   24.79
   0.0001685335   0.0000000000   0.0000000000         24.79      0.00      0.00
   0.0000000000   0.0001685335   0.0000000000          0.00     24.79      0.00
   0.0000000000   0.0000000000   0.0001685335          0.00      0.00     24.79


     Writing output data file mno_fm.in.vol2.save

     init_run     :      0.46s CPU      0.47s WALL (       1 calls)
     electrons    :      8.13s CPU      8.25s WALL (       1 calls)
     forces       :      0.20s CPU      0.20s WALL (       1 calls)
     stress       :      1.13s CPU      1.14s WALL (       1 calls)

     Called by init_run:
     wfcinit      :      0.28s CPU      0.29s WALL (       1 calls)
     potinit      :      0.02s CPU      0.02s WALL (       1 calls)

     Called by electrons:
     c_bands      :      6.64s CPU      6.72s WALL (      11 calls)
     sum_band     :      1.20s CPU      1.21s WALL (      11 calls)
     v_of_rho     :      0.15s CPU      0.15s WALL (      12 calls)
     newd         :      0.10s CPU      0.10s WALL (      12 calls)
     mix_rho      :      0.07s CPU      0.07s WALL (      11 calls)

     Called by c_bands:
     init_us_2    :      0.20s CPU      0.18s WALL (    2088 calls)
     cegterg      :      6.44s CPU      6.51s WALL (     638 calls)

     Called by *egterg:
     h_psi        :      4.43s CPU      4.48s WALL (    1946 calls)
     s_psi        :      0.28s CPU      0.23s WALL (    2584 calls)
     g_psi        :      0.01s CPU      0.01s WALL (    1250 calls)
     cdiaghg      :      1.24s CPU      1.30s WALL (    1888 calls)

     Called by h_psi:
     add_vuspsi   :      0.15s CPU      0.17s WALL (    1946 calls)
     vhpsi        :      0.08s CPU      0.10s WALL (    1946 calls)

     General routines
     calbec       :      0.87s CPU      0.90s WALL (   11200 calls)
     fft          :      0.10s CPU      0.10s WALL (     406 calls)
     ffts         :      0.03s CPU      0.04s WALL (     270 calls)
     fftw         :      4.44s CPU      4.42s WALL (   55312 calls)
     interpolate  :      0.01s CPU      0.02s WALL (      46 calls)
     davcio       :      0.00s CPU      0.00s WALL (      58 calls)

     Parallel routines
     fft_scatter  :      1.73s CPU      1.67s WALL (   55988 calls)
     Hubbard U routines
     new_ns       :      0.04s CPU      0.04s WALL (      11 calls)
     vhpsi        :      0.08s CPU      0.10s WALL (    1946 calls)
     force_hub    :      0.11s CPU      0.11s WALL (       1 calls)
     stres_hub    :      0.89s CPU      0.90s WALL (       1 calls)

     PWSCF        :    10.40s CPU        10.62s WALL


   This run was terminated on:   9:53:41   9Mar2018            

=------------------------------------------------------------------------------=
   JOB DONE.
=------------------------------------------------------------------------------=
