
     Program PWSCF v.5.1 starts on  9Mar2018 at  9:52:53 

     This program is part of the open-source Quantum ESPRESSO suite
     for quantum simulation of materials; please cite
         "P. Giannozzi et al., J. Phys.:Condens. Matter 21 395502 (2009);
          URL http://www.quantum-espresso.org", 
     in publications or presentations arising from this work. More details at
     http://www.quantum-espresso.org/quote

     Parallel version (MPI), running on     8 processors
     R & G space division:  proc/nbgrp/npool/nimage =       8
     Reading input from /tmp/mno_fm.in.sxy.7442/mno_fm.in.sxy.t
Warning: card &IONS ignored
Warning: card   ION_DYNAMICS='BFGS', ignored
Warning: card / ignored
Warning: card &CELL ignored
Warning: card  CELL_DYNAMICS = 'BFGS' ignored
Warning: card / ignored

     Current dimensions of program PWSCF are:
     Max number of different atomic species (ntypx) = 10
     Max number of k-points (npk) =  40000
     Max angular momentum in pseudopotentials (lmaxx) =  3
 kfg - two_fermi_energies  F

     Subspace diagonalization in iterative solution of the eigenvalue problem:
     a serial algorithm will be used


     Parallelization info
     --------------------
     sticks:   dense  smooth     PW     G-vecs:    dense   smooth      PW
     Min          62      52     17                  917      672     132
     Max          63      53     18                  921      684     134
     Sum         499     417    139                 7351     5425    1067

     Generating pointlists ...
     new r_m :   0.2902 (alat units)  1.7490 (a.u.) for type    1
     new r_m :   0.2902 (alat units)  1.7490 (a.u.) for type    2


     bravais-lattice index     =            0
     lattice parameter (alat)  =     6.026413135  a.u.
     unit-cell volume          =     152.4589 (a.u.)^3
     number of atoms/cell      =            2
     number of atomic types    =            2
     number of electrons       =        21.00
     number of Kohn-Sham states=           15
     kinetic-energy cutoff     =      41.0000  Ry
     charge density cutoff     =     200.0000  Ry
     convergence threshold     =      1.0E-08
     mixing beta               =       0.3000
     number of iterations used =            8  local-TF  mixing
     Exchange-correlation      = SLA  PW   PSX  PSC ( 1  4 10  8 0)
     A smooth kinetic-energy cutoff is imposed at      40.0000 Ry
     height of the smooth step-function =             800.0000 Ry
     width of the smooth step-function  =               1.0000 Ry


     celldm(1)=   6.026413  celldm(2)=   0.000000  celldm(3)=   0.000000
     celldm(4)=   0.000000  celldm(5)=   0.000000  celldm(6)=   0.000000

     crystal axes: (cart. coord. in units of alat)
               a(1) = (   0.707106781187   0.707106781187   0.000000000000 )  
               a(2) = (   0.703588837002   0.003517944185   0.703588837002 )  
               a(3) = (   0.003517944185   0.703588837002   0.703588837002 )  

     reciprocal axes: (cart. coord. in units 2 pi/alat)
               b(1) = (  0.707107  0.707107 -0.710642 )  
               b(2) = (  0.714213 -0.714213  0.710642 )  
               b(3) = ( -0.714213  0.714213  0.710642 )  


     PseudoPot. # 1 for Mn read from file:
     /users/kfg/psuedo/gbrv_1.5/mn.pbesol.UPF
     MD5 check sum: 0716d5f563e6e95a34f9080f4c78c109
     Pseudo is Ultrasoft + core correction, Zval = 15.0
     Generated by new atomic code, or converted to UPF format
     Using radial grid of  859 points,  6 beta functions with: 
                l(1) =   0
                l(2) =   0
                l(3) =   1
                l(4) =   1
                l(5) =   2
                l(6) =   2
     Q(r) pseudized with  8 coefficients,  rinner =    0.950   0.950   0.950
                                                       0.950   0.950

     PseudoPot. # 2 for O  read from file:
     /users/kfg/psuedo/gbrv_1.5/o.pbesol.UPF
     MD5 check sum: 501638753501ef6325af9037351f7734
     Pseudo is Ultrasoft + core correction, Zval =  6.0
     Generated by new atomic code, or converted to UPF format
     Using radial grid of  737 points,  5 beta functions with: 
                l(1) =   0
                l(2) =   0
                l(3) =   1
                l(4) =   1
                l(5) =   2
     Q(r) pseudized with  8 coefficients,  rinner =    0.900   0.900   0.900
                                                       0.900   0.900

     atomic species   valence    mass     pseudopotential
        Mn            15.00    54.90000     Mn( 1.00)
        O              6.00    15.99900     O ( 1.00)

     Starting magnetic structure 
     atomic species   magnetization
        Mn           1.000
        O            0.000


     Simplified LDA+U calculation (l_max = 2) with parameters (eV):
     atomic species    L          U    alpha       J0     beta
        Mn             2     3.0000   0.0000   0.0000   0.0000



      8 Sym. Ops., with inversion, found



   Cartesian axes

     site n.     atom                  positions (alat units)
         1           Mn  tau(   1) = (    0.00000000000    0.00000000000    0.00000000000  )
         2           O   tau(   2) = (    0.70710678119    0.70710678119    0.70358883700  )

     number of k points=   190  gaussian smearing, width (Ry)=  0.0100

     Number of k-points >= 100: set verbosity='high' to print them.

     Dense  grid:     7351 G-vectors     FFT dimensions: (  27,  27,  27)

     Smooth grid:     5425 G-vectors     FFT dimensions: (  25,  25,  25)

     Largest allocated arrays     est. size (Mb)     dimensions
        Kohn-Sham Wavefunctions         0.02 Mb     (      96,   15)
        Atomic Hubbard wavefuncts       0.01 Mb     (      96,    5)
        NL pseudopotentials             0.05 Mb     (      96,   31)
        Each V/rho on FFT grid          0.09 Mb     (    2916,   2)
        Each G-vector array             0.01 Mb     (     918)
        G-vector shells                 0.01 Mb     (     703)
     Largest temporary arrays     est. size (Mb)     dimensions
        Auxiliary wavefunctions         0.09 Mb     (      96,   60)
        Each subspace H/S matrix        0.05 Mb     (      60,   60)
        Each <psi_i|beta_j> matrix      0.01 Mb     (      31,   15)
        Arrays for rho mixing           0.36 Mb     (    2916,    8)

     Check: negative/imaginary core charge=   -0.000057    0.000000

     Initial potential from superposition of free atoms

     starting charge   20.49992, renormalised to   21.00000
     Number of +U iterations with fixed ns =  0
     Starting occupations:
 --- enter write_ns ---
 LDA+U parameters:
U( 1)     =  3.00000000
alpha( 1) =  0.00000000
atom    1   Tr[ns(na)] (up, down, total) =   5.00000  0.00000  5.00000
   spin  1
    eigenvalues: 
  1.000  1.000  1.000  1.000  1.000
    eigenvectors:
  1.000  0.000  0.000  0.000  0.000
  0.000  1.000  0.000  0.000  0.000
  0.000  0.000  1.000  0.000  0.000
  0.000  0.000  0.000  1.000  0.000
  0.000  0.000  0.000  0.000  1.000
    occupations:
  1.000  0.000  0.000  0.000  0.000
  0.000  1.000  0.000  0.000  0.000
  0.000  0.000  1.000  0.000  0.000
  0.000  0.000  0.000  1.000  0.000
  0.000  0.000  0.000  0.000  1.000
   spin  2
    eigenvalues: 
  0.000  0.000  0.000  0.000  0.000
    eigenvectors:
  1.000  0.000  0.000  0.000  0.000
  0.000  1.000  0.000  0.000  0.000
  0.000  0.000  1.000  0.000  0.000
  0.000  0.000  0.000  1.000  0.000
  0.000  0.000  0.000  0.000  1.000
    occupations:
  0.000  0.000  0.000  0.000  0.000
  0.000  0.000  0.000  0.000  0.000
  0.000  0.000  0.000  0.000  0.000
  0.000  0.000  0.000  0.000  0.000
  0.000  0.000  0.000  0.000  0.000
atomic mag. moment =     5.000000
N of occupied +U levels =    5.000000
 --- exit write_ns ---
 Atomic wfc used for LDA+U Projector are NOT orthogonalized
     Starting wfc are   17 randomized atomic wfcs

     total cpu time spent up to now is        1.8 secs

     Self-consistent Calculation

     iteration #  1     ecut=    41.00 Ry     beta=0.30
     Davidson diagonalization with overlap
     ethr =  1.00E-02,  avg # of iterations =  2.8
 --- enter write_ns ---
 LDA+U parameters:
U( 1)     =  3.00000000
alpha( 1) =  0.00000000
atom    1   Tr[ns(na)] (up, down, total) =   4.98836  0.19369  5.18205
   spin  1
    eigenvalues: 
  0.997  0.997  0.998  0.998  0.998
    eigenvectors:
  0.000  1.000  0.000  0.000  0.000
  0.000  0.000  0.000  0.500  0.500
  0.000  0.000  0.000  0.500  0.500
  1.000  0.000  0.000  0.000  0.000
  0.000  0.000  1.000  0.000  0.000
    occupations:
  0.997 -0.000 -0.000 -0.000 -0.000
 -0.000  0.998 -0.000  0.000  0.000
 -0.000 -0.000  0.998  0.000  0.000
 -0.000  0.000  0.000  0.997 -0.000
 -0.000  0.000  0.000 -0.000  0.998
   spin  2
    eigenvalues: 
  0.021  0.021  0.021  0.066  0.066
    eigenvectors:
  0.000  0.000  0.000  0.000  1.000
  0.500  0.000  0.500  0.000  0.000
  0.500  0.000  0.500  0.000  0.000
  0.000  0.000  0.000  1.000  0.000
  0.000  1.000  0.000  0.000  0.000
    occupations:
  0.066 -0.000 -0.000 -0.000 -0.000
 -0.000  0.021  0.000  0.000  0.000
 -0.000  0.000  0.021  0.000  0.000
 -0.000  0.000  0.000  0.066 -0.000
 -0.000  0.000  0.000 -0.000  0.021
atomic mag. moment =     4.794672
N of occupied +U levels =    5.182052
 --- exit write_ns ---

     negative rho (up, down):  0.000E+00 2.276E-04

     Magnetic moment per site:
     atom:    1    charge:   12.8371    magn:   10.2877    constr:    0.0000
     atom:    2    charge:    5.7474    magn:    0.1983    constr:    0.0000

     total cpu time spent up to now is        5.8 secs

     total energy              =    -242.22847779 Ry
     Harris-Foulkes estimate   =    -240.12170797 Ry
     estimated scf accuracy    <       3.20334578 Ry

     total magnetization       =     5.00 Bohr mag/cell
     absolute magnetization    =     5.23 Bohr mag/cell

     iteration #  2     ecut=    41.00 Ry     beta=0.30
     Davidson diagonalization with overlap
     ethr =  1.00E-02,  avg # of iterations =  1.2

     negative rho (up, down):  0.000E+00 8.293E-04

     Magnetic moment per site:
     atom:    1    charge:   12.7184    magn:    4.5612    constr:    0.0000
     atom:    2    charge:    5.9750    magn:   -0.0449    constr:    0.0000

     total cpu time spent up to now is        8.7 secs

     total energy              =    -243.20475837 Ry
     Harris-Foulkes estimate   =    -242.26146709 Ry
     estimated scf accuracy    <       1.58249865 Ry

     total magnetization       =     5.00 Bohr mag/cell
     absolute magnetization    =     5.15 Bohr mag/cell

     iteration #  3     ecut=    41.00 Ry     beta=0.30
     Davidson diagonalization with overlap
     ethr =  7.54E-03,  avg # of iterations =  1.6

     negative rho (up, down):  0.000E+00 8.994E-04

     Magnetic moment per site:
     atom:    1    charge:   12.6521    magn:    4.3231    constr:    0.0000
     atom:    2    charge:    5.9586    magn:    0.0677    constr:    0.0000

     total cpu time spent up to now is       11.9 secs

     total energy              =    -243.26941674 Ry
     Harris-Foulkes estimate   =    -243.28226329 Ry
     estimated scf accuracy    <       0.04587186 Ry

     total magnetization       =     5.00 Bohr mag/cell
     absolute magnetization    =     5.00 Bohr mag/cell

     iteration #  4     ecut=    41.00 Ry     beta=0.30
     Davidson diagonalization with overlap
     ethr =  2.18E-04,  avg # of iterations =  2.1

     negative rho (up, down):  0.000E+00 9.192E-04

     Magnetic moment per site:
     atom:    1    charge:   12.6384    magn:    4.2263    constr:    0.0000
     atom:    2    charge:    5.9673    magn:    0.0853    constr:    0.0000

     total cpu time spent up to now is       15.3 secs

     total energy              =    -243.27629447 Ry
     Harris-Foulkes estimate   =    -243.27676104 Ry
     estimated scf accuracy    <       0.00357183 Ry

     total magnetization       =     5.00 Bohr mag/cell
     absolute magnetization    =     5.00 Bohr mag/cell

     iteration #  5     ecut=    41.00 Ry     beta=0.30
     Davidson diagonalization with overlap
     ethr =  1.70E-05,  avg # of iterations =  1.9

     negative rho (up, down):  0.000E+00 9.381E-04

     Magnetic moment per site:
     atom:    1    charge:   12.6042    magn:    4.2911    constr:    0.0000
     atom:    2    charge:    5.9763    magn:    0.1594    constr:    0.0000

     total cpu time spent up to now is       18.3 secs

     total energy              =    -243.27639834 Ry
     Harris-Foulkes estimate   =    -243.27648181 Ry
     estimated scf accuracy    <       0.00154818 Ry

     total magnetization       =     5.00 Bohr mag/cell
     absolute magnetization    =     5.00 Bohr mag/cell

     iteration #  6     ecut=    41.00 Ry     beta=0.30
     Davidson diagonalization with overlap
     ethr =  7.37E-06,  avg # of iterations =  2.1

     negative rho (up, down):  0.000E+00 9.380E-04

     Magnetic moment per site:
     atom:    1    charge:   12.5972    magn:    4.2933    constr:    0.0000
     atom:    2    charge:    5.9773    magn:    0.1757    constr:    0.0000

     total cpu time spent up to now is       21.6 secs

     total energy              =    -243.27674027 Ry
     Harris-Foulkes estimate   =    -243.27672562 Ry
     estimated scf accuracy    <       0.00006396 Ry

     total magnetization       =     5.00 Bohr mag/cell
     absolute magnetization    =     5.00 Bohr mag/cell

     iteration #  7     ecut=    41.00 Ry     beta=0.30
     Davidson diagonalization with overlap
     ethr =  3.05E-07,  avg # of iterations =  2.0

     negative rho (up, down):  0.000E+00 9.343E-04

     Magnetic moment per site:
     atom:    1    charge:   12.5973    magn:    4.2834    constr:    0.0000
     atom:    2    charge:    5.9770    magn:    0.1770    constr:    0.0000

     total cpu time spent up to now is       24.9 secs

     total energy              =    -243.27675854 Ry
     Harris-Foulkes estimate   =    -243.27675573 Ry
     estimated scf accuracy    <       0.00001228 Ry

     total magnetization       =     5.00 Bohr mag/cell
     absolute magnetization    =     5.00 Bohr mag/cell

     iteration #  8     ecut=    41.00 Ry     beta=0.30
     Davidson diagonalization with overlap
     ethr =  5.85E-08,  avg # of iterations =  2.0

     negative rho (up, down):  0.000E+00 9.274E-04

     Magnetic moment per site:
     atom:    1    charge:   12.5982    magn:    4.2816    constr:    0.0000
     atom:    2    charge:    5.9763    magn:    0.1797    constr:    0.0000

     total cpu time spent up to now is       27.8 secs

     total energy              =    -243.27676086 Ry
     Harris-Foulkes estimate   =    -243.27676028 Ry
     estimated scf accuracy    <       0.00000147 Ry

     total magnetization       =     5.00 Bohr mag/cell
     absolute magnetization    =     5.00 Bohr mag/cell

     iteration #  9     ecut=    41.00 Ry     beta=0.30
     Davidson diagonalization with overlap
     ethr =  7.00E-09,  avg # of iterations =  2.1

     negative rho (up, down):  0.000E+00 9.270E-04

     Magnetic moment per site:
     atom:    1    charge:   12.5981    magn:    4.2814    constr:    0.0000
     atom:    2    charge:    5.9763    magn:    0.1806    constr:    0.0000

     total cpu time spent up to now is       30.5 secs

     total energy              =    -243.27676144 Ry
     Harris-Foulkes estimate   =    -243.27676142 Ry
     estimated scf accuracy    <       0.00000023 Ry

     total magnetization       =     5.00 Bohr mag/cell
     absolute magnetization    =     5.00 Bohr mag/cell

     iteration # 10     ecut=    41.00 Ry     beta=0.30
     Davidson diagonalization with overlap
     ethr =  1.07E-09,  avg # of iterations =  2.1

     negative rho (up, down):  0.000E+00 9.282E-04

     Magnetic moment per site:
     atom:    1    charge:   12.5982    magn:    4.2813    constr:    0.0000
     atom:    2    charge:    5.9763    magn:    0.1808    constr:    0.0000

     total cpu time spent up to now is       33.4 secs

     total energy              =    -243.27676153 Ry
     Harris-Foulkes estimate   =    -243.27676150 Ry
     estimated scf accuracy    <       0.00000001 Ry

     total magnetization       =     5.00 Bohr mag/cell
     absolute magnetization    =     5.00 Bohr mag/cell

     iteration # 11     ecut=    41.00 Ry     beta=0.30
     Davidson diagonalization with overlap
     ethr =  5.73E-11,  avg # of iterations =  2.0

     negative rho (up, down):  0.000E+00 9.277E-04

     Magnetic moment per site:
     atom:    1    charge:   12.5982    magn:    4.2813    constr:    0.0000
     atom:    2    charge:    5.9763    magn:    0.1808    constr:    0.0000

     total cpu time spent up to now is       35.8 secs

     End of self-consistent calculation
 --- enter write_ns ---
 LDA+U parameters:
U( 1)     =  3.00000000
alpha( 1) =  0.00000000
atom    1   Tr[ns(na)] (up, down, total) =   4.99181  0.46006  5.45187
   spin  1
    eigenvalues: 
  0.997  0.997  0.999  0.999  0.999
    eigenvectors:
  0.000  1.000  0.000  0.000  0.000
  0.000  0.000  0.000  0.500  0.500
  0.000  0.000  0.000  0.500  0.500
  1.000  0.000  0.000  0.000  0.000
  0.000  0.000  1.000  0.000  0.000
    occupations:
  0.997 -0.000 -0.000 -0.000 -0.000
 -0.000  0.999  0.000  0.000  0.000
 -0.000  0.000  0.999  0.000  0.000
 -0.000  0.000  0.000  0.997 -0.000
 -0.000  0.000  0.000 -0.000  0.999
   spin  2
    eigenvalues: 
  0.052  0.052  0.052  0.152  0.152
    eigenvectors:
  0.000  0.000  0.000  0.000  1.000
  0.500  0.000  0.500  0.000  0.000
  0.500  0.000  0.500  0.000  0.000
  0.000  0.000  0.000  1.000  0.000
  0.000  1.000  0.000  0.000  0.000
    occupations:
  0.152 -0.000 -0.000 -0.000 -0.001
 -0.000  0.052  0.000  0.000  0.000
 -0.000  0.000  0.052  0.000  0.000
 -0.000  0.000  0.000  0.152 -0.000
 -0.001  0.000  0.000 -0.000  0.052
atomic mag. moment =     4.531753
N of occupied +U levels =    5.451872
 --- exit write_ns ---

     Number of k-points >= 100: set verbosity='high' to print the bands.

     the Fermi energy is    12.4889 ev

!    total energy              =    -243.27676156 Ry
     Harris-Foulkes estimate   =    -243.27676153 Ry
     estimated scf accuracy    <          2.4E-10 Ry

     The total energy is the sum of the following terms:

     one-electron contribution =    -111.78277075 Ry
     hartree contribution      =      66.45538236 Ry
     xc contribution           =     -33.75249353 Ry
     ewald contribution        =    -164.24247458 Ry
     Hubbard energy            =       0.04562596 Ry
     smearing contrib. (-TS)   =      -0.00003101 Ry

     total magnetization       =     5.00 Bohr mag/cell
     absolute magnetization    =     5.00 Bohr mag/cell

     convergence has been achieved in  11 iterations

     Forces acting on atoms (Ry/au):


     negative rho (up, down):  0.000E+00 9.277E-04
     atom    1 type  1   force =   0.00000000E+00  0.00000000E+00  0.00000000E+00
     atom    2 type  2   force =   0.00000000E+00  0.00000000E+00  0.28029897E-30

     Total force =     0.000000     Total SCF correction =     0.000000


     entering subroutine stress ...


     negative rho (up, down):  0.000E+00 9.277E-04
          total   stress  (Ry/bohr**3)                   (kbar)     P=    1.01
   0.0000070641  -0.0000488087  -0.0000000000          1.04     -7.18     -0.00
  -0.0000488087   0.0000070641   0.0000000000         -7.18      1.04      0.00
  -0.0000000000  -0.0000000000   0.0000065020         -0.00     -0.00      0.96


     Writing output data file mno_fm.in.sxy.save

     init_run     :      1.63s CPU      1.68s WALL (       1 calls)
     electrons    :     32.87s CPU     34.00s WALL (       1 calls)
     forces       :      0.60s CPU      0.61s WALL (       1 calls)
     stress       :      3.50s CPU      3.56s WALL (       1 calls)

     Called by init_run:
     wfcinit      :      1.29s CPU      1.32s WALL (       1 calls)
     potinit      :      0.07s CPU      0.07s WALL (       1 calls)

     Called by electrons:
     c_bands      :     27.93s CPU     28.93s WALL (      11 calls)
     sum_band     :      4.50s CPU      4.62s WALL (      11 calls)
     v_of_rho     :      0.18s CPU      0.18s WALL (      12 calls)
     newd         :      0.19s CPU      0.18s WALL (      12 calls)
     mix_rho      :      0.08s CPU      0.09s WALL (      11 calls)

     Called by c_bands:
     init_us_2    :      0.61s CPU      0.64s WALL (    6840 calls)
     cegterg      :     26.93s CPU     27.97s WALL (    2090 calls)

     Called by *egterg:
     h_psi        :     18.54s CPU     19.26s WALL (    6442 calls)
     s_psi        :      1.09s CPU      1.06s WALL (    8532 calls)
     g_psi        :      0.04s CPU      0.05s WALL (    4162 calls)
     cdiaghg      :      5.32s CPU      5.55s WALL (    6252 calls)

     Called by h_psi:
     add_vuspsi   :      0.74s CPU      0.81s WALL (    6442 calls)
     vhpsi        :      0.42s CPU      0.48s WALL (    6442 calls)

     General routines
     calbec       :      3.24s CPU      3.36s WALL (   36824 calls)
     fft          :      0.13s CPU      0.14s WALL (     406 calls)
     ffts         :      0.06s CPU      0.04s WALL (     270 calls)
     fftw         :     18.03s CPU     18.65s WALL (  181682 calls)
     interpolate  :      0.02s CPU      0.02s WALL (      46 calls)
     davcio       :      0.00s CPU      0.00s WALL (     190 calls)

     Parallel routines
     fft_scatter  :      6.62s CPU      7.05s WALL (  182358 calls)
     Hubbard U routines
     new_ns       :      0.13s CPU      0.14s WALL (      11 calls)
     vhpsi        :      0.42s CPU      0.48s WALL (    6442 calls)
     force_hub    :      0.34s CPU      0.35s WALL (       1 calls)
     stres_hub    :      2.86s CPU      2.92s WALL (       1 calls)

     PWSCF        :    39.69s CPU        41.01s WALL


   This run was terminated on:   9:53:34   9Mar2018            

=------------------------------------------------------------------------------=
   JOB DONE.
=------------------------------------------------------------------------------=
