
     Program PWSCF v.5.1 starts on 17Aug2017 at 10:35:21 

     This program is part of the open-source Quantum ESPRESSO suite
     for quantum simulation of materials; please cite
         "P. Giannozzi et al., J. Phys.:Condens. Matter 21 395502 (2009);
          URL http://www.quantum-espresso.org", 
     in publications or presentations arising from this work. More details at
     http://www.quantum-espresso.org/quote

     Parallel version (MPI), running on     8 processors
     R & G space division:  proc/nbgrp/npool/nimage =       8
     Reading input from /tmp/mno_fm.scf.in.super.222.sub.05.27080/mno_fm.scf.in.super.222.sub.05.t
Warning: card &IONS ignored
Warning: card   ION_DYNAMICS='BFGS', ignored
Warning: card / ignored
Warning: card &CELL ignored
Warning: card  CELL_DYNAMICS = 'BFGS' ignored
Warning: card / ignored

     Current dimensions of program PWSCF are:
     Max number of different atomic species (ntypx) = 10
     Max number of k-points (npk) =  40000
     Max angular momentum in pseudopotentials (lmaxx) =  3
 kfg - two_fermi_energies  T

     Subspace diagonalization in iterative solution of the eigenvalue problem:
     a serial algorithm will be used


     Parallelization info
     --------------------
     sticks:   dense  smooth     PW     G-vecs:    dense   smooth      PW
     Min         244     203     58                 7358     5464     848
     Max         245     204     59                 7360     5478     849
     Sum        1959    1625    467                58875    43769    6785

     Generating pointlists ...
     new r_m :   0.1410 (alat units)  1.6862 (a.u.) for type    1
     new r_m :   0.1426 (alat units)  1.7055 (a.u.) for type    2
     new r_m :   0.1410 (alat units)  1.6862 (a.u.) for type    3


     bravais-lattice index     =            0
     lattice parameter (alat)  =    11.957182251  a.u.
     unit-cell volume          =    1233.1332 (a.u.)^3
     number of atoms/cell      =           16
     number of atomic types    =            3
     number of electrons       =       168.00 (up:  89.00, down:  79.00)
     number of Kohn-Sham states=          107
     kinetic-energy cutoff     =      41.0000  Ry
     charge density cutoff     =     200.0000  Ry
     convergence threshold     =      1.0E-08
     mixing beta               =       0.3000
     number of iterations used =            8  local-TF  mixing
     Exchange-correlation      = SLA  PW   PSX  PSC ( 1  4 10  8 0)
     A smooth kinetic-energy cutoff is imposed at      40.0000 Ry
     height of the smooth step-function =             800.0000 Ry
     width of the smooth step-function  =               1.0000 Ry


     celldm(1)=  11.957182  celldm(2)=   0.000000  celldm(3)=   0.000000
     celldm(4)=   0.000000  celldm(5)=   0.000000  celldm(6)=   0.000000

     crystal axes: (cart. coord. in units of alat)
               a(1) = (   0.706881623302   0.707328751675  -0.002099450466 )  
               a(2) = (   0.706364943990  -0.005120258215   0.704339118343 )  
               a(3) = (  -0.007268217443   0.716001356140   0.715633687441 )  

     reciprocal axes: (cart. coord. in units 2 pi/alat)
               b(1) = (  0.704233  0.707901 -0.701112 )  
               b(2) = (  0.703844 -0.701295  0.708804 )  
               b(3) = ( -0.690670  0.692304  0.697689 )  


     PseudoPot. # 1 for Mn read from file:
     /users/kfg/psuedo/gbrv_1.5/mn.pbesol.UPF
     MD5 check sum: 0716d5f563e6e95a34f9080f4c78c109
     Pseudo is Ultrasoft + core correction, Zval = 15.0
     Generated by new atomic code, or converted to UPF format
     Using radial grid of  859 points,  6 beta functions with: 
                l(1) =   0
                l(2) =   0
                l(3) =   1
                l(4) =   1
                l(5) =   2
                l(6) =   2
     Q(r) pseudized with  8 coefficients,  rinner =    0.950   0.950   0.950
                                                       0.950   0.950

     PseudoPot. # 2 for Mn read from file:
     /users/kfg/psuedo/gbrv_1.5/mn.pbesol.UPF
     MD5 check sum: 0716d5f563e6e95a34f9080f4c78c109
     Pseudo is Ultrasoft + core correction, Zval = 15.0
     Generated by new atomic code, or converted to UPF format
     Using radial grid of  859 points,  6 beta functions with: 
                l(1) =   0
                l(2) =   0
                l(3) =   1
                l(4) =   1
                l(5) =   2
                l(6) =   2
     Q(r) pseudized with  8 coefficients,  rinner =    0.950   0.950   0.950
                                                       0.950   0.950

     PseudoPot. # 3 for O  read from file:
     /users/kfg/psuedo/gbrv_1.5/o.pbesol.UPF
     MD5 check sum: 501638753501ef6325af9037351f7734
     Pseudo is Ultrasoft + core correction, Zval =  6.0
     Generated by new atomic code, or converted to UPF format
     Using radial grid of  737 points,  5 beta functions with: 
                l(1) =   0
                l(2) =   0
                l(3) =   1
                l(4) =   1
                l(5) =   2
     Q(r) pseudized with  8 coefficients,  rinner =    0.900   0.900   0.900
                                                       0.900   0.900

     atomic species   valence    mass     pseudopotential
        Mn            15.00    54.90000     Mn( 1.00)
        Fe            15.00    54.90000     Mn( 1.00)
        O              6.00    15.99900     O ( 1.00)

     Starting magnetic structure 
     atomic species   magnetization
        Mn           1.000
        Fe          -1.000
        O            0.000


     Simplified LDA+U calculation (l_max = 2) with parameters (eV):
     atomic species    L          U    alpha       J0     beta
        Mn             2     3.0000   0.0000   0.0000   0.0000
        Fe             2     3.0000   0.0000   0.0000   0.0000



     No symmetry found



   Cartesian axes

     site n.     atom                  positions (alat units)
         1           Mn  tau(   1) = (    0.00095200978   -0.00124316691    0.00404829632  )
         2           O   tau(   2) = (    0.35928726699    0.35891395602    0.36089176607  )
         3           Mn  tau(   3) = (   -0.00978624292    0.35470191473    0.35667377902  )
         4           O   tau(   4) = (    0.34197073814    0.70917273584    0.71466521104  )
         5           Mn  tau(   5) = (    0.34775914974   -0.00688014135    0.34919286272  )
         6           O   tau(   6) = (    0.70196269184    0.35688674818    0.71090825407  )
         7           Mn  tau(   7) = (    0.35482140742    0.35246008077    0.70722538222  )
         8           O   tau(   8) = (    0.69626939763    0.70298617768    1.05837982849  )
         9           Mn  tau(   9) = (    0.35303619766    0.35630458338   -0.00541187173  )
        10           O   tau(  10) = (    0.70761441676    0.70649717472    0.34865398801  )
        11           Fe  tau(  11) = (    0.35609935856    0.71649903087    0.35412010290  )
        12           O   tau(  12) = (    0.69778928902    1.07212592979    0.70840603383  )
        13           Fe  tau(  13) = (    0.70798169549    0.35758679782    0.35589065508  )
        14           O   tau(  14) = (    1.05634042696    0.71015040899    0.69870273189  )
        15           Fe  tau(  15) = (    0.70626893846    0.70505431211    0.71274258397  )
        16           O   tau(  16) = (    1.06161243124    1.05888324222    1.05667306714  )

     number of k points=    72  gaussian smearing, width (Ry)=  0.0100
                       cart. coord. in units 2pi/alat
        k(    1) = (   0.0000000   0.0000000   0.0000000), wk =   0.0156250
        k(    2) = (  -0.1726674   0.1730759   0.1744222), wk =   0.0312500
        k(    3) = (   0.3453348  -0.3461519  -0.3488444), wk =   0.0156250
        k(    4) = (   0.1759610  -0.1753238   0.1772010), wk =   0.0312500
        k(    5) = (   0.0032936  -0.0022479   0.3516232), wk =   0.0312500
        k(    6) = (   0.5212958  -0.5214757  -0.1716434), wk =   0.0312500
        k(    7) = (   0.3486284  -0.3483998   0.0027788), wk =   0.0312500
        k(    8) = (  -0.3519220   0.3506476  -0.3544020), wk =   0.0156250
        k(    9) = (  -0.5245894   0.5237236  -0.1799798), wk =   0.0312500
        k(   10) = (  -0.0065873   0.0044958  -0.7032464), wk =   0.0156250
        k(   11) = (   0.1760582   0.1769753  -0.1752781), wk =   0.0312500
        k(   12) = (   0.0033908   0.3500512  -0.0008559), wk =   0.0312500
        k(   13) = (   0.5213930  -0.1691766  -0.5241225), wk =   0.0312500
        k(   14) = (   0.3487256   0.0038993  -0.3497003), wk =   0.0312500
        k(   15) = (   0.3520192   0.0016514   0.0019229), wk =   0.0312500
        k(   16) = (   0.1793519   0.1747274   0.1763451), wk =   0.0312500
        k(   17) = (   0.6973540  -0.3445005  -0.3469215), wk =   0.0312500
        k(   18) = (   0.5246866  -0.1714245  -0.1724993), wk =   0.0312500
        k(   19) = (  -0.1758638   0.5276229  -0.5296801), wk =   0.0312500
        k(   20) = (  -0.3485312   0.7006988  -0.3552579), wk =   0.0312500
        k(   21) = (   0.1694710   0.1814710  -0.8785245), wk =   0.0312500
        k(   22) = (  -0.0031964   0.3545470  -0.7041023), wk =   0.0312500
        k(   23) = (   0.0000972   0.3522991  -0.3524791), wk =   0.0312500
        k(   24) = (  -0.1725702   0.5253750  -0.1780569), wk =   0.0312500
        k(   25) = (   0.3454320   0.0061472  -0.7013235), wk =   0.0312500
        k(   26) = (   0.1727646   0.1792231  -0.5269013), wk =   0.0312500
        k(   27) = (  -0.3521165  -0.3539505   0.3505561), wk =   0.0156250
        k(   28) = (  -0.5247838  -0.1808746   0.5249783), wk =   0.0312500
        k(   29) = (  -0.0067817  -0.7001024   0.0017117), wk =   0.0156250
        k(   30) = (  -0.1761554  -0.5292743   0.5277572), wk =   0.0312500
        k(   31) = (  -0.3488228  -0.3561984   0.7021794), wk =   0.0312500
        k(   32) = (   0.1691793  -0.8754262   0.1789128), wk =   0.0312500
        k(   33) = (  -0.0034881  -0.7023503   0.3533350), wk =   0.0312500
        k(   34) = (  -0.7040385  -0.0033029  -0.0038459), wk =   0.0156250
        k(   35) = (  -0.8767059   0.1697731   0.1705763), wk =   0.0312500
        k(   36) = (  -0.3587037  -0.3494548  -0.3526903), wk =   0.0156250
        k(   37) = (   0.0000000   0.0000000   0.0000000), wk =   0.0156250
        k(   38) = (  -0.1726674   0.1730759   0.1744222), wk =   0.0312500
        k(   39) = (   0.3453348  -0.3461519  -0.3488444), wk =   0.0156250
        k(   40) = (   0.1759610  -0.1753238   0.1772010), wk =   0.0312500
        k(   41) = (   0.0032936  -0.0022479   0.3516232), wk =   0.0312500
        k(   42) = (   0.5212958  -0.5214757  -0.1716434), wk =   0.0312500
        k(   43) = (   0.3486284  -0.3483998   0.0027788), wk =   0.0312500
        k(   44) = (  -0.3519220   0.3506476  -0.3544020), wk =   0.0156250
        k(   45) = (  -0.5245894   0.5237236  -0.1799798), wk =   0.0312500
        k(   46) = (  -0.0065873   0.0044958  -0.7032464), wk =   0.0156250
        k(   47) = (   0.1760582   0.1769753  -0.1752781), wk =   0.0312500
        k(   48) = (   0.0033908   0.3500512  -0.0008559), wk =   0.0312500
        k(   49) = (   0.5213930  -0.1691766  -0.5241225), wk =   0.0312500
        k(   50) = (   0.3487256   0.0038993  -0.3497003), wk =   0.0312500
        k(   51) = (   0.3520192   0.0016514   0.0019229), wk =   0.0312500
        k(   52) = (   0.1793519   0.1747274   0.1763451), wk =   0.0312500
        k(   53) = (   0.6973540  -0.3445005  -0.3469215), wk =   0.0312500
        k(   54) = (   0.5246866  -0.1714245  -0.1724993), wk =   0.0312500
        k(   55) = (  -0.1758638   0.5276229  -0.5296801), wk =   0.0312500
        k(   56) = (  -0.3485312   0.7006988  -0.3552579), wk =   0.0312500
        k(   57) = (   0.1694710   0.1814710  -0.8785245), wk =   0.0312500
        k(   58) = (  -0.0031964   0.3545470  -0.7041023), wk =   0.0312500
        k(   59) = (   0.0000972   0.3522991  -0.3524791), wk =   0.0312500
        k(   60) = (  -0.1725702   0.5253750  -0.1780569), wk =   0.0312500
        k(   61) = (   0.3454320   0.0061472  -0.7013235), wk =   0.0312500
        k(   62) = (   0.1727646   0.1792231  -0.5269013), wk =   0.0312500
        k(   63) = (  -0.3521165  -0.3539505   0.3505561), wk =   0.0156250
        k(   64) = (  -0.5247838  -0.1808746   0.5249783), wk =   0.0312500
        k(   65) = (  -0.0067817  -0.7001024   0.0017117), wk =   0.0156250
        k(   66) = (  -0.1761554  -0.5292743   0.5277572), wk =   0.0312500
        k(   67) = (  -0.3488228  -0.3561984   0.7021794), wk =   0.0312500
        k(   68) = (   0.1691793  -0.8754262   0.1789128), wk =   0.0312500
        k(   69) = (  -0.0034881  -0.7023503   0.3533350), wk =   0.0312500
        k(   70) = (  -0.7040385  -0.0033029  -0.0038459), wk =   0.0156250
        k(   71) = (  -0.8767059   0.1697731   0.1705763), wk =   0.0312500
        k(   72) = (  -0.3587037  -0.3494548  -0.3526903), wk =   0.0156250

     Dense  grid:    58875 G-vectors     FFT dimensions: (  54,  54,  60)

     Smooth grid:    43769 G-vectors     FFT dimensions: (  50,  50,  50)

     Largest allocated arrays     est. size (Mb)     dimensions
        Kohn-Sham Wavefunctions         1.14 Mb     (     697,  107)
        Atomic Hubbard wavefuncts       0.43 Mb     (     697,   40)
        NL pseudopotentials             2.64 Mb     (     697,  248)
        Each V/rho on FFT grid          0.71 Mb     (   23328,   2)
        Each G-vector array             0.06 Mb     (    7360)
        G-vector shells                 0.06 Mb     (    7283)
     Largest temporary arrays     est. size (Mb)     dimensions
        Auxiliary wavefunctions         4.55 Mb     (     697,  428)
        Each subspace H/S matrix        2.80 Mb     (     428,  428)
        Each <psi_i|beta_j> matrix      0.40 Mb     (     248,  107)
        Arrays for rho mixing           2.85 Mb     (   23328,    8)

     Check: negative/imaginary core charge=   -0.000059    0.000000

     Initial potential from superposition of free atoms

     starting charge  163.99935, renormalised to  168.00000
     Number of +U iterations with fixed ns =  0
     Starting occupations:
 --- enter write_ns ---
 LDA+U parameters:
U( 1)     =  3.00000000
alpha( 1) =  0.00000000
U( 2)     =  3.00000000
alpha( 2) =  0.00000000
atom    1   Tr[ns(na)] (up, down, total) =   5.00000  0.00000  5.00000
   spin  1
    eigenvalues: 
  1.000  1.000  1.000  1.000  1.000
    eigenvectors:
  1.000  0.000  0.000  0.000  0.000
  0.000  1.000  0.000  0.000  0.000
  0.000  0.000  1.000  0.000  0.000
  0.000  0.000  0.000  1.000  0.000
  0.000  0.000  0.000  0.000  1.000
    occupations:
  1.000  0.000  0.000  0.000  0.000
  0.000  1.000  0.000  0.000  0.000
  0.000  0.000  1.000  0.000  0.000
  0.000  0.000  0.000  1.000  0.000
  0.000  0.000  0.000  0.000  1.000
   spin  2
    eigenvalues: 
  0.000  0.000  0.000  0.000  0.000
    eigenvectors:
  1.000  0.000  0.000  0.000  0.000
  0.000  1.000  0.000  0.000  0.000
  0.000  0.000  1.000  0.000  0.000
  0.000  0.000  0.000  1.000  0.000
  0.000  0.000  0.000  0.000  1.000
    occupations:
  0.000  0.000  0.000  0.000  0.000
  0.000  0.000  0.000  0.000  0.000
  0.000  0.000  0.000  0.000  0.000
  0.000  0.000  0.000  0.000  0.000
  0.000  0.000  0.000  0.000  0.000
atomic mag. moment =     5.000000
atom    3   Tr[ns(na)] (up, down, total) =   5.00000  0.00000  5.00000
   spin  1
    eigenvalues: 
  1.000  1.000  1.000  1.000  1.000
    eigenvectors:
  1.000  0.000  0.000  0.000  0.000
  0.000  1.000  0.000  0.000  0.000
  0.000  0.000  1.000  0.000  0.000
  0.000  0.000  0.000  1.000  0.000
  0.000  0.000  0.000  0.000  1.000
    occupations:
  1.000  0.000  0.000  0.000  0.000
  0.000  1.000  0.000  0.000  0.000
  0.000  0.000  1.000  0.000  0.000
  0.000  0.000  0.000  1.000  0.000
  0.000  0.000  0.000  0.000  1.000
   spin  2
    eigenvalues: 
  0.000  0.000  0.000  0.000  0.000
    eigenvectors:
  1.000  0.000  0.000  0.000  0.000
  0.000  1.000  0.000  0.000  0.000
  0.000  0.000  1.000  0.000  0.000
  0.000  0.000  0.000  1.000  0.000
  0.000  0.000  0.000  0.000  1.000
    occupations:
  0.000  0.000  0.000  0.000  0.000
  0.000  0.000  0.000  0.000  0.000
  0.000  0.000  0.000  0.000  0.000
  0.000  0.000  0.000  0.000  0.000
  0.000  0.000  0.000  0.000  0.000
atomic mag. moment =     5.000000
atom    5   Tr[ns(na)] (up, down, total) =   5.00000  0.00000  5.00000
   spin  1
    eigenvalues: 
  1.000  1.000  1.000  1.000  1.000
    eigenvectors:
  1.000  0.000  0.000  0.000  0.000
  0.000  1.000  0.000  0.000  0.000
  0.000  0.000  1.000  0.000  0.000
  0.000  0.000  0.000  1.000  0.000
  0.000  0.000  0.000  0.000  1.000
    occupations:
  1.000  0.000  0.000  0.000  0.000
  0.000  1.000  0.000  0.000  0.000
  0.000  0.000  1.000  0.000  0.000
  0.000  0.000  0.000  1.000  0.000
  0.000  0.000  0.000  0.000  1.000
   spin  2
    eigenvalues: 
  0.000  0.000  0.000  0.000  0.000
    eigenvectors:
  1.000  0.000  0.000  0.000  0.000
  0.000  1.000  0.000  0.000  0.000
  0.000  0.000  1.000  0.000  0.000
  0.000  0.000  0.000  1.000  0.000
  0.000  0.000  0.000  0.000  1.000
    occupations:
  0.000  0.000  0.000  0.000  0.000
  0.000  0.000  0.000  0.000  0.000
  0.000  0.000  0.000  0.000  0.000
  0.000  0.000  0.000  0.000  0.000
  0.000  0.000  0.000  0.000  0.000
atomic mag. moment =     5.000000
atom    7   Tr[ns(na)] (up, down, total) =   5.00000  0.00000  5.00000
   spin  1
    eigenvalues: 
  1.000  1.000  1.000  1.000  1.000
    eigenvectors:
  1.000  0.000  0.000  0.000  0.000
  0.000  1.000  0.000  0.000  0.000
  0.000  0.000  1.000  0.000  0.000
  0.000  0.000  0.000  1.000  0.000
  0.000  0.000  0.000  0.000  1.000
    occupations:
  1.000  0.000  0.000  0.000  0.000
  0.000  1.000  0.000  0.000  0.000
  0.000  0.000  1.000  0.000  0.000
  0.000  0.000  0.000  1.000  0.000
  0.000  0.000  0.000  0.000  1.000
   spin  2
    eigenvalues: 
  0.000  0.000  0.000  0.000  0.000
    eigenvectors:
  1.000  0.000  0.000  0.000  0.000
  0.000  1.000  0.000  0.000  0.000
  0.000  0.000  1.000  0.000  0.000
  0.000  0.000  0.000  1.000  0.000
  0.000  0.000  0.000  0.000  1.000
    occupations:
  0.000  0.000  0.000  0.000  0.000
  0.000  0.000  0.000  0.000  0.000
  0.000  0.000  0.000  0.000  0.000
  0.000  0.000  0.000  0.000  0.000
  0.000  0.000  0.000  0.000  0.000
atomic mag. moment =     5.000000
atom    9   Tr[ns(na)] (up, down, total) =   5.00000  0.00000  5.00000
   spin  1
    eigenvalues: 
  1.000  1.000  1.000  1.000  1.000
    eigenvectors:
  1.000  0.000  0.000  0.000  0.000
  0.000  1.000  0.000  0.000  0.000
  0.000  0.000  1.000  0.000  0.000
  0.000  0.000  0.000  1.000  0.000
  0.000  0.000  0.000  0.000  1.000
    occupations:
  1.000  0.000  0.000  0.000  0.000
  0.000  1.000  0.000  0.000  0.000
  0.000  0.000  1.000  0.000  0.000
  0.000  0.000  0.000  1.000  0.000
  0.000  0.000  0.000  0.000  1.000
   spin  2
    eigenvalues: 
  0.000  0.000  0.000  0.000  0.000
    eigenvectors:
  1.000  0.000  0.000  0.000  0.000
  0.000  1.000  0.000  0.000  0.000
  0.000  0.000  1.000  0.000  0.000
  0.000  0.000  0.000  1.000  0.000
  0.000  0.000  0.000  0.000  1.000
    occupations:
  0.000  0.000  0.000  0.000  0.000
  0.000  0.000  0.000  0.000  0.000
  0.000  0.000  0.000  0.000  0.000
  0.000  0.000  0.000  0.000  0.000
  0.000  0.000  0.000  0.000  0.000
atomic mag. moment =     5.000000
atom   11   Tr[ns(na)] (up, down, total) =   0.00000  5.00000  5.00000
   spin  1
    eigenvalues: 
  0.000  0.000  0.000  0.000  0.000
    eigenvectors:
  1.000  0.000  0.000  0.000  0.000
  0.000  1.000  0.000  0.000  0.000
  0.000  0.000  1.000  0.000  0.000
  0.000  0.000  0.000  1.000  0.000
  0.000  0.000  0.000  0.000  1.000
    occupations:
  0.000  0.000  0.000  0.000  0.000
  0.000  0.000  0.000  0.000  0.000
  0.000  0.000  0.000  0.000  0.000
  0.000  0.000  0.000  0.000  0.000
  0.000  0.000  0.000  0.000  0.000
   spin  2
    eigenvalues: 
  1.000  1.000  1.000  1.000  1.000
    eigenvectors:
  1.000  0.000  0.000  0.000  0.000
  0.000  1.000  0.000  0.000  0.000
  0.000  0.000  1.000  0.000  0.000
  0.000  0.000  0.000  1.000  0.000
  0.000  0.000  0.000  0.000  1.000
    occupations:
  1.000  0.000  0.000  0.000  0.000
  0.000  1.000  0.000  0.000  0.000
  0.000  0.000  1.000  0.000  0.000
  0.000  0.000  0.000  1.000  0.000
  0.000  0.000  0.000  0.000  1.000
atomic mag. moment =    -5.000000
atom   13   Tr[ns(na)] (up, down, total) =   0.00000  5.00000  5.00000
   spin  1
    eigenvalues: 
  0.000  0.000  0.000  0.000  0.000
    eigenvectors:
  1.000  0.000  0.000  0.000  0.000
  0.000  1.000  0.000  0.000  0.000
  0.000  0.000  1.000  0.000  0.000
  0.000  0.000  0.000  1.000  0.000
  0.000  0.000  0.000  0.000  1.000
    occupations:
  0.000  0.000  0.000  0.000  0.000
  0.000  0.000  0.000  0.000  0.000
  0.000  0.000  0.000  0.000  0.000
  0.000  0.000  0.000  0.000  0.000
  0.000  0.000  0.000  0.000  0.000
   spin  2
    eigenvalues: 
  1.000  1.000  1.000  1.000  1.000
    eigenvectors:
  1.000  0.000  0.000  0.000  0.000
  0.000  1.000  0.000  0.000  0.000
  0.000  0.000  1.000  0.000  0.000
  0.000  0.000  0.000  1.000  0.000
  0.000  0.000  0.000  0.000  1.000
    occupations:
  1.000  0.000  0.000  0.000  0.000
  0.000  1.000  0.000  0.000  0.000
  0.000  0.000  1.000  0.000  0.000
  0.000  0.000  0.000  1.000  0.000
  0.000  0.000  0.000  0.000  1.000
atomic mag. moment =    -5.000000
atom   15   Tr[ns(na)] (up, down, total) =   0.00000  5.00000  5.00000
   spin  1
    eigenvalues: 
  0.000  0.000  0.000  0.000  0.000
    eigenvectors:
  1.000  0.000  0.000  0.000  0.000
  0.000  1.000  0.000  0.000  0.000
  0.000  0.000  1.000  0.000  0.000
  0.000  0.000  0.000  1.000  0.000
  0.000  0.000  0.000  0.000  1.000
    occupations:
  0.000  0.000  0.000  0.000  0.000
  0.000  0.000  0.000  0.000  0.000
  0.000  0.000  0.000  0.000  0.000
  0.000  0.000  0.000  0.000  0.000
  0.000  0.000  0.000  0.000  0.000
   spin  2
    eigenvalues: 
  1.000  1.000  1.000  1.000  1.000
    eigenvectors:
  1.000  0.000  0.000  0.000  0.000
  0.000  1.000  0.000  0.000  0.000
  0.000  0.000  1.000  0.000  0.000
  0.000  0.000  0.000  1.000  0.000
  0.000  0.000  0.000  0.000  1.000
    occupations:
  1.000  0.000  0.000  0.000  0.000
  0.000  1.000  0.000  0.000  0.000
  0.000  0.000  1.000  0.000  0.000
  0.000  0.000  0.000  1.000  0.000
  0.000  0.000  0.000  0.000  1.000
atomic mag. moment =    -5.000000
N of occupied +U levels =   40.000000
 --- exit write_ns ---
 Atomic wfc used for LDA+U Projector are NOT orthogonalized
     Starting wfc are  136 randomized atomic wfcs

     total cpu time spent up to now is       62.8 secs

     Self-consistent Calculation

     iteration #  1     ecut=    41.00 Ry     beta=0.30
     Davidson diagonalization with overlap
     ethr =  1.00E-02,  avg # of iterations =  4.6
 --- enter write_ns ---
 LDA+U parameters:
U( 1)     =  3.00000000
alpha( 1) =  0.00000000
U( 2)     =  3.00000000
alpha( 2) =  0.00000000
atom    1   Tr[ns(na)] (up, down, total) =   4.99407  0.19522  5.18929
   spin  1
    eigenvalues: 
  0.998  0.998  0.998  0.999  0.999
    eigenvectors:
  0.001  0.001  0.005  0.078  0.916
  0.114  0.031  0.850  0.000  0.005
  0.084  0.909  0.006  0.000  0.001
  0.000  0.000  0.002  0.922  0.077
  0.801  0.059  0.138  0.000  0.002
    occupations:
  0.999  0.000 -0.000  0.000  0.000
  0.000  0.998 -0.000  0.000  0.000
 -0.000 -0.000  0.998  0.000  0.000
  0.000  0.000  0.000  0.999  0.000
  0.000  0.000  0.000  0.000  0.998
   spin  2
    eigenvalues: 
  0.021  0.023  0.024  0.063  0.065
    eigenvectors:
  0.000  0.000  0.000  0.691  0.309
  0.006  0.139  0.854  0.000  0.000
  0.016  0.839  0.145  0.000  0.000
  0.000  0.000  0.000  0.309  0.691
  0.977  0.022  0.001  0.000  0.001
    occupations:
  0.063  0.000  0.000 -0.001  0.001
  0.000  0.024 -0.000  0.000  0.000
  0.000 -0.000  0.023  0.000  0.000
 -0.001  0.000  0.000  0.064 -0.001
  0.001  0.000  0.000 -0.001  0.022
atomic mag. moment =     4.798842
atom    3   Tr[ns(na)] (up, down, total) =   4.99394  0.19974  5.19368
   spin  1
    eigenvalues: 
  0.998  0.998  0.998  0.999  0.999
    eigenvectors:
  0.003  0.000  0.000  0.366  0.630
  0.401  0.179  0.418  0.000  0.001
  0.030  0.542  0.426  0.001  0.000
  0.006  0.008  0.001  0.617  0.368
  0.559  0.270  0.155  0.015  0.001
    occupations:
  0.999  0.000  0.000  0.000 -0.000
  0.000  0.998  0.000  0.000  0.000
  0.000  0.000  0.998 -0.000  0.000
  0.000  0.000 -0.000  0.999  0.000
 -0.000  0.000  0.000  0.000  0.998
   spin  2
    eigenvalues: 
  0.022  0.024  0.024  0.064  0.066
    eigenvectors:
  0.000  0.000  0.000  0.011  0.989
  0.965  0.002  0.033  0.000  0.000
  0.015  0.374  0.612  0.000  0.000
  0.000  0.000  0.000  0.989  0.011
  0.020  0.624  0.355  0.000  0.000
    occupations:
  0.066  0.001  0.000 -0.000 -0.000
  0.001  0.022  0.000 -0.000  0.000
  0.000  0.000  0.024 -0.000  0.000
 -0.000 -0.000 -0.000  0.064  0.001
 -0.000  0.000  0.000  0.001  0.024
atomic mag. moment =     4.794199
atom    5   Tr[ns(na)] (up, down, total) =   4.99368  0.19619  5.18987
   spin  1
    eigenvalues: 
  0.998  0.998  0.998  0.999  0.999
    eigenvectors:
  0.005  0.001  0.000  0.100  0.895
  0.017  0.006  0.976  0.000  0.000
  0.921  0.001  0.015  0.062  0.000
  0.055  0.007  0.001  0.832  0.105
  0.002  0.985  0.007  0.006  0.000
    occupations:
  0.999 -0.000  0.000 -0.000  0.000
 -0.000  0.998  0.000  0.000 -0.000
  0.000  0.000  0.998  0.000  0.000
 -0.000  0.000  0.000  0.999  0.000
  0.000 -0.000  0.000  0.000  0.998
   spin  2
    eigenvalues: 
  0.021  0.023  0.025  0.060  0.067
    eigenvectors:
  0.000  0.000  0.000  0.224  0.776
  0.002  0.028  0.969  0.001  0.000
  0.969  0.030  0.000  0.000  0.000
  0.001  0.000  0.001  0.775  0.224
  0.028  0.942  0.030  0.000  0.000
    occupations:
  0.066  0.000 -0.000 -0.003 -0.000
  0.000  0.024  0.000  0.001 -0.000
 -0.000  0.000  0.021  0.001  0.000
 -0.003  0.001  0.001  0.062 -0.001
 -0.000 -0.000  0.000 -0.001  0.023
atomic mag. moment =     4.797494
atom    7   Tr[ns(na)] (up, down, total) =   4.98921  0.20778  5.19700
   spin  1
    eigenvalues: 
  0.997  0.997  0.998  0.998  0.999
    eigenvectors:
  0.996  0.003  0.000  0.000  0.000
  0.000  0.012  0.188  0.557  0.243
  0.000  0.006  0.098  0.403  0.493
  0.003  0.978  0.003  0.016  0.000
  0.000  0.001  0.712  0.024  0.263
    occupations:
  0.997 -0.000 -0.000  0.000 -0.000
 -0.000  0.998  0.000  0.000  0.000
 -0.000  0.000  0.998 -0.000  0.000
  0.000  0.000 -0.000  0.997 -0.000
 -0.000  0.000  0.000 -0.000  0.998
   spin  2
    eigenvalues: 
  0.024  0.025  0.025  0.065  0.069
    eigenvectors:
  0.000  0.000  0.001  0.020  0.979
  0.099  0.855  0.046  0.000  0.000
  0.066  0.090  0.843  0.000  0.001
  0.000  0.000  0.000  0.980  0.020
  0.834  0.055  0.111  0.000  0.000
    occupations:
  0.069  0.001  0.001  0.001 -0.000
  0.001  0.025  0.000  0.000  0.000
  0.001  0.000  0.025  0.000  0.000
  0.001  0.000  0.000  0.065  0.000
 -0.000  0.000  0.000  0.000  0.024
atomic mag. moment =     4.781431
atom    9   Tr[ns(na)] (up, down, total) =   4.99140  0.18759  5.17898
   spin  1
    eigenvalues: 
  0.998  0.998  0.998  0.998  0.999
    eigenvectors:
  0.245  0.308  0.160  0.069  0.218
  0.008  0.043  0.373  0.324  0.251
  0.114  0.190  0.290  0.403  0.003
  0.633  0.031  0.166  0.027  0.143
  0.000  0.428  0.011  0.176  0.385
    occupations:
  0.998 -0.000 -0.000  0.000  0.000
 -0.000  0.998 -0.000 -0.000 -0.000
 -0.000 -0.000  0.998  0.000 -0.000
  0.000 -0.000  0.000  0.998  0.000
  0.000 -0.000 -0.000  0.000  0.998
   spin  2
    eigenvalues: 
  0.021  0.022  0.023  0.058  0.063
    eigenvectors:
  0.001  0.000  0.000  0.802  0.197
  0.072  0.163  0.764  0.000  0.000
  0.913  0.049  0.037  0.001  0.000
  0.000  0.000  0.000  0.197  0.803
  0.014  0.787  0.199  0.000  0.000
    occupations:
  0.059 -0.001 -0.001 -0.002  0.001
 -0.001  0.023 -0.000  0.000 -0.000
 -0.001 -0.000  0.021  0.000 -0.000
 -0.002  0.000  0.000  0.062 -0.000
  0.001 -0.000 -0.000 -0.000  0.023
atomic mag. moment =     4.803810
atom   11   Tr[ns(na)] (up, down, total) =   0.19405  4.99451  5.18856
   spin  1
    eigenvalues: 
  0.022  0.024  0.025  0.059  0.064
    eigenvectors:
  0.000  0.000  0.000  0.851  0.149
  0.994  0.000  0.005  0.000  0.001
  0.004  0.071  0.924  0.000  0.000
  0.001  0.000  0.000  0.149  0.850
  0.001  0.928  0.071  0.000  0.000
    occupations:
  0.060  0.001  0.000  0.002 -0.000
  0.001  0.022  0.000  0.001  0.000
  0.000  0.000  0.025 -0.001  0.000
  0.002  0.001 -0.001  0.063  0.000
 -0.000  0.000  0.000  0.000  0.024
   spin  2
    eigenvalues: 
  0.998  0.998  0.999  0.999  1.000
    eigenvectors:
  0.008  0.001  0.000  0.151  0.840
  0.943  0.007  0.021  0.029  0.000
  0.002  0.550  0.446  0.002  0.000
  0.020  0.000  0.004  0.818  0.158
  0.027  0.443  0.529  0.000  0.002
    occupations:
  1.000  0.000  0.000 -0.000 -0.000
  0.000  0.998  0.000  0.000  0.000
  0.000  0.000  0.998  0.000  0.000
 -0.000  0.000  0.000  0.999  0.000
 -0.000  0.000  0.000  0.000  0.998
atomic mag. moment =    -4.800460
atom   13   Tr[ns(na)] (up, down, total) =   0.19345  4.99460  5.18805
   spin  1
    eigenvalues: 
  0.023  0.024  0.025  0.060  0.062
    eigenvectors:
  0.000  0.000  0.000  0.798  0.201
  0.004  0.018  0.977  0.000  0.001
  0.986  0.007  0.006  0.000  0.000
  0.000  0.001  0.000  0.201  0.797
  0.009  0.974  0.016  0.000  0.000
    occupations:
  0.060 -0.000  0.000 -0.001 -0.000
 -0.000  0.025  0.000  0.001  0.000
  0.000  0.000  0.023 -0.001  0.000
 -0.001  0.001 -0.001  0.062 -0.001
 -0.000  0.000  0.000 -0.001  0.024
   spin  2
    eigenvalues: 
  0.998  0.998  0.999  1.000  1.000
    eigenvectors:
  0.000  0.001  0.000  0.006  0.992
  0.666  0.038  0.295  0.000  0.001
  0.016  0.734  0.250  0.000  0.001
  0.005  0.004  0.004  0.982  0.006
  0.313  0.223  0.452  0.012  0.000
    occupations:
  1.000 -0.000  0.000  0.000 -0.000
 -0.000  0.998  0.000  0.000  0.000
  0.000  0.000  0.998  0.000  0.000
  0.000  0.000  0.000  0.999 -0.000
 -0.000  0.000  0.000 -0.000  0.998
atomic mag. moment =    -4.801148
atom   15   Tr[ns(na)] (up, down, total) =   0.19645  4.99438  5.19082
   spin  1
    eigenvalues: 
  0.023  0.023  0.025  0.061  0.063
    eigenvectors:
  0.001  0.000  0.000  0.001  0.998
  0.779  0.204  0.015  0.002  0.000
  0.158  0.740  0.101  0.000  0.000
  0.001  0.002  0.000  0.996  0.001
  0.062  0.054  0.884  0.000  0.000
    occupations:
  0.063  0.001  0.001  0.000 -0.000
  0.001  0.023 -0.000  0.002  0.000
  0.001 -0.000  0.024 -0.001  0.001
  0.000  0.002 -0.001  0.061  0.000
 -0.000  0.000  0.001  0.000  0.025
   spin  2
    eigenvalues: 
  0.998  0.998  0.999  0.999  1.000
    eigenvectors:
  0.000  0.000  0.004  0.950  0.045
  0.799  0.137  0.059  0.000  0.005
  0.016  0.543  0.440  0.001  0.001
  0.003  0.003  0.000  0.045  0.949
  0.182  0.317  0.497  0.004  0.000
    occupations:
  0.999 -0.000  0.000 -0.000  0.000
 -0.000  0.998  0.000  0.000  0.000
  0.000  0.000  0.998 -0.000  0.000
 -0.000  0.000 -0.000  1.000  0.000
  0.000  0.000  0.000  0.000  0.998
atomic mag. moment =    -4.797932
N of occupied +U levels =   41.516251
 --- exit write_ns ---

     negative rho (up, down):  9.556E-05 4.540E-04

     Magnetic moment per site:
     atom:    1    charge:   12.6757    magn:   10.1448    constr:    0.0000
     atom:    2    charge:    5.5832    magn:    0.0406    constr:    0.0000
     atom:    3    charge:   12.6787    magn:   10.1447    constr:    0.0000
     atom:    4    charge:    5.5889    magn:    0.0627    constr:    0.0000
     atom:    5    charge:   12.6766    magn:   10.1450    constr:    0.0000
     atom:    6    charge:    5.6063    magn:    0.0527    constr:    0.0000
     atom:    7    charge:   12.6787    magn:   10.1337    constr:    0.0000
     atom:    8    charge:    5.5801    magn:    0.0048    constr:    0.0000
     atom:    9    charge:   12.6684    magn:   10.1323    constr:    0.0000
     atom:   10    charge:    5.6126    magn:    0.0100    constr:    0.0000
     atom:   11    charge:   12.7235    magn:  -10.1645    constr:    0.0000
     atom:   12    charge:    5.5842    magn:    0.0642    constr:    0.0000
     atom:   13    charge:   12.7224    magn:  -10.1625    constr:    0.0000
     atom:   14    charge:    5.6005    magn:    0.0554    constr:    0.0000
     atom:   15    charge:   12.7246    magn:  -10.1651    constr:    0.0000
     atom:   16    charge:    5.6102    magn:    0.0622    constr:    0.0000

     total cpu time spent up to now is      262.8 secs

     total energy              =   -1937.92881725 Ry
     Harris-Foulkes estimate   =   -1921.70090085 Ry
     estimated scf accuracy    <      25.43946350 Ry

     total magnetization       =    10.00 Bohr mag/cell
     absolute magnetization    =    40.81 Bohr mag/cell

     iteration #  2     ecut=    41.00 Ry     beta=0.30
     Davidson diagonalization with overlap
     ethr =  1.00E-02,  avg # of iterations =  1.0

     negative rho (up, down):  5.141E-04 1.839E-03

     Magnetic moment per site:
     atom:    1    charge:   12.5652    magn:    4.4450    constr:    0.0000
     atom:    2    charge:    5.8025    magn:   -0.0158    constr:    0.0000
     atom:    3    charge:   12.5676    magn:    4.4463    constr:    0.0000
     atom:    4    charge:    5.8085    magn:   -0.0225    constr:    0.0000
     atom:    5    charge:   12.5659    magn:    4.4455    constr:    0.0000
     atom:    6    charge:    5.8271    magn:   -0.0184    constr:    0.0000
     atom:    7    charge:   12.5645    magn:    4.4384    constr:    0.0000
     atom:    8    charge:    5.7997    magn:    0.0000    constr:    0.0000
     atom:    9    charge:   12.5580    magn:    4.4362    constr:    0.0000
     atom:   10    charge:    5.8346    magn:   -0.0007    constr:    0.0000
     atom:   11    charge:   12.6105    magn:   -4.4643    constr:    0.0000
     atom:   12    charge:    5.8032    magn:   -0.0221    constr:    0.0000
     atom:   13    charge:   12.6096    magn:   -4.4624    constr:    0.0000
     atom:   14    charge:    5.8208    magn:   -0.0205    constr:    0.0000
     atom:   15    charge:   12.6113    magn:   -4.4649    constr:    0.0000
     atom:   16    charge:    5.8311    magn:   -0.0130    constr:    0.0000

     total cpu time spent up to now is      375.3 secs

     total energy              =   -1945.60584454 Ry
     Harris-Foulkes estimate   =   -1938.18589368 Ry
     estimated scf accuracy    <      12.64234019 Ry

     total magnetization       =    10.00 Bohr mag/cell
     absolute magnetization    =    40.41 Bohr mag/cell

     iteration #  3     ecut=    41.00 Ry     beta=0.30
     Davidson diagonalization with overlap
     ethr =  7.53E-03,  avg # of iterations =  4.0

     negative rho (up, down):  5.374E-04 1.958E-03

     Magnetic moment per site:
     atom:    1    charge:   12.4949    magn:    4.2272    constr:    0.0000
     atom:    2    charge:    5.7669    magn:    0.0225    constr:    0.0000
     atom:    3    charge:   12.4978    magn:    4.2269    constr:    0.0000
     atom:    4    charge:    5.7736    magn:    0.0209    constr:    0.0000
     atom:    5    charge:   12.4956    magn:    4.2276    constr:    0.0000
     atom:    6    charge:    5.7929    magn:    0.0209    constr:    0.0000
     atom:    7    charge:   12.4932    magn:    4.2391    constr:    0.0000
     atom:    8    charge:    5.7630    magn:    0.0040    constr:    0.0000
     atom:    9    charge:   12.4827    magn:    4.2472    constr:    0.0000
     atom:   10    charge:    5.7998    magn:    0.0061    constr:    0.0000
     atom:   11    charge:   12.5366    magn:   -4.2408    constr:    0.0000
     atom:   12    charge:    5.7681    magn:    0.0220    constr:    0.0000
     atom:   13    charge:   12.5353    magn:   -4.2390    constr:    0.0000
     atom:   14    charge:    5.7865    magn:    0.0200    constr:    0.0000
     atom:   15    charge:   12.5382    magn:   -4.2401    constr:    0.0000
     atom:   16    charge:    5.7973    magn:    0.0290    constr:    0.0000

     total cpu time spent up to now is      560.6 secs

     total energy              =   -1946.16245743 Ry
     Harris-Foulkes estimate   =   -1946.29605549 Ry
     estimated scf accuracy    <       0.40440343 Ry

     total magnetization       =    10.00 Bohr mag/cell
     absolute magnetization    =    38.28 Bohr mag/cell

     iteration #  4     ecut=    41.00 Ry     beta=0.30
     Davidson diagonalization with overlap
     ethr =  2.41E-04,  avg # of iterations =  4.1

     negative rho (up, down):  5.619E-04 2.017E-03

     Magnetic moment per site:
     atom:    1    charge:   12.4853    magn:    4.1166    constr:    0.0000
     atom:    2    charge:    5.7771    magn:    0.0254    constr:    0.0000
     atom:    3    charge:   12.4882    magn:    4.1162    constr:    0.0000
     atom:    4    charge:    5.7837    magn:    0.0246    constr:    0.0000
     atom:    5    charge:   12.4860    magn:    4.1170    constr:    0.0000
     atom:    6    charge:    5.8028    magn:    0.0239    constr:    0.0000
     atom:    7    charge:   12.4834    magn:    4.1306    constr:    0.0000
     atom:    8    charge:    5.7731    magn:    0.0031    constr:    0.0000
     atom:    9    charge:   12.4725    magn:    4.1395    constr:    0.0000
     atom:   10    charge:    5.8096    magn:    0.0056    constr:    0.0000
     atom:   11    charge:   12.5268    magn:   -4.1303    constr:    0.0000
     atom:   12    charge:    5.7782    magn:    0.0258    constr:    0.0000
     atom:   13    charge:   12.5255    magn:   -4.1285    constr:    0.0000
     atom:   14    charge:    5.7965    magn:    0.0232    constr:    0.0000
     atom:   15    charge:   12.5285    magn:   -4.1294    constr:    0.0000
     atom:   16    charge:    5.8072    magn:    0.0323    constr:    0.0000

     total cpu time spent up to now is      776.5 secs

     total energy              =   -1946.23815418 Ry
     Harris-Foulkes estimate   =   -1946.24509010 Ry
     estimated scf accuracy    <       0.03478571 Ry

     total magnetization       =    10.00 Bohr mag/cell
     absolute magnetization    =    38.22 Bohr mag/cell

     iteration #  5     ecut=    41.00 Ry     beta=0.30
     Davidson diagonalization with overlap
     ethr =  2.07E-05,  avg # of iterations =  3.8

     negative rho (up, down):  5.878E-04 2.087E-03

     Magnetic moment per site:
     atom:    1    charge:   12.4553    magn:    4.1703    constr:    0.0000
     atom:    2    charge:    5.7844    magn:    0.0453    constr:    0.0000
     atom:    3    charge:   12.4585    magn:    4.1690    constr:    0.0000
     atom:    4    charge:    5.7909    magn:    0.0499    constr:    0.0000
     atom:    5    charge:   12.4559    magn:    4.1706    constr:    0.0000
     atom:    6    charge:    5.8098    magn:    0.0451    constr:    0.0000
     atom:    7    charge:   12.4526    magn:    4.1944    constr:    0.0000
     atom:    8    charge:    5.7799    magn:    0.0011    constr:    0.0000
     atom:    9    charge:   12.4392    magn:    4.2075    constr:    0.0000
     atom:   10    charge:    5.8161    magn:    0.0056    constr:    0.0000
     atom:   11    charge:   12.4958    magn:   -4.1834    constr:    0.0000
     atom:   12    charge:    5.7856    magn:    0.0517    constr:    0.0000
     atom:   13    charge:   12.4943    magn:   -4.1815    constr:    0.0000
     atom:   14    charge:    5.8036    magn:    0.0457    constr:    0.0000
     atom:   15    charge:   12.4979    magn:   -4.1818    constr:    0.0000
     atom:   16    charge:    5.8142    magn:    0.0552    constr:    0.0000

     total cpu time spent up to now is      959.8 secs

     total energy              =   -1946.23812947 Ry
     Harris-Foulkes estimate   =   -1946.24027761 Ry
     estimated scf accuracy    <       0.01195894 Ry

     total magnetization       =    10.00 Bohr mag/cell
     absolute magnetization    =    38.13 Bohr mag/cell
 kfg - setting two_fermi_energies to FALSE

     iteration #  6     ecut=    41.00 Ry     beta=0.30
     Davidson diagonalization with overlap
     ethr =  7.12E-06,  avg # of iterations =  2.9

     negative rho (up, down):  5.847E-04 2.086E-03

     Magnetic moment per site:
     atom:    1    charge:   12.4503    magn:    4.1778    constr:    0.0000
     atom:    2    charge:    5.7843    magn:    0.0494    constr:    0.0000
     atom:    3    charge:   12.4536    magn:    4.1764    constr:    0.0000
     atom:    4    charge:    5.7909    magn:    0.0553    constr:    0.0000
     atom:    5    charge:   12.4510    magn:    4.1781    constr:    0.0000
     atom:    6    charge:    5.8099    magn:    0.0494    constr:    0.0000
     atom:    7    charge:   12.4475    magn:    4.2042    constr:    0.0000
     atom:    8    charge:    5.7797    magn:   -0.0003    constr:    0.0000
     atom:    9    charge:   12.4331    magn:    4.2175    constr:    0.0000
     atom:   10    charge:    5.8162    magn:    0.0048    constr:    0.0000
     atom:   11    charge:   12.4905    magn:   -4.1914    constr:    0.0000
     atom:   12    charge:    5.7855    magn:    0.0573    constr:    0.0000
     atom:   13    charge:   12.4889    magn:   -4.1895    constr:    0.0000
     atom:   14    charge:    5.8037    magn:    0.0503    constr:    0.0000
     atom:   15    charge:   12.4928    magn:   -4.1897    constr:    0.0000
     atom:   16    charge:    5.8144    magn:    0.0598    constr:    0.0000

     total cpu time spent up to now is     1138.6 secs

     total energy              =   -1946.24011618 Ry
     Harris-Foulkes estimate   =   -1946.24019323 Ry
     estimated scf accuracy    <       0.00051341 Ry

     total magnetization       =    10.00 Bohr mag/cell
     absolute magnetization    =    38.08 Bohr mag/cell

     iteration #  7     ecut=    41.00 Ry     beta=0.30
     Davidson diagonalization with overlap
     ethr =  3.06E-07,  avg # of iterations =  1.6

     negative rho (up, down):  5.768E-04 2.074E-03

     Magnetic moment per site:
     atom:    1    charge:   12.4491    magn:    4.1648    constr:    0.0000
     atom:    2    charge:    5.7842    magn:    0.0507    constr:    0.0000
     atom:    3    charge:   12.4525    magn:    4.1635    constr:    0.0000
     atom:    4    charge:    5.7909    magn:    0.0570    constr:    0.0000
     atom:    5    charge:   12.4498    magn:    4.1651    constr:    0.0000
     atom:    6    charge:    5.8101    magn:    0.0506    constr:    0.0000
     atom:    7    charge:   12.4461    magn:    4.1919    constr:    0.0000
     atom:    8    charge:    5.7795    magn:   -0.0012    constr:    0.0000
     atom:    9    charge:   12.4312    magn:    4.2049    constr:    0.0000
     atom:   10    charge:    5.8162    magn:    0.0041    constr:    0.0000
     atom:   11    charge:   12.4891    magn:   -4.1790    constr:    0.0000
     atom:   12    charge:    5.7855    magn:    0.0591    constr:    0.0000
     atom:   13    charge:   12.4875    magn:   -4.1770    constr:    0.0000
     atom:   14    charge:    5.8038    magn:    0.0517    constr:    0.0000
     atom:   15    charge:   12.4915    magn:   -4.1772    constr:    0.0000
     atom:   16    charge:    5.8146    magn:    0.0611    constr:    0.0000

     total cpu time spent up to now is     1269.6 secs

     total energy              =   -1946.24016128 Ry
     Harris-Foulkes estimate   =   -1946.24015311 Ry
     estimated scf accuracy    <       0.00010199 Ry

     total magnetization       =    10.00 Bohr mag/cell
     absolute magnetization    =    38.07 Bohr mag/cell

     iteration #  8     ecut=    41.00 Ry     beta=0.30
     Davidson diagonalization with overlap
     ethr =  6.07E-08,  avg # of iterations =  2.0

     negative rho (up, down):  5.639E-04 2.052E-03

     Magnetic moment per site:
     atom:    1    charge:   12.4496    magn:    4.1648    constr:    0.0000
     atom:    2    charge:    5.7838    magn:    0.0517    constr:    0.0000
     atom:    3    charge:   12.4530    magn:    4.1636    constr:    0.0000
     atom:    4    charge:    5.7905    magn:    0.0582    constr:    0.0000
     atom:    5    charge:   12.4503    magn:    4.1652    constr:    0.0000
     atom:    6    charge:    5.8096    magn:    0.0516    constr:    0.0000
     atom:    7    charge:   12.4465    magn:    4.1920    constr:    0.0000
     atom:    8    charge:    5.7791    magn:   -0.0018    constr:    0.0000
     atom:    9    charge:   12.4311    magn:    4.2048    constr:    0.0000
     atom:   10    charge:    5.8157    magn:    0.0037    constr:    0.0000
     atom:   11    charge:   12.4894    magn:   -4.1793    constr:    0.0000
     atom:   12    charge:    5.7851    magn:    0.0604    constr:    0.0000
     atom:   13    charge:   12.4878    magn:   -4.1773    constr:    0.0000
     atom:   14    charge:    5.8034    magn:    0.0527    constr:    0.0000
     atom:   15    charge:   12.4918    magn:   -4.1776    constr:    0.0000
     atom:   16    charge:    5.8141    magn:    0.0621    constr:    0.0000

     total cpu time spent up to now is     1421.2 secs

     total energy              =   -1946.24017547 Ry
     Harris-Foulkes estimate   =   -1946.24017598 Ry
     estimated scf accuracy    <       0.00001219 Ry

     total magnetization       =    10.00 Bohr mag/cell
     absolute magnetization    =    38.07 Bohr mag/cell

     iteration #  9     ecut=    41.00 Ry     beta=0.30
     Davidson diagonalization with overlap
     ethr =  7.26E-09,  avg # of iterations =  2.1

     negative rho (up, down):  5.598E-04 2.045E-03

     Magnetic moment per site:
     atom:    1    charge:   12.4495    magn:    4.1647    constr:    0.0000
     atom:    2    charge:    5.7838    magn:    0.0523    constr:    0.0000
     atom:    3    charge:   12.4529    magn:    4.1635    constr:    0.0000
     atom:    4    charge:    5.7905    magn:    0.0590    constr:    0.0000
     atom:    5    charge:   12.4502    magn:    4.1651    constr:    0.0000
     atom:    6    charge:    5.8096    magn:    0.0523    constr:    0.0000
     atom:    7    charge:   12.4463    magn:    4.1920    constr:    0.0000
     atom:    8    charge:    5.7791    magn:   -0.0021    constr:    0.0000
     atom:    9    charge:   12.4307    magn:    4.2048    constr:    0.0000
     atom:   10    charge:    5.8157    magn:    0.0035    constr:    0.0000
     atom:   11    charge:   12.4891    magn:   -4.1793    constr:    0.0000
     atom:   12    charge:    5.7851    magn:    0.0613    constr:    0.0000
     atom:   13    charge:   12.4876    magn:   -4.1773    constr:    0.0000
     atom:   14    charge:    5.8033    magn:    0.0534    constr:    0.0000
     atom:   15    charge:   12.4916    magn:   -4.1776    constr:    0.0000
     atom:   16    charge:    5.8140    magn:    0.0628    constr:    0.0000

     total cpu time spent up to now is     1572.5 secs

     total energy              =   -1946.24017666 Ry
     Harris-Foulkes estimate   =   -1946.24017801 Ry
     estimated scf accuracy    <       0.00000552 Ry

     total magnetization       =    10.00 Bohr mag/cell
     absolute magnetization    =    38.07 Bohr mag/cell

     iteration # 10     ecut=    41.00 Ry     beta=0.30
     Davidson diagonalization with overlap
     ethr =  3.29E-09,  avg # of iterations =  2.0

     negative rho (up, down):  5.612E-04 2.047E-03

     Magnetic moment per site:
     atom:    1    charge:   12.4496    magn:    4.1647    constr:    0.0000
     atom:    2    charge:    5.7838    magn:    0.0525    constr:    0.0000
     atom:    3    charge:   12.4529    magn:    4.1636    constr:    0.0000
     atom:    4    charge:    5.7905    magn:    0.0593    constr:    0.0000
     atom:    5    charge:   12.4502    magn:    4.1651    constr:    0.0000
     atom:    6    charge:    5.8096    magn:    0.0525    constr:    0.0000
     atom:    7    charge:   12.4463    magn:    4.1920    constr:    0.0000
     atom:    8    charge:    5.7791    magn:   -0.0022    constr:    0.0000
     atom:    9    charge:   12.4307    magn:    4.2048    constr:    0.0000
     atom:   10    charge:    5.8157    magn:    0.0034    constr:    0.0000
     atom:   11    charge:   12.4891    magn:   -4.1794    constr:    0.0000
     atom:   12    charge:    5.7851    magn:    0.0615    constr:    0.0000
     atom:   13    charge:   12.4875    magn:   -4.1773    constr:    0.0000
     atom:   14    charge:    5.8034    magn:    0.0536    constr:    0.0000
     atom:   15    charge:   12.4916    magn:   -4.1777    constr:    0.0000
     atom:   16    charge:    5.8141    magn:    0.0630    constr:    0.0000

     total cpu time spent up to now is     1712.7 secs

     total energy              =   -1946.24017732 Ry
     Harris-Foulkes estimate   =   -1946.24017734 Ry
     estimated scf accuracy    <       0.00000063 Ry

     total magnetization       =    10.00 Bohr mag/cell
     absolute magnetization    =    38.07 Bohr mag/cell

     iteration # 11     ecut=    41.00 Ry     beta=0.30
     Davidson diagonalization with overlap
     ethr =  3.76E-10,  avg # of iterations =  2.0

     negative rho (up, down):  5.630E-04 2.050E-03

     Magnetic moment per site:
     atom:    1    charge:   12.4496    magn:    4.1648    constr:    0.0000
     atom:    2    charge:    5.7839    magn:    0.0524    constr:    0.0000
     atom:    3    charge:   12.4529    magn:    4.1636    constr:    0.0000
     atom:    4    charge:    5.7905    magn:    0.0592    constr:    0.0000
     atom:    5    charge:   12.4502    magn:    4.1652    constr:    0.0000
     atom:    6    charge:    5.8096    magn:    0.0524    constr:    0.0000
     atom:    7    charge:   12.4463    magn:    4.1920    constr:    0.0000
     atom:    8    charge:    5.7791    magn:   -0.0022    constr:    0.0000
     atom:    9    charge:   12.4307    magn:    4.2048    constr:    0.0000
     atom:   10    charge:    5.8157    magn:    0.0034    constr:    0.0000
     atom:   11    charge:   12.4891    magn:   -4.1794    constr:    0.0000
     atom:   12    charge:    5.7851    magn:    0.0614    constr:    0.0000
     atom:   13    charge:   12.4875    magn:   -4.1773    constr:    0.0000
     atom:   14    charge:    5.8034    magn:    0.0535    constr:    0.0000
     atom:   15    charge:   12.4916    magn:   -4.1777    constr:    0.0000
     atom:   16    charge:    5.8141    magn:    0.0628    constr:    0.0000

     total cpu time spent up to now is     1864.6 secs

     total energy              =   -1946.24017756 Ry
     Harris-Foulkes estimate   =   -1946.24017742 Ry
     estimated scf accuracy    <       0.00000008 Ry

     total magnetization       =    10.00 Bohr mag/cell
     absolute magnetization    =    38.07 Bohr mag/cell

     iteration # 12     ecut=    41.00 Ry     beta=0.30
     Davidson diagonalization with overlap
     ethr =  5.03E-11,  avg # of iterations =  2.0

     negative rho (up, down):  5.637E-04 2.051E-03

     Magnetic moment per site:
     atom:    1    charge:   12.4496    magn:    4.1648    constr:    0.0000
     atom:    2    charge:    5.7839    magn:    0.0524    constr:    0.0000
     atom:    3    charge:   12.4529    magn:    4.1636    constr:    0.0000
     atom:    4    charge:    5.7905    magn:    0.0591    constr:    0.0000
     atom:    5    charge:   12.4502    magn:    4.1652    constr:    0.0000
     atom:    6    charge:    5.8096    magn:    0.0523    constr:    0.0000
     atom:    7    charge:   12.4463    magn:    4.1920    constr:    0.0000
     atom:    8    charge:    5.7791    magn:   -0.0022    constr:    0.0000
     atom:    9    charge:   12.4307    magn:    4.2048    constr:    0.0000
     atom:   10    charge:    5.8158    magn:    0.0034    constr:    0.0000
     atom:   11    charge:   12.4891    magn:   -4.1794    constr:    0.0000
     atom:   12    charge:    5.7851    magn:    0.0614    constr:    0.0000
     atom:   13    charge:   12.4875    magn:   -4.1773    constr:    0.0000
     atom:   14    charge:    5.8034    magn:    0.0535    constr:    0.0000
     atom:   15    charge:   12.4916    magn:   -4.1777    constr:    0.0000
     atom:   16    charge:    5.8141    magn:    0.0628    constr:    0.0000

     total cpu time spent up to now is     2000.4 secs

     total energy              =   -1946.24017762 Ry
     Harris-Foulkes estimate   =   -1946.24017757 Ry
     estimated scf accuracy    <       0.00000002 Ry

     total magnetization       =    10.00 Bohr mag/cell
     absolute magnetization    =    38.07 Bohr mag/cell

     iteration # 13     ecut=    41.00 Ry     beta=0.30
     Davidson diagonalization with overlap
     ethr =  9.97E-12,  avg # of iterations =  2.0

     negative rho (up, down):  5.629E-04 2.050E-03

     Magnetic moment per site:
     atom:    1    charge:   12.4496    magn:    4.1648    constr:    0.0000
     atom:    2    charge:    5.7839    magn:    0.0524    constr:    0.0000
     atom:    3    charge:   12.4529    magn:    4.1636    constr:    0.0000
     atom:    4    charge:    5.7905    magn:    0.0591    constr:    0.0000
     atom:    5    charge:   12.4502    magn:    4.1652    constr:    0.0000
     atom:    6    charge:    5.8096    magn:    0.0523    constr:    0.0000
     atom:    7    charge:   12.4463    magn:    4.1920    constr:    0.0000
     atom:    8    charge:    5.7791    magn:   -0.0022    constr:    0.0000
     atom:    9    charge:   12.4307    magn:    4.2048    constr:    0.0000
     atom:   10    charge:    5.8158    magn:    0.0033    constr:    0.0000
     atom:   11    charge:   12.4891    magn:   -4.1794    constr:    0.0000
     atom:   12    charge:    5.7852    magn:    0.0613    constr:    0.0000
     atom:   13    charge:   12.4875    magn:   -4.1773    constr:    0.0000
     atom:   14    charge:    5.8034    magn:    0.0534    constr:    0.0000
     atom:   15    charge:   12.4916    magn:   -4.1776    constr:    0.0000
     atom:   16    charge:    5.8141    magn:    0.0628    constr:    0.0000

     total cpu time spent up to now is     2143.5 secs

     End of self-consistent calculation
 --- enter write_ns ---
 LDA+U parameters:
U( 1)     =  3.00000000
alpha( 1) =  0.00000000
U( 2)     =  3.00000000
alpha( 2) =  0.00000000
atom    1   Tr[ns(na)] (up, down, total) =   4.98622  0.49402  5.48025
   spin  1
    eigenvalues: 
  0.996  0.996  0.997  0.998  0.999
    eigenvectors:
  0.083  0.846  0.018  0.053  0.001
  0.030  0.097  0.034  0.838  0.001
  0.059  0.001  0.913  0.025  0.003
  0.826  0.057  0.031  0.084  0.002
  0.002  0.000  0.005  0.000  0.993
    occupations:
  0.996  0.000  0.000  0.000 -0.000
  0.000  0.997  0.000  0.000 -0.000
  0.000  0.000  0.997 -0.000 -0.000
  0.000  0.000 -0.000  0.996  0.000
 -0.000 -0.000 -0.000  0.000  0.999
   spin  2
    eigenvalues: 
  0.053  0.055  0.057  0.162  0.167
    eigenvectors:
  0.000  0.000  0.000  0.813  0.187
  0.024  0.020  0.955  0.001  0.000
  0.070  0.919  0.009  0.000  0.001
  0.000  0.002  0.000  0.186  0.812
  0.906  0.059  0.035  0.000  0.001
    occupations:
  0.163 -0.002 -0.001 -0.002  0.001
 -0.002  0.057 -0.000 -0.002 -0.001
 -0.001 -0.000  0.055  0.004 -0.001
 -0.002 -0.002  0.004  0.166 -0.002
  0.001 -0.001 -0.001 -0.002  0.054
atomic mag. moment =     4.492201
atom    3   Tr[ns(na)] (up, down, total) =   4.98516  0.49953  5.48469
   spin  1
    eigenvalues: 
  0.996  0.996  0.997  0.997  0.999
    eigenvectors:
  0.542  0.389  0.031  0.038  0.000
  0.000  0.000  0.001  0.001  0.998
  0.039  0.009  0.210  0.741  0.001
  0.358  0.594  0.000  0.047  0.001
  0.060  0.008  0.758  0.174  0.000
    occupations:
  0.996 -0.000  0.000  0.000 -0.000
 -0.000  0.999 -0.000  0.000 -0.000
  0.000 -0.000  0.997 -0.000 -0.000
  0.000  0.000 -0.000  0.996  0.000
 -0.000 -0.000 -0.000  0.000  0.997
   spin  2
    eigenvalues: 
  0.054  0.057  0.057  0.163  0.168
    eigenvectors:
  0.000  0.001  0.000  0.040  0.959
  0.962  0.000  0.037  0.000  0.000
  0.017  0.609  0.374  0.000  0.000
  0.000  0.000  0.001  0.959  0.040
  0.021  0.391  0.588  0.000  0.000
    occupations:
  0.168  0.002 -0.001 -0.001  0.003
  0.002  0.055 -0.000 -0.001 -0.000
 -0.001 -0.000  0.057  0.002  0.000
 -0.001 -0.001  0.002  0.163  0.001
  0.003 -0.000  0.000  0.001  0.057
atomic mag. moment =     4.485637
atom    5   Tr[ns(na)] (up, down, total) =   4.98574  0.49462  5.48036
   spin  1
    eigenvalues: 
  0.996  0.996  0.997  0.998  0.999
    eigenvectors:
  0.671  0.279  0.024  0.023  0.002
  0.000  0.090  0.001  0.908  0.001
  0.000  0.005  0.005  0.000  0.990
  0.262  0.613  0.056  0.068  0.001
  0.067  0.013  0.915  0.000  0.005
    occupations:
  0.996  0.000  0.000  0.000 -0.000
  0.000  0.998 -0.000  0.000 -0.000
  0.000 -0.000  0.999  0.000 -0.000
  0.000  0.000  0.000  0.996  0.000
 -0.000 -0.000 -0.000  0.000  0.997
   spin  2
    eigenvalues: 
  0.052  0.056  0.058  0.156  0.173
    eigenvectors:
  0.000  0.001  0.000  0.196  0.803
  0.006  0.002  0.992  0.000  0.000
  0.985  0.009  0.005  0.000  0.000
  0.000  0.000  0.000  0.803  0.196
  0.008  0.988  0.002  0.000  0.001
    occupations:
  0.169 -0.002 -0.000 -0.006  0.003
 -0.002  0.058 -0.000 -0.001 -0.000
 -0.000 -0.000  0.052  0.002 -0.000
 -0.006 -0.001  0.002  0.159 -0.001
  0.003 -0.000 -0.000 -0.001  0.056
atomic mag. moment =     4.491117
atom    7   Tr[ns(na)] (up, down, total) =   4.98459  0.47966  5.46425
   spin  1
    eigenvalues: 
  0.995  0.996  0.998  0.998  0.998
    eigenvectors:
  0.961  0.015  0.003  0.010  0.010
  0.005  0.047  0.041  0.014  0.893
  0.008  0.029  0.066  0.877  0.019
  0.018  0.905  0.002  0.019  0.056
  0.008  0.003  0.887  0.080  0.021
    occupations:
  0.995  0.000  0.000  0.000 -0.000
  0.000  0.998  0.000  0.000 -0.000
  0.000  0.000  0.998 -0.000 -0.000
  0.000  0.000 -0.000  0.996 -0.000
 -0.000 -0.000 -0.000 -0.000  0.998
   spin  2
    eigenvalues: 
  0.056  0.057  0.058  0.150  0.160
    eigenvectors:
  0.001  0.000  0.000  0.023  0.976
  0.141  0.762  0.096  0.000  0.000
  0.019  0.078  0.901  0.001  0.000
  0.000  0.000  0.002  0.975  0.023
  0.839  0.159  0.000  0.000  0.001
    occupations:
  0.159 -0.000  0.001  0.001  0.003
 -0.000  0.057 -0.000 -0.002 -0.000
  0.001 -0.000  0.058  0.004 -0.000
  0.001 -0.002  0.004  0.150  0.000
  0.003 -0.000 -0.000  0.000  0.056
atomic mag. moment =     4.504928
atom    9   Tr[ns(na)] (up, down, total) =   4.98943  0.44927  5.43869
   spin  1
    eigenvalues: 
  0.997  0.998  0.998  0.998  0.998
    eigenvectors:
  0.380  0.352  0.090  0.008  0.170
  0.040  0.422  0.521  0.008  0.009
  0.061  0.007  0.000  0.931  0.001
  0.500  0.130  0.275  0.052  0.043
  0.018  0.088  0.115  0.001  0.777
    occupations:
  0.998 -0.000 -0.000  0.000  0.000
 -0.000  0.998  0.000 -0.000  0.000
 -0.000  0.000  0.998  0.000  0.000
  0.000 -0.000  0.000  0.998  0.000
  0.000  0.000  0.000  0.000  0.998
   spin  2
    eigenvalues: 
  0.051  0.054  0.055  0.140  0.150
    eigenvectors:
  0.000  0.001  0.000  0.804  0.195
  0.003  0.249  0.747  0.001  0.001
  0.940  0.032  0.027  0.000  0.000
  0.001  0.001  0.001  0.195  0.803
  0.057  0.717  0.226  0.001  0.000
    occupations:
  0.142  0.001 -0.001 -0.004 -0.002
  0.001  0.055  0.000  0.003  0.000
 -0.001  0.000  0.051 -0.002  0.001
 -0.004  0.003 -0.002  0.148 -0.001
 -0.002  0.000  0.001 -0.001  0.054
atomic mag. moment =     4.540165
atom   11   Tr[ns(na)] (up, down, total) =   0.49348  4.98434  5.47782
   spin  1
    eigenvalues: 
  0.053  0.057  0.058  0.157  0.168
    eigenvectors:
  0.000  0.001  0.000  0.879  0.120
  0.989  0.000  0.011  0.000  0.000
  0.011  0.058  0.931  0.000  0.000
  0.000  0.000  0.000  0.120  0.880
  0.000  0.941  0.059  0.001  0.000
    occupations:
  0.158 -0.000  0.000  0.004  0.003
 -0.000  0.053 -0.000 -0.001  0.000
  0.000 -0.000  0.058 -0.001 -0.000
  0.004 -0.001 -0.001  0.167  0.000
  0.003  0.000 -0.000  0.000  0.057
   spin  2
    eigenvalues: 
  0.996  0.996  0.997  0.998  0.998
    eigenvectors:
  0.085  0.152  0.378  0.314  0.070
  0.043  0.037  0.008  0.082  0.829
  0.506  0.487  0.006  0.000  0.000
  0.350  0.296  0.244  0.062  0.049
  0.015  0.028  0.364  0.541  0.052
    occupations:
  0.997  0.000 -0.000 -0.000 -0.000
  0.000  0.997 -0.000  0.000  0.000
 -0.000 -0.000  0.996  0.000 -0.000
 -0.000  0.000  0.000  0.996 -0.000
 -0.000  0.000 -0.000 -0.000  0.997
atomic mag. moment =    -4.490859
atom   13   Tr[ns(na)] (up, down, total) =   0.49379  4.98419  5.47798
   spin  1
    eigenvalues: 
  0.054  0.056  0.059  0.159  0.165
    eigenvectors:
  0.000  0.001  0.000  0.841  0.158
  0.013  0.057  0.930  0.000  0.000
  0.981  0.002  0.017  0.000  0.000
  0.001  0.000  0.000  0.159  0.840
  0.005  0.940  0.053  0.000  0.001
    occupations:
  0.160 -0.001 -0.001 -0.002  0.003
 -0.001  0.059 -0.000  0.002 -0.001
 -0.001 -0.000  0.054  0.002  0.000
 -0.002  0.002  0.002  0.164 -0.002
  0.003 -0.001  0.000 -0.002  0.057
   spin  2
    eigenvalues: 
  0.996  0.997  0.997  0.997  0.998
    eigenvectors:
  0.005  0.065  0.560  0.368  0.002
  0.928  0.067  0.002  0.003  0.000
  0.000  0.038  0.050  0.177  0.736
  0.061  0.826  0.042  0.021  0.052
  0.006  0.004  0.348  0.431  0.211
    occupations:
  0.997 -0.000  0.000  0.000 -0.000
 -0.000  0.996 -0.000  0.000  0.000
  0.000 -0.000  0.997 -0.000  0.000
  0.000  0.000 -0.000  0.997 -0.000
 -0.000  0.000  0.000 -0.000  0.997
atomic mag. moment =    -4.490401
atom   15   Tr[ns(na)] (up, down, total) =   0.49712  4.98394  5.48106
   spin  1
    eigenvalues: 
  0.056  0.056  0.058  0.160  0.167
    eigenvectors:
  0.000  0.000  0.000  0.001  0.999
  0.948  0.024  0.028  0.000  0.000
  0.031  0.958  0.012  0.000  0.000
  0.000  0.000  0.000  0.999  0.001
  0.021  0.018  0.961  0.000  0.000
    occupations:
  0.167 -0.000 -0.001  0.000  0.000
 -0.000  0.056 -0.000  0.001 -0.000
 -0.001 -0.000  0.056  0.002  0.000
  0.000  0.001  0.002  0.160  0.000
  0.000 -0.000  0.000  0.000  0.058
   spin  2
    eigenvalues: 
  0.996  0.996  0.996  0.998  0.998
    eigenvectors:
  0.121  0.231  0.615  0.030  0.002
  0.000  0.074  0.003  0.049  0.873
  0.001  0.012  0.065  0.891  0.031
  0.011  0.612  0.258  0.029  0.090
  0.867  0.070  0.059  0.000  0.003
    occupations:
  0.996  0.000  0.000 -0.000  0.000
  0.000  0.998  0.000  0.000  0.000
  0.000  0.000  0.997 -0.000 -0.000
 -0.000  0.000 -0.000  0.997  0.000
  0.000  0.000 -0.000  0.000  0.996
atomic mag. moment =    -4.486825
N of occupied +U levels =   43.785100
 --- exit write_ns ---

 ------ SPIN UP ------------


          k = 0.0000 0.0000 0.0000 (  5485 PWs)   bands (ev):

   -69.3949 -69.0996 -69.0743 -69.0671 -69.0311 -64.1140 -64.0818 -64.0336
   -38.2732 -38.2648 -38.2418 -37.9866 -37.9754 -37.9699 -37.9604 -37.9552
   -37.9499 -37.9311 -37.9223 -37.9144 -37.9116 -37.8965 -37.8873 -33.1110
   -33.1023 -33.0901 -33.0826 -33.0582 -33.0445 -33.0268 -33.0202 -32.9937
    -7.0188  -6.3774  -6.3193  -6.2811  -6.0201  -5.9588  -5.9217  -5.7945
     4.3754   4.4157   4.4509   4.4582   5.7412   5.7481   6.0494   6.0571
     6.0926   6.2677   6.3621   6.4494   6.4866   6.5093   6.5538   7.2287
     7.2837   7.4365   8.0328   8.0679   8.1933   8.2105   8.2423   8.2524
     8.3351   8.3632   8.3947   8.5624   8.6109   8.6477   8.6577   8.7692
     8.7965   8.8022   9.1148   9.1623   9.2542   9.3300   9.3486   9.3608
     9.3730  10.6728  10.7927  10.8445  10.9280  11.0037  11.0501  12.0414
    12.0615  12.2417  14.6803  14.7152  14.7428  15.3612  15.4061  15.4842
    15.7982  15.8402  15.9028  15.9231  15.9565  16.0271  16.0539  16.1289
    16.1529  16.1877  16.2138

          k =-0.1727 0.1731 0.1744 (  5441 PWs)   bands (ev):

   -69.3951 -69.0993 -69.0740 -69.0668 -69.0304 -64.1142 -64.0815 -64.0333
   -38.2731 -38.2646 -38.2416 -37.9861 -37.9732 -37.9681 -37.9603 -37.9558
   -37.9496 -37.9327 -37.9217 -37.9149 -37.9125 -37.8981 -37.8896 -33.1100
   -33.0998 -33.0900 -33.0816 -33.0589 -33.0473 -33.0273 -33.0209 -32.9945
    -6.9041  -6.4073  -6.3134  -6.2778  -6.0943  -5.9875  -5.9379  -5.8067
     4.6677   4.7151   4.7391   4.8189   5.7816   5.8663   5.8934   5.9436
     5.9644   6.2037   6.3839   6.4404   6.5240   6.6065   6.6885   6.8998
     7.0281   7.0985   7.5138   7.6579   7.6797   7.9518   8.0558   8.0987
     8.1355   8.3168   8.3628   8.5669   8.6775   8.7499   8.8023   8.8821
     8.9921   9.0126   9.1236   9.1895   9.2085   9.2838   9.3212   9.7495
     9.7870  10.7249  10.8164  10.8765  10.8942  10.9972  11.0363  11.6278
    11.6578  13.2082  14.6274  14.8241  14.8726  15.2626  15.3037  15.4056
    15.5049  15.6211  15.7273  15.8453  15.8872  15.9141  15.9701  16.0234
    16.0843  16.1216  17.0980

          k = 0.3453-0.3462-0.3488 (  5454 PWs)   bands (ev):

   -69.3952 -69.0990 -69.0738 -69.0665 -69.0297 -64.1143 -64.0812 -64.0330
   -38.2730 -38.2644 -38.2415 -37.9856 -37.9711 -37.9652 -37.9604 -37.9572
   -37.9494 -37.9343 -37.9209 -37.9153 -37.9137 -37.9000 -37.8918 -33.1090
   -33.0975 -33.0898 -33.0795 -33.0603 -33.0504 -33.0279 -33.0215 -32.9953
    -6.6676  -6.5757  -6.3074  -6.2747  -6.1600  -6.0167  -5.9490  -5.8144
     5.1804   5.2468   5.3285   5.4544   5.5495   5.5931   5.7304   5.8259
     6.0722   6.1668   6.1873   6.3821   6.4327   6.5167   6.6218   6.6604
     6.7214   6.7439   7.0198   7.3927   7.4560   7.7666   7.8428   8.0475
     8.0744   8.1245   8.4470   8.5560   8.6850   8.7971   8.8188   8.9261
     9.0770   9.1669   9.1792   9.2062   9.2151   9.2318   9.2560  10.4202
    10.6042  10.6494  10.7923  10.8342  10.8742  10.9462  10.9945  11.0724
    11.1424  14.5307  14.6760  14.8215  15.0198  15.1162  15.2292  15.2404
    15.2637  15.5098  15.5601  15.7528  15.7663  15.7971  15.8435  15.8770
    15.8843  16.0226  17.9615

          k = 0.1760-0.1753 0.1772 (  5478 PWs)   bands (ev):

   -69.3951 -69.0993 -69.0740 -69.0663 -69.0308 -64.1137 -64.0819 -64.0333
   -38.2730 -38.2646 -38.2416 -37.9858 -37.9733 -37.9693 -37.9595 -37.9550
   -37.9480 -37.9330 -37.9241 -37.9156 -37.9120 -37.8994 -37.8879 -33.1113
   -33.1003 -33.0877 -33.0814 -33.0586 -33.0469 -33.0289 -33.0214 -32.9941
    -6.8989  -6.3846  -6.3444  -6.2739  -6.0931  -5.9799  -5.9343  -5.8229
     4.6596   4.7082   4.7355   4.8771   5.8035   5.8520   5.9323   5.9560
     5.9771   6.2425   6.3559   6.4306   6.5123   6.5995   6.6621   6.9243
     7.0412   7.0849   7.5600   7.5968   7.6626   7.8829   8.0237   8.1166
     8.1817   8.2984   8.4133   8.6038   8.6712   8.7764   8.8216   8.8809
     8.9455   8.9951   9.0619   9.1568   9.2119   9.2879   9.3126   9.7313
     9.7801  10.7134  10.8148  10.8533  10.9098  10.9932  11.0382  11.6305
    11.6534  13.2214  14.6395  14.8069  14.8550  15.2478  15.3082  15.4007
    15.4951  15.6148  15.7539  15.8177  15.8724  15.9031  16.0018  16.0331
    16.0642  16.1090  17.1398

          k = 0.0033-0.0022 0.3516 (  5468 PWs)   bands (ev):

   -69.3948 -69.0995 -69.0741 -69.0665 -69.0306 -64.1134 -64.0812 -64.0335
   -38.2729 -38.2646 -38.2417 -37.9857 -37.9741 -37.9683 -37.9595 -37.9552
   -37.9477 -37.9305 -37.9251 -37.9172 -37.9127 -37.8978 -37.8890 -33.1108
   -33.1012 -33.0885 -33.0822 -33.0585 -33.0446 -33.0295 -33.0216 -32.9948
    -6.8680  -6.4095  -6.3340  -6.2747  -6.0752  -6.0038  -5.9593  -5.8160
     4.7190   4.7868   4.8453   4.8685   5.6944   5.8039   5.9777   6.0728
     6.1081   6.2571   6.3062   6.4146   6.4878   6.5490   6.6536   6.8631
     6.9881   7.1125   7.3837   7.5814   7.6649   7.9095   7.9434   7.9758
     8.2197   8.3082   8.5456   8.5900   8.6849   8.7292   8.8294   8.8850
     8.9488   8.9991   9.1175   9.2429   9.3108   9.4173   9.4454   9.5633
     9.7778  10.5776  10.6786  10.7367  10.8306  10.9201  10.9617  11.0181
    12.0367  13.5752  14.7325  14.7635  14.8092  15.2589  15.3607  15.3766
    15.4120  15.5784  15.6436  15.7435  15.8151  15.8775  16.0458  16.1674
    16.2024  16.7971  16.9981

          k = 0.5213-0.5215-0.1716 (  5473 PWs)   bands (ev):

   -69.3950 -69.0992 -69.0739 -69.0662 -69.0298 -64.1136 -64.0809 -64.0332
   -38.2728 -38.2644 -38.2415 -37.9852 -37.9720 -37.9658 -37.9598 -37.9563
   -37.9470 -37.9323 -37.9247 -37.9177 -37.9136 -37.8991 -37.8915 -33.1098
   -33.0989 -33.0874 -33.0817 -33.0592 -33.0476 -33.0298 -33.0223 -32.9956
    -6.6707  -6.4985  -6.3777  -6.2671  -6.1386  -6.0284  -5.9805  -5.8111
     5.1306   5.1873   5.3021   5.4789   5.5539   5.7390   5.8545   5.9592
     6.0238   6.0961   6.2125   6.3368   6.4771   6.5374   6.6270   6.7008
     6.8847   6.9835   7.0887   7.1549   7.3248   7.4319   7.7667   7.9354
     8.0714   8.3818   8.5164   8.6026   8.6838   8.8322   8.8618   8.9627
     9.0978   9.1683   9.1983   9.3050   9.3942   9.4279   9.5037   9.7790
    10.1118  10.3921  10.5490  10.6582  10.7402  10.8228  10.8491  10.9351
    11.6355  14.6201  14.7840  14.9087  15.0397  15.1695  15.2026  15.2646
    15.3618  15.4320  15.5715  15.6549  15.7268  15.8512  15.9981  16.0341
    16.0929  16.2603  17.4083

          k = 0.3486-0.3484 0.0028 (  5452 PWs)   bands (ev):

   -69.3952 -69.0990 -69.0737 -69.0660 -69.0301 -64.1138 -64.0817 -64.0330
   -38.2729 -38.2645 -38.2415 -37.9853 -37.9706 -37.9675 -37.9596 -37.9558
   -37.9472 -37.9352 -37.9234 -37.9160 -37.9129 -37.9012 -37.8902 -33.1103
   -33.0981 -33.0867 -33.0802 -33.0598 -33.0501 -33.0292 -33.0221 -32.9949
    -6.7402  -6.4588  -6.3531  -6.2663  -6.1571  -6.0004  -5.9702  -5.8182
     5.0444   5.0817   5.1919   5.2574   5.6407   5.7343   5.8663   5.9274
     6.0738   6.2323   6.2543   6.4596   6.4872   6.5485   6.6462   6.7258
     6.8210   6.9234   7.0583   7.1073   7.4296   7.6168   7.7186   8.0666
     8.1286   8.3951   8.4594   8.6232   8.7342   8.8012   8.8750   8.9438
     9.0282   9.1284   9.1698   9.2311   9.2904   9.3670   9.4152   9.5681
    10.5007  10.6035  10.6590  10.7576  10.8164  10.8950  10.9690  11.0217
    11.4417  14.2741  14.8056  14.8730  15.0613  15.1520  15.1806  15.2784
    15.4371  15.4740  15.6283  15.6469  15.7607  15.7899  15.8647  15.9583
    15.9970  16.6053  16.8317

          k =-0.3519 0.3506-0.3544 (  5464 PWs)   bands (ev):

   -69.3952 -69.0990 -69.0736 -69.0655 -69.0305 -64.1133 -64.0821 -64.0330
   -38.2727 -38.2645 -38.2414 -37.9851 -37.9709 -37.9685 -37.9588 -37.9547
   -37.9450 -37.9345 -37.9286 -37.9157 -37.9124 -37.9026 -37.8886 -33.1115
   -33.0988 -33.0831 -33.0810 -33.0592 -33.0498 -33.0315 -33.0222 -32.9944
    -6.6501  -6.5534  -6.3604  -6.2602  -6.1611  -6.0023  -5.9454  -5.8387
     5.1762   5.2733   5.3663   5.4354   5.5592   5.6132   5.8115   5.9535
     6.0834   6.1401   6.2806   6.4166   6.4373   6.5098   6.5586   6.5999
     6.6783   6.7192   7.0247   7.3466   7.3976   7.6713   7.8191   8.0786
     8.0884   8.1263   8.4814   8.5941   8.6740   8.8109   8.8259   8.9476
     9.0167   9.1179   9.1486   9.1684   9.1955   9.2136   9.2611  10.4709
    10.5507  10.5872  10.7387  10.8461  10.9113  10.9434  11.0333  11.0758
    11.1160  14.4835  14.6319  14.8603  15.0205  15.0958  15.2337  15.2743
    15.3043  15.4721  15.5573  15.7751  15.7777  15.8022  15.8225  15.8600
    15.9025  15.9965  17.9073

          k =-0.5246 0.5237-0.1800 (  5471 PWs)   bands (ev):

   -69.3950 -69.0992 -69.0738 -69.0658 -69.0303 -64.1130 -64.0814 -64.0333
   -38.2727 -38.2645 -38.2415 -37.9850 -37.9718 -37.9678 -37.9587 -37.9551
   -37.9439 -37.9326 -37.9291 -37.9180 -37.9130 -37.9005 -37.8897 -33.1110
   -33.0996 -33.0850 -33.0813 -33.0588 -33.0472 -33.0320 -33.0226 -32.9951
    -6.6584  -6.4811  -6.4106  -6.2617  -6.1399  -6.0215  -5.9809  -5.8216
     5.1402   5.1707   5.3146   5.5029   5.6045   5.7423   5.8779   5.9820
     6.0428   6.0985   6.2087   6.3505   6.4409   6.5698   6.6455   6.6751
     6.8382   7.0003   7.0614   7.1308   7.3342   7.3826   7.7543   7.9452
     8.0674   8.3986   8.5356   8.6000   8.6826   8.7981   8.8570   8.9644
     9.0841   9.1724   9.2066   9.2795   9.3791   9.4223   9.4891   9.7988
    10.0922  10.3533  10.5709  10.6468  10.7173  10.8196  10.8717  10.9411
    11.6405  14.6192  14.7754  14.9019  15.0316  15.1205  15.2285  15.2761
    15.3781  15.4042  15.5821  15.6680  15.6846  15.8655  16.0023  16.0471
    16.0941  16.2663  17.4107

          k =-0.0066 0.0045-0.7032 (  5466 PWs)   bands (ev):

   -69.3948 -69.0994 -69.0740 -69.0660 -69.0300 -64.1128 -64.0807 -64.0335
   -38.2727 -38.2645 -38.2416 -37.9849 -37.9728 -37.9664 -37.9592 -37.9554
   -37.9429 -37.9319 -37.9281 -37.9201 -37.9138 -37.8991 -37.8906 -33.1107
   -33.1002 -33.0864 -33.0816 -33.0587 -33.0445 -33.0328 -33.0229 -32.9959
    -6.5939  -6.5707  -6.3574  -6.2598  -6.1342  -6.0480  -5.9951  -5.8205
     5.0996   5.1146   5.3778   5.3998   5.6115   5.8786   6.0019   6.0224
     6.0666   6.1617   6.3439   6.4202   6.4393   6.4914   6.6003   6.6560
     6.6745   6.7917   6.8289   7.3411   7.4298   7.7172   7.7339   7.7735
     8.2149   8.3979   8.6284   8.6661   8.7094   8.7768   8.8407   8.9771
     9.0223   9.2940   9.3519   9.4285   9.4604   9.5125   9.6927   9.7247
     9.8067   9.9245   9.9655  10.3811  10.4876  10.6730  10.8033  10.8744
    12.0201  14.6382  14.8339  14.9163  15.0536  15.1127  15.2720  15.2957
    15.3141  15.3430  15.4585  15.5059  15.8323  16.0666  16.1686  16.2027
    16.4833  16.8020  17.3321

          k = 0.1761 0.1770-0.1753 (  5476 PWs)   bands (ev):

   -69.3941 -69.1003 -69.0745 -69.0672 -69.0313 -64.1132 -64.0809 -64.0327
   -38.2733 -38.2647 -38.2418 -37.9863 -37.9751 -37.9698 -37.9603 -37.9553
   -37.9501 -37.9310 -37.9222 -37.9144 -37.9115 -37.8964 -37.8875 -33.1113
   -33.1029 -33.0906 -33.0830 -33.0588 -33.0447 -33.0271 -33.0205 -32.9942
    -6.9015  -6.3907  -6.3484  -6.2836  -6.0818  -5.9942  -5.9395  -5.7916
     4.6371   4.6785   4.7211   4.8596   5.8388   5.8670   5.9324   5.9490
     5.9774   6.3105   6.3667   6.3988   6.4484   6.5216   6.5486   6.8948
     7.0463   7.2511   7.6693   7.7014   7.8876   8.0919   8.1049   8.1487
     8.2084   8.2523   8.3139   8.5044   8.5519   8.6997   8.7479   8.7808
     8.8146   8.9033   8.9498   9.1266   9.2837   9.3548   9.3944   9.6935
     9.7705  10.7546  10.8402  10.8869  10.9349  11.0051  11.0704  11.6206
    11.6859  13.2302  14.5553  14.6097  14.6429  15.2024  15.3794  15.4637
    15.7261  15.7638  15.7842  15.8650  15.8798  15.9170  15.9597  15.9843
    16.0625  16.1354  17.0556

          k = 0.0034 0.3501-0.0009 (  5458 PWs)   bands (ev):

   -69.3948 -69.0996 -69.0738 -69.0665 -69.0311 -64.1139 -64.0812 -64.0330
   -38.2731 -38.2645 -38.2416 -37.9859 -37.9730 -37.9682 -37.9604 -37.9560
   -37.9500 -37.9328 -37.9218 -37.9150 -37.9120 -37.8979 -37.8892 -33.1102
   -33.1002 -33.0902 -33.0815 -33.0590 -33.0475 -33.0276 -33.0211 -32.9944
    -6.8733  -6.4122  -6.3374  -6.2533  -6.0955  -6.0085  -5.9421  -5.8171
     4.7302   4.7521   4.8219   4.8705   5.7293   5.8011   5.9651   6.0812
     6.1237   6.1930   6.3515   6.4649   6.4941   6.5422   6.5894   6.8361
     6.9829   7.1410   7.4360   7.5564   7.6520   7.9197   7.9740   8.0544
     8.2633   8.2911   8.5072   8.6024   8.6689   8.6985   8.8079   8.8796
     8.9711   8.9964   9.1075   9.2422   9.3132   9.3676   9.4757   9.4976
     9.8054  10.5305  10.7337  10.7810  10.8023  10.8995  10.9849  11.0222
    12.0722  13.5263  14.6950  14.7431  14.8311  15.2465  15.3164  15.3941
    15.4366  15.5930  15.6745  15.7390  15.7903  15.9508  16.0222  16.1348
    16.2393  16.8420  16.9791

          k = 0.5214-0.1692-0.5241 (  5470 PWs)   bands (ev):

   -69.3949 -69.0993 -69.0735 -69.0662 -69.0304 -64.1140 -64.0809 -64.0327
   -38.2730 -38.2643 -38.2415 -37.9854 -37.9708 -37.9655 -37.9605 -37.9572
   -37.9500 -37.9344 -37.9210 -37.9155 -37.9131 -37.8998 -37.8914 -33.1092
   -33.0979 -33.0901 -33.0794 -33.0603 -33.0507 -33.0282 -33.0217 -32.9952
    -6.6780  -6.5045  -6.3566  -6.2664  -6.1568  -6.0444  -5.9471  -5.8180
     5.1161   5.1781   5.3124   5.4123   5.6029   5.7346   5.8104   5.9840
     6.0036   6.1398   6.2829   6.3624   6.4698   6.5284   6.6451   6.6993
     6.7768   6.8421   7.0605   7.3176   7.3371   7.6103   7.7458   7.7986
     8.2263   8.3311   8.4014   8.6560   8.7071   8.8143   8.9207   8.9815
     9.0678   9.1383   9.1980   9.3079   9.3575   9.4087   9.4640   9.7862
    10.0464  10.4437  10.5554  10.6127  10.7149  10.8408  10.8906  10.9888
    11.6810  14.5418  14.6930  14.9965  15.0800  15.1505  15.2094  15.2413
    15.2713  15.4465  15.5384  15.7244  15.9130  15.9410  15.9717  15.9931
    16.0496  16.1588  17.4349

          k = 0.3487 0.0039-0.3497 (  5457 PWs)   bands (ev):

   -69.3943 -69.1000 -69.0742 -69.0669 -69.0306 -64.1134 -64.0806 -64.0325
   -38.2732 -38.2646 -38.2416 -37.9858 -37.9729 -37.9682 -37.9603 -37.9557
   -37.9500 -37.9326 -37.9216 -37.9149 -37.9124 -37.8980 -37.8898 -33.1103
   -33.1004 -33.0903 -33.0821 -33.0595 -33.0475 -33.0277 -33.0211 -32.9950
    -6.7400  -6.4604  -6.3636  -6.2897  -6.1246  -6.0482  -5.9396  -5.7979
     5.0156   5.0531   5.2138   5.2471   5.5858   5.7147   5.8121   6.0147
     6.0754   6.1348   6.2647   6.3532   6.4789   6.5293   6.5963   6.7799
     6.8391   7.1103   7.1935   7.3248   7.5057   7.6822   7.7703   7.9667
     8.2661   8.3217   8.3396   8.5285   8.5958   8.7008   8.7877   8.9372
     8.9902   9.0171   9.1970   9.2259   9.3263   9.4060   9.4498   9.6269
    10.5427  10.5738  10.6188  10.7519  10.7905  10.8635  11.0598  11.1967
    11.4347  14.3041  14.5415  14.7592  14.8123  15.1872  15.3192  15.4141
    15.5094  15.5390  15.6368  15.6791  15.7843  15.8272  15.8840  15.9363
    16.0216  16.5420  16.8721

          k = 0.3520 0.0017 0.0019 (  5468 PWs)   bands (ev):

   -69.3948 -69.0995 -69.0737 -69.0670 -69.0306 -64.1134 -64.0817 -64.0330
   -38.2730 -38.2646 -38.2416 -37.9855 -37.9733 -37.9690 -37.9597 -37.9548
   -37.9483 -37.9329 -37.9240 -37.9154 -37.9121 -37.8995 -37.8882 -33.1114
   -33.1003 -33.0878 -33.0817 -33.0589 -33.0469 -33.0291 -33.0212 -32.9943
    -6.8682  -6.4155  -6.3051  -6.2926  -6.0746  -6.0200  -5.9488  -5.8159
     4.7281   4.7964   4.8250   4.8765   5.7006   5.8000   5.9826   6.0469
     6.1169   6.2406   6.3337   6.4140   6.4644   6.5881   6.6085   6.8686
     7.0004   7.1211   7.4012   7.5700   7.6700   7.8993   7.9387   7.9655
     8.2314   8.3230   8.5459   8.6009   8.6849   8.7198   8.8167   8.9003
     8.9434   9.0181   9.0885   9.2255   9.2994   9.4015   9.4647   9.5481
     9.8083  10.5957  10.6628  10.7492  10.8315  10.9095  10.9557  11.0175
    12.0439  13.5683  14.7315  14.7549  14.8221  15.2514  15.3515  15.3798
    15.4166  15.5862  15.6670  15.7344  15.7947  15.9161  16.0282  16.1462
    16.2224  16.8249  16.9513

          k = 0.1794 0.1747 0.1763 (  5481 PWs)   bands (ev):

   -69.3951 -69.0993 -69.0734 -69.0668 -69.0308 -64.1137 -64.0815 -64.0338
   -38.2730 -38.2646 -38.2416 -37.9856 -37.9743 -37.9680 -37.9597 -37.9555
   -37.9481 -37.9306 -37.9251 -37.9171 -37.9124 -37.8979 -37.8887 -33.1107
   -33.1011 -33.0883 -33.0820 -33.0583 -33.0445 -33.0297 -33.0214 -32.9944
    -6.9008  -6.3788  -6.3109  -6.3006  -6.0576  -6.0433  -5.9361  -5.8044
     4.6543   4.7001   4.7443   4.8870   5.8172   5.8539   5.9029   5.9681
     5.9891   6.2701   6.3419   6.4688   6.5050   6.6001   6.6416   6.8828
     7.0327   7.0836   7.5307   7.6212   7.6650   7.8894   8.0482   8.1299
     8.1716   8.3101   8.4011   8.6229   8.6545   8.7610   8.8345   8.8915
     8.9262   8.9883   9.0720   9.1610   9.2052   9.2960   9.3266   9.7219
     9.7660  10.7155  10.7864  10.8441  10.8730  11.0089  11.0573  11.6138
    11.6661  13.2219  14.6493  14.8021  14.8448  15.2537  15.3261  15.3739
    15.5116  15.6357  15.7400  15.7794  15.8824  15.9298  15.9894  16.0513
    16.0741  16.1101  17.1136

[...]
   -38.0140 -33.2033 -33.1922 -33.1683 -32.9484 -32.9421 -32.9374 -32.9285
   -32.9251 -32.9077 -32.9045 -32.8981 -32.8899 -32.8808 -32.8760 -32.8650
    -6.6345  -6.3541  -6.2024  -6.0769  -6.0121  -5.8471  -5.7566  -5.7215
     5.3519   5.4646   5.5748   5.6252   5.8518   6.0407   6.1222   6.3672
     6.4997   6.5408   6.6372   6.7350   6.9354   7.2347   7.2739   7.4055
     7.5230   7.6197   7.7619   7.8587   8.0428   8.1614   8.1669   8.3767
     8.4993   8.7592   8.8541   8.9378   9.0269   9.0780   9.1675   9.2999
     9.5406  10.4240  10.5456  10.6450  10.6894  10.8081  10.9412  14.3864
    14.4668  14.5317  14.5682  14.8460  15.0535  15.1775  15.2183  15.4000
    15.4677  15.5142  15.6619  15.7364  15.7715  15.8090  15.8336  15.8598
    15.9226  15.9404  15.9605  15.9974  16.0541  16.0853  16.1641  16.2282
    16.3838  17.0250  17.2857

          k =-0.1726 0.5254-0.1781 (  5457 PWs)   bands (ev):

   -69.2406 -69.2110 -69.1614 -64.2088 -63.9341 -63.9296 -63.9269 -63.8923
   -38.1190 -38.1148 -38.0959 -38.0932 -38.0814 -38.0637 -38.0383 -38.0343
   -38.0147 -33.2036 -33.1925 -33.1691 -32.9456 -32.9394 -32.9337 -32.9293
   -32.9184 -32.9105 -32.9042 -32.9000 -32.8902 -32.8839 -32.8781 -32.8667
    -6.5574  -6.4149  -6.1620  -6.0998  -6.0148  -5.8772  -5.7690  -5.7198
     5.4446   5.5960   5.6931   5.8362   5.8960   6.1213   6.2273   6.2936
     6.4665   6.5294   6.6215   6.6999   6.7338   6.9258   7.1035   7.3215
     7.4481   7.5223   7.6572   7.8432   7.9814   8.1824   8.2977   8.4725
     8.6475   8.7168   8.8190   9.0070   9.1295   9.1799   9.2097   9.3306
     9.5369  10.2732  10.4391  10.5444  10.6176  10.7582  10.8754  14.4235
    14.6598  14.7384  14.7923  14.9651  15.0693  15.1922  15.2194  15.3334
    15.4250  15.4484  15.4750  15.5188  15.6138  15.6696  15.7437  15.7814
    15.8590  15.9169  16.0144  16.0607  16.1144  16.2050  16.3001  16.3450
    16.5769  16.6558  17.7786

          k = 0.3454 0.0061-0.7013 (  5471 PWs)   bands (ev):

   -69.2408 -69.2117 -69.1611 -64.2090 -63.9340 -63.9290 -63.9268 -63.8925
   -38.1189 -38.1148 -38.0967 -38.0935 -38.0804 -38.0616 -38.0387 -38.0348
   -38.0151 -33.2035 -33.1926 -33.1684 -32.9450 -32.9406 -32.9343 -32.9282
   -32.9214 -32.9071 -32.9059 -32.8966 -32.8909 -32.8879 -32.8750 -32.8686
    -6.4901  -6.3769  -6.2418  -6.1609  -5.9904  -5.8886  -5.7605  -5.7147
     5.6266   5.6720   5.7288   5.9193   6.0183   6.0612   6.2109   6.2800
     6.3439   6.5180   6.6099   6.7333   6.8026   6.8701   7.0815   7.2628
     7.4276   7.5420   7.6042   7.7981   7.8696   8.0513   8.2053   8.4428
     8.6508   8.7300   8.8204   9.0302   9.1289   9.1615   9.3594   9.4843
     9.6731  10.0462  10.2059  10.4085  10.6931  10.7805  10.8095  14.6435
    14.6819  14.8208  14.9357  14.9726  15.0390  15.0945  15.1705  15.3036
    15.3980  15.4340  15.4525  15.5029  15.5504  15.6595  15.6821  15.7729
    15.8283  15.9301  15.9749  15.9850  16.1243  16.2050  16.2954  16.3331
    17.0039  17.1892  17.3115

          k = 0.1728 0.1792-0.5269 (  5463 PWs)   bands (ev):

   -69.2415 -69.2119 -69.1614 -64.2097 -63.9335 -63.9284 -63.9259 -63.8923
   -38.1192 -38.1153 -38.0983 -38.0936 -38.0797 -38.0596 -38.0385 -38.0346
   -38.0145 -33.2031 -33.1923 -33.1676 -32.9478 -32.9433 -32.9376 -32.9283
   -32.9254 -32.9080 -32.9051 -32.8943 -32.8906 -32.8845 -32.8731 -32.8667
    -6.5765  -6.3433  -6.2401  -6.1389  -5.9897  -5.8420  -5.7630  -5.7208
     5.4286   5.4914   5.6172   5.7583   5.9759   6.0843   6.1740   6.3330
     6.4054   6.5181   6.5699   6.8252   6.9038   7.1522   7.1872   7.3532
     7.4936   7.5679   7.7751   7.8171   7.9345   8.1464   8.1940   8.3481
     8.4888   8.6962   8.8457   8.9041   9.1394   9.1622   9.2252   9.3539
     9.5511  10.3279  10.4349  10.4979  10.7236  10.7824  10.8409  14.4105
    14.5155  14.6664  14.7047  14.9083  15.0243  15.1465  15.2639  15.3204
    15.3826  15.4896  15.5048  15.5830  15.7571  15.7806  15.8270  15.8338
    15.9026  15.9282  16.0238  16.0651  16.1228  16.1786  16.2204  16.4060
    16.5415  16.6145  17.8774

          k =-0.3521-0.3540 0.3506 (  5476 PWs)   bands (ev):

   -69.2418 -69.2123 -69.1622 -64.2105 -63.9334 -63.9278 -63.9249 -63.8915
   -38.1196 -38.1155 -38.0995 -38.0940 -38.0797 -38.0597 -38.0363 -38.0337
   -38.0136 -33.2028 -33.1912 -33.1672 -32.9504 -32.9477 -32.9421 -32.9297
   -32.9270 -32.9098 -32.9019 -32.8943 -32.8895 -32.8806 -32.8716 -32.8640
    -6.5850  -6.3992  -6.2585  -6.0886  -6.0059  -5.7686  -5.7542  -5.7462
     5.3524   5.3929   5.4548   5.8298   6.1163   6.1748   6.2529   6.3065
     6.3136   6.3849   6.4816   6.6571   6.7532   7.2022   7.4175   7.4285
     7.5974   7.6816   7.7287   8.0254   8.0980   8.2743   8.2859   8.3890
     8.5310   8.6333   8.7269   8.7736   8.9281   9.0210   9.1241   9.1903
     9.2190  10.5268  10.6681  10.7359  10.8903  10.9962  11.0247  14.3885
    14.4051  14.4363  14.5909  14.7960  15.1508  15.1752  15.2056  15.2449
    15.2751  15.7374  15.7627  15.7840  15.8133  15.8433  15.8567  15.9565
    15.9792  15.9923  16.0069  16.0247  16.0706  16.1040  16.1155  16.2008
    16.2296  16.2561  18.1279

          k =-0.5248-0.1809 0.5250 (  5470 PWs)   bands (ev):

   -69.2411 -69.2120 -69.1619 -64.2098 -63.9339 -63.9284 -63.9257 -63.8917
   -38.1193 -38.1149 -38.0983 -38.0937 -38.0803 -38.0616 -38.0367 -38.0338
   -38.0143 -33.2031 -33.1915 -33.1680 -32.9476 -32.9452 -32.9392 -32.9297
   -32.9240 -32.9089 -32.9023 -32.8958 -32.8902 -32.8826 -32.8741 -32.8657
    -6.5730  -6.3586  -6.2458  -6.1233  -5.9754  -5.8527  -5.7740  -5.7110
     5.4534   5.4878   5.6018   5.7413   5.9393   6.0652   6.1843   6.3281
     6.3721   6.5090   6.7226   6.7676   6.9135   7.1572   7.2071   7.3666
     7.4971   7.5645   7.7212   7.8381   7.8576   8.1454   8.1851   8.3238
     8.5438   8.7454   8.8644   8.9456   9.0951   9.2018   9.2426   9.3208
     9.5474  10.2982  10.4516  10.5454  10.6647  10.7769  10.8406  14.4468
    14.5543  14.6541  14.6932  14.8661  15.0027  15.1358  15.2423  15.3460
    15.3870  15.4702  15.5117  15.5892  15.6905  15.7265  15.8057  15.8351
    15.9025  15.9506  16.0590  16.1101  16.1503  16.2455  16.2715  16.3016
    16.5638  16.6563  17.7901

          k =-0.0068-0.7001 0.0017 (  5466 PWs)   bands (ev):

   -69.2403 -69.2118 -69.1617 -64.2090 -63.9345 -63.9291 -63.9266 -63.8920
   -38.1190 -38.1144 -38.0971 -38.0930 -38.0813 -38.0637 -38.0371 -38.0339
   -38.0150 -33.2035 -33.1918 -33.1688 -32.9446 -32.9426 -32.9365 -32.9305
   -32.9178 -32.9086 -32.9034 -32.8969 -32.8916 -32.8857 -32.8768 -32.8670
    -6.5110  -6.4330  -6.1647  -6.1258  -5.9561  -5.9246  -5.7911  -5.7149
     5.3870   5.4750   5.7509   5.8638   6.0976   6.1939   6.3915   6.4486
     6.4683   6.5648   6.6211   6.7068   6.7288   6.7642   6.7986   7.3372
     7.4051   7.4591   7.5626   7.8016   8.0224   8.2770   8.4432   8.5156
     8.6111   8.6175   8.8028   9.0370   9.3228   9.3780   9.4207   9.4750
     9.7464   9.8304   9.9215  10.2778  10.5154  10.6806  10.8347  14.4026
    14.7005  14.7241  14.8632  15.0404  15.0885  15.1445  15.1974  15.2782
    15.3252  15.3738  15.3906  15.4959  15.5861  15.6023  15.6095  15.6430
    15.7119  15.9631  16.0423  16.1032  16.2480  16.3756  16.4366  16.8657
    16.9349  17.2654  17.8141

          k =-0.1762-0.5293 0.5278 (  5468 PWs)   bands (ev):

   -69.2416 -69.2115 -69.1619 -64.2097 -63.9339 -63.9286 -63.9253 -63.8923
   -38.1193 -38.1152 -38.0975 -38.0935 -38.0802 -38.0616 -38.0379 -38.0342
   -38.0138 -33.2037 -33.1916 -33.1675 -32.9485 -32.9419 -32.9377 -32.9289
   -32.9252 -32.9078 -32.9048 -32.8982 -32.8902 -32.8809 -32.8759 -32.8650
    -6.5755  -6.3222  -6.2858  -6.0987  -6.0001  -5.8549  -5.7484  -5.7291
     5.4602   5.5103   5.5589   5.7822   5.9831   6.0693   6.1544   6.3020
     6.4044   6.5390   6.6305   6.7981   6.8647   7.1626   7.2134   7.4029
     7.4847   7.5358   7.7468   7.8215   7.9072   8.1820   8.2201   8.2891
     8.4893   8.7275   8.8727   8.8878   9.1271   9.1750   9.2177   9.3520
     9.5552  10.3310  10.4457  10.5270  10.6667  10.7871  10.8411  14.3980
    14.5193  14.6757  14.7089  14.8976  15.0156  15.1558  15.2598  15.3302
    15.3692  15.4777  15.5044  15.6030  15.7449  15.7624  15.8162  15.8428
    15.9074  15.9414  16.0360  16.0877  16.1194  16.1768  16.2476  16.3598
    16.5525  16.6173  17.8702

          k =-0.3488-0.3562 0.7022 (  5463 PWs)   bands (ev):

   -69.2414 -69.2117 -69.1612 -64.2095 -63.9342 -63.9287 -63.9257 -63.8921
   -38.1194 -38.1152 -38.0984 -38.0937 -38.0798 -38.0597 -38.0383 -38.0347
   -38.0147 -33.2040 -33.1918 -33.1679 -32.9477 -32.9430 -32.9376 -32.9284
   -32.9254 -32.9077 -32.9051 -32.8943 -32.8906 -32.8844 -32.8729 -32.8665
    -6.6435  -6.2848  -6.2136  -6.1784  -5.9508  -5.8558  -5.7529  -5.7263
     5.3759   5.4151   5.5987   5.6317   5.9116   6.0041   6.1154   6.4174
     6.4989   6.5364   6.5694   6.7592   6.9507   7.2124   7.2703   7.3897
     7.5304   7.6409   7.7374   7.8677   8.0259   8.1957   8.2416   8.3227
     8.4992   8.7267   8.8361   8.9659   8.9906   9.0784   9.1780   9.2653
     9.5385  10.4744  10.5379  10.5764  10.7232  10.7977  10.9687  14.3865
    14.4560  14.5153  14.5909  14.8425  15.0500  15.1725  15.2198  15.3867
    15.4957  15.5230  15.6865  15.7334  15.7723  15.8161  15.8354  15.8518
    15.9158  15.9481  15.9579  15.9953  16.0368  16.0825  16.1653  16.2109
    16.3666  17.0633  17.2556

          k = 0.1692-0.8754 0.1789 (  5466 PWs)   bands (ev):

   -69.2406 -69.2115 -69.1610 -64.2088 -63.9347 -63.9293 -63.9265 -63.8923
   -38.1191 -38.1147 -38.0968 -38.0937 -38.0805 -38.0617 -38.0386 -38.0349
   -38.0154 -33.2043 -33.1921 -33.1687 -32.9448 -32.9403 -32.9343 -32.9284
   -32.9212 -32.9070 -32.9056 -32.8966 -32.8909 -32.8877 -32.8749 -32.8683
    -6.5824  -6.3220  -6.2353  -6.1427  -5.9364  -5.9096  -5.7632  -5.7242
     5.4563   5.5651   5.6728   5.8573   5.9484   6.1462   6.2025   6.2995
     6.4706   6.5202   6.6326   6.6707   6.7619   6.9618   7.0797   7.2880
     7.4589   7.5238   7.6043   7.8792   7.9510   8.2104   8.3249   8.4972
     8.6192   8.7026   8.7876   8.9939   9.1163   9.1802   9.2163   9.3171
     9.5352  10.2899  10.4432  10.5530  10.6353  10.7441  10.8720  14.4297
    14.6404  14.7245  14.7949  14.9683  15.0633  15.1915  15.2465  15.3552
    15.4100  15.4449  15.4842  15.5187  15.6278  15.6773  15.7177  15.7679
    15.8531  15.9019  16.0148  16.0708  16.1231  16.1949  16.3001  16.3500
    16.5824  16.6451  17.7748

          k =-0.0035-0.7024 0.3533 (  5470 PWs)   bands (ev):

   -69.2408 -69.2112 -69.1616 -64.2090 -63.9344 -63.9293 -63.9261 -63.8925
   -38.1190 -38.1147 -38.0959 -38.0930 -38.0811 -38.0637 -38.0381 -38.0344
   -38.0146 -33.2041 -33.1919 -33.1684 -32.9457 -32.9392 -32.9340 -32.9297
   -32.9184 -32.9106 -32.9045 -32.9003 -32.8904 -32.8839 -32.8781 -32.8667
    -6.4861  -6.3882  -6.2217  -6.1749  -5.9757  -5.9037  -5.7556  -5.7182
     5.6190   5.6754   5.7425   5.9169   5.9968   6.0560   6.2188   6.2800
     6.3929   6.5278   6.6016   6.6974   6.7552   6.8828   7.1377   7.2602
     7.4662   7.5204   7.5804   7.8037   7.8505   8.0309   8.1878   8.4038
     8.7052   8.7554   8.8410   9.0257   9.0854   9.1683   9.3889   9.4847
     9.6734  10.0537  10.2240  10.4034  10.6737  10.7226  10.8515  14.6204
    14.6850  14.8369  14.9424  14.9774  15.0196  15.1083  15.1660  15.3382
    15.3996  15.4159  15.4494  15.4878  15.5676  15.6305  15.6754  15.7626
    15.8041  15.9374  15.9736  16.0035  16.1160  16.2069  16.2734  16.4109
    16.9875  17.1499  17.2989

          k =-0.7040-0.0033-0.0038 (  5480 PWs)   bands (ev):

   -69.2413 -69.2107 -69.1615 -64.2089 -63.9344 -63.9295 -63.9256 -63.8931
   -38.1191 -38.1149 -38.0946 -38.0933 -38.0809 -38.0637 -38.0398 -38.0344
   -38.0141 -33.2047 -33.1920 -33.1679 -32.9467 -32.9361 -32.9312 -32.9290
   -32.9184 -32.9114 -32.9059 -32.9039 -32.8901 -32.8822 -32.8802 -32.8660
    -6.5198  -6.4060  -6.1873  -6.1092  -5.9801  -5.9203  -5.7609  -5.7394
     5.3848   5.4910   5.7496   5.8968   6.1428   6.2334   6.3966   6.4234
     6.5118   6.5413   6.6275   6.6491   6.7091   6.7441   6.7810   7.3683
     7.4059   7.4618   7.5019   7.7488   8.0731   8.3180   8.4884   8.5239
     8.5704   8.6366   8.7782   8.9527   9.3314   9.3695   9.4036   9.4816
     9.7552   9.8285   9.9320  10.2452  10.5362  10.7204  10.8273  14.3809
    14.6192  14.6896  14.9372  15.0078  15.1329  15.2002  15.2452  15.2869
    15.3414  15.3666  15.3872  15.5088  15.5909  15.6227  15.6362  15.6506
    15.6863  15.9317  16.0026  16.0824  16.2407  16.2989  16.3913  16.8448
    17.0784  17.3386  17.7445

          k =-0.8767 0.1698 0.1706 (  5473 PWs)   bands (ev):

   -69.2411 -69.2109 -69.1609 -64.2087 -63.9347 -63.9295 -63.9260 -63.8929
   -38.1191 -38.1150 -38.0960 -38.0934 -38.0803 -38.0616 -38.0402 -38.0350
   -38.0149 -33.2050 -33.1921 -33.1683 -32.9459 -32.9374 -32.9316 -32.9263
   -32.9220 -32.9120 -32.9042 -32.8994 -32.8909 -32.8863 -32.8765 -32.8673
    -6.5801  -6.3204  -6.2204  -6.1664  -5.9352  -5.8988  -5.7643  -5.7311
     5.4468   5.5541   5.7349   5.8491   5.9635   6.1187   6.2006   6.3265
     6.4615   6.5503   6.6374   6.6732   6.7354   6.9131   7.1150   7.2799
     7.4452   7.5230   7.5940   7.8387   7.9237   8.2791   8.3381   8.5122
     8.6202   8.7094   8.7676   8.9676   9.1210   9.1757   9.2157   9.3130
     9.5382  10.2850  10.4245  10.5161  10.6566  10.7823  10.8764  14.4490
    14.5546  14.7191  14.8435  14.9553  15.0807  15.1666  15.2244  15.3589
    15.4288  15.4866  15.5001  15.5283  15.6285  15.6842  15.7340  15.7806
    15.8617  15.8924  15.9876  16.0673  16.1010  16.1605  16.2690  16.4474
    16.5586  16.6121  17.8240

          k =-0.3587-0.3495-0.3527 (  5478 PWs)   bands (ev):

   -69.2409 -69.2112 -69.1602 -64.2085 -63.9350 -63.9296 -63.9264 -63.8926
   -38.1192 -38.1150 -38.0974 -38.0932 -38.0800 -38.0595 -38.0406 -38.0356
   -38.0157 -33.2052 -33.1923 -33.1686 -32.9452 -32.9391 -32.9311 -32.9244
   -32.9233 -32.9133 -32.9023 -32.8938 -32.8916 -32.8913 -32.8744 -32.8686
    -6.6019  -6.3297  -6.2547  -6.1298  -5.9193  -5.8777  -5.7667  -5.7304
     5.5216   5.5620   5.6381   5.9163   5.9664   6.0162   6.0744   6.4131
     6.4492   6.5387   6.5755   6.6036   6.6994   6.7406   7.0725   7.5257
     7.5697   7.5938   7.7380   7.8518   7.9960   8.2822   8.3541   8.4304
     8.4729   8.7461   8.9151   8.9457   9.0302   9.0705   9.1123   9.1418
     9.2092  10.5360  10.7294  10.7530  10.8204  10.9073  10.9672  14.4074
    14.5579  14.6205  14.6711  14.9198  15.0891  15.1952  15.2344  15.4296
    15.5322  15.5897  15.6203  15.6767  15.7650  15.7675  15.8078  15.9068
    15.9116  15.9272  15.9481  15.9881  15.9968  16.0688  16.0816  16.1241
    16.1843  16.2252  18.0525

     the Fermi energy is    12.2214 ev

!    total energy              =   -1946.24017768 Ry
     Harris-Foulkes estimate   =   -1946.24017763 Ry
     estimated scf accuracy    <          3.1E-09 Ry

     The total energy is the sum of the following terms:

     one-electron contribution =    -903.94164676 Ry
     hartree contribution      =     535.09350952 Ry
     xc contribution           =    -269.79522344 Ry
     ewald contribution        =   -1307.98594643 Ry
     Hubbard energy            =       0.38927124 Ry
     smearing contrib. (-TS)   =      -0.00014181 Ry

     total magnetization       =    10.00 Bohr mag/cell
     absolute magnetization    =    38.07 Bohr mag/cell

     convergence has been achieved in  13 iterations

     Forces acting on atoms (Ry/au):


     negative rho (up, down):  5.629E-04 2.050E-03
     atom    1 type  1   force =   0.52801013E-03 -0.36347500E-02 -0.19498917E-01
     atom    2 type  3   force =  -0.68206721E-02 -0.15225015E-02 -0.13704181E-01
     atom    3 type  1   force =   0.20277545E-01  0.12056474E-01  0.92561876E-02
     atom    4 type  3   force =   0.45058914E-02  0.10732759E-01 -0.52744192E-02
     atom    5 type  1   force =   0.17041104E-01  0.12655883E-01 -0.10941282E-02
     atom    6 type  3   force =   0.13990894E-01 -0.88862262E-02 -0.77696526E-02
     atom    7 type  1   force =  -0.14290463E-01  0.62852234E-02 -0.73024063E-02
     atom    8 type  3   force =   0.77349150E-02  0.12090370E-01  0.60753634E-02
     atom    9 type  1   force =   0.49013548E-02 -0.60090091E-02  0.13166320E-01
     atom   10 type  3   force =  -0.35815897E-02  0.35385826E-03  0.89025122E-02
     atom   11 type  2   force =  -0.15072748E-01 -0.12176800E-01  0.61314477E-02
     atom   12 type  3   force =  -0.22555560E-02 -0.90221333E-02  0.34085812E-02
     atom   13 type  2   force =  -0.60285856E-02 -0.17235864E-01 -0.11249350E-01
     atom   14 type  3   force =   0.21408724E-02 -0.92530943E-02  0.42971693E-02
     atom   15 type  2   force =  -0.70832022E-02  0.13468685E-01  0.49263976E-02
     atom   16 type  3   force =  -0.15987769E-01  0.97126572E-04  0.97290748E-02

     Total force =     0.069096     Total SCF correction =     0.000171


     entering subroutine stress ...


     negative rho (up, down):  5.629E-04 2.050E-03
          total   stress  (Ry/bohr**3)                   (kbar)     P=  -35.27
  -0.0002231472   0.0000336118   0.0001042272        -32.83      4.94     15.33
   0.0000336118  -0.0002640826  -0.0000082587          4.94    -38.85     -1.21
   0.0001042272  -0.0000082587  -0.0002320664         15.33     -1.21    -34.14


     Writing output data file mno_fm.scf.in.super.222.sub.055.save

     init_run     :     61.06s CPU     62.37s WALL (       1 calls)
     electrons    :   1943.38s CPU   2080.84s WALL (       1 calls)
     forces       :    150.34s CPU    168.88s WALL (       1 calls)
     stress       :    448.00s CPU    499.54s WALL (       1 calls)

     Called by init_run:
     wfcinit      :     57.82s CPU     59.06s WALL (       1 calls)
     potinit      :      0.90s CPU      0.93s WALL (       1 calls)

     Called by electrons:
     c_bands      :   1739.20s CPU   1866.86s WALL (      13 calls)
     sum_band     :    197.03s CPU    206.44s WALL (      13 calls)
     v_of_rho     :      1.79s CPU      1.88s WALL (      14 calls)
     newd         :      4.87s CPU      4.96s WALL (      14 calls)
     mix_rho      :      0.77s CPU      0.93s WALL (      13 calls)

     Called by c_bands:
     init_us_2    :      8.70s CPU      9.26s WALL (    2880 calls)
     cegterg      :   1706.36s CPU   1832.35s WALL (     936 calls)

     Called by *egterg:
     h_psi        :    899.40s CPU    967.36s WALL (    3469 calls)
     s_psi        :    120.98s CPU     94.10s WALL (    4261 calls)
     g_psi        :      1.09s CPU      1.17s WALL (    2461 calls)
     cdiaghg      :    379.34s CPU    470.45s WALL (    3397 calls)

     Called by h_psi:
     add_vuspsi   :     92.00s CPU     75.05s WALL (    3469 calls)
     vhpsi        :     82.19s CPU    104.59s WALL (    3469 calls)

     General routines
     calbec       :    730.10s CPU    789.22s WALL (   52586 calls)
     fft          :      1.54s CPU      1.66s WALL (     468 calls)
     ffts         :      0.49s CPU      0.56s WALL (     328 calls)
     fftw         :    675.08s CPU    760.41s WALL (  584200 calls)
     interpolate  :      0.23s CPU      0.27s WALL (      54 calls)
     davcio       :      0.02s CPU      0.03s WALL (      72 calls)

     Parallel routines
     fft_scatter  :    279.47s CPU    313.63s WALL (  584996 calls)
     Hubbard U routines
     new_ns       :     17.57s CPU     18.77s WALL (      13 calls)
     vhpsi        :     82.19s CPU    104.59s WALL (    3469 calls)
     force_hub    :    132.89s CPU    154.47s WALL (       1 calls)
     stres_hub    :    413.35s CPU    465.05s WALL (       1 calls)

     PWSCF        : 43m28.18s CPU    46m58.23s WALL


   This run was terminated on:  11:22:19  17Aug2017            

=------------------------------------------------------------------------------=
   JOB DONE.
=------------------------------------------------------------------------------=
