
     Program PWSCF v.5.1 starts on 16Aug2017 at 18:45:37 

     This program is part of the open-source Quantum ESPRESSO suite
     for quantum simulation of materials; please cite
         "P. Giannozzi et al., J. Phys.:Condens. Matter 21 395502 (2009);
          URL http://www.quantum-espresso.org", 
     in publications or presentations arising from this work. More details at
     http://www.quantum-espresso.org/quote

     Parallel version (MPI), running on     8 processors
     R & G space division:  proc/nbgrp/npool/nimage =       8
     Reading input from /tmp/mno_afm.in.222.03.29171/mno_afm.in.222.03.t
Warning: card &IONS ignored
Warning: card   ION_DYNAMICS='BFGS', ignored
Warning: card / ignored
Warning: card &CELL ignored
Warning: card  CELL_DYNAMICS = 'BFGS' ignored
Warning: card / ignored

     Current dimensions of program PWSCF are:
     Max number of different atomic species (ntypx) = 10
     Max number of k-points (npk) =  40000
     Max angular momentum in pseudopotentials (lmaxx) =  3
 kfg - two_fermi_energies  F

     Subspace diagonalization in iterative solution of the eigenvalue problem:
     a serial algorithm will be used


     Parallelization info
     --------------------
     sticks:   dense  smooth     PW     G-vecs:    dense   smooth      PW
     Min         242     200     57                 7129     5289     816
     Max         243     201     58                 7131     5300     818
     Sum        1943    1605    459                57043    42351    6537

     Generating pointlists ...
     new r_m :   0.1410 (alat units)  1.6655 (a.u.) for type    1
     new r_m :   0.1426 (alat units)  1.6840 (a.u.) for type    2
     new r_m :   0.1410 (alat units)  1.6655 (a.u.) for type    3


     bravais-lattice index     =            0
     lattice parameter (alat)  =    11.809860670  a.u.
     unit-cell volume          =    1194.2399 (a.u.)^3
     number of atoms/cell      =           16
     number of atomic types    =            3
     number of electrons       =       168.00
     number of Kohn-Sham states=          101
     kinetic-energy cutoff     =      41.0000  Ry
     charge density cutoff     =     200.0000  Ry
     convergence threshold     =      1.0E-08
     mixing beta               =       0.3000
     number of iterations used =            8  local-TF  mixing
     Exchange-correlation      = SLA  PW   PSX  PSC ( 1  4 10  8 0)
     A smooth kinetic-energy cutoff is imposed at      40.0000 Ry
     height of the smooth step-function =             800.0000 Ry
     width of the smooth step-function  =               1.0000 Ry


     celldm(1)=  11.809861  celldm(2)=   0.000000  celldm(3)=   0.000000
     celldm(4)=   0.000000  celldm(5)=   0.000000  celldm(6)=   0.000000

     crystal axes: (cart. coord. in units of alat)
               a(1) = (  -0.012055939014   0.707055391866   0.707055391866 )  
               a(2) = (   0.707055391866  -0.012055939014   0.707055391866 )  
               a(3) = (   0.707055391866   0.707055391866  -0.012055939014 )  

     reciprocal axes: (cart. coord. in units 2 pi/alat)
               b(1) = ( -0.689324  0.701281  0.701281 )  
               b(2) = (  0.701281 -0.689324  0.701281 )  
               b(3) = (  0.701281  0.701281 -0.689324 )  


     PseudoPot. # 1 for Mn read from file:
     /users/kfg/psuedo/gbrv_1.5/mn.pbesol.UPF
     MD5 check sum: 0716d5f563e6e95a34f9080f4c78c109
     Pseudo is Ultrasoft + core correction, Zval = 15.0
     Generated by new atomic code, or converted to UPF format
     Using radial grid of  859 points,  6 beta functions with: 
                l(1) =   0
                l(2) =   0
                l(3) =   1
                l(4) =   1
                l(5) =   2
                l(6) =   2
     Q(r) pseudized with  8 coefficients,  rinner =    0.950   0.950   0.950
                                                       0.950   0.950

     PseudoPot. # 2 for Mn read from file:
     /users/kfg/psuedo/gbrv_1.5/mn.pbesol.UPF
     MD5 check sum: 0716d5f563e6e95a34f9080f4c78c109
     Pseudo is Ultrasoft + core correction, Zval = 15.0
     Generated by new atomic code, or converted to UPF format
     Using radial grid of  859 points,  6 beta functions with: 
                l(1) =   0
                l(2) =   0
                l(3) =   1
                l(4) =   1
                l(5) =   2
                l(6) =   2
     Q(r) pseudized with  8 coefficients,  rinner =    0.950   0.950   0.950
                                                       0.950   0.950

     PseudoPot. # 3 for O  read from file:
     /users/kfg/psuedo/gbrv_1.5/o.pbesol.UPF
     MD5 check sum: 501638753501ef6325af9037351f7734
     Pseudo is Ultrasoft + core correction, Zval =  6.0
     Generated by new atomic code, or converted to UPF format
     Using radial grid of  737 points,  5 beta functions with: 
                l(1) =   0
                l(2) =   0
                l(3) =   1
                l(4) =   1
                l(5) =   2
     Q(r) pseudized with  8 coefficients,  rinner =    0.900   0.900   0.900
                                                       0.900   0.900

     atomic species   valence    mass     pseudopotential
        Mn            15.00    54.90000     Mn( 1.00)
        Fe            15.00    54.90000     Mn( 1.00)
        O              6.00    15.99900     O ( 1.00)

     Starting magnetic structure 
     atomic species   magnetization
        Mn           1.000
        Fe          -1.000
        O            0.000


     Simplified LDA+U calculation (l_max = 2) with parameters (eV):
     atomic species    L          U    alpha       J0     beta
        Mn             2     3.0000   0.0000   0.0000   0.0000
        Fe             2     3.0000   0.0000   0.0000   0.0000



     No symmetry found



   Cartesian axes

     site n.     atom                  positions (alat units)
         1           Mn  tau(   1) = (   -0.00051735079    0.00799860848    0.00771600129  )
         2           O   tau(   2) = (    0.35612476613    0.35435208303    0.35026795464  )
         3           Fe  tau(   3) = (    0.69511322329    0.69836817873    0.70422958187  )
         4           O   tau(   4) = (    1.04876420455    1.04683055100    1.05947077292  )
         5           Mn  tau(   5) = (    1.04846712947    1.05743483647    0.70199384046  )
         6           O   tau(   6) = (    0.69141644264    0.69590206420    1.05797114416  )
         7           Fe  tau(   7) = (    0.34741532568    0.35743994583   -0.00414180864  )
         8           O   tau(   8) = (    0.71133606339    0.70686162764    0.34762142455  )
         9           Mn  tau(   9) = (    0.34679314691    0.71242796295    0.33958659484  )
        10           O   tau(  10) = (    0.69106147257    1.05858190048    0.70034380329  )
        11           Fe  tau(  11) = (    0.35430353003   -0.00889960991    0.35845728992  )
        12           O   tau(  12) = (    0.70236770989    0.34710114673    0.71059624742  )
        13           Mn  tau(  13) = (    0.70006420884    1.04614345313    1.05141006068  )
        14           O   tau(  14) = (    1.06107231431    0.69876488068    0.70483722141  )
        15           Fe  tau(  15) = (    0.69566076506    1.06005174503    0.33988417821  )
        16           O   tau(  16) = (    0.34951920427    0.70415969925    0.70919094565  )

     number of k points=    72  gaussian smearing, width (Ry)=  0.0100
                       cart. coord. in units 2pi/alat
        k(    1) = (   0.0000000   0.0000000   0.0000000), wk =   0.0156250
        k(    2) = (   0.1753203   0.1753203  -0.1723310), wk =   0.0312500
        k(    3) = (  -0.3506407  -0.3506407   0.3446619), wk =   0.0156250
        k(    4) = (   0.3506407   0.0029894   0.0029894), wk =   0.0312500
        k(    5) = (  -0.1753203  -0.5229717   0.5199823), wk =   0.0312500
        k(    6) = (   0.0000000  -0.3476513   0.3476513), wk =   0.0312500
        k(    7) = (  -0.7012814  -0.0059787  -0.0059787), wk =   0.0156250
        k(    8) = (   0.1783097   0.1783097   0.1783097), wk =   0.0312500
        k(    9) = (  -0.3476513  -0.3476513   0.6953026), wk =   0.0312500
        k(   10) = (  -0.1723310  -0.1723310   0.5229717), wk =   0.0312500
        k(   11) = (  -0.8736123   0.1693416   0.1693416), wk =   0.0312500
        k(   12) = (  -0.6982920   0.3446619  -0.0029894), wk =   0.0312500
        k(   13) = (  -0.3566194  -0.3566194  -0.3566194), wk =   0.0156250
        k(   14) = (   0.1723310  -0.1753203  -0.1753203), wk =   0.0312500
        k(   15) = (  -0.1753203   0.1723310  -0.1753203), wk =   0.0312500
        k(   16) = (  -0.3446619   0.3506407   0.3506407), wk =   0.0156250
        k(   17) = (   0.3506407  -0.3446619   0.3506407), wk =   0.0156250
        k(   18) = (  -0.0029894  -0.3506407  -0.0029894), wk =   0.0312500
        k(   19) = (  -0.0029894  -0.0029894  -0.3506407), wk =   0.0312500
        k(   20) = (   0.5229717   0.1753203  -0.5199823), wk =   0.0312500
        k(   21) = (  -0.5199823   0.5229717   0.1753203), wk =   0.0312500
        k(   22) = (   0.1753203  -0.5199823   0.5229717), wk =   0.0312500
        k(   23) = (  -0.5229717   0.5199823  -0.1753203), wk =   0.0312500
        k(   24) = (   0.5199823  -0.1753203  -0.5229717), wk =   0.0312500
        k(   25) = (   0.3476513   0.0000000  -0.3476513), wk =   0.0312500
        k(   26) = (  -0.3476513   0.3476513   0.0000000), wk =   0.0312500
        k(   27) = (   0.0059787   0.7012814   0.0059787), wk =   0.0156250
        k(   28) = (   0.0059787   0.0059787   0.7012814), wk =   0.0156250
        k(   29) = (  -0.6953026   0.3476513   0.3476513), wk =   0.0312500
        k(   30) = (   0.3476513  -0.6953026   0.3476513), wk =   0.0312500
        k(   31) = (  -0.5229717   0.1723310   0.1723310), wk =   0.0312500
        k(   32) = (   0.1723310  -0.5229717   0.1723310), wk =   0.0312500
        k(   33) = (  -0.1693416   0.8736123  -0.1693416), wk =   0.0312500
        k(   34) = (  -0.1693416  -0.1693416   0.8736123), wk =   0.0312500
        k(   35) = (  -0.3446619   0.6982920   0.0029894), wk =   0.0312500
        k(   36) = (   0.6982920   0.0029894  -0.3446619), wk =   0.0312500
        k(   37) = (   0.0000000   0.0000000   0.0000000), wk =   0.0156250
        k(   38) = (   0.1753203   0.1753203  -0.1723310), wk =   0.0312500
        k(   39) = (  -0.3506407  -0.3506407   0.3446619), wk =   0.0156250
        k(   40) = (   0.3506407   0.0029894   0.0029894), wk =   0.0312500
        k(   41) = (  -0.1753203  -0.5229717   0.5199823), wk =   0.0312500
        k(   42) = (   0.0000000  -0.3476513   0.3476513), wk =   0.0312500
        k(   43) = (  -0.7012814  -0.0059787  -0.0059787), wk =   0.0156250
        k(   44) = (   0.1783097   0.1783097   0.1783097), wk =   0.0312500
        k(   45) = (  -0.3476513  -0.3476513   0.6953026), wk =   0.0312500
        k(   46) = (  -0.1723310  -0.1723310   0.5229717), wk =   0.0312500
        k(   47) = (  -0.8736123   0.1693416   0.1693416), wk =   0.0312500
        k(   48) = (  -0.6982920   0.3446619  -0.0029894), wk =   0.0312500
        k(   49) = (  -0.3566194  -0.3566194  -0.3566194), wk =   0.0156250
        k(   50) = (   0.1723310  -0.1753203  -0.1753203), wk =   0.0312500
        k(   51) = (  -0.1753203   0.1723310  -0.1753203), wk =   0.0312500
        k(   52) = (  -0.3446619   0.3506407   0.3506407), wk =   0.0156250
        k(   53) = (   0.3506407  -0.3446619   0.3506407), wk =   0.0156250
        k(   54) = (  -0.0029894  -0.3506407  -0.0029894), wk =   0.0312500
        k(   55) = (  -0.0029894  -0.0029894  -0.3506407), wk =   0.0312500
        k(   56) = (   0.5229717   0.1753203  -0.5199823), wk =   0.0312500
        k(   57) = (  -0.5199823   0.5229717   0.1753203), wk =   0.0312500
        k(   58) = (   0.1753203  -0.5199823   0.5229717), wk =   0.0312500
        k(   59) = (  -0.5229717   0.5199823  -0.1753203), wk =   0.0312500
        k(   60) = (   0.5199823  -0.1753203  -0.5229717), wk =   0.0312500
        k(   61) = (   0.3476513   0.0000000  -0.3476513), wk =   0.0312500
        k(   62) = (  -0.3476513   0.3476513   0.0000000), wk =   0.0312500
        k(   63) = (   0.0059787   0.7012814   0.0059787), wk =   0.0156250
        k(   64) = (   0.0059787   0.0059787   0.7012814), wk =   0.0156250
        k(   65) = (  -0.6953026   0.3476513   0.3476513), wk =   0.0312500
        k(   66) = (   0.3476513  -0.6953026   0.3476513), wk =   0.0312500
        k(   67) = (  -0.5229717   0.1723310   0.1723310), wk =   0.0312500
        k(   68) = (   0.1723310  -0.5229717   0.1723310), wk =   0.0312500
        k(   69) = (  -0.1693416   0.8736123  -0.1693416), wk =   0.0312500
        k(   70) = (  -0.1693416  -0.1693416   0.8736123), wk =   0.0312500
        k(   71) = (  -0.3446619   0.6982920   0.0029894), wk =   0.0312500
        k(   72) = (   0.6982920   0.0029894  -0.3446619), wk =   0.0312500

     Dense  grid:    57043 G-vectors     FFT dimensions: (  54,  54,  54)

     Smooth grid:    42351 G-vectors     FFT dimensions: (  50,  50,  50)

     Largest allocated arrays     est. size (Mb)     dimensions
        Kohn-Sham Wavefunctions         1.04 Mb     (     675,  101)
        Atomic Hubbard wavefuncts       0.41 Mb     (     675,   40)
        NL pseudopotentials             2.55 Mb     (     675,  248)
        Each V/rho on FFT grid          0.62 Mb     (   20412,   2)
        Each G-vector array             0.05 Mb     (    7131)
        G-vector shells                 0.02 Mb     (    3247)
     Largest temporary arrays     est. size (Mb)     dimensions
        Auxiliary wavefunctions         4.16 Mb     (     675,  404)
        Each subspace H/S matrix        2.49 Mb     (     404,  404)
        Each <psi_i|beta_j> matrix      0.38 Mb     (     248,  101)
        Arrays for rho mixing           2.49 Mb     (   20412,    8)

     Check: negative/imaginary core charge=   -0.000061    0.000000

     Initial potential from superposition of free atoms

     starting charge  163.99935, renormalised to  168.00000
     Number of +U iterations with fixed ns =  0
     Starting occupations:
 --- enter write_ns ---
 LDA+U parameters:
U( 1)     =  3.00000000
alpha( 1) =  0.00000000
U( 2)     =  3.00000000
alpha( 2) =  0.00000000
atom    1   Tr[ns(na)] (up, down, total) =   5.00000  0.00000  5.00000
   spin  1
    eigenvalues: 
  1.000  1.000  1.000  1.000  1.000
    eigenvectors:
  1.000  0.000  0.000  0.000  0.000
  0.000  1.000  0.000  0.000  0.000
  0.000  0.000  1.000  0.000  0.000
  0.000  0.000  0.000  1.000  0.000
  0.000  0.000  0.000  0.000  1.000
    occupations:
  1.000  0.000  0.000  0.000  0.000
  0.000  1.000  0.000  0.000  0.000
  0.000  0.000  1.000  0.000  0.000
  0.000  0.000  0.000  1.000  0.000
  0.000  0.000  0.000  0.000  1.000
   spin  2
    eigenvalues: 
  0.000  0.000  0.000  0.000  0.000
    eigenvectors:
  1.000  0.000  0.000  0.000  0.000
  0.000  1.000  0.000  0.000  0.000
  0.000  0.000  1.000  0.000  0.000
  0.000  0.000  0.000  1.000  0.000
  0.000  0.000  0.000  0.000  1.000
    occupations:
  0.000  0.000  0.000  0.000  0.000
  0.000  0.000  0.000  0.000  0.000
  0.000  0.000  0.000  0.000  0.000
  0.000  0.000  0.000  0.000  0.000
  0.000  0.000  0.000  0.000  0.000
atomic mag. moment =     5.000000
atom    3   Tr[ns(na)] (up, down, total) =   0.00000  5.00000  5.00000
   spin  1
    eigenvalues: 
  0.000  0.000  0.000  0.000  0.000
    eigenvectors:
  1.000  0.000  0.000  0.000  0.000
  0.000  1.000  0.000  0.000  0.000
  0.000  0.000  1.000  0.000  0.000
  0.000  0.000  0.000  1.000  0.000
  0.000  0.000  0.000  0.000  1.000
    occupations:
  0.000  0.000  0.000  0.000  0.000
  0.000  0.000  0.000  0.000  0.000
  0.000  0.000  0.000  0.000  0.000
  0.000  0.000  0.000  0.000  0.000
  0.000  0.000  0.000  0.000  0.000
   spin  2
    eigenvalues: 
  1.000  1.000  1.000  1.000  1.000
    eigenvectors:
  1.000  0.000  0.000  0.000  0.000
  0.000  1.000  0.000  0.000  0.000
  0.000  0.000  1.000  0.000  0.000
  0.000  0.000  0.000  1.000  0.000
  0.000  0.000  0.000  0.000  1.000
    occupations:
  1.000  0.000  0.000  0.000  0.000
  0.000  1.000  0.000  0.000  0.000
  0.000  0.000  1.000  0.000  0.000
  0.000  0.000  0.000  1.000  0.000
  0.000  0.000  0.000  0.000  1.000
atomic mag. moment =    -5.000000
atom    5   Tr[ns(na)] (up, down, total) =   5.00000  0.00000  5.00000
   spin  1
    eigenvalues: 
  1.000  1.000  1.000  1.000  1.000
    eigenvectors:
  1.000  0.000  0.000  0.000  0.000
  0.000  1.000  0.000  0.000  0.000
  0.000  0.000  1.000  0.000  0.000
  0.000  0.000  0.000  1.000  0.000
  0.000  0.000  0.000  0.000  1.000
    occupations:
  1.000  0.000  0.000  0.000  0.000
  0.000  1.000  0.000  0.000  0.000
  0.000  0.000  1.000  0.000  0.000
  0.000  0.000  0.000  1.000  0.000
  0.000  0.000  0.000  0.000  1.000
   spin  2
    eigenvalues: 
  0.000  0.000  0.000  0.000  0.000
    eigenvectors:
  1.000  0.000  0.000  0.000  0.000
  0.000  1.000  0.000  0.000  0.000
  0.000  0.000  1.000  0.000  0.000
  0.000  0.000  0.000  1.000  0.000
  0.000  0.000  0.000  0.000  1.000
    occupations:
  0.000  0.000  0.000  0.000  0.000
  0.000  0.000  0.000  0.000  0.000
  0.000  0.000  0.000  0.000  0.000
  0.000  0.000  0.000  0.000  0.000
  0.000  0.000  0.000  0.000  0.000
atomic mag. moment =     5.000000
atom    7   Tr[ns(na)] (up, down, total) =   0.00000  5.00000  5.00000
   spin  1
    eigenvalues: 
  0.000  0.000  0.000  0.000  0.000
    eigenvectors:
  1.000  0.000  0.000  0.000  0.000
  0.000  1.000  0.000  0.000  0.000
  0.000  0.000  1.000  0.000  0.000
  0.000  0.000  0.000  1.000  0.000
  0.000  0.000  0.000  0.000  1.000
    occupations:
  0.000  0.000  0.000  0.000  0.000
  0.000  0.000  0.000  0.000  0.000
  0.000  0.000  0.000  0.000  0.000
  0.000  0.000  0.000  0.000  0.000
  0.000  0.000  0.000  0.000  0.000
   spin  2
    eigenvalues: 
  1.000  1.000  1.000  1.000  1.000
    eigenvectors:
  1.000  0.000  0.000  0.000  0.000
  0.000  1.000  0.000  0.000  0.000
  0.000  0.000  1.000  0.000  0.000
  0.000  0.000  0.000  1.000  0.000
  0.000  0.000  0.000  0.000  1.000
    occupations:
  1.000  0.000  0.000  0.000  0.000
  0.000  1.000  0.000  0.000  0.000
  0.000  0.000  1.000  0.000  0.000
  0.000  0.000  0.000  1.000  0.000
  0.000  0.000  0.000  0.000  1.000
atomic mag. moment =    -5.000000
atom    9   Tr[ns(na)] (up, down, total) =   5.00000  0.00000  5.00000
   spin  1
    eigenvalues: 
  1.000  1.000  1.000  1.000  1.000
    eigenvectors:
  1.000  0.000  0.000  0.000  0.000
  0.000  1.000  0.000  0.000  0.000
  0.000  0.000  1.000  0.000  0.000
  0.000  0.000  0.000  1.000  0.000
  0.000  0.000  0.000  0.000  1.000
    occupations:
  1.000  0.000  0.000  0.000  0.000
  0.000  1.000  0.000  0.000  0.000
  0.000  0.000  1.000  0.000  0.000
  0.000  0.000  0.000  1.000  0.000
  0.000  0.000  0.000  0.000  1.000
   spin  2
    eigenvalues: 
  0.000  0.000  0.000  0.000  0.000
    eigenvectors:
  1.000  0.000  0.000  0.000  0.000
  0.000  1.000  0.000  0.000  0.000
  0.000  0.000  1.000  0.000  0.000
  0.000  0.000  0.000  1.000  0.000
  0.000  0.000  0.000  0.000  1.000
    occupations:
  0.000  0.000  0.000  0.000  0.000
  0.000  0.000  0.000  0.000  0.000
  0.000  0.000  0.000  0.000  0.000
  0.000  0.000  0.000  0.000  0.000
  0.000  0.000  0.000  0.000  0.000
atomic mag. moment =     5.000000
atom   11   Tr[ns(na)] (up, down, total) =   0.00000  5.00000  5.00000
   spin  1
    eigenvalues: 
  0.000  0.000  0.000  0.000  0.000
    eigenvectors:
  1.000  0.000  0.000  0.000  0.000
  0.000  1.000  0.000  0.000  0.000
  0.000  0.000  1.000  0.000  0.000
  0.000  0.000  0.000  1.000  0.000
  0.000  0.000  0.000  0.000  1.000
    occupations:
  0.000  0.000  0.000  0.000  0.000
  0.000  0.000  0.000  0.000  0.000
  0.000  0.000  0.000  0.000  0.000
  0.000  0.000  0.000  0.000  0.000
  0.000  0.000  0.000  0.000  0.000
   spin  2
    eigenvalues: 
  1.000  1.000  1.000  1.000  1.000
    eigenvectors:
  1.000  0.000  0.000  0.000  0.000
  0.000  1.000  0.000  0.000  0.000
  0.000  0.000  1.000  0.000  0.000
  0.000  0.000  0.000  1.000  0.000
  0.000  0.000  0.000  0.000  1.000
    occupations:
  1.000  0.000  0.000  0.000  0.000
  0.000  1.000  0.000  0.000  0.000
  0.000  0.000  1.000  0.000  0.000
  0.000  0.000  0.000  1.000  0.000
  0.000  0.000  0.000  0.000  1.000
atomic mag. moment =    -5.000000
atom   13   Tr[ns(na)] (up, down, total) =   5.00000  0.00000  5.00000
   spin  1
    eigenvalues: 
  1.000  1.000  1.000  1.000  1.000
    eigenvectors:
  1.000  0.000  0.000  0.000  0.000
  0.000  1.000  0.000  0.000  0.000
  0.000  0.000  1.000  0.000  0.000
  0.000  0.000  0.000  1.000  0.000
  0.000  0.000  0.000  0.000  1.000
    occupations:
  1.000  0.000  0.000  0.000  0.000
  0.000  1.000  0.000  0.000  0.000
  0.000  0.000  1.000  0.000  0.000
  0.000  0.000  0.000  1.000  0.000
  0.000  0.000  0.000  0.000  1.000
   spin  2
    eigenvalues: 
  0.000  0.000  0.000  0.000  0.000
    eigenvectors:
  1.000  0.000  0.000  0.000  0.000
  0.000  1.000  0.000  0.000  0.000
  0.000  0.000  1.000  0.000  0.000
  0.000  0.000  0.000  1.000  0.000
  0.000  0.000  0.000  0.000  1.000
    occupations:
  0.000  0.000  0.000  0.000  0.000
  0.000  0.000  0.000  0.000  0.000
  0.000  0.000  0.000  0.000  0.000
  0.000  0.000  0.000  0.000  0.000
  0.000  0.000  0.000  0.000  0.000
atomic mag. moment =     5.000000
atom   15   Tr[ns(na)] (up, down, total) =   0.00000  5.00000  5.00000
   spin  1
    eigenvalues: 
  0.000  0.000  0.000  0.000  0.000
    eigenvectors:
  1.000  0.000  0.000  0.000  0.000
  0.000  1.000  0.000  0.000  0.000
  0.000  0.000  1.000  0.000  0.000
  0.000  0.000  0.000  1.000  0.000
  0.000  0.000  0.000  0.000  1.000
    occupations:
  0.000  0.000  0.000  0.000  0.000
  0.000  0.000  0.000  0.000  0.000
  0.000  0.000  0.000  0.000  0.000
  0.000  0.000  0.000  0.000  0.000
  0.000  0.000  0.000  0.000  0.000
   spin  2
    eigenvalues: 
  1.000  1.000  1.000  1.000  1.000
    eigenvectors:
  1.000  0.000  0.000  0.000  0.000
  0.000  1.000  0.000  0.000  0.000
  0.000  0.000  1.000  0.000  0.000
  0.000  0.000  0.000  1.000  0.000
  0.000  0.000  0.000  0.000  1.000
    occupations:
  1.000  0.000  0.000  0.000  0.000
  0.000  1.000  0.000  0.000  0.000
  0.000  0.000  1.000  0.000  0.000
  0.000  0.000  0.000  1.000  0.000
  0.000  0.000  0.000  0.000  1.000
atomic mag. moment =    -5.000000
N of occupied +U levels =   40.000000
 --- exit write_ns ---
 Atomic wfc used for LDA+U Projector are NOT orthogonalized
     Starting wfc are  136 randomized atomic wfcs

     total cpu time spent up to now is       58.0 secs

     per-process dynamical memory:   133.8 Mb

     Self-consistent Calculation

     iteration #  1     ecut=    41.00 Ry     beta=0.30
     Davidson diagonalization with overlap
     ethr =  1.00E-02,  avg # of iterations =  4.5
 --- enter write_ns ---
 LDA+U parameters:
U( 1)     =  3.00000000
alpha( 1) =  0.00000000
U( 2)     =  3.00000000
alpha( 2) =  0.00000000
atom    1   Tr[ns(na)] (up, down, total) =   4.99423  0.20504  5.19928
   spin  1
    eigenvalues: 
  0.998  0.998  0.998  1.000  1.000
    eigenvectors:
  0.000  0.002  0.002  0.667  0.328
  0.220  0.429  0.348  0.002  0.001
  0.648  0.002  0.348  0.000  0.001
  0.000  0.001  0.001  0.329  0.668
  0.132  0.565  0.300  0.002  0.001
    occupations:
  1.000 -0.000 -0.000 -0.000 -0.000
 -0.000  0.998  0.000 -0.000 -0.000
 -0.000  0.000  0.998  0.000 -0.000
 -0.000 -0.000  0.000  1.000 -0.000
 -0.000 -0.000 -0.000 -0.000  0.998
   spin  2
    eigenvalues: 
  0.025  0.025  0.025  0.065  0.065
    eigenvectors:
  0.001  0.000  0.000  0.993  0.005
  0.690  0.146  0.163  0.001  0.000
  0.009  0.661  0.330  0.000  0.000
  0.000  0.000  0.000  0.005  0.994
  0.300  0.193  0.507  0.000  0.000
    occupations:
  0.065 -0.001 -0.000  0.000 -0.001
 -0.001  0.025  0.000 -0.000 -0.000
 -0.000  0.000  0.025  0.001 -0.000
  0.000 -0.000  0.001  0.065 -0.000
 -0.001 -0.000 -0.000 -0.000  0.025
atomic mag. moment =     4.789192
atom    3   Tr[ns(na)] (up, down, total) =   0.21136  4.99399  5.20535
   spin  1
    eigenvalues: 
  0.025  0.026  0.026  0.067  0.067
    eigenvectors:
  0.000  0.000  0.000  0.657  0.343
  0.214  0.102  0.684  0.000  0.000
  0.764  0.000  0.236  0.000  0.000
  0.000  0.000  0.000  0.343  0.657
  0.022  0.898  0.080  0.000  0.000
    occupations:
  0.067  0.001  0.000 -0.000 -0.000
  0.001  0.026  0.000 -0.000 -0.000
  0.000  0.000  0.026 -0.000 -0.000
 -0.000 -0.000 -0.000  0.067  0.000
 -0.000 -0.000 -0.000  0.000  0.026
   spin  2
    eigenvalues: 
  0.998  0.998  0.998  0.999  1.000
    eigenvectors:
  0.000  0.001  0.000  0.283  0.716
  0.088  0.647  0.264  0.000  0.000
  0.155  0.352  0.493  0.000  0.000
  0.002  0.000  0.001  0.714  0.283
  0.755  0.000  0.242  0.002  0.001
    occupations:
  0.999  0.000 -0.000  0.000  0.000
  0.000  0.998  0.000 -0.000 -0.000
 -0.000  0.000  0.998 -0.000 -0.000
  0.000 -0.000 -0.000  0.999  0.000
  0.000 -0.000 -0.000  0.000  0.998
atomic mag. moment =    -4.782621
atom    5   Tr[ns(na)] (up, down, total) =   4.99441  0.20111  5.19552
   spin  1
    eigenvalues: 
  0.998  0.998  0.998  1.000  1.000
    eigenvectors:
  0.000  0.001  0.002  0.198  0.798
  0.796  0.032  0.171  0.001  0.000
  0.007  0.703  0.287  0.003  0.001
  0.000  0.001  0.000  0.798  0.200
  0.196  0.264  0.540  0.000  0.000
    occupations:
  1.000  0.000  0.000 -0.000  0.000
  0.000  0.998  0.000  0.000 -0.000
  0.000  0.000  0.998  0.000 -0.000
 -0.000  0.000  0.000  1.000  0.000
  0.000 -0.000 -0.000  0.000  0.998
   spin  2
    eigenvalues: 
  0.024  0.025  0.025  0.063  0.065
    eigenvectors:
  0.000  0.000  0.000  0.896  0.104
  0.858  0.118  0.024  0.000  0.000
  0.140  0.638  0.222  0.000  0.000
  0.000  0.000  0.000  0.104  0.896
  0.001  0.244  0.754  0.000  0.000
    occupations:
  0.063  0.000  0.000  0.001 -0.001
  0.000  0.024  0.000 -0.001 -0.000
  0.000  0.000  0.025  0.000 -0.000
  0.001 -0.001  0.000  0.065  0.000
 -0.001 -0.000 -0.000  0.000  0.025
atomic mag. moment =     4.793292
atom    7   Tr[ns(na)] (up, down, total) =   0.21359  4.99403  5.20761
   spin  1
    eigenvalues: 
  0.025  0.026  0.026  0.067  0.069
    eigenvectors:
  0.000  0.000  0.000  0.134  0.866
  0.059  0.101  0.840  0.000  0.000
  0.169  0.791  0.040  0.000  0.000
  0.000  0.000  0.000  0.866  0.133
  0.772  0.108  0.120  0.000  0.000
    occupations:
  0.069 -0.001 -0.001 -0.001 -0.000
 -0.001  0.026  0.000 -0.000 -0.000
 -0.001  0.000  0.026  0.001 -0.000
 -0.001 -0.000  0.001  0.067 -0.000
 -0.000 -0.000 -0.000 -0.000  0.026
   spin  2
    eigenvalues: 
  0.998  0.998  0.998  0.999  1.000
    eigenvectors:
  0.000  0.000  0.004  0.993  0.002
  0.001  0.512  0.484  0.002  0.000
  0.335  0.338  0.326  0.000  0.000
  0.001  0.000  0.000  0.002  0.997
  0.663  0.149  0.185  0.001  0.001
    occupations:
  0.999 -0.000 -0.000  0.000  0.000
 -0.000  0.998  0.000  0.000 -0.000
 -0.000  0.000  0.998 -0.000 -0.000
  0.000  0.000 -0.000  1.000  0.000
  0.000 -0.000 -0.000  0.000  0.998
atomic mag. moment =    -4.780443
atom    9   Tr[ns(na)] (up, down, total) =   4.99348  0.20787  5.20135
   spin  1
    eigenvalues: 
  0.998  0.998  0.998  0.999  0.999
    eigenvectors:
  0.000  0.011  0.000  0.834  0.155
  0.547  0.204  0.246  0.003  0.001
  0.006  0.448  0.540  0.003  0.003
  0.000  0.001  0.000  0.159  0.840
  0.447  0.337  0.214  0.001  0.001
    occupations:
  0.999 -0.000  0.000 -0.000  0.000
 -0.000  0.998  0.000  0.000 -0.000
  0.000  0.000  0.998 -0.000 -0.000
 -0.000  0.000 -0.000  0.999 -0.000
  0.000 -0.000 -0.000 -0.000  0.998
   spin  2
    eigenvalues: 
  0.024  0.025  0.027  0.063  0.069
    eigenvectors:
  0.000  0.000  0.000  0.331  0.669
  0.739  0.256  0.005  0.000  0.000
  0.000  0.020  0.980  0.001  0.000
  0.000  0.001  0.001  0.667  0.331
  0.261  0.724  0.015  0.001  0.000
    occupations:
  0.067  0.000  0.000  0.003 -0.000
  0.000  0.025  0.000 -0.001 -0.000
  0.000  0.000  0.027  0.001 -0.000
  0.003 -0.001  0.001  0.065  0.001
 -0.000 -0.000 -0.000  0.001  0.025
atomic mag. moment =     4.785610
atom   11   Tr[ns(na)] (up, down, total) =   0.20967  4.99396  5.20363
   spin  1
    eigenvalues: 
  0.024  0.026  0.026  0.063  0.070
    eigenvectors:
  0.000  0.000  0.000  0.624  0.376
  0.006  0.058  0.936  0.000  0.000
  0.990  0.001  0.008  0.000  0.000
  0.000  0.000  0.000  0.375  0.624
  0.003  0.940  0.056  0.001  0.000
    occupations:
  0.066 -0.000 -0.000 -0.003 -0.000
 -0.000  0.026  0.000 -0.000 -0.000
 -0.000  0.000  0.024 -0.000 -0.000
 -0.003 -0.000 -0.000  0.068 -0.001
 -0.000 -0.000 -0.000 -0.001  0.026
   spin  2
    eigenvalues: 
  0.998  0.998  0.998  0.999  1.000
    eigenvectors:
  0.000  0.000  0.002  0.189  0.809
  0.008  0.417  0.565  0.010  0.000
  0.867  0.045  0.076  0.011  0.001
  0.008  0.001  0.013  0.789  0.189
  0.118  0.537  0.344  0.001  0.000
    occupations:
  1.000  0.000  0.000  0.000 -0.000
  0.000  0.998  0.000 -0.000 -0.000
  0.000  0.000  0.998 -0.000 -0.000
  0.000 -0.000 -0.000  0.999  0.000
 -0.000 -0.000 -0.000  0.000  0.998
atomic mag. moment =    -4.784295
atom   13   Tr[ns(na)] (up, down, total) =   4.99379  0.20778  5.20157
   spin  1
    eigenvalues: 
  0.998  0.998  0.998  0.999  1.000
    eigenvectors:
  0.002  0.002  0.000  0.277  0.719
  0.290  0.438  0.270  0.000  0.001
  0.615  0.030  0.354  0.001  0.000
  0.000  0.000  0.000  0.721  0.279
  0.093  0.531  0.375  0.001  0.000
    occupations:
  0.999  0.000 -0.000  0.000  0.000
  0.000  0.998  0.000  0.000 -0.000
 -0.000  0.000  0.998  0.000 -0.000
  0.000  0.000  0.000  0.999 -0.000
  0.000 -0.000 -0.000 -0.000  0.998
   spin  2
    eigenvalues: 
  0.025  0.025  0.026  0.064  0.068
    eigenvectors:
  0.000  0.001  0.000  0.753  0.247
  0.012  0.587  0.400  0.001  0.000
  0.940  0.003  0.057  0.000  0.000
  0.000  0.002  0.000  0.246  0.752
  0.048  0.408  0.543  0.001  0.000
    occupations:
  0.065 -0.001 -0.000 -0.002 -0.001
 -0.001  0.026  0.000 -0.001 -0.000
 -0.000  0.000  0.025  0.000 -0.000
 -0.002 -0.001  0.000  0.067 -0.001
 -0.001 -0.000 -0.000 -0.001  0.026
atomic mag. moment =     4.786016
atom   15   Tr[ns(na)] (up, down, total) =   0.20877  4.99405  5.20281
   spin  1
    eigenvalues: 
  0.025  0.025  0.026  0.064  0.068
    eigenvectors:
  0.000  0.000  0.000  0.249  0.751
  0.323  0.669  0.008  0.000  0.000
  0.001  0.018  0.981  0.000  0.000
  0.001  0.000  0.000  0.750  0.249
  0.675  0.313  0.010  0.001  0.000
    occupations:
  0.067  0.000 -0.000  0.002 -0.000
  0.000  0.025  0.000  0.000 -0.000
 -0.000  0.000  0.026  0.000 -0.000
  0.002  0.000  0.000  0.065  0.001
 -0.000 -0.000 -0.000  0.001  0.025
   spin  2
    eigenvalues: 
  0.998  0.998  0.998  0.999  1.000
    eigenvectors:
  0.000  0.001  0.002  0.974  0.023
  0.623  0.307  0.067  0.000  0.002
  0.009  0.098  0.891  0.001  0.001
  0.002  0.000  0.001  0.024  0.973
  0.367  0.594  0.038  0.001  0.000
    occupations:
  0.999 -0.000 -0.000 -0.000  0.000
 -0.000  0.998  0.000  0.000 -0.000
 -0.000  0.000  0.998  0.000 -0.000
 -0.000  0.000  0.000  1.000  0.000
  0.000 -0.000 -0.000  0.000  0.998
atomic mag. moment =    -4.785280
N of occupied +U levels =   41.617121
 --- exit write_ns ---

     negative rho (up, down):  3.557E-04 5.298E-05

     Magnetic moment per site:
     atom:    1    charge:   12.6273    magn:   10.0911    constr:    0.0000
     atom:    2    charge:    5.5457    magn:    0.0014    constr:    0.0000
     atom:    3    charge:   12.6805    magn:  -10.1300    constr:    0.0000
     atom:    4    charge:    5.5843    magn:    0.0046    constr:    0.0000
     atom:    5    charge:   12.6250    magn:   10.0907    constr:    0.0000
     atom:    6    charge:    5.5690    magn:   -0.0091    constr:    0.0000
     atom:    7    charge:   12.6816    magn:  -10.1307    constr:    0.0000
     atom:    8    charge:    5.5608    magn:   -0.0106    constr:    0.0000
     atom:    9    charge:   12.6292    magn:   10.0911    constr:    0.0000
     atom:   10    charge:    5.5574    magn:    0.0018    constr:    0.0000
     atom:   11    charge:   12.6795    magn:  -10.1300    constr:    0.0000
     atom:   12    charge:    5.5727    magn:   -0.0139    constr:    0.0000
     atom:   13    charge:   12.6286    magn:   10.0913    constr:    0.0000
     atom:   14    charge:    5.5732    magn:    0.0126    constr:    0.0000
     atom:   15    charge:   12.6789    magn:  -10.1293    constr:    0.0000
     atom:   16    charge:    5.5590    magn:   -0.0131    constr:    0.0000

     total cpu time spent up to now is      226.0 secs

     total energy              =   -1937.89688514 Ry
     Harris-Foulkes estimate   =   -1921.76536327 Ry
     estimated scf accuracy    <      25.37839116 Ry

     total magnetization       =     0.00 Bohr mag/cell
     absolute magnetization    =    40.64 Bohr mag/cell

     iteration #  2     ecut=    41.00 Ry     beta=0.30
     Davidson diagonalization with overlap
     ethr =  1.00E-02,  avg # of iterations =  1.0

     negative rho (up, down):  1.461E-03 2.437E-04

     Magnetic moment per site:
     atom:    1    charge:   12.5191    magn:    4.4119    constr:    0.0000
     atom:    2    charge:    5.7647    magn:   -0.0060    constr:    0.0000
     atom:    3    charge:   12.5688    magn:   -4.4364    constr:    0.0000
     atom:    4    charge:    5.8072    magn:   -0.0043    constr:    0.0000
     atom:    5    charge:   12.5173    magn:    4.4106    constr:    0.0000
     atom:    6    charge:    5.7905    magn:    0.0026    constr:    0.0000
     atom:    7    charge:   12.5696    magn:   -4.4381    constr:    0.0000
     atom:    8    charge:    5.7813    magn:    0.0046    constr:    0.0000
     atom:    9    charge:   12.5204    magn:    4.4109    constr:    0.0000
     atom:   10    charge:    5.7776    magn:   -0.0016    constr:    0.0000
     atom:   11    charge:   12.5680    magn:   -4.4364    constr:    0.0000
     atom:   12    charge:    5.7942    magn:    0.0000    constr:    0.0000
     atom:   13    charge:   12.5199    magn:    4.4121    constr:    0.0000
     atom:   14    charge:    5.7952    magn:   -0.0042    constr:    0.0000
     atom:   15    charge:   12.5676    magn:   -4.4355    constr:    0.0000
     atom:   16    charge:    5.7794    magn:   -0.0040    constr:    0.0000

     total cpu time spent up to now is      324.2 secs

     total energy              =   -1945.58127311 Ry
     Harris-Foulkes estimate   =   -1938.16653149 Ry
     estimated scf accuracy    <      12.61482875 Ry

     total magnetization       =     0.00 Bohr mag/cell
     absolute magnetization    =    40.21 Bohr mag/cell

     iteration #  3     ecut=    41.00 Ry     beta=0.30
     Davidson diagonalization with overlap
     ethr =  7.51E-03,  avg # of iterations =  3.9

     negative rho (up, down):  1.535E-03 2.613E-04

     Magnetic moment per site:
     atom:    1    charge:   12.4422    magn:    4.1946    constr:    0.0000
     atom:    2    charge:    5.7256    magn:   -0.0065    constr:    0.0000
     atom:    3    charge:   12.4925    magn:   -4.2171    constr:    0.0000
     atom:    4    charge:    5.7695    magn:   -0.0012    constr:    0.0000
     atom:    5    charge:   12.4394    magn:    4.1961    constr:    0.0000
     atom:    6    charge:    5.7522    magn:    0.0034    constr:    0.0000
     atom:    7    charge:   12.4939    magn:   -4.2177    constr:    0.0000
     atom:    8    charge:    5.7429    magn:    0.0030    constr:    0.0000
     atom:    9    charge:   12.4442    magn:    4.1917    constr:    0.0000
     atom:   10    charge:    5.7387    magn:    0.0029    constr:    0.0000
     atom:   11    charge:   12.4915    magn:   -4.2177    constr:    0.0000
     atom:   12    charge:    5.7565    magn:   -0.0036    constr:    0.0000
     atom:   13    charge:   12.4435    magn:    4.1938    constr:    0.0000
     atom:   14    charge:    5.7571    magn:    0.0001    constr:    0.0000
     atom:   15    charge:   12.4907    magn:   -4.2174    constr:    0.0000
     atom:   16    charge:    5.7409    magn:   -0.0065    constr:    0.0000

     total cpu time spent up to now is      492.8 secs

     total energy              =   -1946.14485537 Ry
     Harris-Foulkes estimate   =   -1946.28922078 Ry
     estimated scf accuracy    <       0.41349715 Ry

     total magnetization       =     0.00 Bohr mag/cell
     absolute magnetization    =    37.91 Bohr mag/cell

     iteration #  4     ecut=    41.00 Ry     beta=0.30
     Davidson diagonalization with overlap
     ethr =  2.46E-04,  avg # of iterations =  7.0

     negative rho (up, down):  1.574E-03 2.694E-04

     Magnetic moment per site:
     atom:    1    charge:   12.4366    magn:    4.0862    constr:    0.0000
     atom:    2    charge:    5.7373    magn:   -0.0065    constr:    0.0000
     atom:    3    charge:   12.4867    magn:   -4.1080    constr:    0.0000
     atom:    4    charge:    5.7809    magn:   -0.0010    constr:    0.0000
     atom:    5    charge:   12.4337    magn:    4.0876    constr:    0.0000
     atom:    6    charge:    5.7637    magn:    0.0032    constr:    0.0000
     atom:    7    charge:   12.4881    magn:   -4.1086    constr:    0.0000
     atom:    8    charge:    5.7545    magn:    0.0027    constr:    0.0000
     atom:    9    charge:   12.4385    magn:    4.0833    constr:    0.0000
     atom:   10    charge:    5.7503    magn:    0.0033    constr:    0.0000
     atom:   11    charge:   12.4857    magn:   -4.1087    constr:    0.0000
     atom:   12    charge:    5.7680    magn:   -0.0040    constr:    0.0000
     atom:   13    charge:   12.4379    magn:    4.0852    constr:    0.0000
     atom:   14    charge:    5.7686    magn:    0.0006    constr:    0.0000
     atom:   15    charge:   12.4849    magn:   -4.1084    constr:    0.0000
     atom:   16    charge:    5.7525    magn:   -0.0067    constr:    0.0000

     total cpu time spent up to now is      791.4 secs

     total energy              =   -1946.25123650 Ry
     Harris-Foulkes estimate   =   -1946.25907722 Ry
     estimated scf accuracy    <       0.03246382 Ry

     total magnetization       =     0.00 Bohr mag/cell
     absolute magnetization    =    37.73 Bohr mag/cell

     iteration #  5     ecut=    41.00 Ry     beta=0.30
     Davidson diagonalization with overlap
     ethr =  1.93E-05,  avg # of iterations =  3.8

     negative rho (up, down):  1.596E-03 2.760E-04

     Magnetic moment per site:
     atom:    1    charge:   12.4107    magn:    4.1291    constr:    0.0000
     atom:    2    charge:    5.7407    magn:   -0.0060    constr:    0.0000
     atom:    3    charge:   12.4609    magn:   -4.1500    constr:    0.0000
     atom:    4    charge:    5.7839    magn:    0.0014    constr:    0.0000
     atom:    5    charge:   12.4076    magn:    4.1306    constr:    0.0000
     atom:    6    charge:    5.7669    magn:    0.0024    constr:    0.0000
     atom:    7    charge:   12.4624    magn:   -4.1502    constr:    0.0000
     atom:    8    charge:    5.7578    magn:    0.0008    constr:    0.0000
     atom:    9    charge:   12.4128    magn:    4.1259    constr:    0.0000
     atom:   10    charge:    5.7537    magn:    0.0062    constr:    0.0000
     atom:   11    charge:   12.4598    magn:   -4.1507    constr:    0.0000
     atom:   12    charge:    5.7712    magn:   -0.0069    constr:    0.0000
     atom:   13    charge:   12.4122    magn:    4.1275    constr:    0.0000
     atom:   14    charge:    5.7717    magn:    0.0048    constr:    0.0000
     atom:   15    charge:   12.4590    magn:   -4.1505    constr:    0.0000
     atom:   16    charge:    5.7558    magn:   -0.0086    constr:    0.0000

     total cpu time spent up to now is      963.0 secs

     total energy              =   -1946.25412425 Ry
     Harris-Foulkes estimate   =   -1946.25435843 Ry
     estimated scf accuracy    <       0.00839140 Ry

     total magnetization       =     0.00 Bohr mag/cell
     absolute magnetization    =    37.61 Bohr mag/cell

     iteration #  6     ecut=    41.00 Ry     beta=0.30
     Davidson diagonalization with overlap
     ethr =  4.99E-06,  avg # of iterations =  5.0

     negative rho (up, down):  1.586E-03 2.736E-04

     Magnetic moment per site:
     atom:    1    charge:   12.4057    magn:    4.1372    constr:    0.0000
     atom:    2    charge:    5.7406    magn:   -0.0058    constr:    0.0000
     atom:    3    charge:   12.4560    magn:   -4.1578    constr:    0.0000
     atom:    4    charge:    5.7840    magn:    0.0021    constr:    0.0000
     atom:    5    charge:   12.4026    magn:    4.1388    constr:    0.0000
     atom:    6    charge:    5.7669    magn:    0.0022    constr:    0.0000
     atom:    7    charge:   12.4576    magn:   -4.1579    constr:    0.0000
     atom:    8    charge:    5.7578    magn:    0.0002    constr:    0.0000
     atom:    9    charge:   12.4079    magn:    4.1340    constr:    0.0000
     atom:   10    charge:    5.7536    magn:    0.0071    constr:    0.0000
     atom:   11    charge:   12.4549    magn:   -4.1586    constr:    0.0000
     atom:   12    charge:    5.7712    magn:   -0.0076    constr:    0.0000
     atom:   13    charge:   12.4074    magn:    4.1355    constr:    0.0000
     atom:   14    charge:    5.7718    magn:    0.0060    constr:    0.0000
     atom:   15    charge:   12.4540    magn:   -4.1584    constr:    0.0000
     atom:   16    charge:    5.7558    magn:   -0.0090    constr:    0.0000

     total cpu time spent up to now is     1183.6 secs

     total energy              =   -1946.25560290 Ry
     Harris-Foulkes estimate   =   -1946.25561066 Ry
     estimated scf accuracy    <       0.00044302 Ry

     total magnetization       =     0.00 Bohr mag/cell
     absolute magnetization    =    37.53 Bohr mag/cell

     iteration #  7     ecut=    41.00 Ry     beta=0.30
     Davidson diagonalization with overlap
     ethr =  2.64E-07,  avg # of iterations =  2.1

     negative rho (up, down):  1.573E-03 2.701E-04

     Magnetic moment per site:
     atom:    1    charge:   12.4046    magn:    4.1260    constr:    0.0000
     atom:    2    charge:    5.7403    magn:   -0.0057    constr:    0.0000
     atom:    3    charge:   12.4548    magn:   -4.1465    constr:    0.0000
     atom:    4    charge:    5.7838    magn:    0.0024    constr:    0.0000
     atom:    5    charge:   12.4013    magn:    4.1275    constr:    0.0000
     atom:    6    charge:    5.7667    magn:    0.0022    constr:    0.0000
     atom:    7    charge:   12.4564    magn:   -4.1467    constr:    0.0000
     atom:    8    charge:    5.7575    magn:    0.0001    constr:    0.0000
     atom:    9    charge:   12.4068    magn:    4.1229    constr:    0.0000
     atom:   10    charge:    5.7533    magn:    0.0074    constr:    0.0000
     atom:   11    charge:   12.4537    magn:   -4.1473    constr:    0.0000
     atom:   12    charge:    5.7710    magn:   -0.0078    constr:    0.0000
     atom:   13    charge:   12.4062    magn:    4.1243    constr:    0.0000
     atom:   14    charge:    5.7715    magn:    0.0064    constr:    0.0000
     atom:   15    charge:   12.4527    magn:   -4.1471    constr:    0.0000
     atom:   16    charge:    5.7555    magn:   -0.0091    constr:    0.0000

     total cpu time spent up to now is     1306.0 secs

     total energy              =   -1946.25564715 Ry
     Harris-Foulkes estimate   =   -1946.25563867 Ry
     estimated scf accuracy    <       0.00008981 Ry

     total magnetization       =     0.00 Bohr mag/cell
     absolute magnetization    =    37.52 Bohr mag/cell

     iteration #  8     ecut=    41.00 Ry     beta=0.30
     Davidson diagonalization with overlap
     ethr =  5.35E-08,  avg # of iterations =  3.0

     negative rho (up, down):  1.556E-03 2.657E-04

     Magnetic moment per site:
     atom:    1    charge:   12.4049    magn:    4.1250    constr:    0.0000
     atom:    2    charge:    5.7397    magn:   -0.0057    constr:    0.0000
     atom:    3    charge:   12.4552    magn:   -4.1454    constr:    0.0000
     atom:    4    charge:    5.7832    magn:    0.0026    constr:    0.0000
     atom:    5    charge:   12.4017    magn:    4.1266    constr:    0.0000
     atom:    6    charge:    5.7661    magn:    0.0022    constr:    0.0000
     atom:    7    charge:   12.4568    magn:   -4.1457    constr:    0.0000
     atom:    8    charge:    5.7569    magn:    0.0000    constr:    0.0000
     atom:    9    charge:   12.4072    magn:    4.1219    constr:    0.0000
     atom:   10    charge:    5.7527    magn:    0.0077    constr:    0.0000
     atom:   11    charge:   12.4541    magn:   -4.1464    constr:    0.0000
     atom:   12    charge:    5.7704    magn:   -0.0078    constr:    0.0000
     atom:   13    charge:   12.4066    magn:    4.1234    constr:    0.0000
     atom:   14    charge:    5.7709    magn:    0.0066    constr:    0.0000
     atom:   15    charge:   12.4531    magn:   -4.1462    constr:    0.0000
     atom:   16    charge:    5.7549    magn:   -0.0090    constr:    0.0000

     total cpu time spent up to now is     1459.1 secs

     total energy              =   -1946.25565672 Ry
     Harris-Foulkes estimate   =   -1946.25566012 Ry
     estimated scf accuracy    <       0.00001226 Ry

     total magnetization       =     0.00 Bohr mag/cell
     absolute magnetization    =    37.50 Bohr mag/cell

     iteration #  9     ecut=    41.00 Ry     beta=0.30
     Davidson diagonalization with overlap
     ethr =  7.30E-09,  avg # of iterations =  3.0

     negative rho (up, down):  1.546E-03 2.634E-04

     Magnetic moment per site:
     atom:    1    charge:   12.4047    magn:    4.1252    constr:    0.0000
     atom:    2    charge:    5.7397    magn:   -0.0056    constr:    0.0000
     atom:    3    charge:   12.4550    magn:   -4.1456    constr:    0.0000
     atom:    4    charge:    5.7831    magn:    0.0027    constr:    0.0000
     atom:    5    charge:   12.4014    magn:    4.1268    constr:    0.0000
     atom:    6    charge:    5.7660    magn:    0.0022    constr:    0.0000
     atom:    7    charge:   12.4567    magn:   -4.1458    constr:    0.0000
     atom:    8    charge:    5.7569    magn:   -0.0001    constr:    0.0000
     atom:    9    charge:   12.4070    magn:    4.1221    constr:    0.0000
     atom:   10    charge:    5.7527    magn:    0.0079    constr:    0.0000
     atom:   11    charge:   12.4539    magn:   -4.1465    constr:    0.0000
     atom:   12    charge:    5.7703    magn:   -0.0079    constr:    0.0000
     atom:   13    charge:   12.4065    magn:    4.1235    constr:    0.0000
     atom:   14    charge:    5.7709    magn:    0.0069    constr:    0.0000
     atom:   15    charge:   12.4529    magn:   -4.1464    constr:    0.0000
     atom:   16    charge:    5.7548    magn:   -0.0090    constr:    0.0000

     total cpu time spent up to now is     1645.7 secs

     total energy              =   -1946.25565905 Ry
     Harris-Foulkes estimate   =   -1946.25566189 Ry
     estimated scf accuracy    <       0.00000857 Ry

     total magnetization       =     0.00 Bohr mag/cell
     absolute magnetization    =    37.50 Bohr mag/cell

     iteration # 10     ecut=    41.00 Ry     beta=0.30
     Davidson diagonalization with overlap
     ethr =  5.10E-09,  avg # of iterations =  2.3

     negative rho (up, down):  1.548E-03 2.639E-04

     Magnetic moment per site:
     atom:    1    charge:   12.4048    magn:    4.1252    constr:    0.0000
     atom:    2    charge:    5.7396    magn:   -0.0056    constr:    0.0000
     atom:    3    charge:   12.4550    magn:   -4.1457    constr:    0.0000
     atom:    4    charge:    5.7831    magn:    0.0028    constr:    0.0000
     atom:    5    charge:   12.4014    magn:    4.1268    constr:    0.0000
     atom:    6    charge:    5.7660    magn:    0.0022    constr:    0.0000
     atom:    7    charge:   12.4567    magn:   -4.1459    constr:    0.0000
     atom:    8    charge:    5.7568    magn:   -0.0001    constr:    0.0000
     atom:    9    charge:   12.4070    magn:    4.1222    constr:    0.0000
     atom:   10    charge:    5.7526    magn:    0.0079    constr:    0.0000
     atom:   11    charge:   12.4539    magn:   -4.1466    constr:    0.0000
     atom:   12    charge:    5.7703    magn:   -0.0079    constr:    0.0000
     atom:   13    charge:   12.4065    magn:    4.1236    constr:    0.0000
     atom:   14    charge:    5.7708    magn:    0.0069    constr:    0.0000
     atom:   15    charge:   12.4529    magn:   -4.1465    constr:    0.0000
     atom:   16    charge:    5.7548    magn:   -0.0090    constr:    0.0000

     total cpu time spent up to now is     1789.3 secs

     total energy              =   -1946.25566062 Ry
     Harris-Foulkes estimate   =   -1946.25566043 Ry
     estimated scf accuracy    <       0.00000024 Ry

     total magnetization       =     0.00 Bohr mag/cell
     absolute magnetization    =    37.50 Bohr mag/cell

     iteration # 11     ecut=    41.00 Ry     beta=0.30
     Davidson diagonalization with overlap
     ethr =  1.44E-10,  avg # of iterations =  2.2

     negative rho (up, down):  1.550E-03 2.643E-04

     Magnetic moment per site:
     atom:    1    charge:   12.4047    magn:    4.1252    constr:    0.0000
     atom:    2    charge:    5.7397    magn:   -0.0056    constr:    0.0000
     atom:    3    charge:   12.4550    magn:   -4.1457    constr:    0.0000
     atom:    4    charge:    5.7831    magn:    0.0028    constr:    0.0000
     atom:    5    charge:   12.4014    magn:    4.1268    constr:    0.0000
     atom:    6    charge:    5.7660    magn:    0.0022    constr:    0.0000
     atom:    7    charge:   12.4567    magn:   -4.1459    constr:    0.0000
     atom:    8    charge:    5.7569    magn:   -0.0001    constr:    0.0000
     atom:    9    charge:   12.4070    magn:    4.1221    constr:    0.0000
     atom:   10    charge:    5.7527    magn:    0.0079    constr:    0.0000
     atom:   11    charge:   12.4539    magn:   -4.1466    constr:    0.0000
     atom:   12    charge:    5.7704    magn:   -0.0079    constr:    0.0000
     atom:   13    charge:   12.4065    magn:    4.1236    constr:    0.0000
     atom:   14    charge:    5.7709    magn:    0.0069    constr:    0.0000
     atom:   15    charge:   12.4529    magn:   -4.1464    constr:    0.0000
     atom:   16    charge:    5.7549    magn:   -0.0090    constr:    0.0000

     total cpu time spent up to now is     1939.7 secs

     total energy              =   -1946.25566067 Ry
     Harris-Foulkes estimate   =   -1946.25566068 Ry
     estimated scf accuracy    <       0.00000026 Ry

     total magnetization       =     0.00 Bohr mag/cell
     absolute magnetization    =    37.50 Bohr mag/cell

     iteration # 12     ecut=    41.00 Ry     beta=0.30
     Davidson diagonalization with overlap
     ethr =  1.44E-10,  avg # of iterations =  3.8

     negative rho (up, down):  1.552E-03 2.647E-04

     Magnetic moment per site:
     atom:    1    charge:   12.4048    magn:    4.1253    constr:    0.0000
     atom:    2    charge:    5.7397    magn:   -0.0056    constr:    0.0000
     atom:    3    charge:   12.4550    magn:   -4.1457    constr:    0.0000
     atom:    4    charge:    5.7831    magn:    0.0028    constr:    0.0000
     atom:    5    charge:   12.4014    magn:    4.1268    constr:    0.0000
     atom:    6    charge:    5.7660    magn:    0.0022    constr:    0.0000
     atom:    7    charge:   12.4567    magn:   -4.1460    constr:    0.0000
     atom:    8    charge:    5.7569    magn:   -0.0001    constr:    0.0000
     atom:    9    charge:   12.4070    magn:    4.1222    constr:    0.0000
     atom:   10    charge:    5.7527    magn:    0.0079    constr:    0.0000
     atom:   11    charge:   12.4539    magn:   -4.1466    constr:    0.0000
     atom:   12    charge:    5.7704    magn:   -0.0079    constr:    0.0000
     atom:   13    charge:   12.4065    magn:    4.1236    constr:    0.0000
     atom:   14    charge:    5.7709    magn:    0.0069    constr:    0.0000
     atom:   15    charge:   12.4529    magn:   -4.1465    constr:    0.0000
     atom:   16    charge:    5.7549    magn:   -0.0090    constr:    0.0000

     total cpu time spent up to now is     2131.7 secs

     total energy              =   -1946.25566079 Ry
     Harris-Foulkes estimate   =   -1946.25566077 Ry
     estimated scf accuracy    <       0.00000010 Ry

     total magnetization       =     0.00 Bohr mag/cell
     absolute magnetization    =    37.50 Bohr mag/cell

     iteration # 13     ecut=    41.00 Ry     beta=0.30
     Davidson diagonalization with overlap
     ethr =  6.10E-11,  avg # of iterations =  3.1

     negative rho (up, down):  1.550E-03 2.644E-04

     Magnetic moment per site:
     atom:    1    charge:   12.4048    magn:    4.1253    constr:    0.0000
     atom:    2    charge:    5.7397    magn:   -0.0056    constr:    0.0000
     atom:    3    charge:   12.4550    magn:   -4.1457    constr:    0.0000
     atom:    4    charge:    5.7832    magn:    0.0027    constr:    0.0000
     atom:    5    charge:   12.4014    magn:    4.1268    constr:    0.0000
     atom:    6    charge:    5.7661    magn:    0.0022    constr:    0.0000
     atom:    7    charge:   12.4567    magn:   -4.1460    constr:    0.0000
     atom:    8    charge:    5.7569    magn:   -0.0001    constr:    0.0000
     atom:    9    charge:   12.4070    magn:    4.1222    constr:    0.0000
     atom:   10    charge:    5.7527    magn:    0.0079    constr:    0.0000
     atom:   11    charge:   12.4539    magn:   -4.1466    constr:    0.0000
     atom:   12    charge:    5.7704    magn:   -0.0079    constr:    0.0000
     atom:   13    charge:   12.4065    magn:    4.1236    constr:    0.0000
     atom:   14    charge:    5.7709    magn:    0.0069    constr:    0.0000
     atom:   15    charge:   12.4529    magn:   -4.1465    constr:    0.0000
     atom:   16    charge:    5.7549    magn:   -0.0090    constr:    0.0000

     total cpu time spent up to now is     2296.8 secs

     End of self-consistent calculation
 --- enter write_ns ---
 LDA+U parameters:
U( 1)     =  3.00000000
alpha( 1) =  0.00000000
U( 2)     =  3.00000000
alpha( 2) =  0.00000000
atom    1   Tr[ns(na)] (up, down, total) =   4.98354  0.51798  5.50151
   spin  1
    eigenvalues: 
  0.996  0.996  0.997  0.997  0.997
    eigenvectors:
  0.375  0.351  0.042  0.095  0.137
  0.117  0.010  0.332  0.000  0.541
  0.009  0.243  0.024  0.723  0.000
  0.376  0.345  0.003  0.180  0.096
  0.123  0.051  0.599  0.002  0.225
    occupations:
  0.996 -0.000 -0.000 -0.000 -0.000
 -0.000  0.997  0.000 -0.000  0.000
 -0.000  0.000  0.997  0.000 -0.000
 -0.000 -0.000  0.000  0.996 -0.000
 -0.000  0.000 -0.000 -0.000  0.997
   spin  2
    eigenvalues: 
  0.058  0.060  0.060  0.170  0.170
    eigenvectors:
  0.000  0.000  0.001  0.916  0.083
  0.580  0.268  0.151  0.000  0.001
  0.251  0.008  0.740  0.000  0.000
  0.000  0.000  0.001  0.082  0.916
  0.169  0.724  0.107  0.001  0.000
    occupations:
  0.170 -0.001  0.002  0.000  0.003
 -0.001  0.059 -0.001  0.003  0.000
  0.002 -0.001  0.060 -0.002  0.000
  0.000  0.003 -0.002  0.170 -0.001
  0.003  0.000  0.000 -0.001  0.060
atomic mag. moment =     4.465561
atom    3   Tr[ns(na)] (up, down, total) =   0.52453  4.98170  5.50623
   spin  1
    eigenvalues: 
  0.059  0.060  0.061  0.172  0.173
    eigenvectors:
  0.000  0.000  0.003  0.644  0.353
  0.170  0.238  0.589  0.002  0.000
  0.473  0.518  0.008  0.000  0.001
  0.000  0.001  0.000  0.353  0.645
  0.357  0.242  0.400  0.001  0.000
    occupations:
  0.172  0.004  0.002 -0.001  0.004
  0.004  0.061 -0.000  0.003  0.001
  0.002 -0.000  0.060 -0.004  0.001
 -0.001  0.003 -0.004  0.172  0.001
  0.004  0.001  0.001  0.001  0.060
   spin  2
    eigenvalues: 
  0.996  0.996  0.996  0.997  0.997
    eigenvectors:
  0.324  0.472  0.004  0.118  0.082
  0.008  0.152  0.278  0.514  0.048
  0.088  0.000  0.365  0.038  0.509
  0.537  0.315  0.002  0.084  0.062
  0.044  0.061  0.352  0.245  0.299
    occupations:
  0.996 -0.000 -0.000  0.000 -0.000
 -0.000  0.997 -0.000 -0.000  0.000
 -0.000 -0.000  0.997  0.000  0.000
  0.000 -0.000  0.000  0.996  0.000
 -0.000  0.000  0.000  0.000  0.997
atomic mag. moment =    -4.457171
atom    5   Tr[ns(na)] (up, down, total) =   4.98437  0.51256  5.49692
   spin  1
    eigenvalues: 
  0.996  0.997  0.997  0.997  0.997
    eigenvectors:
  0.061  0.352  0.103  0.022  0.462
  0.065  0.157  0.519  0.260  0.000
  0.220  0.239  0.111  0.376  0.054
  0.634  0.012  0.024  0.275  0.055
  0.020  0.239  0.243  0.068  0.429
    occupations:
  0.997 -0.000 -0.000 -0.000 -0.000
 -0.000  0.997 -0.000 -0.000  0.000
 -0.000 -0.000  0.997  0.000  0.000
 -0.000 -0.000  0.000  0.997 -0.000
 -0.000  0.000  0.000 -0.000  0.997
   spin  2
    eigenvalues: 
  0.057  0.059  0.060  0.165  0.172
    eigenvectors:
  0.001  0.000  0.002  0.893  0.104
  0.756  0.182  0.061  0.001  0.001
  0.121  0.785  0.092  0.001  0.000
  0.000  0.001  0.000  0.104  0.895
  0.122  0.032  0.846  0.001  0.000
    occupations:
  0.166  0.003  0.003  0.002  0.003
  0.003  0.058 -0.000  0.002  0.001
  0.003 -0.000  0.059 -0.003  0.001
  0.002  0.002 -0.003  0.171 -0.000
  0.003  0.001  0.001 -0.000  0.060
atomic mag. moment =     4.471809
atom    7   Tr[ns(na)] (up, down, total) =   0.52682  4.98126  5.50808
   spin  1
    eigenvalues: 
  0.059  0.060  0.061  0.170  0.176
    eigenvectors:
  0.000  0.000  0.000  0.113  0.887
  0.061  0.093  0.845  0.001  0.000
  0.294  0.553  0.153  0.000  0.000
  0.000  0.000  0.002  0.886  0.112
  0.645  0.354  0.000  0.000  0.001
    occupations:
  0.175 -0.000  0.000 -0.002  0.003
 -0.000  0.061 -0.001  0.004  0.000
  0.000 -0.001  0.060 -0.003  0.000
 -0.002  0.004 -0.003  0.170 -0.000
  0.003  0.000  0.000 -0.000  0.060
   spin  2
    eigenvalues: 
  0.995  0.996  0.997  0.997  0.997
    eigenvectors:
  0.844  0.049  0.011  0.002  0.094
  0.011  0.145  0.042  0.259  0.543
  0.038  0.042  0.174  0.529  0.216
  0.046  0.760  0.006  0.176  0.012
  0.061  0.004  0.766  0.033  0.135
    occupations:
  0.995 -0.000 -0.000  0.000 -0.000
 -0.000  0.997  0.000 -0.000  0.000
 -0.000  0.000  0.997  0.000  0.000
  0.000 -0.000  0.000  0.996  0.000
 -0.000  0.000  0.000  0.000  0.997
atomic mag. moment =    -4.454447
atom    9   Tr[ns(na)] (up, down, total) =   4.98233  0.52282  5.50515
   spin  1
    eigenvalues: 
  0.995  0.996  0.997  0.997  0.997
    eigenvectors:
  0.603  0.258  0.008  0.093  0.037
  0.053  0.021  0.039  0.880  0.008
  0.001  0.190  0.012  0.002  0.795
  0.287  0.517  0.038  0.001  0.157
  0.056  0.014  0.903  0.024  0.003
    occupations:
  0.996 -0.000 -0.000 -0.000 -0.000
 -0.000  0.997 -0.000 -0.000 -0.000
 -0.000 -0.000  0.997  0.000  0.000
 -0.000 -0.000  0.000  0.996 -0.000
 -0.000 -0.000  0.000 -0.000  0.997
   spin  2
    eigenvalues: 
  0.058  0.059  0.063  0.163  0.179
    eigenvectors:
  0.000  0.001  0.000  0.342  0.656
  0.574  0.411  0.014  0.000  0.001
  0.024  0.000  0.975  0.001  0.000
  0.000  0.001  0.000  0.657  0.342
  0.402  0.587  0.009  0.000  0.001
    occupations:
  0.173  0.002  0.002  0.008  0.004
  0.002  0.059 -0.001  0.003  0.001
  0.002 -0.001  0.063 -0.001  0.001
  0.008  0.003 -0.001  0.168  0.002
  0.004  0.001  0.001  0.002  0.059
atomic mag. moment =     4.459516
atom   11   Tr[ns(na)] (up, down, total) =   0.52214  4.98208  5.50421
   spin  1
    eigenvalues: 
  0.057  0.060  0.062  0.164  0.180
    eigenvectors:
  0.000  0.001  0.001  0.609  0.390
  0.011  0.058  0.930  0.001  0.000
  0.952  0.044  0.003  0.000  0.001
  0.001  0.001  0.001  0.390  0.608
  0.037  0.897  0.066  0.000  0.001
    occupations:
  0.170  0.002  0.001 -0.008  0.003
  0.002  0.062 -0.001  0.003  0.000
  0.001 -0.001  0.057 -0.004  0.001
 -0.008  0.003 -0.004  0.173 -0.002
  0.003  0.000  0.001 -0.002  0.060
   spin  2
    eigenvalues: 
  0.995  0.996  0.997  0.997  0.997
    eigenvectors:
  0.256  0.421  0.039  0.023  0.261
  0.048  0.282  0.001  0.300  0.370
  0.016  0.090  0.759  0.131  0.004
  0.632  0.147  0.013  0.088  0.120
  0.048  0.061  0.188  0.457  0.246
    occupations:
  0.996 -0.000 -0.000  0.001 -0.000
 -0.000  0.997 -0.000 -0.001  0.000
 -0.000 -0.000  0.997  0.000  0.000
  0.001 -0.001  0.000  0.996  0.000
 -0.000  0.000  0.000  0.000  0.997
atomic mag. moment =    -4.459941
atom   13   Tr[ns(na)] (up, down, total) =   4.98264  0.52189  5.50453
   spin  1
    eigenvalues: 
  0.996  0.996  0.997  0.997  0.997
    eigenvectors:
  0.213  0.589  0.020  0.053  0.125
  0.053  0.046  0.010  0.530  0.361
  0.066  0.004  0.921  0.008  0.001
  0.620  0.249  0.025  0.072  0.033
  0.048  0.112  0.024  0.337  0.480
    occupations:
  0.996  0.000 -0.000  0.000 -0.000
  0.000  0.997  0.000 -0.000  0.000
 -0.000  0.000  0.997  0.000 -0.000
  0.000 -0.000  0.000  0.996  0.000
 -0.000  0.000 -0.000  0.000  0.997
   spin  2
    eigenvalues: 
  0.058  0.060  0.061  0.166  0.176
    eigenvectors:
  0.000  0.000  0.000  0.753  0.246
  0.094  0.242  0.664  0.000  0.000
  0.845  0.139  0.015  0.000  0.001
  0.000  0.002  0.000  0.247  0.751
  0.060  0.617  0.321  0.000  0.002
    occupations:
  0.168  0.001  0.002 -0.004  0.003
  0.001  0.061 -0.001  0.002  0.000
  0.002 -0.001  0.059 -0.003  0.001
 -0.004  0.002 -0.003  0.173 -0.004
  0.003  0.000  0.001 -0.004  0.061
atomic mag. moment =     4.460751
atom   15   Tr[ns(na)] (up, down, total) =   0.52123  4.98226  5.50349
   spin  1
    eigenvalues: 
  0.058  0.059  0.061  0.166  0.176
    eigenvectors:
  0.000  0.001  0.000  0.244  0.755
  0.488  0.487  0.024  0.001  0.001
  0.046  0.000  0.953  0.001  0.000
  0.000  0.002  0.001  0.754  0.242
  0.466  0.510  0.022  0.000  0.002
    occupations:
  0.174  0.002  0.002  0.004  0.004
  0.002  0.059 -0.001  0.004  0.001
  0.002 -0.001  0.061 -0.003  0.000
  0.004  0.004 -0.003  0.168  0.004
  0.004  0.001  0.000  0.004  0.059
   spin  2
    eigenvalues: 
  0.996  0.996  0.996  0.997  0.997
    eigenvectors:
  0.683  0.080  0.038  0.064  0.134
  0.125  0.000  0.380  0.495  0.000
  0.008  0.369  0.046  0.056  0.521
  0.128  0.531  0.061  0.142  0.139
  0.056  0.019  0.475  0.242  0.207
    occupations:
  0.996 -0.000 -0.000 -0.000 -0.000
 -0.000  0.997 -0.000 -0.000  0.000
 -0.000 -0.000  0.997  0.000  0.000
 -0.000 -0.000  0.000  0.996 -0.000
 -0.000  0.000  0.000 -0.000  0.997
atomic mag. moment =    -4.461032
N of occupied +U levels =   44.030129
 --- exit write_ns ---

 ------ SPIN UP ------------


          k = 0.0000 0.0000 0.0000 (  5263 PWs)   bands (ev):

   -68.6376 -68.5798 -68.5635 -68.5473 -63.4344 -63.4083 -63.3960 -63.3561
   -37.5303 -37.5092 -37.5014 -37.4702 -37.4649 -37.4536 -37.4451 -37.4381
   -37.4264 -37.4213 -37.4133 -37.3987 -32.4517 -32.4320 -32.4233 -32.4178
   -32.4103 -32.4058 -32.3831 -32.3732 -32.3593 -32.3586 -32.3369 -32.3323
    -6.6486  -5.9358  -5.8066  -5.7601  -5.6055  -5.5623  -5.5249  -5.3779
     4.9435   4.9645   4.9728   5.0134   6.4675   6.4809   6.5011   6.7525
     6.7649   6.8558   6.8863   6.9042   6.9655   6.9935   7.0219   8.1927
     8.2290   8.2621   8.5356   8.5917   8.6275   8.7014   8.7169   8.7783
     8.7973   8.8555   9.2400   9.2666   9.2913   9.3181   9.6318   9.6854
     9.6986   9.7584   9.7682   9.9638  11.0157  11.0582  11.2509  11.3197
    11.4112  11.4563  11.5010  11.5359  13.1083  15.1288  15.1334  15.1541
    15.7730  15.7902  15.8181  16.4228  16.4352  16.4567  16.5047  16.5083
    16.5240  16.6849  16.7229  16.7719  16.8242

          k = 0.1753 0.1753-0.1723 (  5270 PWs)   bands (ev):

   -68.6374 -68.5795 -68.5632 -68.5471 -63.4345 -63.4083 -63.3962 -63.3562
   -37.5301 -37.5081 -37.5002 -37.4680 -37.4646 -37.4526 -37.4441 -37.4384
   -37.4288 -37.4235 -37.4164 -37.3990 -32.4514 -32.4307 -32.4184 -32.4163
   -32.4066 -32.4049 -32.3842 -32.3755 -32.3636 -32.3602 -32.3387 -32.3339
    -6.5236  -5.9588  -5.8435  -5.7569  -5.6540  -5.5994  -5.5348  -5.3910
     5.2195   5.2491   5.2925   5.4010   6.3325   6.3511   6.4188   6.6737
     6.8175   6.8282   6.8664   6.9543   6.9794   7.2114   7.2254   7.5941
     7.6131   8.0574   8.1631   8.3173   8.4149   8.5231   8.5821   8.8559
     8.9865   9.0443   9.0966   9.2599   9.3687   9.4088   9.4991   9.6174
     9.6797   9.7130   9.7265   9.7846  11.2049  11.2201  11.2645  11.2983
    11.3934  11.4251  11.5314  11.5642  14.0514  15.0832  15.3031  15.3227
    15.5142  15.8637  15.8917  16.1220  16.1252  16.2142  16.3917  16.4165
    16.4284  16.4593  16.6003  16.6202  16.6438

          k =-0.3506-0.3506 0.3447 (  5310 PWs)   bands (ev):

   -68.6371 -68.5792 -68.5630 -68.5468 -63.4346 -63.4084 -63.3963 -63.3563
   -37.5299 -37.5071 -37.4988 -37.4655 -37.4647 -37.4506 -37.4428 -37.4387
   -37.4324 -37.4256 -37.4196 -37.3993 -32.4511 -32.4293 -32.4165 -32.4101
   -32.4072 -32.3967 -32.3887 -32.3767 -32.3708 -32.3613 -32.3410 -32.3350
    -6.2742  -6.1314  -5.8902  -5.7686  -5.6738  -5.6301  -5.5348  -5.3988
     5.7324   5.8024   5.9375   5.9629   6.0155   6.0957   6.3785   6.4657
     6.7329   6.7609   6.8978   6.9716   7.0057   7.0296   7.0626   7.0983
     7.5029   7.5450   8.0873   8.1174   8.2471   8.2773   8.4727   8.5689
     8.9397   8.9671   9.2344   9.3066   9.4688   9.4826   9.5653   9.5809
     9.6365   9.6756   9.7079   9.7928  11.1261  11.1615  11.3157  11.3818
    11.4671  11.5022  11.5968  11.6174  15.0573  15.1031  15.6418  15.6649
    15.7004  15.7300  15.7544  15.7805  16.0791  16.1159  16.1523  16.1822
    16.4034  16.4250  16.4488  16.4931  16.5035

          k = 0.3506 0.0030 0.0030 (  5287 PWs)   bands (ev):

   -68.6376 -68.5798 -68.5635 -68.5474 -63.4342 -63.4080 -63.3958 -63.3559
   -37.5299 -37.5075 -37.5001 -37.4676 -37.4645 -37.4537 -37.4470 -37.4380
   -37.4276 -37.4208 -37.4139 -37.4019 -32.4508 -32.4288 -32.4210 -32.4178
   -32.4078 -32.4064 -32.3837 -32.3725 -32.3634 -32.3600 -32.3392 -32.3351
    -6.4881  -5.9706  -5.8537  -5.7459  -5.6641  -5.5975  -5.5541  -5.3994
     5.3102   5.3331   5.3635   5.3948   6.1868   6.4973   6.5354   6.7092
     6.7728   6.8193   6.8642   6.9477   7.0298   7.1096   7.2576   7.5674
     7.5862   8.0320   8.1175   8.2491   8.3773   8.4152   8.5000   8.7038
     8.8771   9.0691   9.1295   9.1781   9.3906   9.4497   9.5366   9.6855
     9.7229   9.8518   9.8827  10.0526  11.0096  11.0647  11.1295  11.2151
    11.2625  11.3607  11.4288  11.5105  14.3102  15.1969  15.2155  15.2426
    15.6268  15.7244  15.8579  16.0134  16.1848  16.1917  16.3290  16.3546
    16.3927  16.4217  16.4999  16.5883  16.6333

          k =-0.1753-0.5230 0.5200 (  5293 PWs)   bands (ev):

   -68.6373 -68.5795 -68.5632 -68.5471 -63.4343 -63.4081 -63.3960 -63.3560
   -37.5297 -37.5063 -37.4989 -37.4648 -37.4645 -37.4523 -37.4462 -37.4383
   -37.4311 -37.4226 -37.4169 -37.4021 -32.4506 -32.4271 -32.4169 -32.4149
   -32.4073 -32.4016 -32.3832 -32.3753 -32.3708 -32.3610 -32.3402 -32.3374
    -6.2722  -6.0690  -5.8881  -5.8045  -5.7162  -5.6119  -5.5446  -5.4036
     5.6879   5.7530   5.7995   6.0523   6.1970   6.2537   6.4289   6.5515
     6.5938   6.7425   6.8660   6.9731   6.9994   7.1042   7.2481   7.4052
     7.4460   7.5657   7.7206   7.8211   7.8716   8.2010   8.6584   8.8135
     8.9319   8.9817   9.0769   9.2261   9.5537   9.5946   9.6555   9.7148
     9.7617   9.8408   9.9212  10.0122  10.8014  11.0028  11.0483  11.1765
    11.2764  11.3143  11.4053  11.5594  15.1980  15.2829  15.4388  15.5282
    15.6622  15.6914  15.7635  15.8897  15.9769  16.0927  16.1228  16.1709
    16.1966  16.4114  16.4357  16.5585  16.5810

          k = 0.0000-0.3477 0.3477 (  5294 PWs)   bands (ev):

   -68.6371 -68.5792 -68.5629 -68.5468 -63.4346 -63.4085 -63.3963 -63.3563
   -37.5298 -37.5072 -37.4981 -37.4670 -37.4644 -37.4522 -37.4447 -37.4383
   -37.4286 -37.4237 -37.4191 -37.4020 -32.4505 -32.4269 -32.4177 -32.4110
   -32.4070 -32.4010 -32.3851 -32.3824 -32.3641 -32.3607 -32.3420 -32.3356
    -6.3596  -5.9786  -5.8692  -5.8225  -5.7433  -5.5855  -5.5431  -5.3969
     5.5781   5.6510   5.7518   5.7846   6.2227   6.2705   6.4205   6.6146
     6.6899   6.8589   6.9070   6.9514   6.9862   7.1729   7.2343   7.2932
     7.4906   7.5143   7.5822   7.8828   8.1428   8.5035   8.5712   8.7988
     9.0067   9.0278   9.0690   9.2178   9.5077   9.5603   9.6121   9.6435
     9.7185   9.7525   9.8142  10.0190  10.9393  11.0255  11.1579  11.2753
    11.3249  11.4314  11.4646  11.5913  15.0711  15.3684  15.3895  15.5122
    15.6466  15.7281  15.8136  15.8324  16.0838  16.1141  16.1299  16.1810
    16.2200  16.4037  16.4214  16.4699  16.5731

          k =-0.7013-0.0060-0.0060 (  5286 PWs)   bands (ev):

   -68.6376 -68.5798 -68.5634 -68.5474 -63.4339 -63.4078 -63.3956 -63.3557
   -37.5295 -37.5058 -37.4986 -37.4646 -37.4638 -37.4541 -37.4489 -37.4380
   -37.4301 -37.4187 -37.4144 -37.4059 -32.4502 -32.4240 -32.4195 -32.4166
   -32.4074 -32.4064 -32.3786 -32.3760 -32.3687 -32.3609 -32.3429 -32.3370
    -6.2239  -6.1043  -5.8749  -5.7592  -5.7232  -5.6679  -5.5550  -5.4100
     5.6867   5.7602   5.7941   5.8583   6.3962   6.4419   6.5458   6.6251
     6.8005   6.8487   6.9381   6.9649   6.9946   7.0192   7.1390   7.2067
     7.2251   7.2837   7.6998   7.7421   8.1851   8.2553   8.6319   8.6608
     8.8699   8.9655   9.2514   9.3270   9.5210   9.5723   9.7236   9.8546
     9.9718  10.0357  10.2367  10.3307  10.3486  10.4935  10.7548  10.9021
    11.1070  11.1607  11.3997  11.4754  15.1909  15.2526  15.4358  15.4747
    15.6550  15.6883  15.7438  15.8145  15.9654  16.0210  16.0983  16.1296
    16.1957  16.2396  16.5132  16.5348  16.7788

          k = 0.1783 0.1783 0.1783 (  5320 PWs)   bands (ev):

   -68.6385 -68.5806 -68.5643 -68.5482 -63.4334 -63.4073 -63.3950 -63.3550
   -37.5297 -37.5089 -37.5011 -37.4698 -37.4644 -37.4532 -37.4449 -37.4375
   -37.4262 -37.4211 -37.4132 -37.3986 -32.4524 -32.4328 -32.4239 -32.4185
   -32.4109 -32.4067 -32.3834 -32.3735 -32.3601 -32.3588 -32.3372 -32.3325
    -6.5165  -5.9698  -5.8474  -5.8076  -5.6700  -5.5472  -5.5178  -5.3887
     5.1806   5.2086   5.2218   5.4356   6.3658   6.3785   6.3869   6.7917
     6.8221   6.8388   6.8780   6.9103   6.9650   6.9940   7.0356   8.0175
     8.0735   8.0975   8.4957   8.5196   8.5698   8.5848   8.6620   8.6811
     8.7251   8.7764   8.7928   9.1860   9.2434   9.2994   9.3741   9.4370
     9.5513   9.7969   9.8159   9.8280  11.2808  11.2892  11.3282  11.3423
    11.3873  11.4222  11.4795  11.5515  14.0749  14.9763  14.9819  15.0054
    15.5017  15.7337  15.7514  16.3522  16.3583  16.3940  16.4957  16.5019
    16.5122  16.5745  16.5952  16.6282  16.6506

          k =-0.3477-0.3477 0.6953 (  5292 PWs)   bands (ev):

   -68.6382 -68.5803 -68.5640 -68.5479 -63.4335 -63.4073 -63.3951 -63.3552
   -37.5295 -37.5078 -37.4998 -37.4676 -37.4640 -37.4523 -37.4439 -37.4378
   -37.4286 -37.4233 -37.4163 -37.3989 -32.4521 -32.4315 -32.4189 -32.4171
   -32.4076 -32.4055 -32.3845 -32.3757 -32.3637 -32.3609 -32.3390 -32.3341
    -6.3380  -6.0097  -5.9386  -5.8014  -5.7065  -5.6091  -5.5127  -5.3859
     5.5456   5.5656   5.7559   5.8298   6.1345   6.1629   6.3851   6.6071
     6.7013   6.7233   6.7830   6.9500   6.9801   7.3173   7.3656   7.6368
     7.6719   7.8212   7.9508   8.1068   8.1882   8.3165   8.3437   8.4782
     8.8032   8.9657   9.0632   9.1293   9.3120   9.3922   9.4472   9.5383
     9.7940   9.8680   9.9343  10.0957  11.0176  11.1348  11.1605  11.2449
    11.2807  11.3983  11.5081  11.6452  14.9282  15.0372  15.2137  15.2367
    15.3833  15.7543  15.8675  16.1362  16.1540  16.2752  16.3333  16.3723
    16.3975  16.4187  16.4539  16.5038  16.5586

          k =-0.1723-0.1723 0.5230 (  5304 PWs)   bands (ev):

   -68.6373 -68.5795 -68.5632 -68.5471 -63.4343 -63.4081 -63.3960 -63.3560
   -37.5296 -37.5070 -37.4988 -37.4654 -37.4645 -37.4506 -37.4427 -37.4384
   -37.4322 -37.4256 -37.4197 -37.3992 -32.4512 -32.4297 -32.4168 -32.4102
   -32.4074 -32.3968 -32.3890 -32.3767 -32.3708 -32.3612 -32.3413 -32.3351
    -6.2790  -6.0437  -5.9295  -5.7669  -5.6964  -5.6589  -5.5409  -5.3945
     5.7240   5.7667   5.7997   5.9285   6.2337   6.2842   6.3062   6.6434
     6.7930   6.7993   6.8544   6.9646   7.0047   7.0796   7.0957   7.2051
     7.3496   7.4040   7.9937   8.0549   8.1119   8.2077   8.4922   8.5987
     8.8961   8.9706   9.2643   9.3299   9.4893   9.5125   9.5965   9.7136
     9.7981   9.8166   9.8552   9.9274  10.9806  11.0655  11.1199  11.1601
    11.2567  11.3333  11.3804  11.4602  15.0609  15.3246  15.5145  15.5812
    15.6545  15.7002  15.7464  15.7897  16.0129  16.0610  16.1200  16.1687
    16.3010  16.3241  16.5087  16.5630  16.6787

          k =-0.8736 0.1693 0.1693 (  5303 PWs)   bands (ev):

   -68.6384 -68.5806 -68.5643 -68.5482 -63.4332 -63.4070 -63.3948 -63.3548
   -37.5294 -37.5072 -37.4998 -37.4671 -37.4639 -37.4534 -37.4468 -37.4375
   -37.4274 -37.4206 -37.4137 -37.4018 -32.4516 -32.4296 -32.4216 -32.4184
   -32.4084 -32.4072 -32.3840 -32.3728 -32.3635 -32.3608 -32.3394 -32.3353
    -6.2632  -6.0250  -5.9725  -5.8123  -5.7442  -5.5787  -5.5314  -5.3859
     5.6647   5.6828   5.7238   6.0270   6.0966   6.3048   6.3453   6.5440
     6.6145   6.6451   6.8972   6.9750   7.0726   7.2134   7.2622   7.6422
     7.7038   7.7884   7.8442   7.9242   8.1347   8.3225   8.3824   8.4457
     8.6933   8.8298   9.0934   9.1637   9.4049   9.4420   9.4650   9.5793
     9.8654   9.9299  10.0253  10.1062  10.8896  11.0345  11.0853  11.1868
    11.2942  11.3530  11.3981  11.5265  15.0414  15.1018  15.1538  15.1883
    15.4921  15.6940  15.8350  15.9852  16.1847  16.2273  16.3060  16.3235
    16.3597  16.4017  16.5425  16.5807  16.6255

          k =-0.6983 0.3447-0.0030 (  5306 PWs)   bands (ev):

   -68.6376 -68.5798 -68.5635 -68.5474 -63.4339 -63.4077 -63.3957 -63.3556
   -37.5294 -37.5063 -37.4988 -37.4647 -37.4643 -37.4523 -37.4461 -37.4380
   -37.4309 -37.4225 -37.4170 -37.4021 -32.4508 -32.4276 -32.4171 -32.4150
   -32.4076 -32.4018 -32.3835 -32.3751 -32.3709 -32.3610 -32.3404 -32.3375
    -6.1869  -6.0413  -5.9504  -5.8726  -5.7125  -5.6326  -5.5321  -5.3925
     5.8792   5.9749   5.9953   6.0284   6.1042   6.2178   6.3214   6.4000
     6.6227   6.8089   6.8734   6.9997   7.0257   7.0604   7.2347   7.3664
     7.5449   7.6355   7.6560   7.7358   7.8268   8.1686   8.3059   8.7175
     8.8804   9.0304   9.0368   9.2281   9.5629   9.5909   9.6557   9.7284
     9.8800  10.0414  10.0912  10.2519  10.5465  10.7782  10.8263  11.0646
    11.2602  11.3514  11.4041  11.4957  15.3496  15.3559  15.4265  15.5882
    15.6262  15.6787  15.8005  15.8550  15.9286  15.9659  16.0885  16.1471
    16.1983  16.4132  16.4232  16.4546  16.5737

          k =-0.3566-0.3566-0.3566 (  5300 PWs)   bands (ev):

   -68.6393 -68.5814 -68.5651 -68.5490 -63.4324 -63.4062 -63.3939 -63.3540
   -37.5292 -37.5086 -37.5008 -37.4694 -37.4638 -37.4528 -37.4447 -37.4370
   -37.4259 -37.4209 -37.4130 -37.3984 -32.4532 -32.4336 -32.4245 -32.4192
   -32.4115 -32.4076 -32.3837 -32.3737 -32.3609 -32.3589 -32.3374 -32.3327
    -6.2485  -6.1269  -5.9091  -5.8501  -5.7724  -5.5228  -5.4948  -5.3833
     5.5077   5.5413   5.5695   6.1540   6.3893   6.4325   6.4463   6.5310
     6.5713   6.6004   6.8665   6.8970   6.9157   6.9435   6.9583   7.5796
     7.9615   8.0051   8.0288   8.4503   8.5126   8.5269   8.6196   8.6677
     8.6928   8.7112   8.7535   8.9855   9.0339   9.2800   9.2936   9.3297
     9.4690   9.8510   9.8575   9.8763  11.1959  11.2041  11.2414  11.4155
    11.4816  11.5562  11.6910  11.7509  14.8584  14.8686  14.8880  15.0227
    15.5067  15.6920  15.7101  16.2860  16.2931  16.3327  16.3732  16.4797
    16.4866  16.4966  16.5047  16.5202  16.6039

          k = 0.1723-0.1753-0.1753 (  5270 PWs)   bands (ev):

   -68.6374 -68.5795 -68.5632 -68.5471 -63.4345 -63.4084 -63.3961 -63.3562
   -37.5301 -37.5076 -37.5002 -37.4678 -37.4647 -37.4539 -37.4470 -37.4380
   -37.4275 -37.4209 -37.4140 -37.4020 -32.4503 -32.4288 -32.4207 -32.4178
   -32.4075 -32.4062 -32.3835 -32.3724 -32.3632 -32.3598 -32.3390 -32.3352
    -6.5227  -5.9691  -5.8119  -5.7851  -5.6476  -5.6018  -5.5288  -5.3951
     5.2304   5.2483   5.2863   5.3991   6.3298   6.3572   6.4133   6.6749
     6.7898   6.8460   6.8692   6.9442   6.9948   7.2148   7.2242   7.5851
     7.6264   8.0953   8.1013   8.3201   8.4218   8.5364   8.5969   8.8433
     8.9761   9.0377   9.0959   9.2145   9.3891   9.4539   9.5059   9.6249
     9.6556   9.6950   9.7372   9.7891  11.1963  11.2223  11.2584  11.3185
    11.3947  11.4538  11.4914  11.5711  14.0513  15.0836  15.2978  15.3262
    15.5141  15.8635  15.8900  16.1181  16.1263  16.2097  16.3965  16.4105
    16.4330  16.4651  16.5918  16.6277  16.6561

          k =-0.1753 0.1723-0.1753 (  5270 PWs)   bands (ev):

   -68.6374 -68.5796 -68.5632 -68.5471 -63.4345 -63.4084 -63.3961 -63.3562
   -37.5300 -37.5084 -37.4993 -37.4693 -37.4647 -37.4530 -37.4462 -37.4381
   -37.4254 -37.4218 -37.4158 -37.4018 -32.4507 -32.4284 -32.4203 -32.4164
   -32.4076 -32.4060 -32.3848 -32.3766 -32.3603 -32.3587 -32.3407 -32.3337
    -6.5268  -5.9395  -5.8135  -5.7648  -5.7327  -5.5625  -5.5334  -5.3888
     5.2138   5.2443   5.2923   5.4067   6.3445   6.3536   6.4136   6.6813
     6.8024   6.8369   6.8606   6.9780   6.9920   7.1971   7.2114   7.5809
     7.6219   8.0595   8.1281   8.2975   8.4100   8.5639   8.5877   8.8558
     9.0097   9.0448   9.0648   9.2456   9.3768   9.4191   9.5199   9.6344
     9.6544   9.7117   9.7306   9.7960  11.1976  11.2256  11.2618  11.2941
    11.3947  11.4608  11.4736  11.5746  14.0507  15.0992  15.2990  15.3098
    15.5206  15.8658  15.8793  16.1190  16.1313  16.2118  16.3953  16.4168
    16.4352  16.4452  16.5934  16.6316  16.6638

          k =-0.3447 0.3506 0.3506 (  5310 PWs)   bands (ev):

   -68.6371 -68.5792 -68.5629 -68.5468 -63.4346 -63.4084 -63.3963 -63.3563
   -37.5299 -37.5060 -37.4988 -37.4649 -37.4645 -37.4545 -37.4490 -37.4379
   -37.4298 -37.4189 -37.4147 -37.4062 -32.4492 -32.4241 -32.4189 -32.4170
   -32.4067 -32.4058 -32.3786 -32.3755 -32.3685 -32.3605 -32.3425 -32.3370
    -6.2531  -6.1666  -5.8511  -5.7955  -5.6905  -5.6087  -5.5306  -5.4058
     5.7549   5.8183   5.9245   5.9691   6.0169   6.0612   6.3705   6.4790
     6.6988   6.7685   6.8934   6.9755   7.0032   7.0269   7.0696   7.1176
     7.5173   7.5480   8.0722   8.1390   8.2127   8.2832   8.4879   8.5654
     8.9326   8.9573   9.2340   9.2837   9.4774   9.5246   9.5528   9.5695
     9.6236   9.6767   9.7239   9.7921  11.1277  11.1519  11.3287  11.4102
    11.4757  11.4983  11.5617  11.6232  15.0668  15.0918  15.6321  15.6682
    15.7011  15.7160  15.7592  15.7754  16.0752  16.1227  16.1501  16.1812
    16.4072  16.4507  16.4669  16.4809  16.5013

          k = 0.3506-0.3447 0.3506 (  5310 PWs)   bands (ev):

   -68.6371 -68.5793 -68.5629 -68.5469 -63.4346 -63.4085 -63.3962 -63.3563
   -37.5297 -37.5076 -37.4970 -37.4685 -37.4645 -37.4531 -37.4463 -37.4380
   -37.4244 -37.4215 -37.4192 -37.4053 -32.4500 -32.4239 -32.4197 -32.4107
   -32.4072 -32.4043 -32.3891 -32.3791 -32.3618 -32.3586 -32.3450 -32.3351
    -6.3161  -6.0213  -5.9114  -5.8085  -5.7436  -5.5660  -5.5387  -5.3963
     5.7104   5.7508   5.8607   6.0391   6.0870   6.1304   6.3844   6.4946
     6.7428   6.7935   6.8536   6.9556   6.9885   7.0098   7.0376   7.1088
     7.5035   7.5111   8.0633   8.1318   8.2735   8.3103   8.4347   8.5771
     8.9236   8.9521   9.2653   9.2889   9.4696   9.5306   9.5723   9.6018
     9.6136   9.6765   9.7198   9.7906  11.1153  11.1197  11.3746  11.4093
    11.4507  11.5002  11.5396  11.6196  15.0859  15.0893  15.6222  15.6466
    15.6954  15.7252  15.7589  15.8157  16.0755  16.0973  16.1496  16.1871
    16.4076  16.4189  16.4462  16.4855  16.5066

[...]
     5.6874   5.7474   5.7760   6.0557   6.2044   6.2756   6.4242   6.5645
     6.6116   6.7027   6.8951   6.9677   7.0184   7.0914   7.2353   7.3993
     7.4364   7.6420   7.6955   7.8550   7.8799   8.2451   8.7110   8.8622
     8.9593   9.0405   9.1549   9.2432   9.6259   9.6871   9.7037   9.7608
     9.8287   9.8806   9.9684  10.0094  10.8866  11.1073  11.1671  11.2817
    11.3156  11.4196  11.4564  11.5733  15.1997  15.2626  15.3731  15.4704
    15.5684  15.6234  15.7387  15.8325  15.9238  16.0583  16.0826  16.1297
    16.1466  16.3571  16.3839  16.4703  16.5030

          k =-0.5230 0.5200-0.1753 (  5293 PWs)   bands (ev):

   -68.5525 -68.5266 -68.5132 -68.4738 -63.5165 -63.4606 -63.4482 -63.4301
   -37.4526 -37.4280 -37.4204 -37.4118 -37.4100 -37.4011 -37.3848 -37.3815
   -37.3678 -37.3654 -37.3433 -37.3368 -32.5225 -32.5052 -32.4947 -32.4704
   -32.4568 -32.4520 -32.4431 -32.4360 -32.4276 -32.4252 -32.4193 -32.3989
    -6.2861  -5.9934  -5.9212  -5.7995  -5.7833  -5.6112  -5.5450  -5.4111
     5.6823   5.7518   5.7801   6.0541   6.1990   6.2774   6.4213   6.5782
     6.6082   6.6971   6.8887   6.9776   7.0105   7.0809   7.2418   7.3906
     7.4503   7.6435   7.6932   7.8551   7.8856   8.2514   8.7031   8.8590
     8.9721   9.0403   9.1425   9.2478   9.6392   9.6639   9.7094   9.7499
     9.8171   9.9028   9.9775  10.0055  10.8903  11.1028  11.1505  11.2575
    11.3850  11.4045  11.4535  11.5617  15.2021  15.2598  15.3634  15.4677
    15.5718  15.6230  15.7600  15.8231  15.9366  16.0574  16.0732  16.1216
    16.1461  16.3602  16.3855  16.4713  16.4985

          k = 0.5200-0.1753-0.5230 (  5293 PWs)   bands (ev):

   -68.5525 -68.5266 -68.5132 -68.4739 -63.5165 -63.4606 -63.4481 -63.4301
   -37.4525 -37.4264 -37.4199 -37.4143 -37.4099 -37.4036 -37.3855 -37.3773
   -37.3675 -37.3652 -37.3445 -37.3370 -32.5225 -32.5042 -32.4948 -32.4698
   -32.4572 -32.4534 -32.4492 -32.4351 -32.4261 -32.4209 -32.4155 -32.4034
    -6.2646  -6.0534  -5.9452  -5.7690  -5.6942  -5.6272  -5.5870  -5.4099
     5.6945   5.7506   5.7854   6.0418   6.2055   6.2574   6.4178   6.5751
     6.6099   6.6814   6.8664   6.9514   7.0326   7.1470   7.2115   7.4172
     7.4464   7.6284   7.7100   7.8622   7.8892   8.2369   8.7042   8.8638
     8.9920   9.0565   9.1276   9.2458   9.6249   9.6681   9.6979   9.7483
     9.8295   9.9126   9.9527  10.0234  10.8729  11.0753  11.1614  11.1924
    11.3496  11.4271  11.5076  11.6041  15.2140  15.2277  15.3518  15.4787
    15.5705  15.6082  15.7475  15.8302  15.9380  16.0705  16.0905  16.1326
    16.1521  16.3558  16.3827  16.4720  16.4966

          k = 0.3477 0.0000-0.3477 (  5294 PWs)   bands (ev):

   -68.5522 -68.5263 -68.5129 -68.4736 -63.5168 -63.4609 -63.4485 -63.4304
   -37.4528 -37.4281 -37.4200 -37.4141 -37.4102 -37.4016 -37.3816 -37.3772
   -37.3740 -37.3653 -37.3422 -37.3380 -32.5221 -32.5033 -32.4967 -32.4668
   -32.4568 -32.4537 -32.4451 -32.4361 -32.4303 -32.4239 -32.4163 -32.3988
    -6.3435  -6.0275  -5.8935  -5.7602  -5.7017  -5.6272  -5.5798  -5.4054
     5.6109   5.6578   5.7235   5.7854   6.1967   6.2756   6.3874   6.5390
     6.7384   6.8223   6.9498   6.9832   7.0121   7.1708   7.2573   7.3228
     7.4616   7.5014   7.6284   7.9140   8.1619   8.5215   8.6253   8.8560
     9.0505   9.1038   9.1266   9.2400   9.6045   9.6401   9.6800   9.7235
     9.7429   9.7887   9.8416  10.0368  11.0363  11.1357  11.1941  11.3226
    11.3882  11.5069  11.5757  11.6384  15.1172  15.2847  15.3392  15.4493
    15.5563  15.6419  15.7354  15.7938  16.0273  16.0687  16.1310  16.1574
    16.1931  16.3305  16.3620  16.3894  16.4691

          k =-0.3477 0.3477 0.0000 (  5294 PWs)   bands (ev):

   -68.5522 -68.5263 -68.5129 -68.4736 -63.5168 -63.4610 -63.4485 -63.4304
   -37.4526 -37.4267 -37.4201 -37.4143 -37.4101 -37.4036 -37.3857 -37.3773
   -37.3675 -37.3655 -37.3444 -37.3371 -32.5224 -32.5039 -32.4946 -32.4696
   -32.4568 -32.4533 -32.4492 -32.4347 -32.4259 -32.4207 -32.4154 -32.4034
    -6.3550  -5.9876  -5.8607  -5.7983  -5.7669  -5.6254  -5.5373  -5.4080
     5.5976   5.6462   5.7489   5.7670   6.2441   6.2512   6.4056   6.5827
     6.7026   6.8418   6.9382   6.9527   6.9855   7.1973   7.2354   7.3104
     7.5027   7.5596   7.5841   7.9180   8.1267   8.5545   8.5871   8.8631
     9.0519   9.1000   9.1202   9.2273   9.6012   9.6326   9.6846   9.7251
     9.7441   9.7924   9.8219  10.0263  11.0903  11.1488  11.2190  11.3481
    11.4140  11.5115  11.5465  11.5819  15.0899  15.2848  15.3280  15.4455
    15.5805  15.6330  15.7428  15.8080  16.0178  16.0672  16.1431  16.1544
    16.1846  16.3497  16.3581  16.4170  16.4793

          k = 0.0060 0.7013 0.0060 (  5286 PWs)   bands (ev):

   -68.5527 -68.5268 -68.5134 -68.4741 -63.5161 -63.4604 -63.4477 -63.4298
   -37.4523 -37.4263 -37.4205 -37.4116 -37.4098 -37.4031 -37.3883 -37.3797
   -37.3655 -37.3634 -37.3458 -37.3360 -32.5226 -32.5062 -32.4927 -32.4735
   -32.4575 -32.4531 -32.4451 -32.4351 -32.4231 -32.4221 -32.4199 -32.4030
    -6.2135  -6.1024  -5.8866  -5.7901  -5.7086  -5.6487  -5.5867  -5.4224
     5.6989   5.7473   5.7931   5.8358   6.4291   6.4753   6.5248   6.6030
     6.7862   6.7921   6.9402   6.9466   7.0260   7.0999   7.1227   7.1696
     7.2638   7.2982   7.7372   7.7759   8.2202   8.2662   8.7106   8.7171
     8.9457   9.0046   9.3237   9.3389   9.5673   9.5727   9.7917   9.8511
    10.0581  10.0759  10.2467  10.3505  10.4468  10.5436  10.8852  10.9213
    11.2313  11.2950  11.4979  11.5149  15.2186  15.2320  15.3785  15.4073
    15.5330  15.5870  15.7366  15.7811  15.8949  15.9777  16.0267  16.1256
    16.1630  16.1935  16.4577  16.4643  16.6773

          k = 0.0060 0.0060 0.7013 (  5286 PWs)   bands (ev):

   -68.5528 -68.5268 -68.5135 -68.4741 -63.5162 -63.4602 -63.4479 -63.4297
   -37.4527 -37.4290 -37.4199 -37.4114 -37.4099 -37.3988 -37.3845 -37.3772
   -37.3746 -37.3653 -37.3422 -37.3367 -32.5227 -32.5056 -32.4956 -32.4685
   -32.4572 -32.4499 -32.4401 -32.4383 -32.4324 -32.4278 -32.4202 -32.3957
    -6.2033  -6.1224  -5.8298  -5.7949  -5.7242  -5.7133  -5.5487  -5.4226
     5.7223   5.7253   5.8059   5.8329   6.4284   6.4472   6.5394   6.6095
     6.7948   6.8303   6.9313   6.9811   6.9926   7.0169   7.1288   7.2213
     7.2332   7.2949   7.7477   7.7801   8.2025   8.2516   8.6746   8.7274
     8.9432   9.0099   9.3283   9.3819   9.5553   9.5955   9.8237   9.8539
    10.0267  10.0842  10.2978  10.3121  10.4888  10.5359  10.8682  10.9860
    11.2202  11.2562  11.4665  11.4758  15.2171  15.2446  15.4128  15.4369
    15.5225  15.5776  15.7277  15.7919  15.8629  15.9769  16.0344  16.1145
    16.1349  16.1891  16.4392  16.4796  16.6901

          k =-0.6953 0.3477 0.3477 (  5292 PWs)   bands (ev):

   -68.5533 -68.5274 -68.5140 -68.4747 -63.5157 -63.4599 -63.4473 -63.4292
   -37.4525 -37.4281 -37.4205 -37.4168 -37.4096 -37.4042 -37.3838 -37.3751
   -37.3672 -37.3647 -37.3412 -37.3360 -32.5232 -32.5065 -32.5002 -32.4728
   -32.4577 -32.4546 -32.4462 -32.4357 -32.4263 -32.4220 -32.4123 -32.3988
    -6.3340  -6.0193  -5.9259  -5.8123  -5.7102  -5.6136  -5.5311  -5.3962
     5.5425   5.5637   5.7409   5.8274   6.1566   6.1671   6.4085   6.6012
     6.6939   6.7123   6.7704   6.9234   6.9919   7.3106   7.3515   7.6755
     7.7149   7.8649   7.9720   8.1586   8.1926   8.3103   8.3821   8.5128
     8.8566   9.0064   9.1300   9.1703   9.4010   9.4654   9.4809   9.5507
     9.8556   9.9230   9.9425  10.1160  11.1282  11.1951  11.2533  11.3277
    11.4201  11.4708  11.5777  11.7134  14.8856  15.0480  15.1309  15.1541
    15.3327  15.6908  15.7986  16.0973  16.1145  16.2256  16.2761  16.3190
    16.3543  16.3742  16.4014  16.4311  16.4897

          k = 0.3477-0.6953 0.3477 (  5292 PWs)   bands (ev):

   -68.5533 -68.5274 -68.5140 -68.4747 -63.5157 -63.4599 -63.4473 -63.4292
   -37.4525 -37.4283 -37.4211 -37.4149 -37.4096 -37.4040 -37.3856 -37.3779
   -37.3650 -37.3633 -37.3422 -37.3351 -32.5231 -32.5082 -32.4983 -32.4752
   -32.4576 -32.4526 -32.4457 -32.4352 -32.4244 -32.4222 -32.4149 -32.3989
    -6.3461  -5.9739  -5.8926  -5.8388  -5.8002  -5.5577  -5.5382  -5.3953
     5.5365   5.5504   5.7583   5.8216   6.1544   6.1762   6.4110   6.6186
     6.7171   6.7325   6.7586   6.9145   6.9456   7.3248   7.3320   7.6738
     7.7183   7.9084   7.9604   8.1542   8.1660   8.3254   8.3998   8.4977
     8.8888   9.0102   9.1102   9.1242   9.3836   9.4734   9.4915   9.5365
     9.8651   9.9348   9.9432  10.1244  11.1092  11.2042  11.2348  11.3471
    11.3913  11.4242  11.6345  11.7499  14.8634  15.0709  15.1460  15.1702
    15.3320  15.6892  15.8104  16.0997  16.1115  16.1893  16.2773  16.3045
    16.3438  16.3816  16.3905  16.4070  16.4927

          k =-0.5230 0.1723 0.1723 (  5304 PWs)   bands (ev):

   -68.5525 -68.5265 -68.5132 -68.4738 -63.5165 -63.4606 -63.4482 -63.4301
   -37.4523 -37.4264 -37.4195 -37.4160 -37.4099 -37.4043 -37.3790 -37.3778
   -37.3719 -37.3652 -37.3435 -37.3377 -32.5226 -32.5025 -32.4966 -32.4656
   -32.4580 -32.4572 -32.4487 -32.4352 -32.4295 -32.4192 -32.4130 -32.4038
    -6.2677  -6.0576  -5.9126  -5.7771  -5.7085  -5.6597  -5.5621  -5.4052
     5.7535   5.7715   5.7926   5.9026   6.2279   6.2722   6.3272   6.6035
     6.7901   6.8257   6.8657   6.9510   7.0317   7.0615   7.1155   7.1951
     7.3488   7.4061   8.0440   8.0817   8.1244   8.2208   8.5522   8.6389
     8.9600   8.9947   9.3328   9.3954   9.5525   9.5847   9.6483   9.8004
     9.8384   9.8713   9.9126   9.9333  11.0571  11.1455  11.2346  11.2501
    11.3068  11.3970  11.4298  11.5124  15.0632  15.2694  15.4795  15.5327
    15.5743  15.6213  15.6929  15.7556  15.9414  16.0183  16.0729  16.1333
    16.2234  16.2964  16.4682  16.4976  16.5864

          k = 0.1723-0.5230 0.1723 (  5304 PWs)   bands (ev):

   -68.5525 -68.5266 -68.5131 -68.4739 -63.5165 -63.4607 -63.4481 -63.4301
   -37.4524 -37.4266 -37.4207 -37.4116 -37.4100 -37.4032 -37.3884 -37.3796
   -37.3658 -37.3634 -37.3456 -37.3361 -32.5224 -32.5059 -32.4925 -32.4733
   -32.4573 -32.4529 -32.4452 -32.4347 -32.4230 -32.4221 -32.4197 -32.4031
    -6.2926  -5.9766  -5.8919  -5.8539  -5.7811  -5.5918  -5.5534  -5.4093
     5.7330   5.7513   5.7900   5.9224   6.2430   6.2929   6.3197   6.6416
     6.7956   6.8242   6.8661   6.9270   7.0233   7.0436   7.0824   7.2424
     7.3606   7.3900   8.0440   8.0646   8.1475   8.2462   8.5326   8.6558
     8.9723   9.0015   9.3210   9.3296   9.5529   9.5628   9.6455   9.8041
     9.8459   9.8707   9.9020   9.9390  11.0653  11.1459  11.1878  11.2289
    11.3305  11.4179  11.4634  11.5504  15.0493  15.2599  15.4434  15.5385
    15.5809  15.6190  15.7233  15.7648  15.9494  16.0241  16.0508  16.1388
    16.2650  16.2902  16.4714  16.4830  16.5628

          k =-0.1693 0.8736-0.1693 (  5303 PWs)   bands (ev):

   -68.5536 -68.5277 -68.5142 -68.4749 -63.5154 -63.4596 -63.4469 -63.4289
   -37.4524 -37.4280 -37.4209 -37.4148 -37.4093 -37.4039 -37.3856 -37.3779
   -37.3647 -37.3633 -37.3424 -37.3350 -32.5232 -32.5084 -32.4986 -32.4754
   -32.4579 -32.4527 -32.4457 -32.4356 -32.4246 -32.4223 -32.4150 -32.3988
    -6.2539  -6.0653  -5.9047  -5.8323  -5.7903  -5.5618  -5.5426  -5.4032
     5.6677   5.6726   5.7012   6.0264   6.1217   6.3340   6.3506   6.5297
     6.6322   6.6363   6.8849   6.9198   7.0964   7.2067   7.2318   7.7092
     7.7179   7.8466   7.8701   7.9612   8.1757   8.3730   8.3816   8.4276
     8.7705   8.8965   9.1599   9.1734   9.4625   9.4854   9.5263   9.5721
     9.9534   9.9607  10.0510  10.1274  10.9602  11.1365  11.1838  11.2079
    11.3934  11.4749  11.5315  11.5975  14.9696  15.0768  15.0978  15.1471
    15.4380  15.6331  15.7804  15.9653  16.1684  16.1839  16.2498  16.2877
    16.3035  16.3476  16.4756  16.4971  16.5359

          k =-0.1693-0.1693 0.8736 (  5303 PWs)   bands (ev):

   -68.5536 -68.5276 -68.5143 -68.4749 -63.5154 -63.4595 -63.4470 -63.4289
   -37.4526 -37.4293 -37.4204 -37.4146 -37.4095 -37.4022 -37.3837 -37.3777
   -37.3675 -37.3646 -37.3406 -37.3355 -32.5233 -32.5082 -32.4996 -32.4735
   -32.4576 -32.4528 -32.4424 -32.4370 -32.4275 -32.4251 -32.4158 -32.3954
    -6.2561  -6.0387  -5.9558  -5.8232  -5.7534  -5.6018  -5.5275  -5.3976
     5.6671   5.6852   5.7035   6.0322   6.1084   6.3169   6.3449   6.5274
     6.6262   6.6403   6.9119   6.9328   7.0829   7.1929   7.2407   7.7287
     7.7508   7.8109   7.8585   7.9603   8.1561   8.3596   8.3916   8.4226
     8.7511   8.8885   9.1654   9.2137   9.4630   9.5006   9.5172   9.5821
     9.9255   9.9739  10.0771  10.1115  10.9847  11.1453  11.1846  11.2583
    11.3995  11.4414  11.4931  11.5635  14.9847  15.0604  15.0930  15.1760
    15.4320  15.6450  15.7699  15.9780  16.1665  16.1789  16.2443  16.2608
    16.2980  16.3481  16.4681  16.4843  16.5679

          k =-0.3447 0.6983 0.0030 (  5306 PWs)   bands (ev):

   -68.5527 -68.5268 -68.5134 -68.4741 -63.5161 -63.4603 -63.4478 -63.4297
   -37.4525 -37.4277 -37.4202 -37.4118 -37.4098 -37.4011 -37.3847 -37.3815
   -37.3678 -37.3651 -37.3435 -37.3366 -32.5226 -32.5055 -32.4949 -32.4707
   -32.4572 -32.4522 -32.4430 -32.4365 -32.4277 -32.4252 -32.4196 -32.3989
    -6.1713  -6.0397  -5.9732  -5.8404  -5.7712  -5.6108  -5.5486  -5.4066
     5.9082   5.9319   6.0025   6.0324   6.1156   6.2588   6.2933   6.4053
     6.5849   6.8187   6.8568   6.9823   6.9978   7.0619   7.2885   7.3726
     7.5701   7.6168   7.7290   7.7627   7.8000   8.2798   8.2986   8.7251
     8.9523   9.0792   9.1100   9.2531   9.6234   9.6710   9.7134   9.7459
     9.9344  10.0992  10.1272  10.2713  10.6550  10.8716  10.9281  11.1371
    11.3107  11.4030  11.5134  11.5650  15.2602  15.2950  15.4554  15.5235
    15.5405  15.5986  15.8172  15.8405  15.8713  15.9112  16.0528  16.0989
    16.1327  16.3541  16.3736  16.3887  16.4982

          k = 0.6983 0.0030-0.3447 (  5306 PWs)   bands (ev):

   -68.5527 -68.5268 -68.5134 -68.4741 -63.5161 -63.4603 -63.4478 -63.4297
   -37.4522 -37.4264 -37.4201 -37.4140 -37.4097 -37.4034 -37.3854 -37.3773
   -37.3674 -37.3651 -37.3443 -37.3370 -32.5227 -32.5044 -32.4949 -32.4702
   -32.4575 -32.4536 -32.4494 -32.4350 -32.4259 -32.4209 -32.4156 -32.4037
    -6.1725  -6.0299  -5.9846  -5.8402  -5.7662  -5.6021  -5.5627  -5.4037
     5.8964   5.9469   6.0014   6.0197   6.1151   6.2728   6.2850   6.4055
     6.5949   6.8269   6.8543   6.9826   7.0160   7.0450   7.2812   7.3671
     7.5623   7.6299   7.7201   7.7530   7.8070   8.2596   8.3260   8.7306
     8.9480   9.0645   9.1311   9.2500   9.6248   9.6809   9.7098   9.7450
     9.9375  10.0887  10.1204  10.2696  10.6649  10.8622  10.9200  11.1246
    11.3449  11.4228  11.4872  11.5588  15.2733  15.2916  15.4520  15.5257
    15.5395  15.5994  15.7963  15.8484  15.8758  15.9036  16.0641  16.1012
    16.1386  16.3431  16.3711  16.3855  16.5035

     the Fermi energy is    12.3928 ev

!    total energy              =   -1946.25566086 Ry
     Harris-Foulkes estimate   =   -1946.25566081 Ry
     estimated scf accuracy    <          4.0E-09 Ry

     The total energy is the sum of the following terms:

     one-electron contribution =    -881.58982948 Ry
     hartree contribution      =     527.25092404 Ry
     xc contribution           =    -270.07060828 Ry
     ewald contribution        =   -1322.26013457 Ry
     Hubbard energy            =       0.41398743 Ry
     smearing contrib. (-TS)   =      -0.00000000 Ry

     total magnetization       =     0.00 Bohr mag/cell
     absolute magnetization    =    37.50 Bohr mag/cell

     convergence has been achieved in  13 iterations

     Forces acting on atoms (Ry/au):


     negative rho (up, down):  1.550E-03 2.644E-04
     atom    1 type  1   force =   0.76081835E-02 -0.11185245E-01 -0.59092217E-02
     atom    2 type  3   force =  -0.69529527E-02 -0.66913894E-03  0.77446200E-02
     atom    3 type  2   force =   0.17803025E-02  0.82131072E-02 -0.86757677E-02
     atom    4 type  3   force =  -0.70501317E-03  0.39358140E-02 -0.72109935E-02
     atom    5 type  1   force =   0.14580778E-02  0.50912224E-02 -0.22117019E-01
     atom    6 type  3   force =   0.84413018E-02 -0.57300786E-03  0.67443449E-02
     atom    7 type  2   force =   0.10890988E-01 -0.76120158E-02  0.10123363E-01
     atom    8 type  3   force =  -0.49951082E-02 -0.37641486E-02  0.28709746E-03
     atom    9 type  1   force =   0.37342773E-02 -0.21915755E-01  0.22491145E-01
     atom   10 type  3   force =   0.11795401E-01  0.14833669E-02 -0.35361080E-02
     atom   11 type  2   force =  -0.40142550E-02  0.14350379E-01 -0.74144989E-03
     atom   12 type  3   force =  -0.26021589E-02 -0.41409566E-02 -0.65730539E-02
     atom   13 type  1   force =  -0.21630173E-01  0.13755826E-01  0.59650473E-02
     atom   14 type  3   force =  -0.61901940E-02  0.62170302E-02 -0.86529406E-02
     atom   15 type  2   force =   0.14537608E-01  0.48773275E-03  0.15394311E-01
     atom   16 type  3   force =  -0.13156286E-01 -0.36742111E-02 -0.53333744E-02

     Total force =     0.066670     Total SCF correction =     0.000156


     entering subroutine stress ...


     negative rho (up, down):  1.550E-03 2.644E-04
          total   stress  (Ry/bohr**3)                   (kbar)     P=    3.11
   0.0000217597   0.0000003298  -0.0000049571          3.20      0.05     -0.73
   0.0000003298   0.0000145341   0.0000016405          0.05      2.14      0.24
  -0.0000049571   0.0000016405   0.0000270376         -0.73      0.24      3.98


     Writing output data file mno_afm.in.222.033.save

     init_run     :     61.63s CPU     57.65s WALL (       1 calls)
     electrons    :   2191.19s CPU   2238.85s WALL (       1 calls)
     forces       :    152.81s CPU    168.97s WALL (       1 calls)
     stress       :    425.41s CPU    454.01s WALL (       1 calls)

     Called by init_run:
     wfcinit      :     59.46s CPU     55.44s WALL (       1 calls)
     potinit      :      0.49s CPU      0.50s WALL (       1 calls)

     Called by electrons:
     c_bands      :   1990.79s CPU   2045.96s WALL (      13 calls)
     sum_band     :    192.09s CPU    184.53s WALL (      13 calls)
     v_of_rho     :      1.84s CPU      1.85s WALL (      14 calls)
     newd         :      5.96s CPU      5.96s WALL (      14 calls)
     mix_rho      :      0.84s CPU      0.84s WALL (      13 calls)

     Called by c_bands:
     init_us_2    :      9.78s CPU      9.96s WALL (    2880 calls)
     cegterg      :   1956.75s CPU   2010.46s WALL (     936 calls)

     Called by *egterg:
     h_psi        :    915.42s CPU    904.71s WALL (    4225 calls)
     s_psi        :    133.23s CPU    100.64s WALL (    5017 calls)
     g_psi        :      1.30s CPU      1.31s WALL (    3217 calls)
     cdiaghg      :    558.77s CPU    677.49s WALL (    4153 calls)

     Called by h_psi:
     add_vuspsi   :    101.10s CPU     80.61s WALL (    4225 calls)
     vhpsi        :     90.73s CPU    111.63s WALL (    4225 calls)

     General routines
     calbec       :    721.77s CPU    751.04s WALL (   54098 calls)
     fft          :      1.25s CPU      1.26s WALL (     468 calls)
     ffts         :      0.48s CPU      0.48s WALL (     326 calls)
     fftw         :    649.60s CPU    655.56s WALL (  578552 calls)
     interpolate  :      0.20s CPU      0.21s WALL (      54 calls)
     davcio       :      0.00s CPU      0.03s WALL (      72 calls)

     Parallel routines
     fft_scatter  :    235.29s CPU    239.41s WALL (  579346 calls)
     Hubbard U routines
     new_ns       :     17.22s CPU     17.89s WALL (      13 calls)
     vhpsi        :     90.73s CPU    111.63s WALL (    4225 calls)
     force_hub    :    136.07s CPU    155.22s WALL (       1 calls)
     stres_hub    :    387.62s CPU    416.86s WALL (       1 calls)

     PWSCF        : 47m16.10s CPU    48m45.46s WALL


   This run was terminated on:  19:34:22  16Aug2017            

=------------------------------------------------------------------------------=
   JOB DONE.
=------------------------------------------------------------------------------=
