
     Program PWSCF v.5.1 starts on 18Jan2017 at 12:47:31 

     This program is part of the open-source Quantum ESPRESSO suite
     for quantum simulation of materials; please cite
         "P. Giannozzi et al., J. Phys.:Condens. Matter 21 395502 (2009);
          URL http://www.quantum-espresso.org", 
     in publications or presentations arising from this work. More details at
     http://www.quantum-espresso.org/quote

     Parallel version (MPI), running on    16 processors
     R & G space division:  proc/nbgrp/npool/nimage =      16
     Reading input from /tmp/Si_diamond.scf.in.super.444.02.29436/Si_diamond.scf.in.super.444.02.t
Warning: card &IONS ignored
Warning: card   ION_DYNAMICS='BFGS', ignored
Warning: card / ignored
Warning: card &CELL ignored
Warning: card  CELL_DYNAMICS = 'BFGS' ignored
Warning: card / ignored
     Message from routine read_cards :
     DEPRECATED: no units specified in CELL_PARAMETERS card

     Current dimensions of program PWSCF are:
     Max number of different atomic species (ntypx) = 10
     Max number of k-points (npk) =  40000
     Max angular momentum in pseudopotentials (lmaxx) =  3

     Subspace diagonalization in iterative solution of the eigenvalue problem:
     a serial algorithm will be used


     Parallelization info
     --------------------
     sticks:   dense  smooth     PW     G-vecs:    dense   smooth      PW
     Min         726     508    134                51681    30247    4089
     Max         727     509    135                51684    30277    4090
     Sum       11629    8137   2149               826925   484169   65427



     bravais-lattice index     =            0
     lattice parameter (alat)  =    29.031211967  a.u.
     unit-cell volume          =   17301.3703 (a.u.)^3
     number of atoms/cell      =          128
     number of atomic types    =            1
     number of electrons       =       512.00
     number of Kohn-Sham states=          307
     kinetic-energy cutoff     =      35.0000  Ry
     charge density cutoff     =     200.0000  Ry
     convergence threshold     =      1.0E-09
     mixing beta               =       0.3000
     number of iterations used =            8  local-TF  mixing
     Exchange-correlation      = SLA  PW   PSX  PSC ( 1  4 10  8 0)
     A smooth kinetic-energy cutoff is imposed at      34.5000 Ry
     height of the smooth step-function =             800.0000 Ry
     width of the smooth step-function  =               1.0000 Ry


     celldm(1)=  29.031212  celldm(2)=   0.000000  celldm(3)=   0.000000
     celldm(4)=   0.000000  celldm(5)=   0.000000  celldm(6)=   0.000000

     crystal axes: (cart. coord. in units of alat)
               a(1) = (  -0.000000000000   0.707106781187   0.707106781187 )  
               a(2) = (   0.707106781187   0.000000000000   0.707106781187 )  
               a(3) = (   0.707106781187   0.707106781187   0.000000000000 )  

     reciprocal axes: (cart. coord. in units 2 pi/alat)
               b(1) = ( -0.707107  0.707107  0.707107 )  
               b(2) = (  0.707107 -0.707107  0.707107 )  
               b(3) = (  0.707107  0.707107 -0.707107 )  


     PseudoPot. # 1 for Si read from file:
     /users/kfg/psuedo/gbrv_1.5/si.pbesol.UPF
     MD5 check sum: ef58ba74faed4df802eb8a9742fc00a8
     Pseudo is Ultrasoft + core correction, Zval =  4.0
     Generated by new atomic code, or converted to UPF format
     Using radial grid of  899 points,  6 beta functions with: 
                l(1) =   0
                l(2) =   0
                l(3) =   1
                l(4) =   1
                l(5) =   2
                l(6) =   2
     Q(r) pseudized with  8 coefficients,  rinner =    0.900   0.900   0.900
                                                       0.900   0.900

     atomic species   valence    mass     pseudopotential
        Si             4.00    28.08550     Si( 1.00)

     No symmetry found


                                    s                        frac. trans.

      isym =  1     identity                                     

 cryst.   s( 1) = (     1          0          0      )
                  (     0          1          0      )
                  (     0          0          1      )

 cart.    s( 1) = (  1.0000000  0.0000000  0.0000000 )
                  (  0.0000000  1.0000000  0.0000000 )
                  (  0.0000000  0.0000000  1.0000000 )


     point group C_1 (1)    
     there are  1 classes
     the character table:

       E    
A      1.00

     the symmetry operations in each class:
     E        1

   Cartesian axes

     site n.     atom                  positions (alat units)
         1           Si  tau(   1) = (    0.00013535561   -0.00016958951    0.00012664672  )
         2           Si  tau(   2) = (    0.08850042051    0.08843809510    0.08837604285  )
         3           Si  tau(   3) = (    0.17670430039    0.17692234114    0.00016209486  )
         4           Si  tau(   4) = (    0.26524928589    0.26525211601    0.08843496887  )
         5           Si  tau(   5) = (    0.35352372003    0.35339451959   -0.00014222632  )
         6           Si  tau(   6) = (    0.44190627727    0.44196960218    0.08854426368  )
         7           Si  tau(   7) = (    0.53034244450    0.53049784646    0.00014095490  )
         8           Si  tau(   8) = (    0.61871519186    0.61877576224    0.08855273078  )
         9           Si  tau(   9) = (    0.17679461169   -0.00005522689    0.17693867053  )
        10           Si  tau(  10) = (    0.26528929484    0.08846637459    0.26508571777  )
        11           Si  tau(  11) = (    0.35364448229    0.17693574699    0.17692120504  )
        12           Si  tau(  12) = (    0.44197948186    0.26512852714    0.26515577106  )
        13           Si  tau(  13) = (    0.53027870417    0.35360437760    0.17676548426  )
        14           Si  tau(  14) = (    0.61857261932    0.44190099961    0.26507328985  )
        15           Si  tau(  15) = (    0.70693600855    0.53028763209    0.17684336434  )
        16           Si  tau(  16) = (    0.79557644866    0.61869543536    0.26518169298  )
        17           Si  tau(  17) = (    0.35356455538   -0.00011278505    0.35343919300  )
        18           Si  tau(  18) = (    0.44182216309    0.08847039976    0.44178929073  )
        19           Si  tau(  19) = (    0.53048274346    0.17661802857    0.35354802251  )
        20           Si  tau(  20) = (    0.61878700367    0.26531668956    0.44209933853  )
        21           Si  tau(  21) = (    0.70710861176    0.35342340477    0.35366526663  )
        22           Si  tau(  22) = (    0.79557889554    0.44210986495    0.44204913341  )
        23           Si  tau(  23) = (    0.88377186311    0.53039435475    0.35359651113  )
        24           Si  tau(  24) = (    0.97211311210    0.61864766433    0.44211176647  )
        25           Si  tau(  25) = (    0.53022096884    0.00005313394    0.53025915480  )
        26           Si  tau(  26) = (    0.61876063451    0.08855812759    0.61887361488  )
        27           Si  tau(  27) = (    0.70704390486    0.17665404165    0.53031038460  )
        28           Si  tau(  28) = (    0.79557520997    0.26504662694    0.61875958945  )
        29           Si  tau(  29) = (    0.88380614319    0.35348010139    0.53046922812  )
        30           Si  tau(  30) = (    0.97238279503    0.44199956908    0.61881829356  )
        31           Si  tau(  31) = (    1.06069015374    0.53035640314    0.53023599366  )
        32           Si  tau(  32) = (    1.14894009365    0.61885159360    0.61858890535  )
        33           Si  tau(  33) = (    0.00003950993    0.17674714471    0.17692854539  )
        34           Si  tau(  34) = (    0.08828909431    0.26512496269    0.26505895060  )
        35           Si  tau(  35) = (    0.17665398869    0.35339920901    0.17685390811  )
        36           Si  tau(  36) = (    0.26522758035    0.44194056041    0.26529594574  )
        37           Si  tau(  37) = (    0.35353102039    0.53022628890    0.17694178916  )
        38           Si  tau(  38) = (    0.44180237599    0.61867058579    0.26529572666  )
        39           Si  tau(  39) = (    0.53044595886    0.70708840485    0.17661678571  )
        40           Si  tau(  40) = (    0.61882721384    0.79561608493    0.26530926128  )
        41           Si  tau(  41) = (    0.17688209363    0.17692902231    0.35338591526  )
        42           Si  tau(  42) = (    0.26528533534    0.26509943162    0.44208550452  )
        43           Si  tau(  43) = (    0.35360448524    0.35361985595    0.35355870239  )
        44           Si  tau(  44) = (    0.44188776007    0.44211112627    0.44180503549  )
        45           Si  tau(  45) = (    0.53032589714    0.53026506596    0.35339122523  )
        46           Si  tau(  46) = (    0.61885827124    0.61864572569    0.44203953745  )
        47           Si  tau(  47) = (    0.70708865719    0.70724418380    0.35348158135  )
        48           Si  tau(  48) = (    0.79559940418    0.79553720838    0.44194022438  )
        49           Si  tau(  49) = (    0.35345113505    0.17663040956    0.53023085462  )
        50           Si  tau(  50) = (    0.44201913249    0.26522153387    0.61861621921  )
        51           Si  tau(  51) = (    0.53033758355    0.35363051944    0.53026785755  )
        52           Si  tau(  52) = (    0.61861003576    0.44194784706    0.61870971920  )
        53           Si  tau(  53) = (    0.70712172608    0.53024545276    0.53021615176  )
        54           Si  tau(  54) = (    0.79545000612    0.61870327524    0.61888428303  )
        55           Si  tau(  55) = (    0.88402345559    0.70714832610    0.53029929864  )
        56           Si  tau(  56) = (    0.97213209872    0.79559586625    0.61880520629  )
        57           Si  tau(  57) = (    0.53034757319    0.17687988551    0.70706714753  )
        58           Si  tau(  58) = (    0.61882481451    0.26505609142    0.79562849268  )
        59           Si  tau(  59) = (    0.70718232539    0.35341862747    0.70717969983  )
        60           Si  tau(  60) = (    0.79557433486    0.44196816534    0.79546160644  )
        61           Si  tau(  61) = (    0.88378210441    0.53043091009    0.70709157907  )
        62           Si  tau(  62) = (    0.97233940595    0.61872754288    0.79534044438  )
        63           Si  tau(  63) = (    1.06068728545    0.70699115137    0.70720974102  )
        64           Si  tau(  64) = (    1.14899434592    0.79547917086    0.79551168571  )
        65           Si  tau(  65) = (   -0.00005919279    0.35364382654    0.35372112391  )
        66           Si  tau(  66) = (    0.08849004526    0.44180498054    0.44211333784  )
        67           Si  tau(  67) = (    0.17678894103    0.53022692622    0.35341594740  )
        68           Si  tau(  68) = (    0.26518322748    0.61863488007    0.44184621846  )
        69           Si  tau(  69) = (    0.35367582877    0.70710642213    0.35340535346  )
        70           Si  tau(  70) = (    0.44183540280    0.79543019714    0.44186840380  )
        71           Si  tau(  71) = (    0.53042050008    0.88398121354    0.35343998163  )
        72           Si  tau(  72) = (    0.61868318170    0.97229231444    0.44185244005  )
        73           Si  tau(  73) = (    0.17684876016    0.35364397164    0.53044875787  )
        74           Si  tau(  74) = (    0.26519035631    0.44193035181    0.61870614585  )
        75           Si  tau(  75) = (    0.35347642896    0.53041040658    0.53019185945  )
        76           Si  tau(  76) = (    0.44177098664    0.61888308184    0.61863594327  )
        77           Si  tau(  77) = (    0.53037168574    0.70715311828    0.53027213736  )
        78           Si  tau(  78) = (    0.61857651975    0.79544738062    0.61856298634  )
        79           Si  tau(  79) = (    0.70695233295    0.88381415158    0.53026568626  )
        80           Si  tau(  80) = (    0.79559171152    0.97242934648    0.61871818862  )
        81           Si  tau(  81) = (    0.35367691712    0.35350911027    0.70706075240  )
        82           Si  tau(  82) = (    0.44179940550    0.44185806938    0.79556210357  )
        83           Si  tau(  83) = (    0.53046937219    0.53016819161    0.70724840881  )
        84           Si  tau(  84) = (    0.61880594869    0.61868099185    0.79566588014  )
        85           Si  tau(  85) = (    0.70720211215    0.70725093956    0.70724993941  )
        86           Si  tau(  86) = (    0.79562450499    0.79556878934    0.79564660545  )
        87           Si  tau(  87) = (    0.88396277225    0.88386145525    0.70694785762  )
        88           Si  tau(  88) = (    0.97231719688    0.97236297676    0.79551927913  )
        89           Si  tau(  89) = (    0.53022429674    0.35362042045    0.88371935946  )
        90           Si  tau(  90) = (    0.61879739934    0.44190102088    0.97212279502  )
        91           Si  tau(  91) = (    0.70715657119    0.53049358750    0.88391467807  )
        92           Si  tau(  92) = (    0.79533434705    0.61866052988    0.97224615901  )
        93           Si  tau(  93) = (    0.88400337490    0.70719145234    0.88382462373  )
        94           Si  tau(  94) = (    0.97212114384    0.79543971157    0.97213926465  )
        95           Si  tau(  95) = (    1.06081548519    0.88379522197    0.88371241567  )
        96           Si  tau(  96) = (    1.14892099687    0.97210577111    0.97215794407  )
        97           Si  tau(  97) = (   -0.00010298184    0.53017770547    0.53035024730  )
        98           Si  tau(  98) = (    0.08843151959    0.61868478173    0.61857858978  )
        99           Si  tau(  99) = (    0.17688111410    0.70727252283    0.53043489496  )
       100           Si  tau( 100) = (    0.26500145452    0.79548677206    0.61870524240  )
       101           Si  tau( 101) = (    0.35343028459    0.88394834180    0.53019518137  )
       102           Si  tau( 102) = (    0.44206646333    0.97237084346    0.61888354812  )
       103           Si  tau( 103) = (    0.53046236289    1.06052164081    0.53024088364  )
       104           Si  tau( 104) = (    0.61885186931    1.14908646755    0.61876053841  )
       105           Si  tau( 105) = (    0.17668871700    0.53025036852    0.70705753772  )
       106           Si  tau( 106) = (    0.26509755903    0.61888817952    0.79550122847  )
       107           Si  tau( 107) = (    0.35370390985    0.70707190265    0.70695632999  )
       108           Si  tau( 108) = (    0.44178092296    0.79550865522    0.79544011352  )
       109           Si  tau( 109) = (    0.53032617660    0.88379371323    0.70699514980  )
       110           Si  tau( 110) = (    0.61876700837    0.97237580360    0.79545548189  )
       111           Si  tau( 111) = (    0.70713032534    1.06079203214    0.70701880291  )
       112           Si  tau( 112) = (    0.79533306442    1.14919755666    0.79537490951  )
       113           Si  tau( 113) = (    0.35364296377    0.53024525416    0.88382500001  )
       114           Si  tau( 114) = (    0.44211193433    0.61878003108    0.97232415798  )
       115           Si  tau( 115) = (    0.53034845332    0.70726923028    0.88384185102  )
       116           Si  tau( 116) = (    0.61871138680    0.79557610250    0.97232723302  )
       117           Si  tau( 117) = (    0.70701000852    0.88399444644    0.88381901437  )
       118           Si  tau( 118) = (    0.79561236597    0.97210954220    0.97236052985  )
       119           Si  tau( 119) = (    0.88388050551    1.06062283265    0.88386468071  )
       120           Si  tau( 120) = (    0.97223140063    1.14912307677    0.97217338065  )
       121           Si  tau( 121) = (    0.53019697857    0.53034327805    1.06081594894  )
       122           Si  tau( 122) = (    0.61863340496    0.61871188153    1.14919067437  )
       123           Si  tau( 123) = (    0.70696667826    0.70699328483    1.06062808192  )
       124           Si  tau( 124) = (    0.79544267615    0.79543602705    1.14909916266  )
       125           Si  tau( 125) = (    0.88381849348    0.88380070119    1.06060930475  )
       126           Si  tau( 126) = (    0.97227124111    0.97232972787    1.14888389225  )
       127           Si  tau( 127) = (    1.06078807439    1.06055567502    1.06077646991  )
       128           Si  tau( 128) = (    1.14915142255    1.14895715311    1.14896985185  )

   Crystallographic axes

     site n.     atom                  positions (cryst. coord.)
         1           Si  tau(   1) = (   -0.00012607601    0.00030518152   -0.00011375978  )
         2           Si  tau(   2) = (    0.06244722848    0.06253536991    0.06262312505  )
         3           Si  tau(   3) = (    0.00026879647   -0.00003955972    0.24993717786  )
         4           Si  tau(   4) = (    0.06253496738    0.06253096498    0.31258817253  )
         5           Si  tau(   5) = (   -0.00019192770   -0.00000921069    0.49996725017  )
         6           Si  tau(   6) = (    0.06265502675    0.06256547181    0.56238437880  )
         7           Si  tau(   7) = (    0.00020955594   -0.00001021561    0.75002769333  )
         8           Si  tau(   8) = (    0.06265906615    0.06257340670    0.81242200887  )
         9           Si  tau(   9) = (    0.00006281367    0.25016625390   -0.00014091629  )
        10           Si  tau(  10) = (    0.06241122266    0.31247659461    0.06269912410  )
        11           Si  tau(  11) = (    0.00015023880    0.25005412884    0.25007469427  )
        12           Si  tau(  12) = (    0.06244093444    0.31254595313    0.31250742441  )
        13           Si  tau(  13) = (    0.00006445822    0.24991968698    0.50000764830  )
        14           Si  tau(  14) = (    0.06250942043    0.31236082110    0.56243296645  )
        15           Si  tau(  15) = (    0.00013787725    0.24995640702    0.74980208400  )
        16           Si  tau(  16) = (    0.06243800938    0.31258553732    0.81252946628  )
        17           Si  tau(  17) = (   -0.00016839567    0.50000689588    0.00000889352  )
        18           Si  tau(  18) = (    0.06253477534    0.56224963132    0.06258126387  )
        19           Si  tau(  19) = (   -0.00022393533    0.50021634372    0.24999954669  )
        20           Si  tau(  20) = (    0.06267018418    0.56255269629    0.31254427652  )
        21           Si  tau(  21) = (   -0.00001409997    0.50017231657    0.49983027226  )
        22           Si  tau(  22) = (    0.06263559138    0.56251628832    0.56260217569  )
        23           Si  tau(  23) = (    0.00015485834    0.49990612330    0.74993603156  )
        24           Si  tau(  24) = (    0.06268241308    0.56255804314    0.81221750415  )
        25           Si  tau(  25) = (    0.00006457292    0.74983511537    0.00001056982  )
        26           Si  tau(  26) = (    0.06269994174    0.81251951782    0.06254016337  )
        27           Si  tau(  27) = (   -0.00005619986    0.75002833804    0.24988274141  )
        28           Si  tau(  28) = (    0.06238874295    0.81266946030    0.31244379153  )
        29           Si  tau(  29) = (    0.00010124802    0.75009552881    0.49979510539  )
        30           Si  tau(  30) = (    0.06253303600    0.81260818740    0.56254874915  )
        31           Si  tau(  31) = (   -0.00006912459    0.74993605808    0.75010634280  )
        32           Si  tau(  32) = (    0.06257923673    0.81223758276    0.81260908004  )
        33           Si  tau(  33) = (    0.25005854107    0.00015620738   -0.00010033191  )
        34           Si  tau(  34) = (    0.31246682307    0.06238313970    0.06247649488  )
        35           Si  tau(  35) = (    0.25003234153    0.00007685388    0.24974961278  )
        36           Si  tau(  36) = (    0.31254750878    0.06263761573    0.31245082551  )
        37           Si  tau(  37) = (    0.25005916156    0.00017431642    0.49979404733  )
        38           Si  tau(  38) = (    0.31265711787    0.06252769681    0.56227521520  )
        39           Si  tau(  39) = (    0.24979199826   -0.00001814456    0.75018201368  )
        40           Si  tau(  40) = (    0.31261058735    0.06259336817    0.81256047041  )
        41           Si  tau(  41) = (    0.24991476065    0.24984839346    0.00030066229  )
        42           Si  tau(  42) = (    0.31247020433    0.31273311189    0.06243700725  )
        43           Si  tau(  43) = (    0.25001462474    0.24999288727    0.25007937147  )
        44           Si  tau(  44) = (    0.31256128031    0.31224539280    0.31267827053  )
        45           Si  tau(  45) = (    0.24984231763    0.24992834591    0.50006573030  )
        46           Si  tau(  46) = (    0.31241886209    0.31271944689    0.56247831349  )
        47           Si  tau(  47) = (    0.25005919712    0.24983924928    0.75013511952  )
        48           Si  tau(  48) = (    0.31245495047    0.31254290861    0.81260455900  )
        49           Si  tau(  49) = (    0.24989869885    0.49996096694   -0.00010557812  )
        50           Si  tau(  50) = (    0.31241294267    0.56244250444    0.06266694756  )
        51           Si  tau(  51) = (    0.25000523461    0.49990676123    0.25010384206  )
        52           Si  tau(  52) = (    0.31257480643    0.56241286964    0.31243383275  )
        53           Si  tau(  53) = (    0.24984902411    0.49998984870    0.50003128658  )
        54           Si  tau(  54) = (    0.31263846135    0.56259608526    0.56234010158  )
        55           Si  tau(  55) = (    0.24990862664    0.50004783362    0.75015012674  )
        56           Si  tau(  56) = (    0.31273139050    0.56239132471    0.81241107372  )
        57           Si  tau(  57) = (    0.25003257588    0.74991137367    0.00011335711  )
        58           Si  tau(  58) = (    0.31244203941    0.81274656555    0.06240387987  )
        59           Si  tau(  59) = (    0.24990285152    0.75020027101    0.24990656463  )
        60           Si  tau(  60) = (    0.31243897576    0.81251361642    0.31259839781  )
        61           Si  tau(  61) = (    0.25013222484    0.74984627612    0.50001036212  )
        62           Si  tau(  62) = (    0.31234927529    0.81243196786    0.56266360727  )
        63           Si  tau(  63) = (    0.24997186871    0.75017373849    0.74986460604  )
        64           Si  tau(  64) = (    0.31253872993    0.81248468502    0.81243870208  )
        65           Si  tau(  65) = (    0.50022440886    0.00001280187   -0.00009651312  )
        66           Si  tau(  66) = (    0.56245272587    0.06278995261    0.06235386954  )
        67           Si  tau(  67) = (    0.49982120904   -0.00001558307    0.25003290116  )
        68           Si  tau(  68) = (    0.56236051768    0.06250439695    0.31252131987  )
        69           Si  tau(  69) = (    0.49980849119   -0.00001784731    0.50019100104  )
        70           Si  tau(  70) = (    0.56247742159    0.06241886784    0.56243075113  )
        71           Si  tau(  71) = (    0.49992498580   -0.00008537030    0.75021323527  )
        72           Si  tau(  72) = (    0.56247627229    0.06239744099    0.81255270538  )
        73           Si  tau(  73) = (    0.50009700668    0.25007082084    0.00003109426  )
        74           Si  tau(  74) = (    0.56246536061    0.31251726197    0.06251853654  )
        75           Si  tau(  75) = (    0.50001347455    0.24979104375    0.25010011607  )
        76           Si  tau(  76) = (    0.56267883411    0.31220450702    0.31255401375  )
        77           Si  tau(  77) = (    0.49996237395    0.24995567446    0.50010315660  )
        78           Si  tau(  78) = (    0.56245666735    0.31232349711    0.56247580648  )
        79           Si  tau(  79) = (    0.50001465387    0.24989427130    0.74988730591  )
        80           Si  tau(  80) = (    0.56254291767    0.31245673597    0.81267985257  )
        81           Si  tau(  81) = (    0.49984879537    0.50008611010    0.00008858280  )
        82           Si  tau(  82) = (    0.56258883992    0.56250587666    0.06229283444  )
        83           Si  tau(  83) = (    0.49988717902    0.50031311269    0.24988386788  )
        84           Si  tau(  84) = (    0.56253238157    0.56270909723    0.31241466788  )
        85           Si  tau(  85) = (    0.50013575435    0.50006670196    0.50006811638  )
        86           Si  tau(  86) = (    0.56256771322    0.56264650706    0.56253645846  )
        87           Si  tau(  87) = (    0.49981598213    0.49995926601    0.75015287514  )
        88           Si  tau(  88) = (    0.56254944810    0.56248470557    0.81257946118  )
        89           Si  tau(  89) = (    0.50000615323    0.74976175025    0.00008864131  )
        90           Si  tau(  90) = (    0.56230999173    0.81247924928    0.06263242523  )
        91           Si  tau(  91) = (    0.50010246911    0.74994165660    0.25012875709  )
        92           Si  tau(  92) = (    0.56255459784    0.81240910620    0.31236351403  )
        93           Si  tau(  93) = (    0.49993347537    0.74998329426    0.50018626771  )
        94           Si  tau(  94) = (    0.56247362742    0.81233890516    0.56244800073  )
        95           Si  tau(  95) = (    0.49970681321    0.75005127027    0.75016837606  )
        96           Si  tau(  96) = (    0.56239222948    0.81244671979    0.81237293608  )
        97           Si  tau(  97) = (    0.74997932620    0.00004918634   -0.00019482465  )
        98           Si  tau(  98) = (    0.81234679294    0.06245543813    0.06260561622  )
        99           Si  tau(  99) = (    0.75011747300    0.00003074941    0.25011692108  )
       100           Si  tau( 100) = (    0.81260043781    0.06238090711    0.31238774393  )
       101           Si  tau( 101) = (    0.75003752389   -0.00022830769    0.50005420952  )
       102           Si  tau( 102) = (    0.81259857692    0.06263493036    0.56254145755  )
       103           Si  tau( 103) = (    0.74974543433    0.00012841464    0.75005865330  )
       104           Si  tau( 104) = (    0.81246225267    0.06259729261    0.81259141408  )
       105           Si  tau( 105) = (    0.74997102097    0.24995933825   -0.00008375835  )
       106           Si  tau( 106) = (    0.81267205996    0.31233656623    0.06256799711  )
       107           Si  tau( 107) = (    0.74976251890    0.25002471098    0.25018815540  )
       108           Si  tau( 108) = (    0.81258437647    0.31233782012    0.31243475273  )
       109           Si  tau( 109) = (    0.74986035677    0.24998177261    0.50001269882  )
       110           Si  tau( 110) = (    0.81251114238    0.31243278838    0.56263590681  )
       111           Si  tau( 111) = (    0.75001438109    0.24986119884    0.75017209762  )
       112           Si  tau( 112) = (    0.81263497419    0.31219501002    0.81257579629  )
       113           Si  tau( 113) = (    0.74983532799    0.50008197378    0.00004470182  )
       114           Si  tau( 114) = (    0.81246021485    0.56261379639    0.06262689723  )
       115           Si  tau( 115) = (    0.75007244747    0.49986868523    0.25015729024  )
       116           Si  tau( 116) = (    0.81260141983    0.56247694018    0.31251309423  )
       117           Si  tau( 117) = (    0.75010131462    0.49980752219    0.50005562060  )
       118           Si  tau( 118) = (    0.81236507458    0.56276037424    0.56240542411  )
       119           Si  tau( 119) = (    0.74996240742    0.50001101134    0.74998478707  )
       120           Si  tau( 120) = (    0.81251169368    0.56234908622    0.81259374632  )
       121           Si  tau( 121) = (    0.75021360044    0.75000670173   -0.00019494391  )
       122           Si  tau( 122) = (    0.81265601004    0.81254502741    0.06233472403  )
       123           Si  tau( 123) = (    0.74999612273    0.74995849536    0.24984336919  )
       124           Si  tau( 124) = (    0.81253110855    0.81254051179    0.31238530891  )
       125           Si  tau( 125) = (    0.74995145053    0.74997661263    0.49993148753  )
       126           Si  tau( 126) = (    0.81242494739    0.81234223462    0.56265694086  )
       127           Si  tau( 127) = (    0.74991790403    0.75024656637    0.74993431524  )
       128           Si  tau( 128) = (    0.81230700439    0.81258174286    0.81256378413  )

     number of k points=     8  gaussian smearing, width (Ry)=  0.0150
                       cart. coord. in units 2pi/alat
        k(    1) = (   0.0000000   0.0000000   0.0000000), wk =   0.2500000
        k(    2) = (  -0.3535534  -0.3535534   0.3535534), wk =   0.2500000
        k(    3) = (  -0.7071068   0.0000000   0.0000000), wk =   0.2500000
        k(    4) = (   0.3535534   0.3535534   0.3535534), wk =   0.2500000
        k(    5) = (   0.3535534  -0.3535534  -0.3535534), wk =   0.2500000
        k(    6) = (  -0.3535534   0.3535534  -0.3535534), wk =   0.2500000
        k(    7) = (   0.0000000  -0.7071068   0.0000000), wk =   0.2500000
        k(    8) = (   0.0000000   0.0000000  -0.7071068), wk =   0.2500000

                       cryst. coord.
        k(    1) = (   0.0000000   0.0000000   0.0000000), wk =   0.2500000
        k(    2) = (   0.0000000   0.0000000  -0.5000000), wk =   0.2500000
        k(    3) = (   0.0000000  -0.5000000  -0.5000000), wk =   0.2500000
        k(    4) = (   0.5000000   0.5000000   0.5000000), wk =   0.2500000
        k(    5) = (  -0.5000000   0.0000000   0.0000000), wk =   0.2500000
        k(    6) = (   0.0000000  -0.5000000   0.0000000), wk =   0.2500000
        k(    7) = (  -0.5000000   0.0000000  -0.5000000), wk =   0.2500000
        k(    8) = (  -0.5000000  -0.5000000   0.0000000), wk =   0.2500000

     Dense  grid:   826925 G-vectors     FFT dimensions: ( 135, 135, 135)

     Smooth grid:   484169 G-vectors     FFT dimensions: ( 120, 120, 120)

     Largest allocated arrays     est. size (Mb)     dimensions
        Kohn-Sham Wavefunctions        17.73 Mb     (    3784,  307)
        NL pseudopotentials           133.03 Mb     (    3784, 2304)
        Each V/rho on FFT grid          2.50 Mb     (  164025)
        Each G-vector array             0.39 Mb     (   51681)
        G-vector shells                 0.02 Mb     (    2817)
     Largest temporary arrays     est. size (Mb)     dimensions
        Auxiliary wavefunctions        70.90 Mb     (    3784, 1228)
        Each subspace H/S matrix       23.01 Mb     (    1228, 1228)
        Each <psi_i|beta_j> matrix     10.79 Mb     (    2304,  307)
        Arrays for rho mixing          20.02 Mb     (  164025,    8)

     Initial potential from superposition of free atoms

     starting charge  511.91704, renormalised to  512.00000
     Starting wfc are  512 randomized atomic wfcs

     total cpu time spent up to now is      391.8 secs

     Self-consistent Calculation

     iteration #  1     ecut=    35.00 Ry     beta=0.30
     Davidson diagonalization with overlap
     ethr =  1.00E-02,  avg # of iterations =  3.0

     Threshold (ethr) on eigenvalues was too large:
     Diagonalizing with lowered threshold

     Davidson diagonalization with overlap
     ethr =  6.90E-04,  avg # of iterations =  1.1

     total cpu time spent up to now is     1911.1 secs

     total energy              =   -1224.22900030 Ry
     Harris-Foulkes estimate   =   -1224.59787933 Ry
     estimated scf accuracy    <       3.48271569 Ry

     iteration #  2     ecut=    35.00 Ry     beta=0.30
     Davidson diagonalization with overlap
     ethr =  6.80E-04,  avg # of iterations =  1.0

     total cpu time spent up to now is     2525.8 secs

     total energy              =   -1223.49969001 Ry
     Harris-Foulkes estimate   =   -1224.24573312 Ry
     estimated scf accuracy    <       2.16422470 Ry

     iteration #  3     ecut=    35.00 Ry     beta=0.30
     Davidson diagonalization with overlap
     c_bands:  1 eigenvalues not converged
     ethr =  4.23E-04,  avg # of iterations = 10.1

     total cpu time spent up to now is     3418.8 secs

     total energy              =   -1223.63991469 Ry
     Harris-Foulkes estimate   =   -1223.63407508 Ry
     estimated scf accuracy    <       0.02485338 Ry

     iteration #  4     ecut=    35.00 Ry     beta=0.30
     Davidson diagonalization with overlap
     ethr =  4.85E-06,  avg # of iterations = 11.5

     total cpu time spent up to now is     5248.8 secs

     total energy              =   -1223.65557369 Ry
     Harris-Foulkes estimate   =   -1223.65513603 Ry
     estimated scf accuracy    <       0.01036550 Ry

     iteration #  5     ecut=    35.00 Ry     beta=0.30
     Davidson diagonalization with overlap
     ethr =  2.02E-06,  avg # of iterations =  1.8

     total cpu time spent up to now is     5855.5 secs

     total energy              =   -1223.65629957 Ry
     Harris-Foulkes estimate   =   -1223.65629030 Ry
     estimated scf accuracy    <       0.00026067 Ry

     iteration #  6     ecut=    35.00 Ry     beta=0.30
     Davidson diagonalization with overlap
     ethr =  5.09E-08,  avg # of iterations =  3.0

     total cpu time spent up to now is     6777.5 secs

     total energy              =   -1223.65639948 Ry
     Harris-Foulkes estimate   =   -1223.65644490 Ry
     estimated scf accuracy    <       0.00019391 Ry

     iteration #  7     ecut=    35.00 Ry     beta=0.30
     Davidson diagonalization with overlap
     ethr =  3.79E-08,  avg # of iterations =  2.0

     total cpu time spent up to now is     7397.3 secs

     total energy              =   -1223.65641663 Ry
     Harris-Foulkes estimate   =   -1223.65641531 Ry
     estimated scf accuracy    <       0.00000153 Ry

     iteration #  8     ecut=    35.00 Ry     beta=0.30
     Davidson diagonalization with overlap
     ethr =  2.98E-10,  avg # of iterations =  3.0

     total cpu time spent up to now is     8378.6 secs

     total energy              =   -1223.65641815 Ry
     Harris-Foulkes estimate   =   -1223.65641781 Ry
     estimated scf accuracy    <       0.00000013 Ry

     iteration #  9     ecut=    35.00 Ry     beta=0.30
     Davidson diagonalization with overlap
     ethr =  2.61E-11,  avg # of iterations =  2.0

     total cpu time spent up to now is     9222.2 secs

     total energy              =   -1223.65641825 Ry
     Harris-Foulkes estimate   =   -1223.65641820 Ry
     estimated scf accuracy    <       0.00000014 Ry

     iteration # 10     ecut=    35.00 Ry     beta=0.30
     Davidson diagonalization with overlap
     ethr =  2.61E-11,  avg # of iterations =  1.0

     total cpu time spent up to now is     9838.7 secs

     total energy              =   -1223.65641828 Ry
     Harris-Foulkes estimate   =   -1223.65641826 Ry
     estimated scf accuracy    <       0.00000001 Ry

     iteration # 11     ecut=    35.00 Ry     beta=0.30
     Davidson diagonalization with overlap
     ethr =  2.52E-12,  avg # of iterations =  3.0

     total cpu time spent up to now is    10757.5 secs

     total energy              =   -1223.65641830 Ry
     Harris-Foulkes estimate   =   -1223.65641829 Ry
     estimated scf accuracy    <       0.00000001 Ry

     iteration # 12     ecut=    35.00 Ry     beta=0.30
     Davidson diagonalization with overlap
     ethr =  2.02E-12,  avg # of iterations =  1.0

     total cpu time spent up to now is    11384.8 secs

     End of self-consistent calculation

          k = 0.0000 0.0000 0.0000 ( 60495 PWs)   bands (ev):

    -5.8408  -5.0405  -5.0400  -5.0394  -5.0389  -5.0380  -5.0376  -5.0373
    -5.0357  -4.7574  -4.7566  -4.7561  -4.7559  -4.7549  -4.7536  -3.7931
    -3.7917  -3.7909  -3.7907  -3.7897  -3.7891  -3.7886  -3.7878  -3.7872
    -3.7869  -3.7859  -3.7849  -3.4955  -3.4941  -3.4937  -3.4929  -3.1173
    -3.1165  -3.1157  -3.1153  -3.1149  -3.1149  -3.1141  -3.1135  -3.1133
    -3.1126  -3.1118  -3.1114  -3.1111  -3.1101  -3.1100  -3.1097  -3.1088
    -3.1082  -3.1074  -3.1073  -3.1065  -3.1060  -3.1051  -3.1029  -1.6867
    -1.6862  -1.6847  -1.6841  -1.6820  -1.6815  -1.5197  -1.5181  -1.5176
    -1.5166  -1.5154  -1.5151  -1.5149  -1.5140  -1.5127  -1.5121  -1.5110
    -1.5094  -0.8694  -0.8671  -0.8669  -0.8655  -0.2633  -0.2622  -0.2614
    -0.2605  -0.2598  -0.2593  -0.2592  -0.2588  -0.2584  -0.2571  -0.2570
    -0.2564  -0.2562  -0.2559  -0.2548  -0.2543  -0.2538  -0.2533  -0.2523
    -0.2516  -0.2508  -0.2505  -0.2500  -0.2490   0.6470   0.6481   0.6487
     0.6489   0.6497   0.6507   0.6512   0.6518   0.6526   0.6528   0.6547
     0.6568   2.1898   2.1900   2.1906   2.1924   2.1931   2.1941   2.1953
     2.1961   2.2382   2.2388   2.2392   2.2398   2.2401   2.2405   2.2411
     2.2413   2.2416   2.2423   2.2427   2.2431   2.3403   2.3407   2.3411
     2.3418   2.3423   2.3428   2.3432   2.3441   2.3446   2.3446   2.3451
     2.3455   2.5637   2.5643   2.5648   2.5649   2.5654   2.5660   2.5665
     2.5668   2.5669   2.5673   2.5676   2.5677   2.5685   2.5691   2.5693
     2.5697   2.5700   2.5704   2.5707   2.5708   2.5713   2.5721   2.5723
     2.5725   2.6193   2.6215   2.6224   2.6229   2.6246   2.6260   3.2703
     3.2705   3.2708   3.2714   3.2720   3.2724   3.9180   3.9185   3.9192
     3.9197   3.9202   3.9204   3.9206   3.9207   3.9210   3.9214   3.9217
     3.9224   3.9227   3.9231   3.9234   3.9235   3.9237   3.9245   3.9249
     3.9251   3.9257   3.9262   3.9268   3.9274   4.2343   4.2347   4.2356
     4.2361   4.2363   4.2369   4.2373   4.2376   4.2381   4.2390   4.2397
     4.2406   4.8040   4.8048   4.8055   4.8058   4.8067   4.8073   4.8077
     4.8079   4.8096   4.8102   4.8107   4.8112   4.9376   4.9381   4.9387
     4.9395   4.9409   4.9418   4.9425   4.9428   5.3725   5.3733   5.3745
     5.3758   5.3762   5.3770   5.3779   5.3788   5.3792   5.3798   5.3815
     5.3818   5.3828   5.3831   5.3836   5.3844   6.1414   6.1450   6.1466
     6.7416   6.7418   6.7428   6.7430   6.7438   6.7448   7.1812   7.1828
     7.1841   7.1847   7.1851   7.1867   7.5606   7.5615   7.5621   7.5626
     7.5628   7.5632   7.5635   7.5637   7.5640   7.5646   7.5651   7.5655
     7.5660   7.5664   7.5667   7.5670   7.5680   7.5682   7.5685   7.5690
     7.5700   7.5703   7.5714   7.5717   7.6070   7.6074   7.6074   7.6081
     8.1012   8.1017   8.1022   8.1026   8.1031   8.1034   8.1041   8.1042
     8.5126   8.5139   8.5154

     occupation numbers 
     1.0000   1.0000   1.0000   1.0000   1.0000   1.0000   1.0000   1.0000
     1.0000   1.0000   1.0000   1.0000   1.0000   1.0000   1.0000   1.0000
     1.0000   1.0000   1.0000   1.0000   1.0000   1.0000   1.0000   1.0000
     1.0000   1.0000   1.0000   1.0000   1.0000   1.0000   1.0000   1.0000
     1.0000   1.0000   1.0000   1.0000   1.0000   1.0000   1.0000   1.0000
     1.0000   1.0000   1.0000   1.0000   1.0000   1.0000   1.0000   1.0000
     1.0000   1.0000   1.0000   1.0000   1.0000   1.0000   1.0000   1.0000
     1.0000   1.0000   1.0000   1.0000   1.0000   1.0000   1.0000   1.0000
     1.0000   1.0000   1.0000   1.0000   1.0000   1.0000   1.0000   1.0000
     1.0000   1.0000   1.0000   1.0000   1.0000   1.0000   1.0000   1.0000
     1.0000   1.0000   1.0000   1.0000   1.0000   1.0000   1.0000   1.0000
     1.0000   1.0000   1.0000   1.0000   1.0000   1.0000   1.0000   1.0000
     1.0000   1.0000   1.0000   1.0000   1.0000   1.0000   1.0000   1.0000
     1.0000   1.0000   1.0000   1.0000   1.0000   1.0000   1.0000   1.0000
     1.0000   1.0000   1.0000   1.0000   1.0000   1.0000   1.0000   1.0000
     1.0000   1.0000   1.0000   1.0000   1.0000   1.0000   1.0000   1.0000
     1.0000   1.0000   1.0000   1.0000   1.0000   1.0000   1.0000   1.0000
     1.0000   1.0000   1.0000   1.0000   1.0000   1.0000   1.0000   1.0000
     1.0000   1.0000   1.0000   1.0000   1.0000   1.0000   1.0000   1.0000
     1.0000   1.0000   1.0000   1.0000   1.0000   1.0000   1.0000   1.0000
     1.0000   1.0000   1.0000   1.0000   1.0000   1.0000   1.0000   1.0000
     1.0000   1.0000   1.0000   1.0000   1.0000   1.0000   1.0000   1.0000
     1.0000   1.0000   1.0000   1.0000   1.0000   1.0000   1.0000   1.0000
     1.0000   1.0000   1.0000   1.0000   1.0000   1.0000   1.0000   1.0000
     1.0000   1.0000   1.0000   1.0000   1.0000   1.0000   1.0000   1.0000
     1.0000   1.0000   1.0000   1.0000   1.0000   1.0000   1.0000   1.0000
     1.0000   1.0000   1.0000   1.0000   1.0000   1.0000   1.0000   1.0000
     1.0000   1.0000   1.0000   1.0000   1.0000   1.0000   1.0000   1.0000
     1.0000   1.0000   1.0000   1.0000   1.0000   1.0000   1.0000   1.0000
     1.0000   1.0000   1.0000   1.0000   1.0000   1.0000   1.0000   1.0000
     1.0000   1.0000   1.0000   1.0000   1.0000   1.0000   1.0000   1.0000
     1.0000   1.0000   1.0000   1.0000   1.0000   0.9445   0.9417   0.9404
     0.0052   0.0051   0.0050   0.0050   0.0049   0.0048   0.0000   0.0000
     0.0000   0.0000   0.0000   0.0000   0.0000   0.0000   0.0000   0.0000
     0.0000   0.0000   0.0000   0.0000   0.0000   0.0000   0.0000   0.0000
     0.0000   0.0000   0.0000   0.0000   0.0000   0.0000   0.0000   0.0000
     0.0000   0.0000   0.0000   0.0000   0.0000   0.0000   0.0000   0.0000
     0.0000   0.0000   0.0000   0.0000   0.0000   0.0000   0.0000   0.0000
     0.0000   0.0000   0.0000

          k =-0.3536-0.3536 0.3536 ( 60452 PWs)   bands (ev):

    -5.6361  -5.6361  -5.0987  -5.0983  -5.0974  -5.0967  -5.0961  -5.0945
    -4.5885  -4.5878  -4.5860  -4.5856  -4.5854  -4.5836  -4.1406  -4.1388
    -4.0456  -4.0445  -4.0435  -4.0431  -4.0423  -4.0402  -3.6187  -3.6178
    -3.6162  -3.6156  -3.6147  -3.6143  -3.6137  -3.6130  -3.6118  -3.6112
    -3.6107  -3.6101  -3.4107  -3.4097  -3.4090  -3.4084  -3.4075  -3.4069
    -2.9060  -2.9057  -2.9047  -2.9029  -2.9017  -2.9004  -2.5419  -2.5405
    -2.5377  -2.5370  -2.5364  -2.5357  -2.3619  -2.3604  -2.3601  -2.3594
    -2.3585  -2.3579  -2.3568  -2.3566  -2.3560  -2.3544  -2.3543  -2.3511
    -0.8041  -0.8015  -0.8006  -0.7995  -0.7988  -0.7982  -0.7975  -0.7974
    -0.7966  -0.7952  -0.7949  -0.7927  -0.6971  -0.6959  -0.6949  -0.6938
    -0.6919  -0.6910  -0.6431  -0.6413  -0.6405  -0.6396  -0.6380  -0.6374
    -0.5221  -0.5195  -0.5186  -0.5177  -0.5160  -0.5125   0.1635   0.1650
     0.2794   0.2803   0.2809   0.2821   0.2830   0.2833   0.2844   0.2854
     0.2858   0.2873   0.2884   0.2894   1.1913   1.1941   1.1949   1.1959
     1.1974   1.1982   1.4944   1.4947   1.4961   1.4968   1.4988   1.5004
     2.0297   2.0298   2.0308   2.0312   2.0312   2.0321   2.0323   2.0328
     2.0335   2.0337   2.0344   2.0355   2.1021   2.1029   2.1035   2.1046
     2.1059   2.1062   2.6670   2.6676   2.6681   2.6684   2.6697   2.6703
     2.7806   2.7822   2.7829   2.7839   2.7847   2.7850   2.7852   2.7858
     2.7862   2.7865   2.7874   2.7884   2.9021   2.9030   2.9034   2.9049
     2.9056   2.9078   3.1466   3.1467   3.1470   3.1477   3.1480   3.1484
     3.1486   3.1494   3.1501   3.1508   3.1513   3.1523   3.4383   3.4389
     3.4396   3.4402   3.4412   3.4416   3.4420   3.4429   3.4433   3.4436
     3.4449   3.4456   3.8029   3.8040   3.8043   3.8053   3.8059   3.8078
     3.8385   3.8399   3.8410   3.8414   3.8425   3.8429   3.9158   3.9163
     3.9176   3.9188   3.9196   3.9205   4.1907   4.1917   4.1920   4.1925
     4.1933   4.1938   4.1947   4.1951   4.1961   4.1964   4.1974   4.1985
     4.2410   4.2427   4.2439   4.2444   4.2456   4.2465   4.5305   4.5321
     4.5691   4.5699   4.5713   4.5718   4.5725   4.5733   4.8091   4.8108
     4.8119   4.8127   4.8140   4.8147   4.8824   4.8852   4.8863   4.8871
     4.8881   4.8911   5.0492   5.0508   5.0531   5.0539   5.3637   5.3644
     5.3663   5.3675   5.3694   5.3705   5.8484   5.8512   5.8531   5.8543
     6.9301   6.9311   6.9312   6.9314   6.9325   6.9329   7.4002   7.4017
     7.4027   7.4050   7.4066   7.4070   7.7354   7.7360   7.8918   7.8927
     7.8943   7.8953   7.8962   7.8968   8.0153   8.0158   8.0167   8.0174
     8.0185   8.0191   8.2207   8.2219   8.2227   8.2233   8.2237   8.2256
     8.2613   8.2620   8.2630   8.2633   8.2643   8.2647   8.4412   8.4421
     8.4430   8.4437   8.4443   8.4450   8.4454   8.4458   8.4462   8.4471
     8.4476   8.4486   8.5871

     occupation numbers 
     1.0000   1.0000   1.0000   1.0000   1.0000   1.0000   1.0000   1.0000
     1.0000   1.0000   1.0000   1.0000   1.0000   1.0000   1.0000   1.0000
     1.0000   1.0000   1.0000   1.0000   1.0000   1.0000   1.0000   1.0000
     1.0000   1.0000   1.0000   1.0000   1.0000   1.0000   1.0000   1.0000
     1.0000   1.0000   1.0000   1.0000   1.0000   1.0000   1.0000   1.0000
     1.0000   1.0000   1.0000   1.0000   1.0000   1.0000   1.0000   1.0000
     1.0000   1.0000   1.0000   1.0000   1.0000   1.0000   1.0000   1.0000
     1.0000   1.0000   1.0000   1.0000   1.0000   1.0000   1.0000   1.0000
     1.0000   1.0000   1.0000   1.0000   1.0000   1.0000   1.0000   1.0000
     1.0000   1.0000   1.0000   1.0000   1.0000   1.0000   1.0000   1.0000
     1.0000   1.0000   1.0000   1.0000   1.0000   1.0000   1.0000   1.0000
     1.0000   1.0000   1.0000   1.0000   1.0000   1.0000   1.0000   1.0000
     1.0000   1.0000   1.0000   1.0000   1.0000   1.0000   1.0000   1.0000
     1.0000   1.0000   1.0000   1.0000   1.0000   1.0000   1.0000   1.0000
     1.0000   1.0000   1.0000   1.0000   1.0000   1.0000   1.0000   1.0000
     1.0000   1.0000   1.0000   1.0000   1.0000   1.0000   1.0000   1.0000
     1.0000   1.0000   1.0000   1.0000   1.0000   1.0000   1.0000   1.0000
     1.0000   1.0000   1.0000   1.0000   1.0000   1.0000   1.0000   1.0000
     1.0000   1.0000   1.0000   1.0000   1.0000   1.0000   1.0000   1.0000
     1.0000   1.0000   1.0000   1.0000   1.0000   1.0000   1.0000   1.0000
     1.0000   1.0000   1.0000   1.0000   1.0000   1.0000   1.0000   1.0000
     1.0000   1.0000   1.0000   1.0000   1.0000   1.0000   1.0000   1.0000
     1.0000   1.0000   1.0000   1.0000   1.0000   1.0000   1.0000   1.0000
     1.0000   1.0000   1.0000   1.0000   1.0000   1.0000   1.0000   1.0000
     1.0000   1.0000   1.0000   1.0000   1.0000   1.0000   1.0000   1.0000
     1.0000   1.0000   1.0000   1.0000   1.0000   1.0000   1.0000   1.0000
     1.0000   1.0000   1.0000   1.0000   1.0000   1.0000   1.0000   1.0000
     1.0000   1.0000   1.0000   1.0000   1.0000   1.0000   1.0000   1.0000
     1.0000   1.0000   1.0000   1.0000   1.0000   1.0000   1.0000   1.0000
     1.0000   1.0000   1.0000   1.0000   1.0000   1.0000   1.0000   1.0000
     1.0000   1.0000   1.0000   1.0000   1.0000   1.0000   1.0000   1.0000
     1.0000   1.0000   1.0000   1.0000   0.9999   0.9998   0.9998   0.9998
     0.0001   0.0001   0.0001   0.0001   0.0001   0.0000   0.0000   0.0000
     0.0000   0.0000   0.0000   0.0000   0.0000   0.0000   0.0000   0.0000
     0.0000   0.0000   0.0000   0.0000   0.0000   0.0000   0.0000   0.0000
     0.0000   0.0000   0.0000   0.0000   0.0000   0.0000   0.0000   0.0000
     0.0000   0.0000   0.0000   0.0000   0.0000   0.0000   0.0000   0.0000
     0.0000   0.0000   0.0000   0.0000   0.0000   0.0000   0.0000   0.0000
     0.0000   0.0000   0.0000

          k =-0.7071 0.0000 0.0000 ( 60622 PWs)   bands (ev):

    -5.5673  -5.5669  -5.3002  -5.2991  -5.2986  -5.2974  -4.5096  -4.5092
    -4.5082  -4.5077  -4.5071  -4.5062  -4.5049  -4.5040  -4.2811  -4.2795
    -4.2793  -4.2791  -4.2784  -4.2774  -4.2761  -4.2756  -3.6591  -3.6584
    -3.6574  -3.6567  -3.6564  -3.6556  -3.6544  -3.6530  -3.4413  -3.4373
    -3.2420  -3.2404  -3.2402  -3.2391  -3.2384  -3.2380  -3.2365  -3.2357
    -2.9576  -2.9568  -2.9555  -2.9550  -2.9544  -2.9534  -2.9524  -2.9521
    -2.7133  -2.7124  -2.7112  -2.7100  -2.7083  -2.7078  -2.7068  -2.7046
    -2.0935  -2.0930  -2.0917  -2.0905  -1.6067  -1.6064  -1.6049  -1.6034
    -1.6030  -1.6026  -1.6022  -1.6004  -1.0955  -1.0945  -1.0945  -1.0938
    -0.6736  -0.6728  -0.6723  -0.6712  -0.6707  -0.6686  -0.6675  -0.6663
    -0.4379  -0.4370  -0.4361  -0.4352  -0.4341  -0.4333  -0.4320  -0.4299
    -0.2699  -0.2682  -0.2667  -0.2659  -0.2653  -0.2644  -0.2638  -0.2622
     0.1708   0.1721   0.1729   0.1736   0.1739   0.1747   0.1757   0.1775
     0.3914   0.3938   0.8315   0.8327   0.8334   0.8337   0.8345   0.8348
     0.8356   0.8365   1.7856   1.7860   1.7862   1.7865   1.8412   1.8423
     1.8425   1.8432   1.8447   1.8453   1.8472   1.8486   1.8607   1.8612
     1.8614   1.8628   1.8631   1.8634   1.8641   1.8648   2.6556   2.6562
     2.6563   2.6570   2.6577   2.6581   2.6585   2.6594   2.6862   2.6865
     2.6869   2.6874   2.6878   2.6883   2.6887   2.6892   2.7405   2.7410
     2.7413   2.7416   2.7424   2.7425   2.7430   2.7435   3.3521   3.3522
     3.3528   3.3529   3.3534   3.3536   3.3540   3.3540   3.3927   3.3942
     3.3943   3.3949   3.3950   3.3961   3.3971   3.3978   3.4469   3.4475
     3.4479   3.4485   3.5164   3.5171   3.5184   3.5186   3.5269   3.5273
     3.5285   3.5287   3.5301   3.5306   3.5315   3.5324   3.6534   3.6546
     3.6553   3.6560   3.6570   3.6578   3.6582   3.6588   3.7002   3.7004
     3.7018   3.7028   3.9599   3.9600   3.9609   3.9610   3.9619   3.9622
     3.9631   3.9638   4.2868   4.2879   4.2889   4.2895   4.2898   4.2901
     4.2912   4.2917   4.4892   4.4893   4.4899   4.4901   4.5423   4.5427
     4.5436   4.5441   4.5452   4.5458   4.5459   4.5479   4.7001   4.7007
     4.7021   4.7024   4.7028   4.7037   4.7049   4.7064   4.8049   4.8051
     4.8674   4.8689   4.8697   4.8712   4.8719   4.8737   4.8743   4.8751
     5.3239   5.3248   5.3290   5.3298   5.8501   5.8507   5.8525   5.8540
     6.6545   6.6570   7.2421   7.2422   7.2434   7.2447   7.5707   7.5730
     8.0059   8.0068   8.0070   8.0077   8.0081   8.0086   8.0092   8.0100
     8.0201   8.0205   8.0213   8.0216   8.0236   8.0239   8.0250   8.0255
     8.0898   8.0899   8.3146   8.3149   8.3154   8.3162   8.3171   8.3171
     8.3175   8.3190   8.4332   8.4344   8.4348   8.4356   8.4359   8.4369
     8.4372   8.4378   8.5192   8.5203   8.5204   8.5214   8.5222   8.5229
     8.5237   8.5239   8.6931

     occupation numbers 
     1.0000   1.0000   1.0000   1.0000   1.0000   1.0000   1.0000   1.0000
     1.0000   1.0000   1.0000   1.0000   1.0000   1.0000   1.0000   1.0000
     1.0000   1.0000   1.0000   1.0000   1.0000   1.0000   1.0000   1.0000
     1.0000   1.0000   1.0000   1.0000   1.0000   1.0000   1.0000   1.0000
     1.0000   1.0000   1.0000   1.0000   1.0000   1.0000   1.0000   1.0000
     1.0000   1.0000   1.0000   1.0000   1.0000   1.0000   1.0000   1.0000
     1.0000   1.0000   1.0000   1.0000   1.0000   1.0000   1.0000   1.0000
     1.0000   1.0000   1.0000   1.0000   1.0000   1.0000   1.0000   1.0000
     1.0000   1.0000   1.0000   1.0000   1.0000   1.0000   1.0000   1.0000
     1.0000   1.0000   1.0000   1.0000   1.0000   1.0000   1.0000   1.0000
     1.0000   1.0000   1.0000   1.0000   1.0000   1.0000   1.0000   1.0000
     1.0000   1.0000   1.0000   1.0000   1.0000   1.0000   1.0000   1.0000
     1.0000   1.0000   1.0000   1.0000   1.0000   1.0000   1.0000   1.0000
     1.0000   1.0000   1.0000   1.0000   1.0000   1.0000   1.0000   1.0000
     1.0000   1.0000   1.0000   1.0000   1.0000   1.0000   1.0000   1.0000
     1.0000   1.0000   1.0000   1.0000   1.0000   1.0000   1.0000   1.0000
     1.0000   1.0000   1.0000   1.0000   1.0000   1.0000   1.0000   1.0000
     1.0000   1.0000   1.0000   1.0000   1.0000   1.0000   1.0000   1.0000
     1.0000   1.0000   1.0000   1.0000   1.0000   1.0000   1.0000   1.0000
     1.0000   1.0000   1.0000   1.0000   1.0000   1.0000   1.0000   1.0000
     1.0000   1.0000   1.0000   1.0000   1.0000   1.0000   1.0000   1.0000
     1.0000   1.0000   1.0000   1.0000   1.0000   1.0000   1.0000   1.0000
     1.0000   1.0000   1.0000   1.0000   1.0000   1.0000   1.0000   1.0000
     1.0000   1.0000   1.0000   1.0000   1.0000   1.0000   1.0000   1.0000
     1.0000   1.0000   1.0000   1.0000   1.0000   1.0000   1.0000   1.0000
     1.0000   1.0000   1.0000   1.0000   1.0000   1.0000   1.0000   1.0000
     1.0000   1.0000   1.0000   1.0000   1.0000   1.0000   1.0000   1.0000
     1.0000   1.0000   1.0000   1.0000   1.0000   1.0000   1.0000   1.0000
     1.0000   1.0000   1.0000   1.0000   1.0000   1.0000   1.0000   1.0000
     1.0000   1.0000   1.0000   1.0000   1.0000   1.0000   1.0000   1.0000
     1.0000   1.0000   1.0000   1.0000   1.0000   1.0000   1.0000   1.0000
     1.0000   1.0000   1.0000   1.0000   0.9998   0.9998   0.9998   0.9998
     0.0249   0.0239   0.0000   0.0000   0.0000   0.0000   0.0000   0.0000
     0.0000   0.0000   0.0000   0.0000   0.0000   0.0000   0.0000   0.0000
     0.0000   0.0000   0.0000   0.0000   0.0000   0.0000   0.0000   0.0000
     0.0000   0.0000   0.0000   0.0000   0.0000   0.0000   0.0000   0.0000
     0.0000   0.0000   0.0000   0.0000   0.0000   0.0000   0.0000   0.0000
     0.0000   0.0000   0.0000   0.0000   0.0000   0.0000   0.0000   0.0000
     0.0000   0.0000   0.0000

          k = 0.3536 0.3536 0.3536 ( 60452 PWs)   bands (ev):

    -5.6370  -5.6352  -5.0986  -5.0980  -5.0971  -5.0968  -5.0962  -5.0949
    -4.5879  -4.5869  -4.5861  -4.5859  -4.5857  -4.5845  -4.1405  -4.1393
    -4.0464  -4.0455  -4.0436  -4.0427  -4.0415  -4.0402  -3.6182  -3.6169
    -3.6159  -3.6155  -3.6150  -3.6146  -3.6141  -3.6129  -3.6117  -3.6114
    -3.6104  -3.6100  -3.4104  -3.4098  -3.4089  -3.4080  -3.4077  -3.4063
    -2.9062  -2.9054  -2.9048  -2.9039  -2.9020  -2.9017  -2.5401  -2.5393
    -2.5384  -2.5381  -2.5371  -2.5356  -2.3616  -2.3598  -2.3595  -2.3591
    -2.3581  -2.3577  -2.3567  -2.3562  -2.3556  -2.3546  -2.3539  -2.3534
    -0.8028  -0.8019  -0.8010  -0.8001  -0.7993  -0.7986  -0.7980  -0.7970
    -0.7962  -0.7955  -0.7949  -0.7931  -0.6968  -0.6960  -0.6947  -0.6938
    -0.6936  -0.6909  -0.6436  -0.6414  -0.6407  -0.6400  -0.6391  -0.6379
    -0.5198  -0.5197  -0.5172  -0.5166  -0.5147  -0.5120   0.1650   0.1652
     0.2796   0.2807   0.2813   0.2822   0.2831   0.2834   0.2838   0.2842
     0.2857   0.2860   0.2867   0.2887   1.1932   1.1935   1.1949   1.1957
     1.1975   1.2005   1.4936   1.4955   1.4968   1.4969   1.4990   1.4994
     2.0299   2.0300   2.0306   2.0312   2.0317   2.0320   2.0326   2.0329
     2.0332   2.0338   2.0342   2.0347   2.1018   2.1026   2.1034   2.1048
     2.1054   2.1056   2.6679   2.6679   2.6687   2.6694   2.6698   2.6703
     2.7811   2.7822   2.7827   2.7834   2.7840   2.7841   2.7848   2.7851
     2.7855   2.7868   2.7869   2.7882   2.9008   2.9025   2.9038   2.9046
     2.9056   2.9061   3.1463   3.1469   3.1470   3.1474   3.1483   3.1489
     3.1494   3.1500   3.1502   3.1506   3.1511   3.1514   3.4383   3.4391
     3.4395   3.4407   3.4408   3.4413   3.4420   3.4422   3.4428   3.4435
     3.4440   3.4443   3.8033   3.8038   3.8047   3.8059   3.8075   3.8079
     3.8400   3.8413   3.8417   3.8419   3.8426   3.8433   3.9152   3.9163
     3.9167   3.9182   3.9197   3.9208   4.1916   4.1919   4.1930   4.1934
     4.1941   4.1946   4.1950   4.1959   4.1964   4.1973   4.1984   4.1988
     4.2422   4.2427   4.2430   4.2437   4.2446   4.2460   4.5319   4.5327
     4.5691   4.5694   4.5705   4.5706   4.5715   4.5735   4.8100   4.8104
     4.8115   4.8117   4.8125   4.8142   4.8849   4.8853   4.8876   4.8883
     4.8895   4.8917   5.0486   5.0512   5.0520   5.0541   5.3630   5.3642
     5.3654   5.3667   5.3680   5.3705   5.8481   5.8508   5.8516   5.8541
     6.9294   6.9295   6.9307   6.9314   6.9321   6.9338   7.4008   7.4016
     7.4032   7.4041   7.4053   7.4071   7.7344   7.7364   7.8925   7.8929
     7.8937   7.8939   7.8947   7.8972   8.0160   8.0164   8.0174   8.0180
     8.0184   8.0186   8.2208   8.2216   8.2226   8.2227   8.2242   8.2252
     8.2612   8.2617   8.2626   8.2630   8.2635   8.2654   8.4421   8.4428
     8.4438   8.4444   8.4448   8.4451   8.4454   8.4457   8.4465   8.4471
     8.4480   8.4493   8.5867

     occupation numbers 
     1.0000   1.0000   1.0000   1.0000   1.0000   1.0000   1.0000   1.0000
     1.0000   1.0000   1.0000   1.0000   1.0000   1.0000   1.0000   1.0000
     1.0000   1.0000   1.0000   1.0000   1.0000   1.0000   1.0000   1.0000
     1.0000   1.0000   1.0000   1.0000   1.0000   1.0000   1.0000   1.0000
     1.0000   1.0000   1.0000   1.0000   1.0000   1.0000   1.0000   1.0000
     1.0000   1.0000   1.0000   1.0000   1.0000   1.0000   1.0000   1.0000
     1.0000   1.0000   1.0000   1.0000   1.0000   1.0000   1.0000   1.0000
     1.0000   1.0000   1.0000   1.0000   1.0000   1.0000   1.0000   1.0000
     1.0000   1.0000   1.0000   1.0000   1.0000   1.0000   1.0000   1.0000
     1.0000   1.0000   1.0000   1.0000   1.0000   1.0000   1.0000   1.0000
     1.0000   1.0000   1.0000   1.0000   1.0000   1.0000   1.0000   1.0000
     1.0000   1.0000   1.0000   1.0000   1.0000   1.0000   1.0000   1.0000
     1.0000   1.0000   1.0000   1.0000   1.0000   1.0000   1.0000   1.0000
     1.0000   1.0000   1.0000   1.0000   1.0000   1.0000   1.0000   1.0000
     1.0000   1.0000   1.0000   1.0000   1.0000   1.0000   1.0000   1.0000
     1.0000   1.0000   1.0000   1.0000   1.0000   1.0000   1.0000   1.0000
     1.0000   1.0000   1.0000   1.0000   1.0000   1.0000   1.0000   1.0000
     1.0000   1.0000   1.0000   1.0000   1.0000   1.0000   1.0000   1.0000
     1.0000   1.0000   1.0000   1.0000   1.0000   1.0000   1.0000   1.0000
     1.0000   1.0000   1.0000   1.0000   1.0000   1.0000   1.0000   1.0000
     1.0000   1.0000   1.0000   1.0000   1.0000   1.0000   1.0000   1.0000
     1.0000   1.0000   1.0000   1.0000   1.0000   1.0000   1.0000   1.0000
     1.0000   1.0000   1.0000   1.0000   1.0000   1.0000   1.0000   1.0000
     1.0000   1.0000   1.0000   1.0000   1.0000   1.0000   1.0000   1.0000
     1.0000   1.0000   1.0000   1.0000   1.0000   1.0000   1.0000   1.0000
     1.0000   1.0000   1.0000   1.0000   1.0000   1.0000   1.0000   1.0000
     1.0000   1.0000   1.0000   1.0000   1.0000   1.0000   1.0000   1.0000
     1.0000   1.0000   1.0000   1.0000   1.0000   1.0000   1.0000   1.0000
     1.0000   1.0000   1.0000   1.0000   1.0000   1.0000   1.0000   1.0000
     1.0000   1.0000   1.0000   1.0000   1.0000   1.0000   1.0000   1.0000
     1.0000   1.0000   1.0000   1.0000   1.0000   1.0000   1.0000   1.0000
     1.0000   1.0000   1.0000   1.0000   0.9999   0.9998   0.9998   0.9998
     0.0001   0.0001   0.0001   0.0001   0.0001   0.0000   0.0000   0.0000
     0.0000   0.0000   0.0000   0.0000   0.0000   0.0000   0.0000   0.0000
     0.0000   0.0000   0.0000   0.0000   0.0000   0.0000   0.0000   0.0000
     0.0000   0.0000   0.0000   0.0000   0.0000   0.0000   0.0000   0.0000
     0.0000   0.0000   0.0000   0.0000   0.0000   0.0000   0.0000   0.0000
     0.0000   0.0000   0.0000   0.0000   0.0000   0.0000   0.0000   0.0000
     0.0000   0.0000   0.0000

          k = 0.3536-0.3536-0.3536 ( 60452 PWs)   bands (ev):

    -5.6366  -5.6355  -5.0988  -5.0979  -5.0976  -5.0966  -5.0959  -5.0954
    -4.5875  -4.5873  -4.5868  -4.5862  -4.5854  -4.5835  -4.1397  -4.1386
    -4.0451  -4.0446  -4.0434  -4.0428  -4.0420  -4.0403  -3.6183  -3.6173
    -3.6165  -3.6162  -3.6149  -3.6147  -3.6143  -3.6138  -3.6125  -3.6118
    -3.6106  -3.6099  -3.4112  -3.4102  -3.4098  -3.4081  -3.4076  -3.4073
    -2.9055  -2.9046  -2.9026  -2.9019  -2.9010  -2.9000  -2.5409  -2.5407
    -2.5398  -2.5372  -2.5363  -2.5352  -2.3625  -2.3605  -2.3599  -2.3595
    -2.3585  -2.3584  -2.3569  -2.3563  -2.3554  -2.3550  -2.3538  -2.3525
    -0.8019  -0.8011  -0.8004  -0.8000  -0.7992  -0.7985  -0.7979  -0.7965
    -0.7960  -0.7954  -0.7944  -0.7927  -0.6984  -0.6954  -0.6941  -0.6925
    -0.6917  -0.6899  -0.6422  -0.6416  -0.6395  -0.6379  -0.6370  -0.6366
    -0.5230  -0.5224  -0.5205  -0.5200  -0.5182  -0.5154   0.1616   0.1632
     0.2808   0.2810   0.2823   0.2827   0.2835   0.2837   0.2846   0.2861
     0.2865   0.2879   0.2891   0.2903   1.1917   1.1922   1.1929   1.1943
     1.1963   1.1970   1.4947   1.4955   1.4963   1.4978   1.4981   1.4990
     2.0297   2.0300   2.0307   2.0310   2.0321   2.0325   2.0327   2.0331
     2.0333   2.0336   2.0340   2.0350   2.1026   2.1043   2.1044   2.1051
     2.1058   2.1067   2.6658   2.6662   2.6676   2.6680   2.6685   2.6690
     2.7825   2.7827   2.7836   2.7839   2.7850   2.7853   2.7857   2.7863
     2.7867   2.7877   2.7879   2.7894   2.9031   2.9044   2.9055   2.9062
     2.9066   2.9078   3.1462   3.1469   3.1477   3.1480   3.1482   3.1484
     3.1489   3.1495   3.1498   3.1502   3.1509   3.1513   3.4398   3.4405
     3.4410   3.4412   3.4417   3.4421   3.4424   3.4429   3.4435   3.4444
     3.4448   3.4455   3.8021   3.8024   3.8036   3.8046   3.8055   3.8060
     3.8376   3.8383   3.8391   3.8393   3.8402   3.8421   3.9166   3.9170
     3.9185   3.9192   3.9196   3.9212   4.1893   4.1900   4.1909   4.1915
     4.1921   4.1929   4.1930   4.1939   4.1947   4.1949   4.1955   4.1967
     4.2424   4.2437   4.2438   4.2455   4.2457   4.2473   4.5286   4.5300
     4.5707   4.5712   4.5723   4.5731   4.5737   4.5741   4.8102   4.8113
     4.8127   4.8139   4.8145   4.8166   4.8813   4.8822   4.8834   4.8840
     4.8859   4.8887   5.0499   5.0510   5.0538   5.0548   5.3652   5.3659
     5.3681   5.3694   5.3696   5.3722   5.8499   5.8515   5.8545   5.8559
     6.9308   6.9310   6.9321   6.9327   6.9338   6.9340   7.4011   7.4022
     7.4030   7.4055   7.4063   7.4073   7.7360   7.7367   7.8928   7.8936
     7.8945   7.8964   7.8969   7.8979   8.0143   8.0154   8.0158   8.0172
     8.0174   8.0183   8.2208   8.2221   8.2226   8.2239   8.2246   8.2253
     8.2620   8.2624   8.2637   8.2639   8.2644   8.2651   8.4412   8.4416
     8.4422   8.4424   8.4426   8.4433   8.4443   8.4451   8.4454   8.4462
     8.4467   8.4481   8.5886

     occupation numbers 
     1.0000   1.0000   1.0000   1.0000   1.0000   1.0000   1.0000   1.0000
     1.0000   1.0000   1.0000   1.0000   1.0000   1.0000   1.0000   1.0000
     1.0000   1.0000   1.0000   1.0000   1.0000   1.0000   1.0000   1.0000
     1.0000   1.0000   1.0000   1.0000   1.0000   1.0000   1.0000   1.0000
     1.0000   1.0000   1.0000   1.0000   1.0000   1.0000   1.0000   1.0000
     1.0000   1.0000   1.0000   1.0000   1.0000   1.0000   1.0000   1.0000
     1.0000   1.0000   1.0000   1.0000   1.0000   1.0000   1.0000   1.0000
     1.0000   1.0000   1.0000   1.0000   1.0000   1.0000   1.0000   1.0000
     1.0000   1.0000   1.0000   1.0000   1.0000   1.0000   1.0000   1.0000
     1.0000   1.0000   1.0000   1.0000   1.0000   1.0000   1.0000   1.0000
     1.0000   1.0000   1.0000   1.0000   1.0000   1.0000   1.0000   1.0000
     1.0000   1.0000   1.0000   1.0000   1.0000   1.0000   1.0000   1.0000
     1.0000   1.0000   1.0000   1.0000   1.0000   1.0000   1.0000   1.0000
     1.0000   1.0000   1.0000   1.0000   1.0000   1.0000   1.0000   1.0000
     1.0000   1.0000   1.0000   1.0000   1.0000   1.0000   1.0000   1.0000
     1.0000   1.0000   1.0000   1.0000   1.0000   1.0000   1.0000   1.0000
     1.0000   1.0000   1.0000   1.0000   1.0000   1.0000   1.0000   1.0000
     1.0000   1.0000   1.0000   1.0000   1.0000   1.0000   1.0000   1.0000
     1.0000   1.0000   1.0000   1.0000   1.0000   1.0000   1.0000   1.0000
     1.0000   1.0000   1.0000   1.0000   1.0000   1.0000   1.0000   1.0000
     1.0000   1.0000   1.0000   1.0000   1.0000   1.0000   1.0000   1.0000
     1.0000   1.0000   1.0000   1.0000   1.0000   1.0000   1.0000   1.0000
     1.0000   1.0000   1.0000   1.0000   1.0000   1.0000   1.0000   1.0000
     1.0000   1.0000   1.0000   1.0000   1.0000   1.0000   1.0000   1.0000
     1.0000   1.0000   1.0000   1.0000   1.0000   1.0000   1.0000   1.0000
     1.0000   1.0000   1.0000   1.0000   1.0000   1.0000   1.0000   1.0000
     1.0000   1.0000   1.0000   1.0000   1.0000   1.0000   1.0000   1.0000
     1.0000   1.0000   1.0000   1.0000   1.0000   1.0000   1.0000   1.0000
     1.0000   1.0000   1.0000   1.0000   1.0000   1.0000   1.0000   1.0000
     1.0000   1.0000   1.0000   1.0000   1.0000   1.0000   1.0000   1.0000
     1.0000   1.0000   1.0000   1.0000   1.0000   1.0000   1.0000   1.0000
     1.0000   1.0000   1.0000   1.0000   0.9998   0.9998   0.9998   0.9998
     0.0001   0.0001   0.0001   0.0001   0.0000   0.0000   0.0000   0.0000
     0.0000   0.0000   0.0000   0.0000   0.0000   0.0000   0.0000   0.0000
     0.0000   0.0000   0.0000   0.0000   0.0000   0.0000   0.0000   0.0000
     0.0000   0.0000   0.0000   0.0000   0.0000   0.0000   0.0000   0.0000
     0.0000   0.0000   0.0000   0.0000   0.0000   0.0000   0.0000   0.0000
     0.0000   0.0000   0.0000   0.0000   0.0000   0.0000   0.0000   0.0000
     0.0000   0.0000   0.0000

          k =-0.3536 0.3536-0.3536 ( 60452 PWs)   bands (ev):

    -5.6365  -5.6356  -5.0989  -5.0982  -5.0971  -5.0969  -5.0955  -5.0952
    -4.5883  -4.5880  -4.5867  -4.5857  -4.5850  -4.5833  -4.1402  -4.1393
    -4.0458  -4.0454  -4.0446  -4.0428  -4.0411  -4.0395  -3.6173  -3.6167
    -3.6161  -3.6152  -3.6146  -3.6142  -3.6140  -3.6136  -3.6130  -3.6125
    -3.6106  -3.6102  -3.4108  -3.4099  -3.4094  -3.4087  -3.4072  -3.4063
    -2.9061  -2.9050  -2.9036  -2.9028  -2.9024  -2.9014  -2.5410  -2.5404
    -2.5385  -2.5374  -2.5366  -2.5354  -2.3612  -2.3606  -2.3597  -2.3592
    -2.3584  -2.3575  -2.3570  -2.3563  -2.3559  -2.3545  -2.3542  -2.3528
    -0.8033  -0.8020  -0.8015  -0.7999  -0.7987  -0.7982  -0.7975  -0.7969
    -0.7964  -0.7951  -0.7941  -0.7935  -0.6969  -0.6957  -0.6946  -0.6935
    -0.6929  -0.6910  -0.6432  -0.6421  -0.6404  -0.6394  -0.6383  -0.6367
    -0.5223  -0.5210  -0.5182  -0.5161  -0.5153  -0.5133   0.1636   0.1649
     0.2805   0.2813   0.2816   0.2823   0.2833   0.2839   0.2843   0.2852
     0.2855   0.2863   0.2874   0.2880   1.1915   1.1934   1.1942   1.1954
     1.1981   1.1991   1.4946   1.4951   1.4965   1.4967   1.4985   1.4999
     2.0290   2.0307   2.0310   2.0314   2.0318   2.0321   2.0323   2.0331
     2.0332   2.0337   2.0342   2.0345   2.1020   2.1030   2.1040   2.1045
     2.1052   2.1066   2.6670   2.6679   2.6684   2.6688   2.6692   2.6698
     2.7814   2.7823   2.7831   2.7836   2.7843   2.7847   2.7851   2.7856
     2.7864   2.7867   2.7871   2.7882   2.9018   2.9030   2.9038   2.9049
     2.9056   2.9077   3.1463   3.1470   3.1473   3.1476   3.1485   3.1488
     3.1490   3.1494   3.1500   3.1504   3.1511   3.1516   3.4382   3.4400
     3.4402   3.4410   3.4412   3.4416   3.4424   3.4426   3.4430   3.4434
     3.4439   3.4448   3.8026   3.8038   3.8047   3.8050   3.8064   3.8079
     3.8390   3.8399   3.8402   3.8408   3.8421   3.8441   3.9157   3.9170
     3.9177   3.9183   3.9190   3.9209   4.1906   4.1914   4.1920   4.1927
     4.1931   4.1941   4.1946   4.1951   4.1962   4.1971   4.1975   4.1979
     4.2411   4.2427   4.2438   4.2446   4.2454   4.2466   4.5308   4.5319
     4.5692   4.5699   4.5707   4.5717   4.5728   4.5735   4.8090   4.8102
     4.8111   4.8132   4.8140   4.8157   4.8830   4.8837   4.8866   4.8881
     4.8885   4.8904   5.0493   5.0508   5.0524   5.0545   5.3632   5.3647
     5.3665   5.3680   5.3686   5.3709   5.8484   5.8512   5.8528   5.8544
     6.9299   6.9303   6.9311   6.9314   6.9331   6.9334   7.4012   7.4022
     7.4034   7.4043   7.4053   7.4069   7.7354   7.7360   7.8915   7.8933
     7.8940   7.8944   7.8963   7.8977   8.0152   8.0156   8.0172   8.0175
     8.0181   8.0190   8.2212   8.2216   8.2223   8.2226   8.2245   8.2256
     8.2613   8.2621   8.2623   8.2630   8.2646   8.2654   8.4416   8.4424
     8.4426   8.4437   8.4448   8.4450   8.4452   8.4460   8.4461   8.4472
     8.4473   8.4481   8.5876

     occupation numbers 
     1.0000   1.0000   1.0000   1.0000   1.0000   1.0000   1.0000   1.0000
     1.0000   1.0000   1.0000   1.0000   1.0000   1.0000   1.0000   1.0000
     1.0000   1.0000   1.0000   1.0000   1.0000   1.0000   1.0000   1.0000
     1.0000   1.0000   1.0000   1.0000   1.0000   1.0000   1.0000   1.0000
     1.0000   1.0000   1.0000   1.0000   1.0000   1.0000   1.0000   1.0000
     1.0000   1.0000   1.0000   1.0000   1.0000   1.0000   1.0000   1.0000
     1.0000   1.0000   1.0000   1.0000   1.0000   1.0000   1.0000   1.0000
     1.0000   1.0000   1.0000   1.0000   1.0000   1.0000   1.0000   1.0000
     1.0000   1.0000   1.0000   1.0000   1.0000   1.0000   1.0000   1.0000
     1.0000   1.0000   1.0000   1.0000   1.0000   1.0000   1.0000   1.0000
     1.0000   1.0000   1.0000   1.0000   1.0000   1.0000   1.0000   1.0000
     1.0000   1.0000   1.0000   1.0000   1.0000   1.0000   1.0000   1.0000
     1.0000   1.0000   1.0000   1.0000   1.0000   1.0000   1.0000   1.0000
     1.0000   1.0000   1.0000   1.0000   1.0000   1.0000   1.0000   1.0000
     1.0000   1.0000   1.0000   1.0000   1.0000   1.0000   1.0000   1.0000
     1.0000   1.0000   1.0000   1.0000   1.0000   1.0000   1.0000   1.0000
     1.0000   1.0000   1.0000   1.0000   1.0000   1.0000   1.0000   1.0000
     1.0000   1.0000   1.0000   1.0000   1.0000   1.0000   1.0000   1.0000
     1.0000   1.0000   1.0000   1.0000   1.0000   1.0000   1.0000   1.0000
     1.0000   1.0000   1.0000   1.0000   1.0000   1.0000   1.0000   1.0000
     1.0000   1.0000   1.0000   1.0000   1.0000   1.0000   1.0000   1.0000
     1.0000   1.0000   1.0000   1.0000   1.0000   1.0000   1.0000   1.0000
     1.0000   1.0000   1.0000   1.0000   1.0000   1.0000   1.0000   1.0000
     1.0000   1.0000   1.0000   1.0000   1.0000   1.0000   1.0000   1.0000
     1.0000   1.0000   1.0000   1.0000   1.0000   1.0000   1.0000   1.0000
     1.0000   1.0000   1.0000   1.0000   1.0000   1.0000   1.0000   1.0000
     1.0000   1.0000   1.0000   1.0000   1.0000   1.0000   1.0000   1.0000
     1.0000   1.0000   1.0000   1.0000   1.0000   1.0000   1.0000   1.0000
     1.0000   1.0000   1.0000   1.0000   1.0000   1.0000   1.0000   1.0000
     1.0000   1.0000   1.0000   1.0000   1.0000   1.0000   1.0000   1.0000
     1.0000   1.0000   1.0000   1.0000   1.0000   1.0000   1.0000   1.0000
     1.0000   1.0000   1.0000   1.0000   0.9999   0.9998   0.9998   0.9998
     0.0001   0.0001   0.0001   0.0001   0.0000   0.0000   0.0000   0.0000
     0.0000   0.0000   0.0000   0.0000   0.0000   0.0000   0.0000   0.0000
     0.0000   0.0000   0.0000   0.0000   0.0000   0.0000   0.0000   0.0000
     0.0000   0.0000   0.0000   0.0000   0.0000   0.0000   0.0000   0.0000
     0.0000   0.0000   0.0000   0.0000   0.0000   0.0000   0.0000   0.0000
     0.0000   0.0000   0.0000   0.0000   0.0000   0.0000   0.0000   0.0000
     0.0000   0.0000   0.0000

          k = 0.0000-0.7071 0.0000 ( 60622 PWs)   bands (ev):

    -5.5676  -5.5666  -5.2999  -5.2992  -5.2986  -5.2976  -4.5096  -4.5092
    -4.5084  -4.5076  -4.5065  -4.5059  -4.5056  -4.5040  -4.2812  -4.2804
    -4.2796  -4.2787  -4.2778  -4.2766  -4.2763  -4.2759  -3.6591  -3.6586
    -3.6572  -3.6568  -3.6559  -3.6552  -3.6547  -3.6533  -3.4397  -3.4390
    -3.2427  -3.2419  -3.2399  -3.2391  -3.2381  -3.2369  -3.2366  -3.2352
    -2.9583  -2.9567  -2.9553  -2.9551  -2.9549  -2.9533  -2.9521  -2.9515
    -2.7122  -2.7113  -2.7101  -2.7093  -2.7088  -2.7081  -2.7078  -2.7068
    -2.0953  -2.0933  -2.0908  -2.0893  -1.6082  -1.6068  -1.6047  -1.6042
    -1.6032  -1.6027  -1.6008  -1.5991  -1.0973  -1.0954  -1.0942  -1.0914
    -0.6742  -0.6725  -0.6722  -0.6712  -0.6695  -0.6690  -0.6677  -0.6668
    -0.4373  -0.4369  -0.4354  -0.4348  -0.4340  -0.4329  -0.4322  -0.4319
    -0.2691  -0.2678  -0.2671  -0.2667  -0.2654  -0.2640  -0.2634  -0.2627
     0.1705   0.1707   0.1712   0.1736   0.1744   0.1751   0.1763   0.1793
     0.3923   0.3928   0.8309   0.8319   0.8322   0.8329   0.8344   0.8357
     0.8370   0.8379   1.7846   1.7855   1.7865   1.7877   1.8403   1.8422
     1.8441   1.8442   1.8443   1.8455   1.8462   1.8482   1.8616   1.8619
     1.8622   1.8623   1.8628   1.8630   1.8636   1.8640   2.6550   2.6559
     2.6562   2.6571   2.6578   2.6582   2.6592   2.6593   2.6858   2.6866
     2.6867   2.6876   2.6878   2.6886   2.6887   2.6896   2.7404   2.7408
     2.7410   2.7418   2.7422   2.7425   2.7434   2.7438   3.3504   3.3510
     3.3528   3.3535   3.3539   3.3540   3.3543   3.3550   3.3937   3.3941
     3.3945   3.3950   3.3951   3.3962   3.3965   3.3969   3.4454   3.4473
     3.4476   3.4503   3.5164   3.5176   3.5178   3.5189   3.5273   3.5282
     3.5287   3.5294   3.5298   3.5300   3.5307   3.5316   3.6543   3.6549
     3.6556   3.6561   3.6564   3.6573   3.6581   3.6586   3.6997   3.7006
     3.7018   3.7029   3.9585   3.9598   3.9603   3.9612   3.9626   3.9630
     3.9633   3.9641   4.2856   4.2874   4.2881   4.2890   4.2894   4.2912
     4.2919   4.2933   4.4889   4.4896   4.4898   4.4901   4.5416   4.5422
     4.5435   4.5440   4.5446   4.5466   4.5474   4.5478   4.7002   4.7009
     4.7017   4.7032   4.7034   4.7038   4.7047   4.7051   4.8050   4.8050
     4.8687   4.8698   4.8706   4.8711   4.8720   4.8723   4.8736   4.8741
     5.3252   5.3263   5.3275   5.3285   5.8478   5.8516   5.8526   5.8552
     6.6555   6.6560   7.2413   7.2428   7.2435   7.2447   7.5716   7.5721
     8.0050   8.0054   8.0064   8.0072   8.0085   8.0090   8.0095   8.0114
     8.0204   8.0211   8.0214   8.0227   8.0234   8.0236   8.0244   8.0254
     8.0896   8.0900   8.3137   8.3146   8.3155   8.3159   8.3165   8.3181
     8.3185   8.3188   8.4345   8.4347   8.4348   8.4353   8.4362   8.4363
     8.4367   8.4372   8.5191   8.5202   8.5206   8.5214   8.5224   8.5229
     8.5235   8.5241   8.6944

     occupation numbers 
     1.0000   1.0000   1.0000   1.0000   1.0000   1.0000   1.0000   1.0000
     1.0000   1.0000   1.0000   1.0000   1.0000   1.0000   1.0000   1.0000
     1.0000   1.0000   1.0000   1.0000   1.0000   1.0000   1.0000   1.0000
     1.0000   1.0000   1.0000   1.0000   1.0000   1.0000   1.0000   1.0000
     1.0000   1.0000   1.0000   1.0000   1.0000   1.0000   1.0000   1.0000
     1.0000   1.0000   1.0000   1.0000   1.0000   1.0000   1.0000   1.0000
     1.0000   1.0000   1.0000   1.0000   1.0000   1.0000   1.0000   1.0000
     1.0000   1.0000   1.0000   1.0000   1.0000   1.0000   1.0000   1.0000
     1.0000   1.0000   1.0000   1.0000   1.0000   1.0000   1.0000   1.0000
     1.0000   1.0000   1.0000   1.0000   1.0000   1.0000   1.0000   1.0000
     1.0000   1.0000   1.0000   1.0000   1.0000   1.0000   1.0000   1.0000
     1.0000   1.0000   1.0000   1.0000   1.0000   1.0000   1.0000   1.0000
     1.0000   1.0000   1.0000   1.0000   1.0000   1.0000   1.0000   1.0000
     1.0000   1.0000   1.0000   1.0000   1.0000   1.0000   1.0000   1.0000
     1.0000   1.0000   1.0000   1.0000   1.0000   1.0000   1.0000   1.0000
     1.0000   1.0000   1.0000   1.0000   1.0000   1.0000   1.0000   1.0000
     1.0000   1.0000   1.0000   1.0000   1.0000   1.0000   1.0000   1.0000
     1.0000   1.0000   1.0000   1.0000   1.0000   1.0000   1.0000   1.0000
     1.0000   1.0000   1.0000   1.0000   1.0000   1.0000   1.0000   1.0000
     1.0000   1.0000   1.0000   1.0000   1.0000   1.0000   1.0000   1.0000
     1.0000   1.0000   1.0000   1.0000   1.0000   1.0000   1.0000   1.0000
     1.0000   1.0000   1.0000   1.0000   1.0000   1.0000   1.0000   1.0000
     1.0000   1.0000   1.0000   1.0000   1.0000   1.0000   1.0000   1.0000
     1.0000   1.0000   1.0000   1.0000   1.0000   1.0000   1.0000   1.0000
     1.0000   1.0000   1.0000   1.0000   1.0000   1.0000   1.0000   1.0000
     1.0000   1.0000   1.0000   1.0000   1.0000   1.0000   1.0000   1.0000
     1.0000   1.0000   1.0000   1.0000   1.0000   1.0000   1.0000   1.0000
     1.0000   1.0000   1.0000   1.0000   1.0000   1.0000   1.0000   1.0000
     1.0000   1.0000   1.0000   1.0000   1.0000   1.0000   1.0000   1.0000
     1.0000   1.0000   1.0000   1.0000   1.0000   1.0000   1.0000   1.0000
     1.0000   1.0000   1.0000   1.0000   1.0000   1.0000   1.0000   1.0000
     1.0000   1.0000   1.0000   1.0000   0.9999   0.9998   0.9998   0.9998
     0.0245   0.0243   0.0000   0.0000   0.0000   0.0000   0.0000   0.0000
     0.0000   0.0000   0.0000   0.0000   0.0000   0.0000   0.0000   0.0000
     0.0000   0.0000   0.0000   0.0000   0.0000   0.0000   0.0000   0.0000
     0.0000   0.0000   0.0000   0.0000   0.0000   0.0000   0.0000   0.0000
     0.0000   0.0000   0.0000   0.0000   0.0000   0.0000   0.0000   0.0000
     0.0000   0.0000   0.0000   0.0000   0.0000   0.0000   0.0000   0.0000
     0.0000   0.0000   0.0000

          k = 0.0000 0.0000-0.7071 ( 60622 PWs)   bands (ev):

    -5.5677  -5.5665  -5.2996  -5.2992  -5.2985  -5.2980  -4.5097  -4.5093
    -4.5081  -4.5075  -4.5062  -4.5058  -4.5054  -4.5048  -4.2809  -4.2799
    -4.2790  -4.2788  -4.2783  -4.2776  -4.2771  -4.2750  -3.6595  -3.6575
    -3.6572  -3.6565  -3.6558  -3.6555  -3.6551  -3.6538  -3.4399  -3.4388
    -3.2421  -3.2411  -3.2402  -3.2389  -3.2383  -3.2376  -3.2368  -3.2352
    -2.9575  -2.9570  -2.9559  -2.9554  -2.9544  -2.9534  -2.9527  -2.9510
    -2.7124  -2.7115  -2.7106  -2.7098  -2.7091  -2.7081  -2.7070  -2.7059
    -2.0947  -2.0930  -2.0906  -2.0905  -1.6062  -1.6061  -1.6043  -1.6043
    -1.6034  -1.6031  -1.6027  -1.5995  -1.0961  -1.0954  -1.0943  -1.0925
    -0.6731  -0.6729  -0.6716  -0.6711  -0.6701  -0.6691  -0.6682  -0.6668
    -0.4388  -0.4367  -0.4358  -0.4344  -0.4335  -0.4330  -0.4322  -0.4313
    -0.2689  -0.2674  -0.2666  -0.2658  -0.2655  -0.2652  -0.2639  -0.2630
     0.1712   0.1719   0.1727   0.1732   0.1739   0.1754   0.1761   0.1767
     0.3923   0.3930   0.8308   0.8320   0.8328   0.8336   0.8345   0.8357
     0.8365   0.8370   1.7854   1.7855   1.7862   1.7871   1.8416   1.8425
     1.8429   1.8435   1.8443   1.8451   1.8465   1.8489   1.8610   1.8613
     1.8622   1.8626   1.8628   1.8635   1.8636   1.8641   2.6549   2.6557
     2.6569   2.6574   2.6578   2.6583   2.6587   2.6591   2.6864   2.6868
     2.6872   2.6873   2.6877   2.6879   2.6889   2.6891   2.7405   2.7410
     2.7414   2.7416   2.7424   2.7425   2.7430   2.7435   3.3512   3.3515
     3.3524   3.3530   3.3536   3.3540   3.3546   3.3549   3.3933   3.3938
     3.3944   3.3950   3.3956   3.3964   3.3965   3.3968   3.4462   3.4465
     3.4484   3.4495   3.5164   3.5174   3.5175   3.5191   3.5275   3.5285
     3.5288   3.5290   3.5293   3.5303   3.5309   3.5319   3.6543   3.6547
     3.6561   3.6565   3.6566   3.6571   3.6576   3.6582   3.7000   3.7005
     3.7018   3.7028   3.9591   3.9599   3.9604   3.9615   3.9622   3.9628
     3.9630   3.9639   4.2870   4.2873   4.2886   4.2889   4.2901   4.2908
     4.2908   4.2924   4.4891   4.4895   4.4898   4.4900   4.5421   4.5429
     4.5433   4.5442   4.5455   4.5461   4.5463   4.5473   4.6995   4.7006
     4.7022   4.7029   4.7035   4.7040   4.7047   4.7054   4.8050   4.8051
     4.8687   4.8694   4.8703   4.8708   4.8721   4.8727   4.8738   4.8744
     5.3251   5.3263   5.3271   5.3289   5.8489   5.8515   5.8529   5.8539
     6.6554   6.6561   7.2416   7.2426   7.2436   7.2446   7.5715   7.5722
     8.0058   8.0061   8.0069   8.0078   8.0083   8.0086   8.0095   8.0099
     8.0211   8.0213   8.0218   8.0227   8.0229   8.0232   8.0240   8.0248
     8.0896   8.0901   8.3147   8.3151   8.3154   8.3161   8.3170   8.3173
     8.3180   8.3181   8.4342   8.4344   8.4349   8.4354   8.4361   8.4366
     8.4367   8.4372   8.5200   8.5203   8.5207   8.5211   8.5218   8.5228
     8.5236   8.5239   8.6940

     occupation numbers 
     1.0000   1.0000   1.0000   1.0000   1.0000   1.0000   1.0000   1.0000
     1.0000   1.0000   1.0000   1.0000   1.0000   1.0000   1.0000   1.0000
     1.0000   1.0000   1.0000   1.0000   1.0000   1.0000   1.0000   1.0000
     1.0000   1.0000   1.0000   1.0000   1.0000   1.0000   1.0000   1.0000
     1.0000   1.0000   1.0000   1.0000   1.0000   1.0000   1.0000   1.0000
     1.0000   1.0000   1.0000   1.0000   1.0000   1.0000   1.0000   1.0000
[...]
     atom   77 type  1   force =   0.00000000E+00  0.00000000E+00  0.00000000E+00
     atom   78 type  1   force =   0.00000000E+00  0.00000000E+00  0.00000000E+00
     atom   79 type  1   force =   0.00000000E+00  0.00000000E+00  0.00000000E+00
     atom   80 type  1   force =   0.00000000E+00  0.00000000E+00  0.00000000E+00
     atom   81 type  1   force =   0.00000000E+00  0.00000000E+00  0.00000000E+00
     atom   82 type  1   force =   0.00000000E+00  0.00000000E+00  0.00000000E+00
     atom   83 type  1   force =   0.00000000E+00  0.00000000E+00  0.00000000E+00
     atom   84 type  1   force =   0.00000000E+00  0.00000000E+00  0.00000000E+00
     atom   85 type  1   force =   0.00000000E+00  0.00000000E+00  0.00000000E+00
     atom   86 type  1   force =   0.00000000E+00  0.00000000E+00  0.00000000E+00
     atom   87 type  1   force =   0.00000000E+00  0.00000000E+00  0.00000000E+00
     atom   88 type  1   force =   0.00000000E+00  0.00000000E+00  0.00000000E+00
     atom   89 type  1   force =   0.00000000E+00  0.00000000E+00  0.00000000E+00
     atom   90 type  1   force =   0.00000000E+00  0.00000000E+00  0.00000000E+00
     atom   91 type  1   force =   0.00000000E+00  0.00000000E+00  0.00000000E+00
     atom   92 type  1   force =   0.00000000E+00  0.00000000E+00  0.00000000E+00
     atom   93 type  1   force =   0.00000000E+00  0.00000000E+00  0.00000000E+00
     atom   94 type  1   force =   0.00000000E+00  0.00000000E+00  0.00000000E+00
     atom   95 type  1   force =   0.00000000E+00  0.00000000E+00  0.00000000E+00
     atom   96 type  1   force =   0.00000000E+00  0.00000000E+00  0.00000000E+00
     atom   97 type  1   force =   0.00000000E+00  0.00000000E+00  0.00000000E+00
     atom   98 type  1   force =   0.00000000E+00  0.00000000E+00  0.00000000E+00
     atom   99 type  1   force =   0.00000000E+00  0.00000000E+00  0.00000000E+00
     atom  100 type  1   force =   0.00000000E+00  0.00000000E+00  0.00000000E+00
     atom  101 type  1   force =   0.00000000E+00  0.00000000E+00  0.00000000E+00
     atom  102 type  1   force =   0.00000000E+00  0.00000000E+00  0.00000000E+00
     atom  103 type  1   force =   0.00000000E+00  0.00000000E+00  0.00000000E+00
     atom  104 type  1   force =   0.00000000E+00  0.00000000E+00  0.00000000E+00
     atom  105 type  1   force =   0.00000000E+00  0.00000000E+00  0.00000000E+00
     atom  106 type  1   force =   0.00000000E+00  0.00000000E+00  0.00000000E+00
     atom  107 type  1   force =   0.00000000E+00  0.00000000E+00  0.00000000E+00
     atom  108 type  1   force =   0.00000000E+00  0.00000000E+00  0.00000000E+00
     atom  109 type  1   force =   0.00000000E+00  0.00000000E+00  0.00000000E+00
     atom  110 type  1   force =   0.00000000E+00  0.00000000E+00  0.00000000E+00
     atom  111 type  1   force =   0.00000000E+00  0.00000000E+00  0.00000000E+00
     atom  112 type  1   force =   0.00000000E+00  0.00000000E+00  0.00000000E+00
     atom  113 type  1   force =   0.00000000E+00  0.00000000E+00  0.00000000E+00
     atom  114 type  1   force =   0.00000000E+00  0.00000000E+00  0.00000000E+00
     atom  115 type  1   force =   0.00000000E+00  0.00000000E+00  0.00000000E+00
     atom  116 type  1   force =   0.00000000E+00  0.00000000E+00  0.00000000E+00
     atom  117 type  1   force =   0.00000000E+00  0.00000000E+00  0.00000000E+00
     atom  118 type  1   force =   0.00000000E+00  0.00000000E+00  0.00000000E+00
     atom  119 type  1   force =   0.00000000E+00  0.00000000E+00  0.00000000E+00
     atom  120 type  1   force =   0.00000000E+00  0.00000000E+00  0.00000000E+00
     atom  121 type  1   force =   0.00000000E+00  0.00000000E+00  0.00000000E+00
     atom  122 type  1   force =   0.00000000E+00  0.00000000E+00  0.00000000E+00
     atom  123 type  1   force =   0.00000000E+00  0.00000000E+00  0.00000000E+00
     atom  124 type  1   force =   0.00000000E+00  0.00000000E+00  0.00000000E+00
     atom  125 type  1   force =   0.00000000E+00  0.00000000E+00  0.00000000E+00
     atom  126 type  1   force =   0.00000000E+00  0.00000000E+00  0.00000000E+00
     atom  127 type  1   force =   0.00000000E+00  0.00000000E+00  0.00000000E+00
     atom  128 type  1   force =   0.00000000E+00  0.00000000E+00  0.00000000E+00
     The SCF correction term to forces
     atom    1 type  1   force =  -0.22228164E-05 -0.12076648E-05  0.64763603E-06
     atom    2 type  1   force =   0.23001495E-06  0.78091200E-06  0.60724144E-06
     atom    3 type  1   force =   0.41075529E-06  0.17420265E-05 -0.36547722E-06
     atom    4 type  1   force =   0.17465292E-05  0.48747154E-06  0.29782429E-06
     atom    5 type  1   force =   0.68864521E-06 -0.56114873E-06  0.53536152E-07
     atom    6 type  1   force =   0.10511972E-05 -0.14568723E-05  0.21758274E-05
     atom    7 type  1   force =   0.11986899E-05 -0.56486042E-07  0.10818369E-05
     atom    8 type  1   force =  -0.35479734E-06 -0.24315637E-05  0.17883854E-06
     atom    9 type  1   force =   0.33807864E-06  0.13039256E-05  0.14308515E-05
     atom   10 type  1   force =   0.68156783E-06  0.16520422E-05  0.20432025E-06
     atom   11 type  1   force =   0.59995313E-07  0.12584335E-05  0.11594387E-05
     atom   12 type  1   force =   0.59249600E-06  0.11623065E-05 -0.14895668E-06
     atom   13 type  1   force =  -0.32961235E-06  0.12273306E-05  0.62219513E-06
     atom   14 type  1   force =  -0.26855487E-05 -0.92141097E-06 -0.12324139E-05
     atom   15 type  1   force =  -0.28127771E-05 -0.96714319E-06 -0.19791568E-05
     atom   16 type  1   force =  -0.69797910E-06  0.10329990E-06  0.43745143E-06
     atom   17 type  1   force =   0.14318080E-05  0.12286320E-05  0.78723181E-06
     atom   18 type  1   force =   0.41709982E-06  0.91460659E-06 -0.59459905E-06
     atom   19 type  1   force =   0.28911810E-06 -0.52921408E-06 -0.42877806E-06
     atom   20 type  1   force =  -0.22798232E-06  0.35090171E-06 -0.69836249E-07
     atom   21 type  1   force =  -0.25898564E-06 -0.14947518E-05  0.25825242E-06
     atom   22 type  1   force =  -0.58893220E-06 -0.92048785E-06  0.10951071E-05
     atom   23 type  1   force =   0.20492396E-06 -0.98036598E-06  0.15852244E-05
     atom   24 type  1   force =   0.45319916E-06 -0.42778797E-06  0.10904973E-05
     atom   25 type  1   force =  -0.16526047E-05  0.28315431E-06 -0.40193391E-06
     atom   26 type  1   force =  -0.15739849E-05  0.19346187E-05 -0.37011931E-06
     atom   27 type  1   force =  -0.14794354E-05  0.18941379E-05 -0.35464551E-06
     atom   28 type  1   force =  -0.39005738E-06  0.79565059E-06 -0.12318913E-05
     atom   29 type  1   force =  -0.73726401E-08  0.18748153E-06 -0.44351137E-06
     atom   30 type  1   force =  -0.32038687E-06 -0.37373152E-06 -0.27946412E-07
     atom   31 type  1   force =   0.50964926E-06  0.14338684E-06 -0.16655123E-06
     atom   32 type  1   force =  -0.55827865E-06  0.59375621E-06 -0.24885229E-06
     atom   33 type  1   force =  -0.30097030E-06  0.12335656E-05  0.11059790E-05
     atom   34 type  1   force =   0.30563212E-06 -0.63112752E-06  0.10421882E-05
     atom   35 type  1   force =   0.14086758E-05 -0.43589119E-06  0.83541053E-06
     atom   36 type  1   force =   0.22808829E-05 -0.43846220E-06  0.12638126E-05
     atom   37 type  1   force =   0.14254640E-05 -0.16151096E-05  0.12754177E-05
     atom   38 type  1   force =  -0.21443518E-06 -0.27486108E-05  0.12866031E-05
     atom   39 type  1   force =  -0.31822756E-06 -0.13052518E-05 -0.14498579E-05
     atom   40 type  1   force =   0.19318564E-06  0.12209761E-05  0.13898984E-05
     atom   41 type  1   force =   0.42671429E-06  0.50148807E-06 -0.18220078E-06
     atom   42 type  1   force =   0.66286949E-06  0.89846865E-06  0.37052240E-06
     atom   43 type  1   force =   0.27331333E-06  0.61754204E-06 -0.54343643E-06
     atom   44 type  1   force =   0.41387825E-07 -0.18624114E-06 -0.15639939E-05
     atom   45 type  1   force =  -0.16144183E-05 -0.15398243E-05 -0.11818703E-05
     atom   46 type  1   force =  -0.12064009E-05 -0.37829369E-06  0.68046157E-06
     atom   47 type  1   force =   0.22299738E-06  0.10020504E-05  0.67724778E-06
     atom   48 type  1   force =  -0.43791439E-06  0.63776857E-06 -0.68994540E-06
     atom   49 type  1   force =   0.23578297E-06  0.20845912E-06 -0.35279512E-06
     atom   50 type  1   force =   0.46664952E-06  0.21570124E-06 -0.53426990E-07
     atom   51 type  1   force =   0.49685549E-06 -0.93375053E-06 -0.25484879E-06
     atom   52 type  1   force =  -0.14132249E-06 -0.14290371E-05 -0.18095316E-05
     atom   53 type  1   force =   0.64765811E-06 -0.14924563E-05 -0.36742119E-06
     atom   54 type  1   force =   0.62970721E-06 -0.14689266E-05  0.76282960E-07
     atom   55 type  1   force =   0.10261493E-05 -0.22829215E-06  0.13377315E-06
     atom   56 type  1   force =   0.85710849E-06  0.89964126E-06  0.34588358E-06
     atom   57 type  1   force =  -0.70411416E-06  0.63947656E-06 -0.44419372E-06
     atom   58 type  1   force =  -0.16175890E-05 -0.70109303E-08 -0.95381245E-06
     atom   59 type  1   force =  -0.58543889E-06 -0.63466970E-06 -0.12344126E-05
     atom   60 type  1   force =   0.40588122E-06  0.85919013E-06 -0.84809960E-06
     atom   61 type  1   force =   0.25171502E-06 -0.98697750E-07 -0.11180231E-05
     atom   62 type  1   force =   0.37200153E-06 -0.18721233E-06 -0.95628018E-06
     atom   63 type  1   force =   0.65638465E-06  0.36314198E-06 -0.74798252E-06
     atom   64 type  1   force =  -0.68218545E-06  0.11135456E-05 -0.11412181E-05
     atom   65 type  1   force =  -0.73428138E-06 -0.17318071E-05  0.20056276E-05
     atom   66 type  1   force =   0.73410179E-06 -0.18878783E-05  0.18363939E-05
     atom   67 type  1   force =   0.16472761E-05 -0.23905442E-05 -0.10281429E-06
     atom   68 type  1   force =   0.25927375E-05 -0.17399415E-05 -0.14093352E-06
     atom   69 type  1   force =   0.18448001E-05 -0.12537377E-05  0.52696432E-06
     atom   70 type  1   force =   0.10016158E-05 -0.57939992E-09  0.13962652E-05
     atom   71 type  1   force =   0.34313158E-06  0.19983636E-05  0.14936925E-05
     atom   72 type  1   force =  -0.86351631E-06  0.19130033E-06  0.59658159E-06
     atom   73 type  1   force =  -0.25254734E-06  0.13769722E-06  0.53461562E-06
     atom   74 type  1   force =  -0.13349177E-05 -0.18277810E-05 -0.87470909E-06
     atom   75 type  1   force =   0.22002494E-06 -0.56379266E-06 -0.16965927E-05
     atom   76 type  1   force =  -0.70758855E-07  0.15763170E-05 -0.22024052E-05
     atom   77 type  1   force =  -0.56765279E-06  0.15914319E-05 -0.20295467E-07
     atom   78 type  1   force =  -0.27002400E-05  0.11075382E-05 -0.13282606E-05
     atom   79 type  1   force =  -0.20220912E-05  0.13568734E-05 -0.11509976E-05
     atom   80 type  1   force =   0.42570132E-06  0.29086369E-05  0.38334051E-06
     atom   81 type  1   force =   0.23076868E-06 -0.13992357E-05  0.11413739E-05
     atom   82 type  1   force =  -0.44685016E-06 -0.24057127E-05  0.49701791E-06
     atom   83 type  1   force =  -0.50264554E-07 -0.18712006E-05  0.18193225E-06
     atom   84 type  1   force =   0.10542122E-05  0.33060133E-06  0.16036444E-05
     atom   85 type  1   force =   0.37970488E-06  0.12738781E-07  0.51469762E-06
     atom   86 type  1   force =   0.20162380E-06  0.12059882E-05  0.12538098E-05
     atom   87 type  1   force =   0.13401977E-05  0.11329730E-05  0.63630352E-06
     atom   88 type  1   force =   0.16381992E-06  0.28006644E-06  0.23539388E-06
     atom   89 type  1   force =  -0.21508781E-05 -0.61652582E-06 -0.61264016E-06
     atom   90 type  1   force =  -0.10783445E-05  0.86220526E-07  0.56137160E-06
     atom   91 type  1   force =  -0.28260638E-06  0.10942680E-05 -0.17961670E-06
     atom   92 type  1   force =  -0.12810999E-05 -0.27455868E-06 -0.10974596E-05
     atom   93 type  1   force =  -0.47875736E-06  0.10492865E-05 -0.14777560E-05
     atom   94 type  1   force =   0.51844701E-07  0.17377131E-05 -0.71836149E-06
     atom   95 type  1   force =   0.13766103E-06  0.18930070E-05 -0.13161355E-05
     atom   96 type  1   force =  -0.77943313E-06  0.85549672E-06  0.36906017E-06
     atom   97 type  1   force =  -0.84627175E-06 -0.28701907E-05  0.12281356E-05
     atom   98 type  1   force =  -0.14553300E-06 -0.25684503E-05  0.55739596E-06
     atom   99 type  1   force =   0.89572543E-06  0.37281459E-06  0.52162899E-06
     atom  100 type  1   force =   0.14728932E-05  0.58979819E-06 -0.65327788E-06
     atom  101 type  1   force =   0.13274321E-05  0.15319263E-05 -0.42379941E-06
     atom  102 type  1   force =   0.86278981E-06 -0.51091642E-06  0.81884295E-07
     atom  103 type  1   force =   0.61448795E-06 -0.10590462E-05 -0.89981881E-06
     atom  104 type  1   force =   0.19983088E-05 -0.15902482E-05  0.74489587E-06
     atom  105 type  1   force =  -0.17425959E-05 -0.26978814E-05 -0.10832528E-05
     atom  106 type  1   force =   0.29779744E-06 -0.10107623E-06 -0.43967956E-06
     atom  107 type  1   force =   0.10470001E-05  0.10032732E-05 -0.12928785E-05
     atom  108 type  1   force =   0.61268091E-06  0.15506633E-05 -0.22317933E-06
     atom  109 type  1   force =  -0.49755618E-06  0.10576638E-05 -0.17944927E-05
     atom  110 type  1   force =  -0.18313088E-06  0.14681923E-05  0.67500608E-06
     atom  111 type  1   force =   0.14526258E-06  0.17818542E-05 -0.63705171E-06
     atom  112 type  1   force =  -0.18389433E-05 -0.17703932E-05 -0.20060195E-05
     atom  113 type  1   force =   0.15262077E-05 -0.25363658E-05  0.82595504E-06
     atom  114 type  1   force =   0.15444241E-05  0.31515772E-06  0.11069177E-05
     atom  115 type  1   force =   0.12662408E-05  0.10453725E-05  0.25300503E-05
     atom  116 type  1   force =  -0.59063473E-06  0.11758660E-05  0.10628288E-06
     atom  117 type  1   force =   0.27296491E-06  0.65921004E-06  0.18736100E-05
     atom  118 type  1   force =  -0.89677074E-07 -0.70961673E-06 -0.36031214E-06
     atom  119 type  1   force =   0.25728527E-06 -0.22711692E-05  0.16307874E-06
     atom  120 type  1   force =   0.82895637E-06 -0.27164529E-05  0.19600844E-06
     atom  121 type  1   force =  -0.12511421E-05 -0.11910969E-06  0.98475490E-06
     atom  122 type  1   force =  -0.16947214E-05 -0.15593380E-06 -0.74677628E-06
     atom  123 type  1   force =  -0.27626909E-05  0.11426740E-05 -0.15553892E-05
     atom  124 type  1   force =  -0.91293423E-06  0.24846438E-05 -0.59632897E-06
     atom  125 type  1   force =  -0.71669596E-06  0.32669393E-05 -0.10259315E-05
     atom  126 type  1   force =   0.62611216E-06  0.83563095E-06 -0.63738649E-06
     atom  127 type  1   force =   0.59439511E-06 -0.61858300E-06  0.45007202E-06
     atom  128 type  1   force =   0.19614579E-06 -0.10324227E-05 -0.62064577E-06

     Total force =     0.019805     Total SCF correction =     0.000022


     entering subroutine stress ...

          total   stress  (Ry/bohr**3)                   (kbar)     P=    0.42
   0.0000028240  -0.0000010070  -0.0000010107          0.42     -0.15     -0.15
  -0.0000010070   0.0000028254   0.0000003655         -0.15      0.42      0.05
  -0.0000010107   0.0000003655   0.0000028211         -0.15      0.05      0.41

     kinetic stress (kbar)   2190.11      0.10      0.10
                                0.10   2190.11     -0.04
                                0.10     -0.04   2190.11

     local   stress (kbar)   -287.60      1.18      1.20
                                1.18   -287.60     -0.43
                                1.20     -0.43   -287.59

     nonloc. stress (kbar)   1939.78     -0.14     -0.14
                               -0.14   1939.78      0.05
                               -0.14      0.05   1939.78

     hartree stress (kbar)    198.72     -0.14     -0.14
                               -0.14    198.72      0.05
                               -0.14      0.05    198.72

     exc-cor stress (kbar)    993.75     -0.00     -0.00
                               -0.00    993.75      0.00
                               -0.00      0.00    993.75

     corecor stress (kbar)  -1988.10      0.02      0.02
                                0.02  -1988.10     -0.01
                                0.02     -0.01  -1988.10

     ewald   stress (kbar)  -3046.25     -1.17     -1.18
                               -1.17  -3046.25      0.42
                               -1.18      0.42  -3046.25

     hubbard stress (kbar)      0.00      0.00      0.00
                                0.00      0.00      0.00
                                0.00      0.00      0.00

     london  stress (kbar)      0.00      0.00      0.00
                                0.00      0.00      0.00
                                0.00      0.00      0.00

     XDM     stress (kbar)      0.00      0.00      0.00
                                0.00      0.00      0.00
                                0.00      0.00      0.00

     dft-nl  stress (kbar)      0.00      0.00      0.00
                                0.00      0.00      0.00
                                0.00      0.00      0.00



     Writing output data file Si_diamond.scf.in.super.444.022.save

     init_run     :    449.50s CPU    391.22s WALL (       1 calls)
     electrons    :  12254.87s CPU  10993.21s WALL (       1 calls)
     forces       :    317.73s CPU    265.93s WALL (       1 calls)
     stress       :   1444.70s CPU   1439.33s WALL (       1 calls)

     Called by init_run:
     wfcinit      :    412.47s CPU    353.58s WALL (       1 calls)
     potinit      :      0.68s CPU      0.78s WALL (       1 calls)

     Called by electrons:
     c_bands      :  10374.30s CPU   9180.81s WALL (      13 calls)
     sum_band     :   1493.37s CPU   1419.96s WALL (      13 calls)
     v_of_rho     :      5.53s CPU      6.33s WALL (      13 calls)
     v_h          :      0.36s CPU      0.46s WALL (      13 calls)
     v_xc         :      5.94s CPU      6.77s WALL (      15 calls)
     newd         :    409.86s CPU    413.68s WALL (      13 calls)
     mix_rho      :      5.82s CPU      6.64s WALL (      13 calls)

     Called by c_bands:
     init_us_2    :     36.85s CPU     37.72s WALL (     232 calls)
     cegterg      :  10205.05s CPU   9004.83s WALL (     104 calls)

     Called by sum_band:
     sum_band:bec :      5.77s CPU      5.80s WALL (     104 calls)
     addusdens    :    272.07s CPU    273.95s WALL (      13 calls)

     Called by *egterg:
     h_psi        :   5850.26s CPU   5352.17s WALL (     460 calls)
     s_psi        :   1581.87s CPU   1123.17s WALL (     460 calls)
     g_psi        :      2.76s CPU      2.92s WALL (     348 calls)
     cdiaghg      :   1407.75s CPU   1443.77s WALL (     444 calls)
     cegterg:over :    805.80s CPU    651.35s WALL (     348 calls)
     cegterg:upda :    378.69s CPU    277.75s WALL (     348 calls)
     cegterg:last :    222.03s CPU    157.88s WALL (     108 calls)

     Called by h_psi:
     h_psi:vloc   :   2544.76s CPU   2976.04s WALL (     460 calls)
     h_psi:vnl    :   3298.68s CPU   2369.10s WALL (     460 calls)
     add_vuspsi   :   1575.52s CPU   1113.25s WALL (     460 calls)

     General routines
     calbec       :   2867.54s CPU   2200.87s WALL (     580 calls)
     fft          :     59.90s CPU     61.32s WALL (     233 calls)
     ffts         :      3.71s CPU      4.21s WALL (     225 calls)
     fftw         :   2675.68s CPU   3180.87s WALL (  204788 calls)
     interpolate  :      1.21s CPU      1.53s WALL (      26 calls)

     Parallel routines
     fft_scatter  :   1520.96s CPU   1832.10s WALL (  205246 calls)

     PWSCF        :     4h 1m CPU        3h38m WALL


   This run was terminated on:  16:25:58  18Jan2017            

=------------------------------------------------------------------------------=
   JOB DONE.
=------------------------------------------------------------------------------=
