
     Program PWSCF v.5.1 starts on 28Sep2017 at 17:41:37 

     This program is part of the open-source Quantum ESPRESSO suite
     for quantum simulation of materials; please cite
         "P. Giannozzi et al., J. Phys.:Condens. Matter 21 395502 (2009);
          URL http://www.quantum-espresso.org", 
     in publications or presentations arising from this work. More details at
     http://www.quantum-espresso.org/quote

     Parallel version (MPI), running on     8 processors
     R & G space division:  proc/nbgrp/npool/nimage =       8
     Reading input from /tmp/Si_diamond.scf.in.super.222.xyz01m.30223/Si_diamond.scf.in.super.222.xyz01m.t
Warning: card &IONS ignored
Warning: card   ION_DYNAMICS='BFGS', ignored
Warning: card / ignored
Warning: card &CELL ignored
Warning: card  CELL_DYNAMICS = 'BFGS' ignored
Warning: card / ignored
     Message from routine read_cards :
     DEPRECATED: no units specified in CELL_PARAMETERS card

     Current dimensions of program PWSCF are:
     Max number of different atomic species (ntypx) = 10
     Max number of k-points (npk) =  40000
     Max angular momentum in pseudopotentials (lmaxx) =  3
 kfg - two_fermi_energies  F

     Subspace diagonalization in iterative solution of the eigenvalue problem:
     a serial algorithm will be used


     Parallelization info
     --------------------
     sticks:   dense  smooth     PW     G-vecs:    dense   smooth      PW
     Min         363     256     71                12921     7555    1109
     Max         364     257     73                12925     7568    1110
     Sum        2905    2053    571               103379    60495    8873



     bravais-lattice index     =            0
     lattice parameter (alat)  =    14.515605984  a.u.
     unit-cell volume          =    2162.6713 (a.u.)^3
     number of atoms/cell      =           16
     number of atomic types    =            1
     number of electrons       =        64.00
     number of Kohn-Sham states=           38
     kinetic-energy cutoff     =      35.0000  Ry
     charge density cutoff     =     200.0000  Ry
     convergence threshold     =      1.0E-09
     mixing beta               =       0.3000
     number of iterations used =            8  local-TF  mixing
     Exchange-correlation      = SLA  PW   PSX  PSC ( 1  4 10  8 0)
     A smooth kinetic-energy cutoff is imposed at      34.5000 Ry
     height of the smooth step-function =             800.0000 Ry
     width of the smooth step-function  =               1.0000 Ry


     celldm(1)=  14.515606  celldm(2)=   0.000000  celldm(3)=   0.000000
     celldm(4)=   0.000000  celldm(5)=   0.000000  celldm(6)=   0.000000

     crystal axes: (cart. coord. in units of alat)
               a(1) = (  -0.000000000000   0.707106781187   0.707106781187 )  
               a(2) = (   0.707106781187  -0.000000000000   0.707106781187 )  
               a(3) = (   0.707106781187   0.707106781187  -0.000000000000 )  

     reciprocal axes: (cart. coord. in units 2 pi/alat)
               b(1) = ( -0.707107  0.707107  0.707107 )  
               b(2) = (  0.707107 -0.707107  0.707107 )  
               b(3) = (  0.707107  0.707107 -0.707107 )  


     PseudoPot. # 1 for Si read from file:
     /users/kfg/psuedo/gbrv_1.5/si.pbesol.UPF
     MD5 check sum: ef58ba74faed4df802eb8a9742fc00a8
     Pseudo is Ultrasoft + core correction, Zval =  4.0
     Generated by new atomic code, or converted to UPF format
     Using radial grid of  899 points,  6 beta functions with: 
                l(1) =   0
                l(2) =   0
                l(3) =   1
                l(4) =   1
                l(5) =   2
                l(6) =   2
     Q(r) pseudized with  8 coefficients,  rinner =    0.900   0.900   0.900
                                                       0.900   0.900

     atomic species   valence    mass     pseudopotential
        Si             4.00    28.08550     Si( 1.00)

      6 Sym. Ops. (no inversion) found


                                    s                        frac. trans.

      isym =  1     identity                                     

 cryst.   s( 1) = (     1          0          0      )
                  (     0          1          0      )
                  (     0          0          1      )

 cart.    s( 1) = (  1.0000000  0.0000000  0.0000000 )
                  (  0.0000000  1.0000000  0.0000000 )
                  (  0.0000000  0.0000000  1.0000000 )


      isym =  2     120 deg rotation - cart. axis [-1,-1,-1]     

 cryst.   s( 2) = (     0          0          1      )
                  (     1          0          0      )
                  (     0          1          0      )

 cart.    s( 2) = (  0.0000000  1.0000000  0.0000000 )
                  (  0.0000000  0.0000000  1.0000000 )
                  (  1.0000000  0.0000000  0.0000000 )


      isym =  3     120 deg rotation - cart. axis [1,1,1]        

 cryst.   s( 3) = (     0          1          0      )
                  (     0          0          1      )
                  (     1          0          0      )

 cart.    s( 3) = (  0.0000000  0.0000000  1.0000000 )
                  (  1.0000000  0.0000000  0.0000000 )
                  (  0.0000000  1.0000000  0.0000000 )


      isym =  4     inv. 180 deg rotation - cart. axis [1,-1,0]  

 cryst.   s( 4) = (     0          1          0      )
                  (     1          0          0      )
                  (     0          0          1      )

 cart.    s( 4) = (  0.0000000  1.0000000  0.0000000 )
                  (  1.0000000  0.0000000  0.0000000 )
                  (  0.0000000  0.0000000  1.0000000 )


      isym =  5     inv. 180 deg rotation - cart. axis [-1,0,1]  

 cryst.   s( 5) = (     0          0          1      )
                  (     0          1          0      )
                  (     1          0          0      )

 cart.    s( 5) = (  0.0000000  0.0000000  1.0000000 )
                  (  0.0000000  1.0000000  0.0000000 )
                  (  1.0000000  0.0000000  0.0000000 )


      isym =  6     inv. 180 deg rotation - cart. axis [0,1,-1]  

 cryst.   s( 6) = (     1          0          0      )
                  (     0          0          1      )
                  (     0          1          0      )

 cart.    s( 6) = (  1.0000000  0.0000000  0.0000000 )
                  (  0.0000000  0.0000000  1.0000000 )
                  (  0.0000000  1.0000000  0.0000000 )


     point group C_3v (3m)  
     there are  3 classes
     the character table:

       E     2C3   3s_v 
A_1    1.00  1.00  1.00
A_2    1.00  1.00 -1.00
E      2.00 -1.00  0.00

     the symmetry operations in each class:
     E        1
     2C3      2    3
     3s_v     4    5    6

   Cartesian axes

     site n.     atom                  positions (alat units)
         1           Si  tau(   1) = (   -0.01414213562   -0.01414213562   -0.01414213562  )
         2           Si  tau(   2) = (    0.17677669530    0.17677669530    0.17677669530  )
         3           Si  tau(   3) = (    0.35355339059    0.35355339059    0.00000000000  )
         4           Si  tau(   4) = (    0.53033008589    0.53033008589    0.17677669530  )
         5           Si  tau(   5) = (    0.35355339059    0.00000000000    0.35355339059  )
         6           Si  tau(   6) = (    0.53033008589    0.17677669530    0.53033008589  )
         7           Si  tau(   7) = (    0.70710678119    0.35355339059    0.35355339059  )
         8           Si  tau(   8) = (    0.88388347648    0.53033008589    0.53033008589  )
         9           Si  tau(   9) = (    0.00000000000    0.35355339059    0.35355339059  )
        10           Si  tau(  10) = (    0.17677669530    0.53033008589    0.53033008589  )
        11           Si  tau(  11) = (    0.35355339059    0.70710678119    0.35355339059  )
        12           Si  tau(  12) = (    0.53033008589    0.88388347648    0.53033008589  )
        13           Si  tau(  13) = (    0.35355339059    0.35355339059    0.70710678119  )
        14           Si  tau(  14) = (    0.53033008589    0.53033008589    0.88388347648  )
        15           Si  tau(  15) = (    0.70710678119    0.70710678119    0.70710678119  )
        16           Si  tau(  16) = (    0.88388347648    0.88388347648    0.88388347648  )

   Crystallographic axes

     site n.     atom                  positions (cryst. coord.)
         1           Si  tau(   1) = (   -0.01000000000   -0.01000000000   -0.01000000000  )
         2           Si  tau(   2) = (    0.12500000000    0.12500000000    0.12500000000  )
         3           Si  tau(   3) = (    0.00000000000    0.00000000000    0.50000000000  )
         4           Si  tau(   4) = (    0.12500000000    0.12500000000    0.62500000000  )
         5           Si  tau(   5) = (    0.00000000000    0.50000000000    0.00000000000  )
         6           Si  tau(   6) = (    0.12500000000    0.62500000000    0.12500000000  )
         7           Si  tau(   7) = (    0.00000000000    0.50000000000    0.50000000000  )
         8           Si  tau(   8) = (    0.12500000000    0.62500000000    0.62500000000  )
         9           Si  tau(   9) = (    0.50000000000    0.00000000000    0.00000000000  )
        10           Si  tau(  10) = (    0.62500000000    0.12500000000    0.12500000000  )
        11           Si  tau(  11) = (    0.50000000000    0.00000000000    0.50000000000  )
        12           Si  tau(  12) = (    0.62500000000    0.12500000000    0.62500000000  )
        13           Si  tau(  13) = (    0.50000000000    0.50000000000    0.00000000000  )
        14           Si  tau(  14) = (    0.62500000000    0.62500000000    0.12500000000  )
        15           Si  tau(  15) = (    0.50000000000    0.50000000000    0.50000000000  )
        16           Si  tau(  16) = (    0.62500000000    0.62500000000    0.62500000000  )

     number of k points=    13  gaussian smearing, width (Ry)=  0.0150
                       cart. coord. in units 2pi/alat
        k(    1) = (   0.0000000   0.0000000   0.0000000), wk =   0.0312500
        k(    2) = (   0.1767767   0.1767767  -0.1767767), wk =   0.1875000
        k(    3) = (  -0.3535534  -0.3535534   0.3535534), wk =   0.0937500
        k(    4) = (   0.3535534   0.0000000   0.0000000), wk =   0.1875000
        k(    5) = (  -0.1767767  -0.5303301   0.5303301), wk =   0.3750000
        k(    6) = (   0.0000000  -0.3535534   0.3535534), wk =   0.1875000
        k(    7) = (  -0.7071068   0.0000000   0.0000000), wk =   0.0937500
        k(    8) = (  -0.7071068   0.3535534   0.0000000), wk =   0.1875000
        k(    9) = (   0.1767767   0.1767767   0.1767767), wk =   0.0625000
        k(   10) = (  -0.3535534  -0.3535534  -0.3535534), wk =   0.0312500
        k(   11) = (   0.5303301  -0.1767767   0.5303301), wk =   0.1875000
        k(   12) = (  -0.5303301  -0.5303301  -0.1767767), wk =   0.1875000
        k(   13) = (   0.3535534   0.0000000   0.3535534), wk =   0.1875000

                       cryst. coord.
        k(    1) = (   0.0000000   0.0000000   0.0000000), wk =   0.0312500
        k(    2) = (   0.0000000   0.0000000   0.2500000), wk =   0.1875000
        k(    3) = (   0.0000000   0.0000000  -0.5000000), wk =   0.0937500
        k(    4) = (   0.0000000   0.2500000   0.2500000), wk =   0.1875000
        k(    5) = (   0.0000000   0.2500000  -0.5000000), wk =   0.3750000
        k(    6) = (   0.0000000   0.2500000  -0.2500000), wk =   0.1875000
        k(    7) = (   0.0000000  -0.5000000  -0.5000000), wk =   0.0937500
        k(    8) = (   0.2500000  -0.5000000  -0.2500000), wk =   0.1875000
        k(    9) = (   0.2500000   0.2500000   0.2500000), wk =   0.0625000
        k(   10) = (  -0.5000000  -0.5000000  -0.5000000), wk =   0.0312500
        k(   11) = (   0.2500000   0.7500000   0.2500000), wk =   0.1875000
        k(   12) = (  -0.5000000  -0.5000000  -0.7500000), wk =   0.1875000
        k(   13) = (   0.2500000   0.5000000   0.2500000), wk =   0.1875000

     Dense  grid:   103379 G-vectors     FFT dimensions: (  72,  72,  72)

     Smooth grid:    60495 G-vectors     FFT dimensions: (  60,  60,  60)

     Largest allocated arrays     est. size (Mb)     dimensions
        Kohn-Sham Wavefunctions         0.56 Mb     (     962,   38)
        NL pseudopotentials             4.23 Mb     (     962,  288)
        Each V/rho on FFT grid          0.71 Mb     (   46656)
        Each G-vector array             0.10 Mb     (   12923)
        G-vector shells                 0.01 Mb     (     706)
     Largest temporary arrays     est. size (Mb)     dimensions
        Auxiliary wavefunctions         2.23 Mb     (     962,  152)
        Each subspace H/S matrix        0.35 Mb     (     152,  152)
        Each <psi_i|beta_j> matrix      0.17 Mb     (     288,   38)
        Arrays for rho mixing           5.70 Mb     (   46656,    8)

     Initial potential from superposition of free atoms

     starting charge   63.98963, renormalised to   64.00000
     Starting wfc are   64 randomized atomic wfcs

     total cpu time spent up to now is        6.9 secs

     per-process dynamical memory:    24.1 Mb

     Self-consistent Calculation

     iteration #  1     ecut=    35.00 Ry     beta=0.30
     Davidson diagonalization with overlap
     ethr =  1.00E-02,  avg # of iterations =  3.5

     Threshold (ethr) on eigenvalues was too large:
     Diagonalizing with lowered threshold

     Davidson diagonalization with overlap
     ethr =  6.93E-04,  avg # of iterations =  1.5

     total cpu time spent up to now is       39.9 secs

     total energy              =    -153.01437240 Ry
     Harris-Foulkes estimate   =    -153.06078036 Ry
     estimated scf accuracy    <       0.43675287 Ry

     iteration #  2     ecut=    35.00 Ry     beta=0.30
     Davidson diagonalization with overlap
     ethr =  6.82E-04,  avg # of iterations =  1.0

     total cpu time spent up to now is       55.3 secs

     total energy              =    -152.92238468 Ry
     Harris-Foulkes estimate   =    -153.01644961 Ry
     estimated scf accuracy    <       0.27157855 Ry

     iteration #  3     ecut=    35.00 Ry     beta=0.30
     Davidson diagonalization with overlap
     ethr =  4.24E-04,  avg # of iterations =  1.6

     total cpu time spent up to now is       70.3 secs

     total energy              =    -152.94009710 Ry
     Harris-Foulkes estimate   =    -152.93949782 Ry
     estimated scf accuracy    <       0.00318590 Ry

     iteration #  4     ecut=    35.00 Ry     beta=0.30
     Davidson diagonalization with overlap
     c_bands:  1 eigenvalues not converged
     c_bands:  1 eigenvalues not converged
     ethr =  4.98E-06,  avg # of iterations = 11.6

     total cpu time spent up to now is      106.7 secs

     total energy              =    -152.94225923 Ry
     Harris-Foulkes estimate   =    -152.94209132 Ry
     estimated scf accuracy    <       0.00125913 Ry

     iteration #  5     ecut=    35.00 Ry     beta=0.30
     Davidson diagonalization with overlap
     c_bands:  1 eigenvalues not converged
     ethr =  1.97E-06,  avg # of iterations =  2.9

     total cpu time spent up to now is      123.2 secs

     total energy              =    -152.94233791 Ry
     Harris-Foulkes estimate   =    -152.94233190 Ry
     estimated scf accuracy    <       0.00004961 Ry

     iteration #  6     ecut=    35.00 Ry     beta=0.30
     Davidson diagonalization with overlap
     ethr =  7.75E-08,  avg # of iterations =  3.1

     total cpu time spent up to now is      143.9 secs

     total energy              =    -152.94235146 Ry
     Harris-Foulkes estimate   =    -152.94235475 Ry
     estimated scf accuracy    <       0.00001642 Ry

     iteration #  7     ecut=    35.00 Ry     beta=0.30
     Davidson diagonalization with overlap
     ethr =  2.57E-08,  avg # of iterations =  2.0

     total cpu time spent up to now is      161.3 secs

     total energy              =    -152.94235376 Ry
     Harris-Foulkes estimate   =    -152.94235299 Ry
     estimated scf accuracy    <       0.00000171 Ry

     iteration #  8     ecut=    35.00 Ry     beta=0.30
     Davidson diagonalization with overlap
     ethr =  2.68E-09,  avg # of iterations =  2.3

     total cpu time spent up to now is      178.5 secs

     total energy              =    -152.94235392 Ry
     Harris-Foulkes estimate   =    -152.94235403 Ry
     estimated scf accuracy    <       0.00000057 Ry

     iteration #  9     ecut=    35.00 Ry     beta=0.30
     Davidson diagonalization with overlap
     ethr =  8.91E-10,  avg # of iterations =  1.4

     total cpu time spent up to now is      191.8 secs

     total energy              =    -152.94235391 Ry
     Harris-Foulkes estimate   =    -152.94235395 Ry
     estimated scf accuracy    <       0.00000013 Ry

     iteration # 10     ecut=    35.00 Ry     beta=0.30
     Davidson diagonalization with overlap
     ethr =  2.06E-10,  avg # of iterations =  2.4

     total cpu time spent up to now is      208.6 secs

     total energy              =    -152.94235394 Ry
     Harris-Foulkes estimate   =    -152.94235394 Ry
     estimated scf accuracy    <       0.00000004 Ry

     iteration # 11     ecut=    35.00 Ry     beta=0.30
     Davidson diagonalization with overlap
     ethr =  6.60E-11,  avg # of iterations =  1.2

     total cpu time spent up to now is      223.6 secs

     total energy              =    -152.94235393 Ry
     Harris-Foulkes estimate   =    -152.94235394 Ry
     estimated scf accuracy    <       0.00000001 Ry

     iteration # 12     ecut=    35.00 Ry     beta=0.30
     Davidson diagonalization with overlap
     ethr =  2.08E-11,  avg # of iterations =  2.6

     total cpu time spent up to now is      244.3 secs

     total energy              =    -152.94235394 Ry
     Harris-Foulkes estimate   =    -152.94235394 Ry
     estimated scf accuracy    <          1.3E-09 Ry

     iteration # 13     ecut=    35.00 Ry     beta=0.30
     Davidson diagonalization with overlap
     ethr =  1.97E-12,  avg # of iterations =  2.8

     total cpu time spent up to now is      263.0 secs

     End of self-consistent calculation

          k = 0.0000 0.0000 0.0000 (  7631 PWs)   bands (ev):

    -5.8512  -3.5643  -3.5200  -3.5200  -3.4169  -1.7943  -1.7340  -1.7340
    -1.6855  -1.6855  -1.5317  -0.9432  -0.8726  -0.8726  -0.7310   3.2243
     3.2243   3.2594   3.2715   3.2715   3.3392   4.8102   4.8102   4.9260
     4.9469   4.9469   4.9527   4.9527   5.1400   6.0869   6.0869   6.3007
     6.6114   6.7129   6.7129   6.7429   6.8220   6.8220

     occupation numbers 
     1.0000   1.0000   1.0000   1.0000   1.0000   1.0000   1.0000   1.0000
     1.0000   1.0000   1.0000   1.0000   1.0000   1.0000   1.0000   1.0000
     1.0000   1.0000   1.0000   1.0000   1.0000   1.0000   1.0000   1.0000
     1.0000   1.0000   1.0000   1.0000   1.0000   0.9816   0.9816   0.7280
     0.0610   0.0122   0.0122   0.0070   0.0013   0.0013

          k = 0.1768 0.1768-0.1768 (  7564 PWs)   bands (ev):

    -5.6466  -4.1496  -3.4785  -3.4350  -3.3571  -2.6061  -2.5616  -2.4599
    -0.8134  -0.7374  -0.6980  -0.6488  -0.6297  -0.4355   0.1462   2.6028
     2.6464   2.6923   3.4044   3.4418   3.4850   3.7591   3.8111   3.8744
     4.4862   4.5309   4.5739   4.6627   5.0035   5.1375   5.8002   5.9796
     6.8606   6.9491   6.9809   7.7228   7.9165   8.0103

     occupation numbers 
     1.0000   1.0000   1.0000   1.0000   1.0000   1.0000   1.0000   1.0000
     1.0000   1.0000   1.0000   1.0000   1.0000   1.0000   1.0000   1.0000
     1.0000   1.0000   1.0000   1.0000   1.0000   1.0000   1.0000   1.0000
     1.0000   1.0000   1.0000   1.0000   1.0000   1.0000   1.0000   0.9977
     0.0005   0.0001   0.0000   0.0000   0.0000   0.0000

          k =-0.3536-0.3536 0.3536 (  7570 PWs)   bands (ev):

    -5.0689  -5.0284  -3.2447  -3.1712  -3.1348  -3.1226  -3.0997  -2.9477
    -0.3905  -0.3132  -0.2782  -0.2452  -0.2310  -0.0172   2.1303   2.1653
     2.4582   2.4938   2.5409   2.5618   2.5908   2.6596   3.8665   3.9020
     3.9056   3.9113   3.9408   4.0569   5.2918   5.3549   5.3653   5.5938
     7.4382   7.5466   7.5518   7.5551   7.6122   7.6915

     occupation numbers 
     1.0000   1.0000   1.0000   1.0000   1.0000   1.0000   1.0000   1.0000
     1.0000   1.0000   1.0000   1.0000   1.0000   1.0000   1.0000   1.0000
     1.0000   1.0000   1.0000   1.0000   1.0000   1.0000   1.0000   1.0000
     1.0000   1.0000   1.0000   1.0000   1.0000   1.0000   1.0000   1.0000
     0.0000   0.0000   0.0000   0.0000   0.0000   0.0000

          k = 0.3536 0.0000 0.0000 (  7563 PWs)   bands (ev):

    -5.5785  -3.7466  -3.6804  -3.6797  -3.5901  -3.4117  -1.6724  -1.6538
    -1.6059  -1.5084  -0.3637  -0.2804  -0.2697  -0.1537   0.4062   2.6388
     2.6434   2.7169   2.7181   3.4790   3.5271   3.5567   3.6626   3.6633
     3.7534   4.7491   4.7760   4.8692   4.8899   4.9872   5.3033   5.4173
     6.6447   7.5369   7.9232   7.9812   8.0179   8.0896

     occupation numbers 
     1.0000   1.0000   1.0000   1.0000   1.0000   1.0000   1.0000   1.0000
     1.0000   1.0000   1.0000   1.0000   1.0000   1.0000   1.0000   1.0000
     1.0000   1.0000   1.0000   1.0000   1.0000   1.0000   1.0000   1.0000
     1.0000   1.0000   1.0000   1.0000   1.0000   1.0000   1.0000   1.0000
     0.0378   0.0000   0.0000   0.0000   0.0000   0.0000

          k =-0.1768-0.5303 0.5303 (  7554 PWs)   bands (ev):

    -5.1105  -4.5952  -4.0619  -3.6709  -3.5750  -2.8963  -2.4123  -2.3218
    -0.8441  -0.7381  -0.5529   0.2404   0.3901   1.1936   1.4570   1.9672
     2.0284   2.1249   2.7185   2.8158   2.9164   3.1039   3.1944   3.4173
     3.7957   3.9451   4.1116   4.2121   4.2872   4.8236   4.9013   5.4455
     7.4073   7.9009   8.2045   8.3805   8.4884   8.8014

     occupation numbers 
     1.0000   1.0000   1.0000   1.0000   1.0000   1.0000   1.0000   1.0000
     1.0000   1.0000   1.0000   1.0000   1.0000   1.0000   1.0000   1.0000
     1.0000   1.0000   1.0000   1.0000   1.0000   1.0000   1.0000   1.0000
     1.0000   1.0000   1.0000   1.0000   1.0000   1.0000   1.0000   1.0000
     0.0000   0.0000   0.0000   0.0000   0.0000   0.0000

          k = 0.0000-0.3536 0.3536 (  7592 PWs)   bands (ev):

    -5.3090  -4.3289  -4.2504  -3.3010  -3.2059  -3.0069  -2.9280  -2.0708
    -1.1364  -0.7059  -0.5900   0.1295   0.2721   0.7835   0.8583   1.7600
     2.5705   2.6509   2.7248   2.7613   3.2751   3.3654   3.4154   3.7234
     3.9116   4.0129   4.2659   4.2792   4.4765   4.5228   4.7054   5.9328
     7.2526   7.9433   8.0555   8.2962   8.3299   8.6316

     occupation numbers 
     1.0000   1.0000   1.0000   1.0000   1.0000   1.0000   1.0000   1.0000
     1.0000   1.0000   1.0000   1.0000   1.0000   1.0000   1.0000   1.0000
     1.0000   1.0000   1.0000   1.0000   1.0000   1.0000   1.0000   1.0000
     1.0000   1.0000   1.0000   1.0000   1.0000   1.0000   1.0000   0.9992
     0.0000   0.0000   0.0000   0.0000   0.0000   0.0000

          k =-0.7071 0.0000 0.0000 (  7528 PWs)   bands (ev):

    -4.8114  -4.7290  -3.8770  -3.8106  -3.8069  -3.6826  -1.5776  -1.5661
    -1.5182  -1.4166   0.6005   0.6127   0.6140   0.7540   2.1682   2.1813
     2.2401   2.2665   2.2960   2.3523   2.3787   2.3985   2.6103   2.6744
     4.1341   4.2096   4.2525   4.3192   4.7130   4.8072   4.8416   4.9382
     7.1563   7.1889   8.4270   8.5022   8.5124   8.5575

     occupation numbers 
     1.0000   1.0000   1.0000   1.0000   1.0000   1.0000   1.0000   1.0000
     1.0000   1.0000   1.0000   1.0000   1.0000   1.0000   1.0000   1.0000
     1.0000   1.0000   1.0000   1.0000   1.0000   1.0000   1.0000   1.0000
     1.0000   1.0000   1.0000   1.0000   1.0000   1.0000   1.0000   1.0000
     0.0000   0.0000   0.0000   0.0000   0.0000   0.0000

          k =-0.7071 0.3536 0.0000 (  7564 PWs)   bands (ev):

    -4.6076  -4.5300  -4.5236  -4.4078  -2.7880  -2.7482  -2.7143  -2.6062
    -0.5078  -0.4740  -0.4391  -0.3357   1.7315   1.7596   1.8167   1.8281
     1.8566   1.8717   1.8857   2.0574   3.3124   3.3447   3.3944   3.4071
     3.4940   3.5147   3.5798   3.6322   4.6084   4.6820   4.7171   4.8494
     8.4320   8.4792   8.5162   8.5704   8.8676   8.8972

     occupation numbers 
     1.0000   1.0000   1.0000   1.0000   1.0000   1.0000   1.0000   1.0000
     1.0000   1.0000   1.0000   1.0000   1.0000   1.0000   1.0000   1.0000
     1.0000   1.0000   1.0000   1.0000   1.0000   1.0000   1.0000   1.0000
     1.0000   1.0000   1.0000   1.0000   1.0000   1.0000   1.0000   1.0000
     0.0000   0.0000   0.0000   0.0000   0.0000   0.0000

          k = 0.1768 0.1768 0.1768 (  7564 PWs)   bands (ev):

    -5.6492  -4.1678  -3.4339  -3.4339  -3.3613  -2.5603  -2.5603  -2.4869
    -0.7567  -0.7418  -0.7418  -0.6442  -0.6374  -0.6374   0.2473   2.6811
     2.6811   2.7382   3.3911   3.3911   3.4292   3.8537   3.8537   3.9857
     4.5114   4.5114   4.5589   4.6516   5.0232   5.0232   5.8129   5.8129
     6.8398   6.9144   6.9144   7.6927   7.9841   8.0532

     occupation numbers 
     1.0000   1.0000   1.0000   1.0000   1.0000   1.0000   1.0000   1.0000
     1.0000   1.0000   1.0000   1.0000   1.0000   1.0000   1.0000   1.0000
     1.0000   1.0000   1.0000   1.0000   1.0000   1.0000   1.0000   1.0000
     1.0000   1.0000   1.0000   1.0000   1.0000   1.0000   1.0000   1.0000
     0.0009   0.0001   0.0001   0.0000   0.0000   0.0000

          k =-0.3536-0.3536-0.3536 (  7570 PWs)   bands (ev):

    -5.1259  -4.9815  -3.1867  -3.1564  -3.1564  -3.1112  -3.1112  -2.9299
    -0.3743  -0.3305  -0.3305  -0.2482  -0.2428  -0.2428   2.1964   2.2461
     2.5480   2.5480   2.5626   2.6309   2.6309   2.9262   3.7721   3.7721
     3.8752   3.9456   3.9844   3.9844   5.2686   5.2686   5.4262   5.4262
     7.3837   7.4832   7.4832   7.5825   7.6072   7.6072

     occupation numbers 
     1.0000   1.0000   1.0000   1.0000   1.0000   1.0000   1.0000   1.0000
     1.0000   1.0000   1.0000   1.0000   1.0000   1.0000   1.0000   1.0000
     1.0000   1.0000   1.0000   1.0000   1.0000   1.0000   1.0000   1.0000
     1.0000   1.0000   1.0000   1.0000   1.0000   1.0000   1.0000   1.0000
     0.0000   0.0000   0.0000   0.0000   0.0000   0.0000

          k = 0.5303-0.1768 0.5303 (  7554 PWs)   bands (ev):

    -5.1079  -4.6070  -4.0502  -3.6369  -3.5967  -2.9373  -2.3841  -2.3231
    -0.8228  -0.8195  -0.4300   0.2508   0.2619   1.2314   1.4984   2.0157
     2.0239   2.0717   2.7390   2.7801   2.8761   3.1475   3.1509   3.4225
     3.8345   3.8812   4.1632   4.2314   4.3099   4.7869   5.0217   5.3215
     7.3777   7.8460   8.1953   8.4451   8.4830   8.7868

     occupation numbers 
     1.0000   1.0000   1.0000   1.0000   1.0000   1.0000   1.0000   1.0000
     1.0000   1.0000   1.0000   1.0000   1.0000   1.0000   1.0000   1.0000
     1.0000   1.0000   1.0000   1.0000   1.0000   1.0000   1.0000   1.0000
     1.0000   1.0000   1.0000   1.0000   1.0000   1.0000   1.0000   1.0000
     0.0000   0.0000   0.0000   0.0000   0.0000   0.0000

          k =-0.5303-0.5303-0.1768 (  7554 PWs)   bands (ev):

    -5.1201  -4.5961  -4.0523  -3.6362  -3.5936  -2.9087  -2.3817  -2.3178
    -0.8295  -0.8216  -0.5311   0.2352   0.2536   1.1531   1.5500   2.0401
     2.0493   2.1770   2.7694   2.8064   2.9882   3.1163   3.1426   3.5244
     3.7684   3.8605   4.1621   4.2390   4.2787   4.7760   4.8496   5.3433
     7.3627   7.8589   8.1940   8.3670   8.4187   8.7719

     occupation numbers 
     1.0000   1.0000   1.0000   1.0000   1.0000   1.0000   1.0000   1.0000
     1.0000   1.0000   1.0000   1.0000   1.0000   1.0000   1.0000   1.0000
     1.0000   1.0000   1.0000   1.0000   1.0000   1.0000   1.0000   1.0000
     1.0000   1.0000   1.0000   1.0000   1.0000   1.0000   1.0000   1.0000
     0.0000   0.0000   0.0000   0.0000   0.0000   0.0000

          k = 0.3536 0.0000 0.3536 (  7592 PWs)   bands (ev):

    -5.3148  -4.3314  -4.2483  -3.2639  -3.2489  -2.9776  -2.8904  -2.1211
    -1.0645  -0.7235  -0.6880   0.1427   0.1508   0.7893   0.9134   1.8013
     2.6330   2.6469   2.7692   2.7887   3.3312   3.3847   3.5041   3.6626
     3.9401   3.9592   4.2481   4.3621   4.4612   4.5411   4.5650   5.8031
     7.2003   7.9647   7.9946   8.2511   8.3281   8.6405

     occupation numbers 
     1.0000   1.0000   1.0000   1.0000   1.0000   1.0000   1.0000   1.0000
     1.0000   1.0000   1.0000   1.0000   1.0000   1.0000   1.0000   1.0000
     1.0000   1.0000   1.0000   1.0000   1.0000   1.0000   1.0000   1.0000
     1.0000   1.0000   1.0000   1.0000   1.0000   1.0000   1.0000   1.0000
     0.0000   0.0000   0.0000   0.0000   0.0000   0.0000

     the Fermi energy is     6.3883 ev

!    total energy              =    -152.94235394 Ry
     Harris-Foulkes estimate   =    -152.94235394 Ry
     estimated scf accuracy    <          2.2E-10 Ry

     The total energy is the sum of the following terms:

     one-electron contribution =      40.78958219 Ry
     hartree contribution      =       8.78960560 Ry
     xc contribution           =     -68.21860141 Ry
     ewald contribution        =    -134.30253899 Ry
     smearing contrib. (-TS)   =      -0.00040133 Ry

     convergence has been achieved in  13 iterations

     Forces acting on atoms (Ry/au):

     atom    1 type  1   force =   0.43487708E-01  0.43487708E-01  0.43487708E-01
     atom    2 type  1   force =  -0.23578181E-01 -0.23578181E-01 -0.23578181E-01
     atom    3 type  1   force =  -0.40308662E-02 -0.40308662E-02  0.34821208E-02
     atom    4 type  1   force =  -0.13676490E-01 -0.13676490E-01  0.68827757E-02
     atom    5 type  1   force =  -0.40308662E-02  0.34821208E-02 -0.40308662E-02
     atom    6 type  1   force =  -0.13676490E-01  0.68827757E-02 -0.13676490E-01
     atom    7 type  1   force =   0.33766830E-02 -0.69321075E-04 -0.69321075E-04
     atom    8 type  1   force =   0.16586185E-02  0.63983466E-03  0.63983466E-03
     atom    9 type  1   force =   0.34821208E-02 -0.40308662E-02 -0.40308662E-02
     atom   10 type  1   force =   0.68827757E-02 -0.13676490E-01 -0.13676490E-01
     atom   11 type  1   force =  -0.69321075E-04  0.33766830E-02 -0.69321075E-04
     atom   12 type  1   force =   0.63983466E-03  0.16586185E-02  0.63983466E-03
     atom   13 type  1   force =  -0.69321075E-04 -0.69321075E-04  0.33766830E-02
     atom   14 type  1   force =   0.63983466E-03  0.63983466E-03  0.16586185E-02
     atom   15 type  1   force =  -0.62432555E-03 -0.62432555E-03 -0.62432555E-03
     atom   16 type  1   force =  -0.41171446E-03 -0.41171446E-03 -0.41171446E-03
     The non-local contrib.  to forces
     atom    1 type  1   force =   0.41485958E-01  0.41485958E-01  0.41485958E-01
     atom    2 type  1   force =  -0.31070771E-01 -0.31070771E-01 -0.31070771E-01
     atom    3 type  1   force =  -0.21115878E-02 -0.21115878E-02 -0.42006624E-02
     atom    4 type  1   force =  -0.75581003E-02 -0.75581003E-02  0.21206583E-01
     atom    5 type  1   force =  -0.21115878E-02 -0.42006624E-02 -0.21115878E-02
     atom    6 type  1   force =  -0.75581003E-02  0.21206583E-01 -0.75581003E-02
     atom    7 type  1   force =  -0.35319735E-02 -0.11986253E-02 -0.11986253E-02
     atom    8 type  1   force =  -0.22171845E-02 -0.63572278E-03 -0.63572278E-03
     atom    9 type  1   force =  -0.42006624E-02 -0.21115878E-02 -0.21115878E-02
     atom   10 type  1   force =   0.21206583E-01 -0.75581003E-02 -0.75581003E-02
     atom   11 type  1   force =  -0.11986253E-02 -0.35319735E-02 -0.11986253E-02
     atom   12 type  1   force =  -0.63572278E-03 -0.22171845E-02 -0.63572278E-03
     atom   13 type  1   force =  -0.11986253E-02 -0.11986253E-02 -0.35319735E-02
     atom   14 type  1   force =  -0.63572278E-03 -0.63572278E-03 -0.22171845E-02
     atom   15 type  1   force =   0.85954716E-03  0.85954716E-03  0.85954716E-03
     atom   16 type  1   force =   0.88068066E-03  0.88068066E-03  0.88068066E-03
     The ionic contribution  to forces
     atom    1 type  1   force =   0.15561776E+00  0.15561776E+00  0.15561776E+00
     atom    2 type  1   force =  -0.14583470E+00 -0.14583470E+00 -0.14583470E+00
     atom    3 type  1   force =  -0.69862493E-01 -0.69862493E-01  0.13916053E-01
     atom    4 type  1   force =  -0.19834279E-02 -0.19834279E-02  0.13790074E+00
     atom    5 type  1   force =  -0.69862493E-01  0.13916053E-01 -0.69862493E-01
     atom    6 type  1   force =  -0.19834279E-02  0.13790074E+00 -0.19834279E-02
     atom    7 type  1   force =   0.13451772E-01  0.17906723E-01  0.17906723E-01
     atom    8 type  1   force =  -0.35917628E-01 -0.13564767E-01 -0.13564767E-01
     atom    9 type  1   force =   0.13916053E-01 -0.69862493E-01 -0.69862493E-01
     atom   10 type  1   force =   0.13790074E+00 -0.19834279E-02 -0.19834279E-02
     atom   11 type  1   force =   0.17906723E-01  0.13451772E-01  0.17906723E-01
     atom   12 type  1   force =  -0.13564767E-01 -0.35917628E-01 -0.13564767E-01
     atom   13 type  1   force =   0.17906723E-01  0.17906723E-01  0.13451772E-01
     atom   14 type  1   force =  -0.13564767E-01 -0.13564767E-01 -0.35917628E-01
     atom   15 type  1   force =  -0.12658333E-01 -0.12658333E-01 -0.12658333E-01
     atom   16 type  1   force =   0.85322604E-02  0.85322604E-02  0.85322604E-02
     The local contribution  to forces
     atom    1 type  1   force =  -0.14999153E+00 -0.14999153E+00 -0.14999153E+00
     atom    2 type  1   force =   0.15021660E+00  0.15021660E+00  0.15021660E+00
     atom    3 type  1   force =   0.67786964E-01  0.67786964E-01 -0.65765146E-02
     atom    4 type  1   force =  -0.48246827E-02 -0.48246827E-02 -0.15002950E+00
     atom    5 type  1   force =   0.67786964E-01 -0.65765146E-02  0.67786964E-01
     atom    6 type  1   force =  -0.48246827E-02 -0.15002950E+00 -0.48246827E-02
     atom    7 type  1   force =  -0.68334793E-02 -0.16871362E-01 -0.16871362E-01
     atom    8 type  1   force =   0.39620457E-01  0.14789294E-01  0.14789294E-01
     atom    9 type  1   force =  -0.65765146E-02  0.67786964E-01  0.67786964E-01
     atom   10 type  1   force =  -0.15002950E+00 -0.48246827E-02 -0.48246827E-02
     atom   11 type  1   force =  -0.16871362E-01 -0.68334793E-02 -0.16871362E-01
     atom   12 type  1   force =   0.14789294E-01  0.39620457E-01  0.14789294E-01
     atom   13 type  1   force =  -0.16871362E-01 -0.16871362E-01 -0.68334793E-02
     atom   14 type  1   force =   0.14789294E-01  0.14789294E-01  0.39620457E-01
     atom   15 type  1   force =   0.11246124E-01  0.11246124E-01  0.11246124E-01
     atom   16 type  1   force =  -0.97582907E-02 -0.97582907E-02 -0.97582907E-02
     The core correction contribution to forces
     atom    1 type  1   force =  -0.36243418E-02 -0.36243418E-02 -0.36243418E-02
     atom    2 type  1   force =   0.31110184E-02  0.31110184E-02  0.31110184E-02
     atom    3 type  1   force =   0.15618614E-03  0.15618614E-03  0.34332689E-03
     atom    4 type  1   force =   0.68915303E-03  0.68915303E-03 -0.21995487E-02
     atom    5 type  1   force =   0.15618614E-03  0.34332689E-03  0.15618614E-03
     atom    6 type  1   force =   0.68915303E-03 -0.21995487E-02  0.68915303E-03
     atom    7 type  1   force =   0.29150730E-03  0.92555504E-04  0.92555504E-04
     atom    8 type  1   force =   0.17727383E-03  0.52301569E-04  0.52301569E-04
     atom    9 type  1   force =   0.34332689E-03  0.15618614E-03  0.15618614E-03
     atom   10 type  1   force =  -0.21995487E-02  0.68915303E-03  0.68915303E-03
     atom   11 type  1   force =   0.92555504E-04  0.29150730E-03  0.92555504E-04
     atom   12 type  1   force =   0.52301569E-04  0.17727383E-03  0.52301569E-04
     atom   13 type  1   force =   0.92555504E-04  0.92555504E-04  0.29150730E-03
     atom   14 type  1   force =   0.52301569E-04  0.52301569E-04  0.17727383E-03
     atom   15 type  1   force =  -0.70333371E-04 -0.70333371E-04 -0.70333371E-04
     atom   16 type  1   force =  -0.67533877E-04 -0.67533877E-04 -0.67533877E-04
     The Hubbard contrib.    to forces
     atom    1 type  1   force =   0.00000000E+00  0.00000000E+00  0.00000000E+00
     atom    2 type  1   force =   0.00000000E+00  0.00000000E+00  0.00000000E+00
     atom    3 type  1   force =   0.00000000E+00  0.00000000E+00  0.00000000E+00
     atom    4 type  1   force =   0.00000000E+00  0.00000000E+00  0.00000000E+00
     atom    5 type  1   force =   0.00000000E+00  0.00000000E+00  0.00000000E+00
     atom    6 type  1   force =   0.00000000E+00  0.00000000E+00  0.00000000E+00
     atom    7 type  1   force =   0.00000000E+00  0.00000000E+00  0.00000000E+00
     atom    8 type  1   force =   0.00000000E+00  0.00000000E+00  0.00000000E+00
     atom    9 type  1   force =   0.00000000E+00  0.00000000E+00  0.00000000E+00
     atom   10 type  1   force =   0.00000000E+00  0.00000000E+00  0.00000000E+00
     atom   11 type  1   force =   0.00000000E+00  0.00000000E+00  0.00000000E+00
     atom   12 type  1   force =   0.00000000E+00  0.00000000E+00  0.00000000E+00
     atom   13 type  1   force =   0.00000000E+00  0.00000000E+00  0.00000000E+00
     atom   14 type  1   force =   0.00000000E+00  0.00000000E+00  0.00000000E+00
     atom   15 type  1   force =   0.00000000E+00  0.00000000E+00  0.00000000E+00
     atom   16 type  1   force =   0.00000000E+00  0.00000000E+00  0.00000000E+00
     The SCF correction term to forces
     atom    1 type  1   force =  -0.12750429E-06 -0.12750429E-06 -0.12750429E-06
     atom    2 type  1   force =  -0.30983408E-06 -0.30983408E-06 -0.30983408E-06
     atom    3 type  1   force =   0.81767848E-07  0.81767848E-07 -0.64110079E-07
     atom    4 type  1   force =   0.58528321E-06  0.58528321E-06  0.45112882E-05
     atom    5 type  1   force =   0.81767848E-07 -0.64110079E-07  0.81767848E-07
     atom    6 type  1   force =   0.58528321E-06  0.45112882E-05  0.58528321E-06
     atom    7 type  1   force =  -0.11255956E-05  0.14048620E-05  0.14048620E-05
     atom    8 type  1   force =  -0.42823774E-05 -0.12537367E-05 -0.12537367E-05
     atom    9 type  1   force =  -0.64110079E-07  0.81767848E-07  0.81767848E-07
     atom   10 type  1   force =   0.45112882E-05  0.58528321E-06  0.58528321E-06
     atom   11 type  1   force =   0.14048620E-05 -0.11255956E-05  0.14048620E-05
     atom   12 type  1   force =  -0.12537367E-05 -0.42823774E-05 -0.12537367E-05
     atom   13 type  1   force =   0.14048620E-05  0.14048620E-05 -0.11255956E-05
     atom   14 type  1   force =  -0.12537367E-05 -0.12537367E-05 -0.42823774E-05
     atom   15 type  1   force =  -0.13123842E-05 -0.13123842E-05 -0.13123842E-05
     atom   16 type  1   force =   0.11866110E-05  0.11866110E-05  0.11866110E-05

     Total force =     0.093735     Total SCF correction =     0.000012


     entering subroutine stress ...

          total   stress  (Ry/bohr**3)                   (kbar)     P=    1.75
   0.0000119205  -0.0000292883  -0.0000292883          1.75     -4.31     -4.31
  -0.0000292883   0.0000119205  -0.0000292883         -4.31      1.75     -4.31
  -0.0000292883  -0.0000292883   0.0000119205         -4.31     -4.31      1.75

     kinetic stress (kbar)   2190.59      3.56      3.56
                                3.56   2190.59      3.56
                                3.56      3.56   2190.59

     local   stress (kbar)   -289.24     41.83     41.83
                               41.83   -289.24     41.83
                               41.83     41.83   -289.24

     nonloc. stress (kbar)   1940.62     -4.64     -4.64
                               -4.64   1940.62     -4.64
                               -4.64     -4.64   1940.62

     hartree stress (kbar)    199.29     -5.18     -5.18
                               -5.18    199.29     -5.18
                               -5.18     -5.18    199.29

     exc-cor stress (kbar)    993.78     -0.06     -0.06
                               -0.06    993.78     -0.06
                               -0.06     -0.06    993.78

     corecor stress (kbar)  -1988.19      0.55      0.55
                                0.55  -1988.19      0.55
                                0.55      0.55  -1988.19

     ewald   stress (kbar)  -3045.09    -40.37    -40.37
                              -40.37  -3045.09    -40.37
                              -40.37    -40.37  -3045.09

     hubbard stress (kbar)      0.00      0.00      0.00
                                0.00      0.00      0.00
                                0.00      0.00      0.00

     london  stress (kbar)      0.00      0.00      0.00
                                0.00      0.00      0.00
                                0.00      0.00      0.00

     XDM     stress (kbar)      0.00      0.00      0.00
                                0.00      0.00      0.00
                                0.00      0.00      0.00

     dft-nl  stress (kbar)      0.00      0.00      0.00
                                0.00      0.00      0.00
                                0.00      0.00      0.00



     Writing output data file Si_diamond.scf.in.super.222.xyz01m.save

     init_run     :      7.37s CPU      6.78s WALL (       1 calls)
     electrons    :    244.77s CPU    256.12s WALL (       1 calls)
     forces       :      4.24s CPU      4.18s WALL (       1 calls)
     stress       :     17.88s CPU     18.08s WALL (       1 calls)

     Called by init_run:
     wfcinit      :      5.82s CPU      5.20s WALL (       1 calls)
     potinit      :      0.14s CPU      0.15s WALL (       1 calls)

     Called by electrons:
     c_bands      :    188.93s CPU    199.01s WALL (      14 calls)
     sum_band     :     42.30s CPU     43.45s WALL (      14 calls)
     v_of_rho     :      1.82s CPU      1.85s WALL (      14 calls)
     v_h          :      0.11s CPU      0.12s WALL (      14 calls)
     v_xc         :      1.92s CPU      1.95s WALL (      16 calls)
     newd         :     10.55s CPU     10.62s WALL (      14 calls)
     mix_rho      :      1.76s CPU      1.78s WALL (      14 calls)

     Called by c_bands:
     init_us_2    :      2.09s CPU      2.17s WALL (     403 calls)
     cegterg      :    179.05s CPU    188.72s WALL (     182 calls)

     Called by sum_band:
     sum_band:bec :      0.16s CPU      0.16s WALL (     182 calls)
     addusdens    :     10.39s CPU     10.59s WALL (      14 calls)

     Called by *egterg:
     h_psi        :    126.00s CPU    128.98s WALL (     714 calls)
     s_psi        :      9.66s CPU      8.82s WALL (     714 calls)
     g_psi        :      0.26s CPU      0.25s WALL (     519 calls)
     cdiaghg      :      8.32s CPU      9.22s WALL (     688 calls)
     cegterg:over :     19.51s CPU     21.89s WALL (     519 calls)
     cegterg:upda :      3.87s CPU      5.22s WALL (     519 calls)
     cegterg:last :      1.56s CPU      1.80s WALL (     192 calls)

     Called by h_psi:
     h_psi:vloc   :     96.71s CPU     98.94s WALL (     714 calls)
     h_psi:vnl    :     29.05s CPU     29.77s WALL (     714 calls)
     add_vuspsi   :      9.71s CPU      9.80s WALL (     714 calls)

     General routines
     calbec       :     28.63s CPU     29.47s WALL (     922 calls)
     fft          :      2.41s CPU      2.45s WALL (     249 calls)
     ffts         :      0.95s CPU      0.96s WALL (     242 calls)
     fftw         :    107.12s CPU    109.95s WALL (   43396 calls)
     interpolate  :      0.34s CPU      0.36s WALL (      28 calls)

     Parallel routines
     fft_scatter  :     72.61s CPU     74.55s WALL (   43887 calls)

     PWSCF        :  4m34.99s CPU     4m46.03s WALL


   This run was terminated on:  17:46:23  28Sep2017            

=------------------------------------------------------------------------------=
   JOB DONE.
=------------------------------------------------------------------------------=
