
     Program PWSCF v.5.1 starts on 28Sep2017 at 17: 0:38 

     This program is part of the open-source Quantum ESPRESSO suite
     for quantum simulation of materials; please cite
         "P. Giannozzi et al., J. Phys.:Condens. Matter 21 395502 (2009);
          URL http://www.quantum-espresso.org", 
     in publications or presentations arising from this work. More details at
     http://www.quantum-espresso.org/quote

     Parallel version (MPI), running on     8 processors
     R & G space division:  proc/nbgrp/npool/nimage =       8
     Reading input from /tmp/Si_diamond.scf.in.super.222.xyz01.17112/Si_diamond.scf.in.super.222.xyz01.t
Warning: card &IONS ignored
Warning: card   ION_DYNAMICS='BFGS', ignored
Warning: card / ignored
Warning: card &CELL ignored
Warning: card  CELL_DYNAMICS = 'BFGS' ignored
Warning: card / ignored
     Message from routine read_cards :
     DEPRECATED: no units specified in CELL_PARAMETERS card

     Current dimensions of program PWSCF are:
     Max number of different atomic species (ntypx) = 10
     Max number of k-points (npk) =  40000
     Max angular momentum in pseudopotentials (lmaxx) =  3
 kfg - two_fermi_energies  F

     Subspace diagonalization in iterative solution of the eigenvalue problem:
     a serial algorithm will be used


     Parallelization info
     --------------------
     sticks:   dense  smooth     PW     G-vecs:    dense   smooth      PW
     Min         363     256     71                12921     7555    1109
     Max         364     257     73                12925     7568    1110
     Sum        2905    2053    571               103379    60495    8873



     bravais-lattice index     =            0
     lattice parameter (alat)  =    14.515605984  a.u.
     unit-cell volume          =    2162.6713 (a.u.)^3
     number of atoms/cell      =           16
     number of atomic types    =            1
     number of electrons       =        64.00
     number of Kohn-Sham states=           38
     kinetic-energy cutoff     =      35.0000  Ry
     charge density cutoff     =     200.0000  Ry
     convergence threshold     =      1.0E-09
     mixing beta               =       0.3000
     number of iterations used =            8  local-TF  mixing
     Exchange-correlation      = SLA  PW   PSX  PSC ( 1  4 10  8 0)
     A smooth kinetic-energy cutoff is imposed at      34.5000 Ry
     height of the smooth step-function =             800.0000 Ry
     width of the smooth step-function  =               1.0000 Ry


     celldm(1)=  14.515606  celldm(2)=   0.000000  celldm(3)=   0.000000
     celldm(4)=   0.000000  celldm(5)=   0.000000  celldm(6)=   0.000000

     crystal axes: (cart. coord. in units of alat)
               a(1) = (  -0.000000000000   0.707106781187   0.707106781187 )  
               a(2) = (   0.707106781187  -0.000000000000   0.707106781187 )  
               a(3) = (   0.707106781187   0.707106781187  -0.000000000000 )  

     reciprocal axes: (cart. coord. in units 2 pi/alat)
               b(1) = ( -0.707107  0.707107  0.707107 )  
               b(2) = (  0.707107 -0.707107  0.707107 )  
               b(3) = (  0.707107  0.707107 -0.707107 )  


     PseudoPot. # 1 for Si read from file:
     /users/kfg/psuedo/gbrv_1.5/si.pbesol.UPF
     MD5 check sum: ef58ba74faed4df802eb8a9742fc00a8
     Pseudo is Ultrasoft + core correction, Zval =  4.0
     Generated by new atomic code, or converted to UPF format
     Using radial grid of  899 points,  6 beta functions with: 
                l(1) =   0
                l(2) =   0
                l(3) =   1
                l(4) =   1
                l(5) =   2
                l(6) =   2
     Q(r) pseudized with  8 coefficients,  rinner =    0.900   0.900   0.900
                                                       0.900   0.900

     atomic species   valence    mass     pseudopotential
        Si             4.00    28.08550     Si( 1.00)

      6 Sym. Ops. (no inversion) found


                                    s                        frac. trans.

      isym =  1     identity                                     

 cryst.   s( 1) = (     1          0          0      )
                  (     0          1          0      )
                  (     0          0          1      )

 cart.    s( 1) = (  1.0000000  0.0000000  0.0000000 )
                  (  0.0000000  1.0000000  0.0000000 )
                  (  0.0000000  0.0000000  1.0000000 )


      isym =  2     120 deg rotation - cart. axis [-1,-1,-1]     

 cryst.   s( 2) = (     0          0          1      )
                  (     1          0          0      )
                  (     0          1          0      )

 cart.    s( 2) = (  0.0000000  1.0000000  0.0000000 )
                  (  0.0000000  0.0000000  1.0000000 )
                  (  1.0000000  0.0000000  0.0000000 )


      isym =  3     120 deg rotation - cart. axis [1,1,1]        

 cryst.   s( 3) = (     0          1          0      )
                  (     0          0          1      )
                  (     1          0          0      )

 cart.    s( 3) = (  0.0000000  0.0000000  1.0000000 )
                  (  1.0000000  0.0000000  0.0000000 )
                  (  0.0000000  1.0000000  0.0000000 )


      isym =  4     inv. 180 deg rotation - cart. axis [1,-1,0]  

 cryst.   s( 4) = (     0          1          0      )
                  (     1          0          0      )
                  (     0          0          1      )

 cart.    s( 4) = (  0.0000000  1.0000000  0.0000000 )
                  (  1.0000000  0.0000000  0.0000000 )
                  (  0.0000000  0.0000000  1.0000000 )


      isym =  5     inv. 180 deg rotation - cart. axis [-1,0,1]  

 cryst.   s( 5) = (     0          0          1      )
                  (     0          1          0      )
                  (     1          0          0      )

 cart.    s( 5) = (  0.0000000  0.0000000  1.0000000 )
                  (  0.0000000  1.0000000  0.0000000 )
                  (  1.0000000  0.0000000  0.0000000 )


      isym =  6     inv. 180 deg rotation - cart. axis [0,1,-1]  

 cryst.   s( 6) = (     1          0          0      )
                  (     0          0          1      )
                  (     0          1          0      )

 cart.    s( 6) = (  1.0000000  0.0000000  0.0000000 )
                  (  0.0000000  0.0000000  1.0000000 )
                  (  0.0000000  1.0000000  0.0000000 )


     point group C_3v (3m)  
     there are  3 classes
     the character table:

       E     2C3   3s_v 
A_1    1.00  1.00  1.00
A_2    1.00  1.00 -1.00
E      2.00 -1.00  0.00

     the symmetry operations in each class:
     E        1
     2C3      2    3
     3s_v     4    5    6

   Cartesian axes

     site n.     atom                  positions (alat units)
         1           Si  tau(   1) = (    0.01414213562    0.01414213562    0.01414213562  )
         2           Si  tau(   2) = (    0.17677669530    0.17677669530    0.17677669530  )
         3           Si  tau(   3) = (    0.35355339059    0.35355339059    0.00000000000  )
         4           Si  tau(   4) = (    0.53033008589    0.53033008589    0.17677669530  )
         5           Si  tau(   5) = (    0.35355339059    0.00000000000    0.35355339059  )
         6           Si  tau(   6) = (    0.53033008589    0.17677669530    0.53033008589  )
         7           Si  tau(   7) = (    0.70710678119    0.35355339059    0.35355339059  )
         8           Si  tau(   8) = (    0.88388347648    0.53033008589    0.53033008589  )
         9           Si  tau(   9) = (    0.00000000000    0.35355339059    0.35355339059  )
        10           Si  tau(  10) = (    0.17677669530    0.53033008589    0.53033008589  )
        11           Si  tau(  11) = (    0.35355339059    0.70710678119    0.35355339059  )
        12           Si  tau(  12) = (    0.53033008589    0.88388347648    0.53033008589  )
        13           Si  tau(  13) = (    0.35355339059    0.35355339059    0.70710678119  )
        14           Si  tau(  14) = (    0.53033008589    0.53033008589    0.88388347648  )
        15           Si  tau(  15) = (    0.70710678119    0.70710678119    0.70710678119  )
        16           Si  tau(  16) = (    0.88388347648    0.88388347648    0.88388347648  )

   Crystallographic axes

     site n.     atom                  positions (cryst. coord.)
         1           Si  tau(   1) = (    0.01000000000    0.01000000000    0.01000000000  )
         2           Si  tau(   2) = (    0.12500000000    0.12500000000    0.12500000000  )
         3           Si  tau(   3) = (    0.00000000000    0.00000000000    0.50000000000  )
         4           Si  tau(   4) = (    0.12500000000    0.12500000000    0.62500000000  )
         5           Si  tau(   5) = (    0.00000000000    0.50000000000    0.00000000000  )
         6           Si  tau(   6) = (    0.12500000000    0.62500000000    0.12500000000  )
         7           Si  tau(   7) = (    0.00000000000    0.50000000000    0.50000000000  )
         8           Si  tau(   8) = (    0.12500000000    0.62500000000    0.62500000000  )
         9           Si  tau(   9) = (    0.50000000000    0.00000000000    0.00000000000  )
        10           Si  tau(  10) = (    0.62500000000    0.12500000000    0.12500000000  )
        11           Si  tau(  11) = (    0.50000000000    0.00000000000    0.50000000000  )
        12           Si  tau(  12) = (    0.62500000000    0.12500000000    0.62500000000  )
        13           Si  tau(  13) = (    0.50000000000    0.50000000000    0.00000000000  )
        14           Si  tau(  14) = (    0.62500000000    0.62500000000    0.12500000000  )
        15           Si  tau(  15) = (    0.50000000000    0.50000000000    0.50000000000  )
        16           Si  tau(  16) = (    0.62500000000    0.62500000000    0.62500000000  )

     number of k points=    13  gaussian smearing, width (Ry)=  0.0150
                       cart. coord. in units 2pi/alat
        k(    1) = (   0.0000000   0.0000000   0.0000000), wk =   0.0312500
        k(    2) = (   0.1767767   0.1767767  -0.1767767), wk =   0.1875000
        k(    3) = (  -0.3535534  -0.3535534   0.3535534), wk =   0.0937500
        k(    4) = (   0.3535534   0.0000000   0.0000000), wk =   0.1875000
        k(    5) = (  -0.1767767  -0.5303301   0.5303301), wk =   0.3750000
        k(    6) = (   0.0000000  -0.3535534   0.3535534), wk =   0.1875000
        k(    7) = (  -0.7071068   0.0000000   0.0000000), wk =   0.0937500
        k(    8) = (  -0.7071068   0.3535534   0.0000000), wk =   0.1875000
        k(    9) = (   0.1767767   0.1767767   0.1767767), wk =   0.0625000
        k(   10) = (  -0.3535534  -0.3535534  -0.3535534), wk =   0.0312500
        k(   11) = (   0.5303301  -0.1767767   0.5303301), wk =   0.1875000
        k(   12) = (  -0.5303301  -0.5303301  -0.1767767), wk =   0.1875000
        k(   13) = (   0.3535534   0.0000000   0.3535534), wk =   0.1875000

                       cryst. coord.
        k(    1) = (   0.0000000   0.0000000   0.0000000), wk =   0.0312500
        k(    2) = (   0.0000000   0.0000000   0.2500000), wk =   0.1875000
        k(    3) = (   0.0000000   0.0000000  -0.5000000), wk =   0.0937500
        k(    4) = (   0.0000000   0.2500000   0.2500000), wk =   0.1875000
        k(    5) = (   0.0000000   0.2500000  -0.5000000), wk =   0.3750000
        k(    6) = (   0.0000000   0.2500000  -0.2500000), wk =   0.1875000
        k(    7) = (   0.0000000  -0.5000000  -0.5000000), wk =   0.0937500
        k(    8) = (   0.2500000  -0.5000000  -0.2500000), wk =   0.1875000
        k(    9) = (   0.2500000   0.2500000   0.2500000), wk =   0.0625000
        k(   10) = (  -0.5000000  -0.5000000  -0.5000000), wk =   0.0312500
        k(   11) = (   0.2500000   0.7500000   0.2500000), wk =   0.1875000
        k(   12) = (  -0.5000000  -0.5000000  -0.7500000), wk =   0.1875000
        k(   13) = (   0.2500000   0.5000000   0.2500000), wk =   0.1875000

     Dense  grid:   103379 G-vectors     FFT dimensions: (  72,  72,  72)

     Smooth grid:    60495 G-vectors     FFT dimensions: (  60,  60,  60)

     Largest allocated arrays     est. size (Mb)     dimensions
        Kohn-Sham Wavefunctions         0.56 Mb     (     962,   38)
        NL pseudopotentials             4.23 Mb     (     962,  288)
        Each V/rho on FFT grid          0.71 Mb     (   46656)
        Each G-vector array             0.10 Mb     (   12923)
        G-vector shells                 0.01 Mb     (     706)
     Largest temporary arrays     est. size (Mb)     dimensions
        Auxiliary wavefunctions         2.23 Mb     (     962,  152)
        Each subspace H/S matrix        0.35 Mb     (     152,  152)
        Each <psi_i|beta_j> matrix      0.17 Mb     (     288,   38)
        Arrays for rho mixing           5.70 Mb     (   46656,    8)

     Initial potential from superposition of free atoms

     starting charge   63.98963, renormalised to   64.00000
     Starting wfc are   64 randomized atomic wfcs

     total cpu time spent up to now is        9.2 secs

     per-process dynamical memory:    24.1 Mb

     Self-consistent Calculation

     iteration #  1     ecut=    35.00 Ry     beta=0.30
     Davidson diagonalization with overlap
     ethr =  1.00E-02,  avg # of iterations =  3.1

     Threshold (ethr) on eigenvalues was too large:
     Diagonalizing with lowered threshold

     Davidson diagonalization with overlap
     ethr =  6.95E-04,  avg # of iterations =  2.2

     total cpu time spent up to now is       44.8 secs

     total energy              =    -153.00835126 Ry
     Harris-Foulkes estimate   =    -153.05503414 Ry
     estimated scf accuracy    <       0.43834211 Ry

     iteration #  2     ecut=    35.00 Ry     beta=0.30
     Davidson diagonalization with overlap
     ethr =  6.85E-04,  avg # of iterations =  1.0

     total cpu time spent up to now is       59.7 secs

     total energy              =    -152.91577747 Ry
     Harris-Foulkes estimate   =    -153.01044597 Ry
     estimated scf accuracy    <       0.27251960 Ry

     iteration #  3     ecut=    35.00 Ry     beta=0.30
     Davidson diagonalization with overlap
     ethr =  4.26E-04,  avg # of iterations =  2.0

     total cpu time spent up to now is       71.5 secs

     total energy              =    -152.93373126 Ry
     Harris-Foulkes estimate   =    -152.93319066 Ry
     estimated scf accuracy    <       0.00322833 Ry

     iteration #  4     ecut=    35.00 Ry     beta=0.30
     Davidson diagonalization with overlap
     ethr =  5.04E-06,  avg # of iterations = 10.7

     total cpu time spent up to now is      100.5 secs

     total energy              =    -152.93592862 Ry
     Harris-Foulkes estimate   =    -152.93573171 Ry
     estimated scf accuracy    <       0.00129892 Ry

     iteration #  5     ecut=    35.00 Ry     beta=0.30
     Davidson diagonalization with overlap
     ethr =  2.03E-06,  avg # of iterations =  2.2

     total cpu time spent up to now is      114.5 secs

     total energy              =    -152.93600981 Ry
     Harris-Foulkes estimate   =    -152.93599928 Ry
     estimated scf accuracy    <       0.00005787 Ry

     iteration #  6     ecut=    35.00 Ry     beta=0.30
     Davidson diagonalization with overlap
     ethr =  9.04E-08,  avg # of iterations =  2.8

     total cpu time spent up to now is      129.7 secs

     total energy              =    -152.93602454 Ry
     Harris-Foulkes estimate   =    -152.93602717 Ry
     estimated scf accuracy    <       0.00001411 Ry

     iteration #  7     ecut=    35.00 Ry     beta=0.30
     Davidson diagonalization with overlap
     ethr =  2.21E-08,  avg # of iterations =  2.0

     total cpu time spent up to now is      141.4 secs

     total energy              =    -152.93602695 Ry
     Harris-Foulkes estimate   =    -152.93602574 Ry
     estimated scf accuracy    <       0.00000214 Ry

     iteration #  8     ecut=    35.00 Ry     beta=0.30
     Davidson diagonalization with overlap
     ethr =  3.35E-09,  avg # of iterations =  2.2

     total cpu time spent up to now is      156.9 secs

     total energy              =    -152.93602713 Ry
     Harris-Foulkes estimate   =    -152.93602719 Ry
     estimated scf accuracy    <       0.00000037 Ry

     iteration #  9     ecut=    35.00 Ry     beta=0.30
     Davidson diagonalization with overlap
     ethr =  5.80E-10,  avg # of iterations =  2.5

     total cpu time spent up to now is      170.2 secs

     total energy              =    -152.93602714 Ry
     Harris-Foulkes estimate   =    -152.93602716 Ry
     estimated scf accuracy    <       0.00000009 Ry

     iteration # 10     ecut=    35.00 Ry     beta=0.30
     Davidson diagonalization with overlap
     ethr =  1.44E-10,  avg # of iterations =  2.6

     total cpu time spent up to now is      185.8 secs

     total energy              =    -152.93602716 Ry
     Harris-Foulkes estimate   =    -152.93602716 Ry
     estimated scf accuracy    <       0.00000002 Ry

     iteration # 11     ecut=    35.00 Ry     beta=0.30
     Davidson diagonalization with overlap
     ethr =  3.78E-11,  avg # of iterations =  1.1

     total cpu time spent up to now is      197.3 secs

     total energy              =    -152.93602715 Ry
     Harris-Foulkes estimate   =    -152.93602716 Ry
     estimated scf accuracy    <          8.4E-09 Ry

     iteration # 12     ecut=    35.00 Ry     beta=0.30
     Davidson diagonalization with overlap
     ethr =  1.31E-11,  avg # of iterations =  2.5

     total cpu time spent up to now is      215.2 secs

     End of self-consistent calculation

          k = 0.0000 0.0000 0.0000 (  7631 PWs)   bands (ev):

    -5.8546  -3.6552  -3.4789  -3.4789  -3.4244  -1.9124  -1.6922  -1.6922
    -1.6436  -1.6436  -1.5719  -0.9471  -0.8577  -0.8577  -0.7600   3.1886
     3.2546   3.2546   3.2764   3.3061   3.3061   4.7181   4.9088   4.9088
     4.9367   4.9367   4.9517   5.0648   5.0648   6.0441   6.2107   6.2107
     6.6551   6.6551   6.7413   6.7643   6.7643   6.8448

     occupation numbers 
     1.0000   1.0000   1.0000   1.0000   1.0000   1.0000   1.0000   1.0000
     1.0000   1.0000   1.0000   1.0000   1.0000   1.0000   1.0000   1.0000
     1.0000   1.0000   1.0000   1.0000   1.0000   1.0000   1.0000   1.0000
     1.0000   1.0000   1.0000   1.0000   1.0000   0.9895   0.8759   0.8759
     0.0272   0.0272   0.0058   0.0037   0.0037   0.0006

          k = 0.1768 0.1768-0.1768 (  7564 PWs)   bands (ev):

    -5.6513  -4.1722  -3.5152  -3.3944  -3.3410  -2.6307  -2.5207  -2.4605
    -0.8972  -0.7034  -0.6827  -0.6522  -0.6056  -0.5199   0.1935   2.6270
     2.6748   2.7151   3.3811   3.4283   3.4697   3.7912   3.8653   3.9145
     4.4524   4.5559   4.5957   4.6214   4.9894   5.1204   5.7839   5.9213
     6.8578   6.8936   6.9695   7.7063   7.9525   8.0086

     occupation numbers 
     1.0000   1.0000   1.0000   1.0000   1.0000   1.0000   1.0000   1.0000
     1.0000   1.0000   1.0000   1.0000   1.0000   1.0000   1.0000   1.0000
     1.0000   1.0000   1.0000   1.0000   1.0000   1.0000   1.0000   1.0000
     1.0000   1.0000   1.0000   1.0000   1.0000   1.0000   1.0000   0.9992
     0.0004   0.0002   0.0000   0.0000   0.0000   0.0000

          k =-0.3536-0.3536 0.3536 (  7570 PWs)   bands (ev):

    -5.0936  -5.0205  -3.3323  -3.1332  -3.1034  -3.0912  -3.0571  -2.9673
    -0.5100  -0.2871  -0.2696  -0.2435  -0.2023  -0.1193   2.1611   2.2176
     2.4889   2.5349   2.5775   2.5931   2.6325   2.7304   3.8037   3.8907
     3.9269   3.9360   3.9397   3.9675   5.2268   5.3882   5.3974   5.5029
     7.4009   7.4904   7.5688   7.5711   7.5746   7.6248

     occupation numbers 
     1.0000   1.0000   1.0000   1.0000   1.0000   1.0000   1.0000   1.0000
     1.0000   1.0000   1.0000   1.0000   1.0000   1.0000   1.0000   1.0000
     1.0000   1.0000   1.0000   1.0000   1.0000   1.0000   1.0000   1.0000
     1.0000   1.0000   1.0000   1.0000   1.0000   1.0000   1.0000   1.0000
     0.0000   0.0000   0.0000   0.0000   0.0000   0.0000

          k = 0.3536 0.0000 0.0000 (  7563 PWs)   bands (ev):

    -5.5826  -3.8304  -3.6448  -3.6432  -3.5856  -3.4179  -1.7461  -1.6098
    -1.5607  -1.5236  -0.3728  -0.2676  -0.2511  -0.1718   0.4050   2.6429
     2.6450   2.7068   2.7199   3.4609   3.5209   3.5930   3.6487   3.6690
     3.7480   4.7135   4.8376   4.8709   4.8935   4.9715   5.3130   5.3914
     6.6426   7.5410   7.9323   7.9461   8.0469   8.0652

     occupation numbers 
     1.0000   1.0000   1.0000   1.0000   1.0000   1.0000   1.0000   1.0000
     1.0000   1.0000   1.0000   1.0000   1.0000   1.0000   1.0000   1.0000
     1.0000   1.0000   1.0000   1.0000   1.0000   1.0000   1.0000   1.0000
     1.0000   1.0000   1.0000   1.0000   1.0000   1.0000   1.0000   1.0000
     0.0331   0.0000   0.0000   0.0000   0.0000   0.0000

          k =-0.1768-0.5303 0.5303 (  7554 PWs)   bands (ev):

    -5.1185  -4.6092  -4.0687  -3.6617  -3.5452  -2.9367  -2.4055  -2.2949
    -0.8941  -0.7563  -0.4745   0.1769   0.3168   1.2017   1.5182   1.9966
     2.0578   2.1545   2.7236   2.7974   2.9444   3.0982   3.1627   3.4610
     3.7942   3.9137   4.1719   4.2213   4.2927   4.7789   4.9326   5.3411
     7.3566   7.8325   8.1915   8.3776   8.4832   8.7685

     occupation numbers 
     1.0000   1.0000   1.0000   1.0000   1.0000   1.0000   1.0000   1.0000
     1.0000   1.0000   1.0000   1.0000   1.0000   1.0000   1.0000   1.0000
     1.0000   1.0000   1.0000   1.0000   1.0000   1.0000   1.0000   1.0000
     1.0000   1.0000   1.0000   1.0000   1.0000   1.0000   1.0000   1.0000
     0.0000   0.0000   0.0000   0.0000   0.0000   0.0000

          k = 0.0000-0.3536 0.3536 (  7592 PWs)   bands (ev):

    -5.3175  -4.3558  -4.2461  -3.3048  -3.1788  -2.9945  -2.8838  -2.1371
    -1.0525  -0.7866  -0.6298   0.0808   0.2092   0.8229   0.8830   1.7926
     2.6373   2.7043   2.7172   2.7878   3.3135   3.4193   3.5105   3.6692
     3.8915   3.9648   4.2876   4.3266   4.4347   4.5611   4.5857   5.8113
     7.1851   7.9111   8.0419   8.2151   8.3261   8.6472

     occupation numbers 
     1.0000   1.0000   1.0000   1.0000   1.0000   1.0000   1.0000   1.0000
     1.0000   1.0000   1.0000   1.0000   1.0000   1.0000   1.0000   1.0000
     1.0000   1.0000   1.0000   1.0000   1.0000   1.0000   1.0000   1.0000
     1.0000   1.0000   1.0000   1.0000   1.0000   1.0000   1.0000   1.0000
     0.0000   0.0000   0.0000   0.0000   0.0000   0.0000

          k =-0.7071 0.0000 0.0000 (  7528 PWs)   bands (ev):

    -4.8337  -4.7188  -3.9259  -3.7770  -3.7750  -3.7024  -1.6571  -1.5192
    -1.4691  -1.4346   0.5218   0.6744   0.6880   0.7018   2.1609   2.1917
     2.2322   2.2543   2.3205   2.3549   2.3643   2.3989   2.6288   2.6517
     4.1692   4.1938   4.2650   4.3016   4.7525   4.7814   4.8071   4.9465
     7.1387   7.2004   8.3938   8.4978   8.5136   8.5912

     occupation numbers 
     1.0000   1.0000   1.0000   1.0000   1.0000   1.0000   1.0000   1.0000
     1.0000   1.0000   1.0000   1.0000   1.0000   1.0000   1.0000   1.0000
     1.0000   1.0000   1.0000   1.0000   1.0000   1.0000   1.0000   1.0000
     1.0000   1.0000   1.0000   1.0000   1.0000   1.0000   1.0000   1.0000
     0.0000   0.0000   0.0000   0.0000   0.0000   0.0000

          k =-0.7071 0.3536 0.0000 (  7564 PWs)   bands (ev):

    -4.6679  -4.4987  -4.4939  -4.4218  -2.8492  -2.7124  -2.6774  -2.6216
    -0.5710  -0.4338  -0.3982  -0.3505   1.6499   1.8143   1.8210   1.8505
     1.8634   1.8860   1.9387   1.9828   3.2747   3.3572   3.3892   3.4464
     3.4985   3.5049   3.5963   3.6124   4.6117   4.6916   4.7261   4.8238
     8.3814   8.5007   8.5276   8.5673   8.8405   8.9194

     occupation numbers 
     1.0000   1.0000   1.0000   1.0000   1.0000   1.0000   1.0000   1.0000
     1.0000   1.0000   1.0000   1.0000   1.0000   1.0000   1.0000   1.0000
     1.0000   1.0000   1.0000   1.0000   1.0000   1.0000   1.0000   1.0000
     1.0000   1.0000   1.0000   1.0000   1.0000   1.0000   1.0000   1.0000
     0.0000   0.0000   0.0000   0.0000   0.0000   0.0000

          k = 0.1768 0.1768 0.1768 (  7564 PWs)   bands (ev):

    -5.6507  -4.1343  -3.5318  -3.3948  -3.3948  -2.5995  -2.5244  -2.5244
    -0.7226  -0.6926  -0.6926  -0.6001  -0.6001  -0.5378   0.1063   2.5781
     2.6438   2.6438   3.4467   3.4533   3.4533   3.6774   3.8256   3.8256
     4.4745   4.5818   4.6351   4.6351   5.0718   5.0718   5.9106   5.9106
     6.9391   6.9391   6.9930   7.7458   7.9469   7.9471

     occupation numbers 
     1.0000   1.0000   1.0000   1.0000   1.0000   1.0000   1.0000   1.0000
     1.0000   1.0000   1.0000   1.0000   1.0000   1.0000   1.0000   1.0000
     1.0000   1.0000   1.0000   1.0000   1.0000   1.0000   1.0000   1.0000
     1.0000   1.0000   1.0000   1.0000   1.0000   1.0000   0.9994   0.9994
     0.0000   0.0000   0.0000   0.0000   0.0000   0.0000

          k =-0.3536-0.3536-0.3536 (  7570 PWs)   bands (ev):

    -5.1315  -4.9579  -3.3586  -3.1220  -3.1220  -3.0735  -3.0735  -3.0453
    -0.2772  -0.2772  -0.2698  -0.1730  -0.1730  -0.1168   1.9694   2.1848
     2.4154   2.4802   2.4802   2.5730   2.5810   2.5810   3.8447   3.8447
     3.8925   3.9672   4.0763   4.0763   5.3200   5.3200   5.5021   5.5021
     7.5167   7.5167   7.5391   7.6521   7.6521   7.7043

     occupation numbers 
     1.0000   1.0000   1.0000   1.0000   1.0000   1.0000   1.0000   1.0000
     1.0000   1.0000   1.0000   1.0000   1.0000   1.0000   1.0000   1.0000
     1.0000   1.0000   1.0000   1.0000   1.0000   1.0000   1.0000   1.0000
     1.0000   1.0000   1.0000   1.0000   1.0000   1.0000   1.0000   1.0000
     0.0000   0.0000   0.0000   0.0000   0.0000   0.0000

          k = 0.5303-0.1768 0.5303 (  7554 PWs)   bands (ev):

    -5.1190  -4.6115  -4.0375  -3.6729  -3.6017  -2.8670  -2.3916  -2.3371
    -0.8386  -0.7841  -0.5783   0.3057   0.3241   1.1381   1.4995   2.0200
     2.0288   2.1134   2.7868   2.8205   2.9802   3.1319   3.1488   3.4771
     3.7584   3.9282   4.1050   4.1851   4.2593   4.8143   4.8652   5.4373
     7.4073   7.9105   8.1901   8.3629   8.4289   8.7832

     occupation numbers 
     1.0000   1.0000   1.0000   1.0000   1.0000   1.0000   1.0000   1.0000
     1.0000   1.0000   1.0000   1.0000   1.0000   1.0000   1.0000   1.0000
     1.0000   1.0000   1.0000   1.0000   1.0000   1.0000   1.0000   1.0000
     1.0000   1.0000   1.0000   1.0000   1.0000   1.0000   1.0000   1.0000
     0.0000   0.0000   0.0000   0.0000   0.0000   0.0000

          k =-0.5303-0.5303-0.1768 (  7554 PWs)   bands (ev):

    -5.1216  -4.5797  -4.0692  -3.6682  -3.6021  -2.9103  -2.3967  -2.3417
    -0.7877  -0.7711  -0.5083   0.3173   0.3367   1.2230   1.4277   1.9537
     2.0042   2.0909   2.7210   2.7458   2.8722   3.1600   3.1694   3.3850
     3.8171   3.9192   4.1861   4.1994   4.3087   4.8288   4.9450   5.4226
     7.4175   7.9316   8.2186   8.4479   8.4748   8.8106

     occupation numbers 
     1.0000   1.0000   1.0000   1.0000   1.0000   1.0000   1.0000   1.0000
     1.0000   1.0000   1.0000   1.0000   1.0000   1.0000   1.0000   1.0000
     1.0000   1.0000   1.0000   1.0000   1.0000   1.0000   1.0000   1.0000
     1.0000   1.0000   1.0000   1.0000   1.0000   1.0000   1.0000   1.0000
     0.0000   0.0000   0.0000   0.0000   0.0000   0.0000

          k = 0.3536 0.0000 0.3536 (  7592 PWs)   bands (ev):

    -5.3169  -4.3401  -4.2329  -3.3313  -3.2291  -2.9744  -2.9345  -2.0557
    -1.1486  -0.6594  -0.6272   0.2003   0.2074   0.7593   0.8796   1.7684
     2.5526   2.6316   2.7374   2.7741   3.2676   3.3594   3.4137   3.7077
     3.9790   3.9902   4.2212   4.3138   4.5165   4.5414   4.6388   5.9184
     7.2667   7.9967   8.0008   8.2970   8.3714   8.6257

     occupation numbers 
     1.0000   1.0000   1.0000   1.0000   1.0000   1.0000   1.0000   1.0000
     1.0000   1.0000   1.0000   1.0000   1.0000   1.0000   1.0000   1.0000
     1.0000   1.0000   1.0000   1.0000   1.0000   1.0000   1.0000   1.0000
     1.0000   1.0000   1.0000   1.0000   1.0000   1.0000   1.0000   0.9993
     0.0000   0.0000   0.0000   0.0000   0.0000   0.0000

     the Fermi energy is     6.3774 ev

!    total energy              =    -152.93602716 Ry
     Harris-Foulkes estimate   =    -152.93602716 Ry
     estimated scf accuracy    <          6.3E-10 Ry

     The total energy is the sum of the following terms:

     one-electron contribution =      40.77667493 Ry
     hartree contribution      =       8.79616809 Ry
     xc contribution           =     -68.22129264 Ry
     ewald contribution        =    -134.28721227 Ry
     smearing contrib. (-TS)   =      -0.00036528 Ry

     convergence has been achieved in  12 iterations

     Forces acting on atoms (Ry/au):

     atom    1 type  1   force =  -0.74653615E-01 -0.74653615E-01 -0.74653615E-01
     atom    2 type  1   force =   0.50440688E-01  0.50440688E-01  0.50440688E-01
     atom    3 type  1   force =   0.39166515E-02  0.39166515E-02 -0.34472047E-02
     atom    4 type  1   force =   0.14522407E-01  0.14522407E-01 -0.32969131E-02
     atom    5 type  1   force =   0.39166515E-02 -0.34472047E-02  0.39166515E-02
     atom    6 type  1   force =   0.14522407E-01 -0.32969131E-02  0.14522407E-01
     atom    7 type  1   force =  -0.34954084E-02 -0.29412806E-03 -0.29412806E-03
     atom    8 type  1   force =  -0.17979365E-02 -0.60832367E-03 -0.60832367E-03
     atom    9 type  1   force =  -0.34472047E-02  0.39166515E-02  0.39166515E-02
     atom   10 type  1   force =  -0.32969131E-02  0.14522407E-01  0.14522407E-01
     atom   11 type  1   force =  -0.29412806E-03 -0.34954084E-02 -0.29412806E-03
     atom   12 type  1   force =  -0.60832367E-03 -0.17979365E-02 -0.60832367E-03
     atom   13 type  1   force =  -0.29412806E-03 -0.29412806E-03 -0.34954084E-02
     atom   14 type  1   force =  -0.60832367E-03 -0.60832367E-03 -0.17979365E-02
     atom   15 type  1   force =   0.64613701E-03  0.64613701E-03  0.64613701E-03
     atom   16 type  1   force =   0.53104021E-03  0.53104021E-03  0.53104021E-03
     The non-local contrib.  to forces
     atom    1 type  1   force =  -0.74561697E-01 -0.74561697E-01 -0.74561697E-01
     atom    2 type  1   force =   0.58255838E-01  0.58255838E-01  0.58255838E-01
     atom    3 type  1   force =   0.14483730E-02  0.14483730E-02  0.28406520E-02
     atom    4 type  1   force =   0.12334079E-01  0.12334079E-01 -0.21742604E-01
     atom    5 type  1   force =   0.14483730E-02  0.28406520E-02  0.14483730E-02
     atom    6 type  1   force =   0.12334079E-01 -0.21742604E-01  0.12334079E-01
     atom    7 type  1   force =   0.35763115E-02  0.11935955E-02  0.11935955E-02
     atom    8 type  1   force =   0.23099406E-02  0.72863681E-03  0.72863681E-03
     atom    9 type  1   force =   0.28406520E-02  0.14483730E-02  0.14483730E-02
     atom   10 type  1   force =  -0.21742604E-01  0.12334079E-01  0.12334079E-01
     atom   11 type  1   force =   0.11935955E-02  0.35763115E-02  0.11935955E-02
     atom   12 type  1   force =   0.72863681E-03  0.23099406E-02  0.72863681E-03
     atom   13 type  1   force =   0.11935955E-02  0.11935955E-02  0.35763115E-02
     atom   14 type  1   force =   0.72863681E-03  0.72863681E-03  0.23099406E-02
     atom   15 type  1   force =  -0.83393457E-03 -0.83393457E-03 -0.83393457E-03
     atom   16 type  1   force =  -0.94269580E-03 -0.94269580E-03 -0.94269580E-03
     The ionic contribution  to forces
     atom    1 type  1   force =  -0.23028266E+00 -0.23028266E+00 -0.23028266E+00
     atom    2 type  1   force =   0.18249856E+00  0.18249856E+00  0.18249856E+00
     atom    3 type  1   force =   0.69862493E-01  0.69862493E-01 -0.13916053E-01
     atom    4 type  1   force =   0.22403071E-01  0.22403071E-01 -0.13332478E+00
     atom    5 type  1   force =   0.69862493E-01 -0.13916053E-01  0.69862493E-01
     atom    6 type  1   force =   0.22403071E-01 -0.13332478E+00  0.22403071E-01
     atom    7 type  1   force =  -0.13451772E-01 -0.17906723E-01 -0.17906723E-01
     atom    8 type  1   force =   0.30557166E-01  0.11716424E-01  0.11716424E-01
     atom    9 type  1   force =  -0.13916053E-01  0.69862493E-01  0.69862493E-01
     atom   10 type  1   force =  -0.13332478E+00  0.22403071E-01  0.22403071E-01
     atom   11 type  1   force =  -0.17906723E-01 -0.13451772E-01 -0.17906723E-01
     atom   12 type  1   force =   0.11716424E-01  0.30557166E-01  0.11716424E-01
     atom   13 type  1   force =  -0.17906723E-01 -0.17906723E-01 -0.13451772E-01
     atom   14 type  1   force =   0.11716424E-01  0.11716424E-01  0.30557166E-01
     atom   15 type  1   force =   0.12658333E-01  0.12658333E-01  0.12658333E-01
     atom   16 type  1   force =  -0.68893221E-02 -0.68893221E-02 -0.68893221E-02
     The local contribution  to forces
     atom    1 type  1   force =   0.22360520E+00  0.22360520E+00  0.22360520E+00
     atom    2 type  1   force =  -0.18483005E+00 -0.18483005E+00 -0.18483005E+00
     atom    3 type  1   force =  -0.67298144E-01 -0.67298144E-01  0.78655346E-02
     atom    4 type  1   force =  -0.19072281E-01 -0.19072281E-01  0.14956593E+00
     atom    5 type  1   force =  -0.67298144E-01  0.78655346E-02 -0.67298144E-01
     atom    6 type  1   force =  -0.19072281E-01  0.14956593E+00 -0.19072281E-01
     atom    7 type  1   force =   0.66813362E-02  0.16518537E-01  0.16518537E-01
     atom    8 type  1   force =  -0.34485489E-01 -0.12997735E-01 -0.12997735E-01
     atom    9 type  1   force =   0.78655346E-02 -0.67298144E-01 -0.67298144E-01
     atom   10 type  1   force =   0.14956593E+00 -0.19072281E-01 -0.19072281E-01
     atom   11 type  1   force =   0.16518537E-01  0.66813362E-02  0.16518537E-01
     atom   12 type  1   force =  -0.12997735E-01 -0.34485489E-01 -0.12997735E-01
     atom   13 type  1   force =   0.16518537E-01  0.16518537E-01  0.66813362E-02
     atom   14 type  1   force =  -0.12997735E-01 -0.12997735E-01 -0.34485489E-01
     atom   15 type  1   force =  -0.11250105E-01 -0.11250105E-01 -0.11250105E-01
     atom   16 type  1   force =   0.82920725E-02  0.82920725E-02  0.82920725E-02
     The core correction contribution to forces
     atom    1 type  1   force =   0.65893712E-02  0.65893712E-02  0.65893712E-02
     atom    2 type  1   force =  -0.54874838E-02 -0.54874838E-02 -0.54874838E-02
     atom    3 type  1   force =  -0.99028636E-04 -0.99028636E-04 -0.24162637E-03
     atom    4 type  1   force =  -0.11395921E-02 -0.11395921E-02  0.22080228E-02
     atom    5 type  1   force =  -0.99028636E-04 -0.24162637E-03 -0.99028636E-04
     atom    6 type  1   force =  -0.11395921E-02  0.22080228E-02 -0.11395921E-02
     atom    7 type  1   force =  -0.29848686E-03 -0.95572710E-04 -0.95572710E-04
     atom    8 type  1   force =  -0.18260466E-03 -0.58155562E-04 -0.58155562E-04
     atom    9 type  1   force =  -0.24162637E-03 -0.99028636E-04 -0.99028636E-04
     atom   10 type  1   force =   0.22080228E-02 -0.11395921E-02 -0.11395921E-02
     atom   11 type  1   force =  -0.95572710E-04 -0.29848686E-03 -0.95572710E-04
     atom   12 type  1   force =  -0.58155562E-04 -0.18260466E-03 -0.58155562E-04
     atom   13 type  1   force =  -0.95572710E-04 -0.95572710E-04 -0.29848686E-03
     atom   14 type  1   force =  -0.58155562E-04 -0.58155562E-04 -0.18260466E-03
     atom   15 type  1   force =   0.68261991E-04  0.68261991E-04  0.68261991E-04
     atom   16 type  1   force =   0.73252480E-04  0.73252480E-04  0.73252480E-04
     The Hubbard contrib.    to forces
     atom    1 type  1   force =   0.00000000E+00  0.00000000E+00  0.00000000E+00
     atom    2 type  1   force =   0.00000000E+00  0.00000000E+00  0.00000000E+00
     atom    3 type  1   force =   0.00000000E+00  0.00000000E+00  0.00000000E+00
     atom    4 type  1   force =   0.00000000E+00  0.00000000E+00  0.00000000E+00
     atom    5 type  1   force =   0.00000000E+00  0.00000000E+00  0.00000000E+00
     atom    6 type  1   force =   0.00000000E+00  0.00000000E+00  0.00000000E+00
     atom    7 type  1   force =   0.00000000E+00  0.00000000E+00  0.00000000E+00
     atom    8 type  1   force =   0.00000000E+00  0.00000000E+00  0.00000000E+00
     atom    9 type  1   force =   0.00000000E+00  0.00000000E+00  0.00000000E+00
     atom   10 type  1   force =   0.00000000E+00  0.00000000E+00  0.00000000E+00
     atom   11 type  1   force =   0.00000000E+00  0.00000000E+00  0.00000000E+00
     atom   12 type  1   force =   0.00000000E+00  0.00000000E+00  0.00000000E+00
     atom   13 type  1   force =   0.00000000E+00  0.00000000E+00  0.00000000E+00
     atom   14 type  1   force =   0.00000000E+00  0.00000000E+00  0.00000000E+00
     atom   15 type  1   force =   0.00000000E+00  0.00000000E+00  0.00000000E+00
     atom   16 type  1   force =   0.00000000E+00  0.00000000E+00  0.00000000E+00
     The SCF correction term to forces
     atom    1 type  1   force =  -0.38018953E-05 -0.38018953E-05 -0.38018953E-05
     atom    2 type  1   force =   0.38520149E-05  0.38520149E-05  0.38520149E-05
     atom    3 type  1   force =   0.29915491E-05  0.29915491E-05  0.43205118E-05
     atom    4 type  1   force =  -0.28375028E-05 -0.28375028E-05 -0.34495383E-05
     atom    5 type  1   force =   0.29915491E-05  0.43205118E-05  0.29915491E-05
     atom    6 type  1   force =  -0.28375028E-05 -0.34495383E-05 -0.28375028E-05
     atom    7 type  1   force =  -0.27647321E-05 -0.39314860E-05 -0.39314860E-05
     atom    8 type  1   force =   0.30832742E-05  0.25396385E-05  0.25396385E-05
     atom    9 type  1   force =   0.43205118E-05  0.29915491E-05  0.29915491E-05
     atom   10 type  1   force =  -0.34495383E-05 -0.28375028E-05 -0.28375028E-05
     atom   11 type  1   force =  -0.39314860E-05 -0.27647321E-05 -0.39314860E-05
     atom   12 type  1   force =   0.25396385E-05  0.30832742E-05  0.25396385E-05
     atom   13 type  1   force =  -0.39314860E-05 -0.39314860E-05 -0.27647321E-05
     atom   14 type  1   force =   0.25396385E-05  0.25396385E-05  0.30832742E-05
     atom   15 type  1   force =   0.36137752E-05  0.36137752E-05  0.36137752E-05
     atom   16 type  1   force =  -0.22339927E-05 -0.22339927E-05 -0.22339927E-05

     Total force =     0.160715     Total SCF correction =     0.000023


     entering subroutine stress ...

          total   stress  (Ry/bohr**3)                   (kbar)     P=    2.64
   0.0000179355   0.0000483345   0.0000483345          2.64      7.11      7.11
   0.0000483345   0.0000179355   0.0000483345          7.11      2.64      7.11
   0.0000483345   0.0000483345   0.0000179355          7.11      7.11      2.64

     kinetic stress (kbar)   2190.92     -3.32     -3.32
                               -3.32   2190.92     -3.32
                               -3.32     -3.32   2190.92

     local   stress (kbar)   -289.72    -43.36    -43.36
                              -43.36   -289.72    -43.36
                              -43.36    -43.36   -289.72

     nonloc. stress (kbar)   1941.24      5.46      5.46
                                5.46   1941.24      5.46
                                5.46      5.46   1941.24

     hartree stress (kbar)    199.44      4.76      4.76
                                4.76    199.44      4.76
                                4.76      4.76    199.44

     exc-cor stress (kbar)    993.76      0.06      0.06
                                0.06    993.76      0.06
                                0.06      0.06    993.76

     corecor stress (kbar)  -1988.25     -0.64     -0.64
                               -0.64  -1988.25     -0.64
                               -0.64     -0.64  -1988.25

     ewald   stress (kbar)  -3044.74     44.14     44.14
                               44.14  -3044.74     44.14
                               44.14     44.14  -3044.74

     hubbard stress (kbar)      0.00      0.00      0.00
                                0.00      0.00      0.00
                                0.00      0.00      0.00

     london  stress (kbar)      0.00      0.00      0.00
                                0.00      0.00      0.00
                                0.00      0.00      0.00

     XDM     stress (kbar)      0.00      0.00      0.00
                                0.00      0.00      0.00
                                0.00      0.00      0.00

     dft-nl  stress (kbar)      0.00      0.00      0.00
                                0.00      0.00      0.00
                                0.00      0.00      0.00



     Writing output data file Si_diamond.scf.in.super.222.xyz01.save

     init_run     :      8.87s CPU      8.95s WALL (       1 calls)
     electrons    :    215.36s CPU    206.10s WALL (       1 calls)
     forces       :      4.05s CPU      4.23s WALL (       1 calls)
     stress       :     19.33s CPU     19.45s WALL (       1 calls)

     Called by init_run:
     wfcinit      :      7.05s CPU      7.12s WALL (       1 calls)
     potinit      :      0.17s CPU      0.17s WALL (       1 calls)

     Called by electrons:
     c_bands      :    166.21s CPU    157.42s WALL (      13 calls)
     sum_band     :     36.63s CPU     36.07s WALL (      13 calls)
     v_of_rho     :      1.51s CPU      1.52s WALL (      13 calls)
     v_h          :      0.11s CPU      0.11s WALL (      13 calls)
     v_xc         :      1.66s CPU      1.68s WALL (      15 calls)
     newd         :     10.29s CPU     10.35s WALL (      13 calls)
     mix_rho      :      1.52s CPU      1.54s WALL (      13 calls)

     Called by c_bands:
     init_us_2    :      2.27s CPU      2.38s WALL (     377 calls)
     cegterg      :    157.86s CPU    148.82s WALL (     169 calls)

     Called by sum_band:
     sum_band:bec :      0.18s CPU      0.16s WALL (     169 calls)
     addusdens    :      9.59s CPU      9.75s WALL (      13 calls)

     Called by *egterg:
     h_psi        :    114.76s CPU    109.94s WALL (     660 calls)
     s_psi        :     10.51s CPU      7.42s WALL (     660 calls)
     g_psi        :      0.30s CPU      0.28s WALL (     478 calls)
     cdiaghg      :      8.57s CPU      8.56s WALL (     634 calls)
     cegterg:over :     13.00s CPU     12.65s WALL (     478 calls)
     cegterg:upda :      5.07s CPU      4.13s WALL (     478 calls)
     cegterg:last :      2.61s CPU      1.83s WALL (     181 calls)

     Called by h_psi:
     h_psi:vloc   :     86.49s CPU     87.57s WALL (     660 calls)
     h_psi:vnl    :     28.00s CPU     22.13s WALL (     660 calls)
     add_vuspsi   :     10.89s CPU      7.86s WALL (     660 calls)

     General routines
     calbec       :     29.03s CPU     25.22s WALL (     855 calls)
     fft          :      2.40s CPU      2.38s WALL (     233 calls)
     ffts         :      0.74s CPU      0.75s WALL (     225 calls)
     fftw         :     92.66s CPU     93.83s WALL (   39868 calls)
     interpolate  :      0.30s CPU      0.30s WALL (      26 calls)

     Parallel routines
     fft_scatter  :     59.27s CPU     60.11s WALL (   40326 calls)

     PWSCF        :  4m 8.48s CPU     3m59.89s WALL


   This run was terminated on:  17: 4:37  28Sep2017            

=------------------------------------------------------------------------------=
   JOB DONE.
=------------------------------------------------------------------------------=
