
     Program PWSCF v.5.1 starts on 28Sep2017 at 11:50:41 

     This program is part of the open-source Quantum ESPRESSO suite
     for quantum simulation of materials; please cite
         "P. Giannozzi et al., J. Phys.:Condens. Matter 21 395502 (2009);
          URL http://www.quantum-espresso.org", 
     in publications or presentations arising from this work. More details at
     http://www.quantum-espresso.org/quote

     Parallel version (MPI), running on     8 processors
     R & G space division:  proc/nbgrp/npool/nimage =       8
     Reading input from /tmp/Si_diamond.scf.in.super.222.x002.19190/Si_diamond.scf.in.super.222.x002.t
Warning: card &IONS ignored
Warning: card   ION_DYNAMICS='BFGS', ignored
Warning: card / ignored
Warning: card &CELL ignored
Warning: card  CELL_DYNAMICS = 'BFGS' ignored
Warning: card / ignored
     Message from routine read_cards :
     DEPRECATED: no units specified in CELL_PARAMETERS card

     Current dimensions of program PWSCF are:
     Max number of different atomic species (ntypx) = 10
     Max number of k-points (npk) =  40000
     Max angular momentum in pseudopotentials (lmaxx) =  3
 kfg - two_fermi_energies  F

     Subspace diagonalization in iterative solution of the eigenvalue problem:
     a serial algorithm will be used


     Parallelization info
     --------------------
     sticks:   dense  smooth     PW     G-vecs:    dense   smooth      PW
     Min         363     256     71                12921     7555    1109
     Max         364     257     73                12925     7568    1110
     Sum        2905    2053    571               103379    60495    8873



     bravais-lattice index     =            0
     lattice parameter (alat)  =    14.515605984  a.u.
     unit-cell volume          =    2162.6713 (a.u.)^3
     number of atoms/cell      =           16
     number of atomic types    =            1
     number of electrons       =        64.00
     number of Kohn-Sham states=           38
     kinetic-energy cutoff     =      35.0000  Ry
     charge density cutoff     =     200.0000  Ry
     convergence threshold     =      1.0E-09
     mixing beta               =       0.3000
     number of iterations used =            8  local-TF  mixing
     Exchange-correlation      = SLA  PW   PSX  PSC ( 1  4 10  8 0)
     A smooth kinetic-energy cutoff is imposed at      34.5000 Ry
     height of the smooth step-function =             800.0000 Ry
     width of the smooth step-function  =               1.0000 Ry


     celldm(1)=  14.515606  celldm(2)=   0.000000  celldm(3)=   0.000000
     celldm(4)=   0.000000  celldm(5)=   0.000000  celldm(6)=   0.000000

     crystal axes: (cart. coord. in units of alat)
               a(1) = (  -0.000000000000   0.707106781187   0.707106781187 )  
               a(2) = (   0.707106781187  -0.000000000000   0.707106781187 )  
               a(3) = (   0.707106781187   0.707106781187  -0.000000000000 )  

     reciprocal axes: (cart. coord. in units 2 pi/alat)
               b(1) = ( -0.707107  0.707107  0.707107 )  
               b(2) = (  0.707107 -0.707107  0.707107 )  
               b(3) = (  0.707107  0.707107 -0.707107 )  


     PseudoPot. # 1 for Si read from file:
     /users/kfg/psuedo/gbrv_1.5/si.pbesol.UPF
     MD5 check sum: ef58ba74faed4df802eb8a9742fc00a8
     Pseudo is Ultrasoft + core correction, Zval =  4.0
     Generated by new atomic code, or converted to UPF format
     Using radial grid of  899 points,  6 beta functions with: 
                l(1) =   0
                l(2) =   0
                l(3) =   1
                l(4) =   1
                l(5) =   2
                l(6) =   2
     Q(r) pseudized with  8 coefficients,  rinner =    0.900   0.900   0.900
                                                       0.900   0.900

     atomic species   valence    mass     pseudopotential
        Si             4.00    28.08550     Si( 1.00)

      2 Sym. Ops. (no inversion) found


                                    s                        frac. trans.

      isym =  1     identity                                     

 cryst.   s( 1) = (     1          0          0      )
                  (     0          1          0      )
                  (     0          0          1      )

 cart.    s( 1) = (  1.0000000  0.0000000  0.0000000 )
                  (  0.0000000  1.0000000  0.0000000 )
                  (  0.0000000  0.0000000  1.0000000 )


      isym =  2     inv. 180 deg rotation - cart. axis [1,-1,0]  

 cryst.   s( 2) = (     0          1          0      )
                  (     1          0          0      )
                  (     0          0          1      )

 cart.    s( 2) = (  0.0000000  1.0000000  0.0000000 )
                  (  1.0000000  0.0000000  0.0000000 )
                  (  0.0000000  0.0000000  1.0000000 )


     point group C_s (m)    
     there are  2 classes
     the character table:

       E     s    
A'     1.00  1.00
A''    1.00 -1.00

     the symmetry operations in each class:
     E        1
     s        2

   Cartesian axes

     site n.     atom                  positions (alat units)
         1           Si  tau(   1) = (    0.00141421356    0.00141421356    0.00000000000  )
         2           Si  tau(   2) = (    0.17677669530    0.17677669530    0.17677669530  )
         3           Si  tau(   3) = (    0.35355339059    0.35355339059    0.00000000000  )
         4           Si  tau(   4) = (    0.53033008589    0.53033008589    0.17677669530  )
         5           Si  tau(   5) = (    0.35355339059    0.00000000000    0.35355339059  )
         6           Si  tau(   6) = (    0.53033008589    0.17677669530    0.53033008589  )
         7           Si  tau(   7) = (    0.70710678119    0.35355339059    0.35355339059  )
         8           Si  tau(   8) = (    0.88388347648    0.53033008589    0.53033008589  )
         9           Si  tau(   9) = (    0.00000000000    0.35355339059    0.35355339059  )
        10           Si  tau(  10) = (    0.17677669530    0.53033008589    0.53033008589  )
        11           Si  tau(  11) = (    0.35355339059    0.70710678119    0.35355339059  )
        12           Si  tau(  12) = (    0.53033008589    0.88388347648    0.53033008589  )
        13           Si  tau(  13) = (    0.35355339059    0.35355339059    0.70710678119  )
        14           Si  tau(  14) = (    0.53033008589    0.53033008589    0.88388347648  )
        15           Si  tau(  15) = (    0.70710678119    0.70710678119    0.70710678119  )
        16           Si  tau(  16) = (    0.88388347648    0.88388347648    0.88388347648  )

   Crystallographic axes

     site n.     atom                  positions (cryst. coord.)
         1           Si  tau(   1) = (    0.00000000000    0.00000000000    0.00200000000  )
         2           Si  tau(   2) = (    0.12500000000    0.12500000000    0.12500000000  )
         3           Si  tau(   3) = (    0.00000000000    0.00000000000    0.50000000000  )
         4           Si  tau(   4) = (    0.12500000000    0.12500000000    0.62500000000  )
         5           Si  tau(   5) = (    0.00000000000    0.50000000000    0.00000000000  )
         6           Si  tau(   6) = (    0.12500000000    0.62500000000    0.12500000000  )
         7           Si  tau(   7) = (    0.00000000000    0.50000000000    0.50000000000  )
         8           Si  tau(   8) = (    0.12500000000    0.62500000000    0.62500000000  )
         9           Si  tau(   9) = (    0.50000000000    0.00000000000    0.00000000000  )
        10           Si  tau(  10) = (    0.62500000000    0.12500000000    0.12500000000  )
        11           Si  tau(  11) = (    0.50000000000    0.00000000000    0.50000000000  )
        12           Si  tau(  12) = (    0.62500000000    0.12500000000    0.62500000000  )
        13           Si  tau(  13) = (    0.50000000000    0.50000000000    0.00000000000  )
        14           Si  tau(  14) = (    0.62500000000    0.62500000000    0.12500000000  )
        15           Si  tau(  15) = (    0.50000000000    0.50000000000    0.50000000000  )
        16           Si  tau(  16) = (    0.62500000000    0.62500000000    0.62500000000  )

     number of k points=    24  gaussian smearing, width (Ry)=  0.0150
                       cart. coord. in units 2pi/alat
        k(    1) = (   0.0000000   0.0000000   0.0000000), wk =   0.0312500
        k(    2) = (   0.1767767   0.1767767  -0.1767767), wk =   0.0625000
        k(    3) = (  -0.3535534  -0.3535534   0.3535534), wk =   0.0312500
        k(    4) = (   0.3535534   0.0000000   0.0000000), wk =   0.1250000
        k(    5) = (  -0.1767767  -0.5303301   0.5303301), wk =   0.1250000
        k(    6) = (   0.0000000  -0.3535534   0.3535534), wk =   0.1250000
        k(    7) = (  -0.7071068   0.0000000   0.0000000), wk =   0.0625000
        k(    8) = (  -0.7071068   0.3535534   0.0000000), wk =   0.1250000
        k(    9) = (  -0.1767767   0.1767767   0.1767767), wk =   0.1250000
        k(   10) = (   0.1767767   0.1767767   0.1767767), wk =   0.0625000
        k(   11) = (   0.3535534  -0.3535534  -0.3535534), wk =   0.0625000
        k(   12) = (  -0.3535534  -0.3535534  -0.3535534), wk =   0.0312500
        k(   13) = (   0.0000000   0.0000000   0.3535534), wk =   0.0625000
        k(   14) = (   0.1767767  -0.5303301  -0.5303301), wk =   0.1250000
        k(   15) = (  -0.1767767   0.5303301  -0.5303301), wk =   0.1250000
        k(   16) = (  -0.5303301  -0.1767767  -0.5303301), wk =   0.1250000
        k(   17) = (   0.5303301   0.5303301  -0.1767767), wk =   0.0625000
        k(   18) = (  -0.5303301   0.5303301   0.1767767), wk =   0.1250000
        k(   19) = (  -0.5303301  -0.5303301  -0.1767767), wk =   0.0625000
        k(   20) = (   0.0000000  -0.3535534  -0.3535534), wk =   0.1250000
        k(   21) = (   0.3535534   0.3535534   0.0000000), wk =   0.0625000
        k(   22) = (  -0.3535534   0.3535534   0.0000000), wk =   0.0625000
        k(   23) = (   0.0000000   0.0000000  -0.7071068), wk =   0.0312500
        k(   24) = (   0.7071068   0.0000000   0.3535534), wk =   0.0625000

                       cryst. coord.
        k(    1) = (   0.0000000   0.0000000   0.0000000), wk =   0.0312500
        k(    2) = (   0.0000000   0.0000000   0.2500000), wk =   0.0625000
        k(    3) = (   0.0000000   0.0000000  -0.5000000), wk =   0.0312500
        k(    4) = (   0.0000000   0.2500000   0.2500000), wk =   0.1250000
        k(    5) = (   0.0000000   0.2500000  -0.5000000), wk =   0.1250000
        k(    6) = (   0.0000000   0.2500000  -0.2500000), wk =   0.1250000
        k(    7) = (   0.0000000  -0.5000000  -0.5000000), wk =   0.0625000
        k(    8) = (   0.2500000  -0.5000000  -0.2500000), wk =   0.1250000
        k(    9) = (   0.2500000   0.0000000   0.0000000), wk =   0.1250000
        k(   10) = (   0.2500000   0.2500000   0.2500000), wk =   0.0625000
        k(   11) = (  -0.5000000   0.0000000   0.0000000), wk =   0.0625000
        k(   12) = (  -0.5000000  -0.5000000  -0.5000000), wk =   0.0312500
        k(   13) = (   0.2500000   0.2500000   0.0000000), wk =   0.0625000
        k(   14) = (  -0.7500000  -0.2500000  -0.2500000), wk =   0.1250000
        k(   15) = (   0.0000000  -0.5000000   0.2500000), wk =   0.1250000
        k(   16) = (  -0.5000000  -0.7500000  -0.5000000), wk =   0.1250000
        k(   17) = (   0.2500000   0.2500000   0.7500000), wk =   0.0625000
        k(   18) = (   0.5000000  -0.2500000   0.0000000), wk =   0.1250000
        k(   19) = (  -0.5000000  -0.5000000  -0.7500000), wk =   0.0625000
        k(   20) = (  -0.5000000  -0.2500000  -0.2500000), wk =   0.1250000
        k(   21) = (   0.2500000   0.2500000   0.5000000), wk =   0.0625000
        k(   22) = (   0.2500000  -0.2500000   0.0000000), wk =   0.0625000
        k(   23) = (  -0.5000000  -0.5000000   0.0000000), wk =   0.0312500
        k(   24) = (   0.2500000   0.7500000   0.5000000), wk =   0.0625000

     Dense  grid:   103379 G-vectors     FFT dimensions: (  72,  72,  72)

     Smooth grid:    60495 G-vectors     FFT dimensions: (  60,  60,  60)

     Largest allocated arrays     est. size (Mb)     dimensions
        Kohn-Sham Wavefunctions         0.56 Mb     (     974,   38)
        NL pseudopotentials             4.28 Mb     (     974,  288)
        Each V/rho on FFT grid          0.71 Mb     (   46656)
        Each G-vector array             0.10 Mb     (   12923)
        G-vector shells                 0.01 Mb     (     706)
     Largest temporary arrays     est. size (Mb)     dimensions
        Auxiliary wavefunctions         2.26 Mb     (     974,  152)
        Each subspace H/S matrix        0.35 Mb     (     152,  152)
        Each <psi_i|beta_j> matrix      0.17 Mb     (     288,   38)
        Arrays for rho mixing           5.70 Mb     (   46656,    8)

     Initial potential from superposition of free atoms

     starting charge   63.98963, renormalised to   64.00000
     Starting wfc are   64 randomized atomic wfcs

     total cpu time spent up to now is       13.2 secs

     per-process dynamical memory:    30.7 Mb

     Self-consistent Calculation

     iteration #  1     ecut=    35.00 Ry     beta=0.30
     Davidson diagonalization with overlap
     ethr =  1.00E-02,  avg # of iterations =  3.0

     Threshold (ethr) on eigenvalues was too large:
     Diagonalizing with lowered threshold

     Davidson diagonalization with overlap
     ethr =  6.90E-04,  avg # of iterations =  1.3

     total cpu time spent up to now is       62.9 secs

     total energy              =    -153.02858798 Ry
     Harris-Foulkes estimate   =    -153.07468187 Ry
     estimated scf accuracy    <       0.43522091 Ry

     iteration #  2     ecut=    35.00 Ry     beta=0.30
     Davidson diagonalization with overlap
     ethr =  6.80E-04,  avg # of iterations =  1.0

     total cpu time spent up to now is       82.9 secs

     total energy              =    -152.93740115 Ry
     Harris-Foulkes estimate   =    -153.03066793 Ry
     estimated scf accuracy    <       0.27051831 Ry

     iteration #  3     ecut=    35.00 Ry     beta=0.30
     Davidson diagonalization with overlap
     ethr =  4.23E-04,  avg # of iterations =  1.4

     total cpu time spent up to now is      104.6 secs

     total energy              =    -152.95477225 Ry
     Harris-Foulkes estimate   =    -152.95405302 Ry
     estimated scf accuracy    <       0.00311261 Ry

     iteration #  4     ecut=    35.00 Ry     beta=0.30
     Davidson diagonalization with overlap
     ethr =  4.86E-06,  avg # of iterations =  8.9

     total cpu time spent up to now is      153.8 secs

     total energy              =    -152.95690260 Ry
     Harris-Foulkes estimate   =    -152.95680194 Ry
     estimated scf accuracy    <       0.00121155 Ry

     iteration #  5     ecut=    35.00 Ry     beta=0.30
     Davidson diagonalization with overlap
     ethr =  1.89E-06,  avg # of iterations =  2.4

     total cpu time spent up to now is      178.1 secs

     total energy              =    -152.95697890 Ry
     Harris-Foulkes estimate   =    -152.95698004 Ry
     estimated scf accuracy    <       0.00004267 Ry

     iteration #  6     ecut=    35.00 Ry     beta=0.30
     Davidson diagonalization with overlap
     ethr =  6.67E-08,  avg # of iterations =  3.3

     total cpu time spent up to now is      205.9 secs

     total energy              =    -152.95699129 Ry
     Harris-Foulkes estimate   =    -152.95699762 Ry
     estimated scf accuracy    <       0.00002544 Ry

     iteration #  7     ecut=    35.00 Ry     beta=0.30
     Davidson diagonalization with overlap
     ethr =  3.97E-08,  avg # of iterations =  2.0

     total cpu time spent up to now is      229.0 secs

     total energy              =    -152.95699381 Ry
     Harris-Foulkes estimate   =    -152.95699364 Ry
     estimated scf accuracy    <       0.00000022 Ry

     iteration #  8     ecut=    35.00 Ry     beta=0.30
     Davidson diagonalization with overlap
     ethr =  3.40E-10,  avg # of iterations =  3.0

     total cpu time spent up to now is      259.7 secs

     total energy              =    -152.95699399 Ry
     Harris-Foulkes estimate   =    -152.95699396 Ry
     estimated scf accuracy    <       0.00000001 Ry

     iteration #  9     ecut=    35.00 Ry     beta=0.30
     Davidson diagonalization with overlap
     ethr =  1.90E-11,  avg # of iterations =  2.3

     total cpu time spent up to now is      285.9 secs

     total energy              =    -152.95699400 Ry
     Harris-Foulkes estimate   =    -152.95699399 Ry
     estimated scf accuracy    <       0.00000001 Ry

     iteration # 10     ecut=    35.00 Ry     beta=0.30
     Davidson diagonalization with overlap
     ethr =  1.76E-11,  avg # of iterations =  2.0

     total cpu time spent up to now is      309.9 secs

     End of self-consistent calculation

          k = 0.0000 0.0000 0.0000 (  7631 PWs)   bands (ev):

    -5.8408  -3.5021  -3.4940  -3.4940  -3.4862  -1.6980  -1.6853  -1.6842
    -1.6841  -1.6830  -1.6706  -0.8752  -0.8672  -0.8672  -0.8589   3.2657
     3.2705   3.2712   3.2712   3.2719   3.2767   4.9240   4.9358   4.9389
     4.9389   4.9414   4.9414   4.9446   4.9562   6.1352   6.1443   6.1537
     6.7338   6.7382   6.7430   6.7430   6.7477   6.7521

     occupation numbers 
     1.0000   1.0000   1.0000   1.0000   1.0000   1.0000   1.0000   1.0000
     1.0000   1.0000   1.0000   1.0000   1.0000   1.0000   1.0000   1.0000
     1.0000   1.0000   1.0000   1.0000   1.0000   1.0000   1.0000   1.0000
     1.0000   1.0000   1.0000   1.0000   1.0000   0.9492   0.9424   0.9344
     0.0060   0.0055   0.0050   0.0050   0.0046   0.0042

          k = 0.1768 0.1768-0.1768 (  7564 PWs)   bands (ev):

    -5.6362  -4.1411  -3.4128  -3.4087  -3.4022  -2.5426  -2.5381  -2.5325
    -0.7014  -0.6947  -0.6913  -0.6468  -0.6401  -0.6385   0.1690   2.6684
     2.6700   2.6746   3.4372   3.4409   3.4416   3.8400   3.8429   3.8524
     4.5363   4.5649   4.5696   4.5707   5.0467   5.0536   5.8449   5.8524
     6.9265   6.9278   6.9337   7.7339   8.0143   8.0216

     occupation numbers 
     1.0000   1.0000   1.0000   1.0000   1.0000   1.0000   1.0000   1.0000
     1.0000   1.0000   1.0000   1.0000   1.0000   1.0000   1.0000   1.0000
     1.0000   1.0000   1.0000   1.0000   1.0000   1.0000   1.0000   1.0000
     1.0000   1.0000   1.0000   1.0000   1.0000   1.0000   0.9999   0.9998
     0.0001   0.0001   0.0000   0.0000   0.0000   0.0000

          k =-0.3536-0.3536 0.3536 (  7570 PWs)   bands (ev):

    -5.0442  -5.0337  -3.1226  -3.1127  -3.1119  -3.1098  -3.1092  -3.0956
    -0.2737  -0.2596  -0.2582  -0.2545  -0.2543  -0.2526   2.1932   2.2008
     2.5661   2.5662   2.5682   2.5721   2.5756   2.5885   3.9079   3.9162
     3.9194   3.9243   3.9268   3.9276   5.3638   5.3780   5.3823   5.3825
     7.5546   7.5591   7.5656   7.5676   7.5698   8.0954

     occupation numbers 
     1.0000   1.0000   1.0000   1.0000   1.0000   1.0000   1.0000   1.0000
     1.0000   1.0000   1.0000   1.0000   1.0000   1.0000   1.0000   1.0000
     1.0000   1.0000   1.0000   1.0000   1.0000   1.0000   1.0000   1.0000
     1.0000   1.0000   1.0000   1.0000   1.0000   1.0000   1.0000   1.0000
     0.0000   0.0000   0.0000   0.0000   0.0000   0.0000

          k = 0.3536 0.0000 0.0000 (  7563 PWs)   bands (ev):

    -5.5672  -3.6647  -3.6569  -3.6557  -3.6485  -3.4391  -1.6120  -1.6037
    -1.6036  -1.5956  -0.2741  -0.2664  -0.2653  -0.2575   0.3927   2.6841
     2.6866   2.6886   2.6911   3.5151   3.5200   3.6494   3.6555   3.6573
     3.6634   4.8045   4.8617   4.8705   4.8723   4.8815   5.3229   5.3312
     6.6557   7.5717   8.0163   8.0233   8.0256   8.0900

     occupation numbers 
     1.0000   1.0000   1.0000   1.0000   1.0000   1.0000   1.0000   1.0000
     1.0000   1.0000   1.0000   1.0000   1.0000   1.0000   1.0000   1.0000
     1.0000   1.0000   1.0000   1.0000   1.0000   1.0000   1.0000   1.0000
     1.0000   1.0000   1.0000   1.0000   1.0000   1.0000   1.0000   1.0000
     0.0245   0.0000   0.0000   0.0000   0.0000   0.0000

          k =-0.1768-0.5303 0.5303 (  7554 PWs)   bands (ev):

    -5.0973  -4.5868  -4.0431  -3.6167  -3.6093  -2.9045  -2.3601  -2.3527
    -0.8033  -0.7969  -0.5165   0.2765   0.2841   1.1933   1.5018   2.0331
     2.0367   2.1072   2.7838   2.7883   2.9088   3.1451   3.1494   3.4473
     3.8038   3.9152   4.1923   4.2008   4.2409   4.8090   4.8853   5.3630
     7.4013   7.8910   8.2218   8.4397   8.4463   8.8006

     occupation numbers 
     1.0000   1.0000   1.0000   1.0000   1.0000   1.0000   1.0000   1.0000
     1.0000   1.0000   1.0000   1.0000   1.0000   1.0000   1.0000   1.0000
     1.0000   1.0000   1.0000   1.0000   1.0000   1.0000   1.0000   1.0000
     1.0000   1.0000   1.0000   1.0000   1.0000   1.0000   1.0000   1.0000
     0.0000   0.0000   0.0000   0.0000   0.0000   0.0000

          k = 0.0000-0.3536 0.3536 (  7592 PWs)   bands (ev):

    -5.2991  -4.2833  -4.2742  -3.2416  -3.2345  -2.9572  -2.9493  -2.0955
    -1.0903  -0.6774  -0.6697   0.1675   0.1744   0.8316   0.8401   1.7879
     2.6571   2.6643   2.7405   2.7441   3.3515   3.3597   3.4526   3.6985
     3.9573   3.9620   4.2886   4.2948   4.4887   4.5361   4.5470   5.8461
     7.2397   8.0039   8.0100   8.3101   8.3179   8.6928

     occupation numbers 
     1.0000   1.0000   1.0000   1.0000   1.0000   1.0000   1.0000   1.0000
     1.0000   1.0000   1.0000   1.0000   1.0000   1.0000   1.0000   1.0000
     1.0000   1.0000   1.0000   1.0000   1.0000   1.0000   1.0000   1.0000
     1.0000   1.0000   1.0000   1.0000   1.0000   1.0000   1.0000   0.9999
     0.0000   0.0000   0.0000   0.0000   0.0000   0.0000

          k =-0.7071 0.0000 0.0000 (  7528 PWs)   bands (ev):

    -4.7605  -4.7512  -3.7970  -3.7897  -3.7879  -3.7807  -1.5231  -1.5148
    -1.5147  -1.5066   0.6428   0.6505   0.6516   0.6592   2.2372   2.2399
     2.2413   2.2437   2.3393   2.3421   2.3441   2.3470   2.6210   2.6242
     4.2285   4.2343   4.2399   4.2456   4.7981   4.8068   4.8085   4.8176
     7.1818   7.1863   8.5062   8.5136   8.5149   8.5220

     occupation numbers 
     1.0000   1.0000   1.0000   1.0000   1.0000   1.0000   1.0000   1.0000
     1.0000   1.0000   1.0000   1.0000   1.0000   1.0000   1.0000   1.0000
     1.0000   1.0000   1.0000   1.0000   1.0000   1.0000   1.0000   1.0000
     1.0000   1.0000   1.0000   1.0000   1.0000   1.0000   1.0000   1.0000
     0.0000   0.0000   0.0000   0.0000   0.0000   0.0000

          k =-0.7071 0.3536 0.0000 (  7564 PWs)   bands (ev):

    -4.5159  -4.5071  -4.5070  -4.4985  -2.7188  -2.7096  -2.7090  -2.6999
    -0.4425  -0.4361  -0.4328  -0.4265   1.8336   1.8432   1.8447   1.8496
     1.8582   1.8620   1.8655   1.8713   3.3881   3.3942   3.3959   3.4018
     3.5243   3.5258   3.5335   3.5351   4.6947   4.7028   4.7030   4.7113
     8.5149   8.5204   8.5229   8.5281   8.9235   8.9312

     occupation numbers 
     1.0000   1.0000   1.0000   1.0000   1.0000   1.0000   1.0000   1.0000
     1.0000   1.0000   1.0000   1.0000   1.0000   1.0000   1.0000   1.0000
     1.0000   1.0000   1.0000   1.0000   1.0000   1.0000   1.0000   1.0000
     1.0000   1.0000   1.0000   1.0000   1.0000   1.0000   1.0000   1.0000
     0.0000   0.0000   0.0000   0.0000   0.0000   0.0000

          k =-0.1768 0.1768 0.1768 (  7564 PWs)   bands (ev):

    -5.6361  -4.1397  -3.4151  -3.4087  -3.4026  -2.5452  -2.5382  -2.5312
    -0.7032  -0.6941  -0.6880  -0.6462  -0.6398  -0.6309   0.1640   2.6647
     2.6684   2.6720   3.4380   3.4416   3.4452   3.8360   3.8407   3.8454
     4.5302   4.5674   4.5714   4.5764   5.0459   5.0579   5.8453   5.8587
     6.9265   6.9316   6.9367   7.7357   8.0114   8.0175

     occupation numbers 
     1.0000   1.0000   1.0000   1.0000   1.0000   1.0000   1.0000   1.0000
     1.0000   1.0000   1.0000   1.0000   1.0000   1.0000   1.0000   1.0000
     1.0000   1.0000   1.0000   1.0000   1.0000   1.0000   1.0000   1.0000
     1.0000   1.0000   1.0000   1.0000   1.0000   1.0000   0.9999   0.9998
     0.0001   0.0001   0.0000   0.0000   0.0000   0.0000

          k = 0.1768 0.1768 0.1768 (  7564 PWs)   bands (ev):

    -5.6360  -4.1382  -3.4156  -3.4088  -3.4050  -2.5439  -2.5383  -2.5339
    -0.6973  -0.6937  -0.6890  -0.6411  -0.6396  -0.6307   0.1591   2.6621
     2.6667   2.6683   3.4417   3.4423   3.4458   3.8290   3.8386   3.8414
     4.5255   4.5722   4.5734   4.5786   5.0500   5.0569   5.8513   5.8592
     6.9296   6.9354   6.9367   7.7375   8.0111   8.0179

     occupation numbers 
     1.0000   1.0000   1.0000   1.0000   1.0000   1.0000   1.0000   1.0000
     1.0000   1.0000   1.0000   1.0000   1.0000   1.0000   1.0000   1.0000
     1.0000   1.0000   1.0000   1.0000   1.0000   1.0000   1.0000   1.0000
     1.0000   1.0000   1.0000   1.0000   1.0000   1.0000   0.9998   0.9998
     0.0001   0.0000   0.0000   0.0000   0.0000   0.0000

          k = 0.3536-0.3536-0.3536 (  7570 PWs)   bands (ev):

    -5.0386  -5.0384  -3.1254  -3.1125  -3.1110  -3.1110  -3.1096  -3.0968
    -0.2735  -0.2596  -0.2561  -0.2561  -0.2526  -0.2387   2.1926   2.1928
     2.5591   2.5661   2.5683   2.5683   2.5705   2.5777   3.9151   3.9221
     3.9225   3.9225   3.9229   3.9300   5.3665   5.3784   5.3792   5.3916
     7.5554   7.5653   7.5659   7.5660   7.5665   7.5761

     occupation numbers 
     1.0000   1.0000   1.0000   1.0000   1.0000   1.0000   1.0000   1.0000
     1.0000   1.0000   1.0000   1.0000   1.0000   1.0000   1.0000   1.0000
     1.0000   1.0000   1.0000   1.0000   1.0000   1.0000   1.0000   1.0000
     1.0000   1.0000   1.0000   1.0000   1.0000   1.0000   1.0000   1.0000
     0.0000   0.0000   0.0000   0.0000   0.0000   0.0000

          k =-0.3536-0.3536-0.3536 (  7570 PWs)   bands (ev):

    -5.0433  -5.0328  -3.1267  -3.1129  -3.1122  -3.1101  -3.1094  -3.0997
    -0.2595  -0.2579  -0.2577  -0.2539  -0.2525  -0.2384   2.1838   2.1923
     2.5493   2.5609   2.5646   2.5684   2.5704   2.5705   3.9175   3.9182
     3.9207   3.9256   3.9291   3.9371   5.3751   5.3753   5.3797   5.3941
     7.5618   7.5633   7.5645   7.5666   7.5769   7.5774

     occupation numbers 
     1.0000   1.0000   1.0000   1.0000   1.0000   1.0000   1.0000   1.0000
     1.0000   1.0000   1.0000   1.0000   1.0000   1.0000   1.0000   1.0000
     1.0000   1.0000   1.0000   1.0000   1.0000   1.0000   1.0000   1.0000
     1.0000   1.0000   1.0000   1.0000   1.0000   1.0000   1.0000   1.0000
     0.0000   0.0000   0.0000   0.0000   0.0000   0.0000

          k = 0.0000 0.0000 0.3536 (  7563 PWs)   bands (ev):

    -5.5672  -3.6659  -3.6563  -3.6563  -3.6472  -3.4392  -1.6132  -1.6045
    -1.6029  -1.5942  -0.2752  -0.2658  -0.2658  -0.2565   0.3927   2.6839
     2.6840   2.6910   2.6913   3.5177   3.5177   3.6470   3.6563   3.6564
     3.6656   4.8039   4.8663   4.8714   4.8728   4.8765   5.3269   5.3270
     6.6557   7.5717   8.0169   8.0174   8.0276   8.0277

     occupation numbers 
     1.0000   1.0000   1.0000   1.0000   1.0000   1.0000   1.0000   1.0000
     1.0000   1.0000   1.0000   1.0000   1.0000   1.0000   1.0000   1.0000
     1.0000   1.0000   1.0000   1.0000   1.0000   1.0000   1.0000   1.0000
     1.0000   1.0000   1.0000   1.0000   1.0000   1.0000   1.0000   1.0000
     0.0245   0.0000   0.0000   0.0000   0.0000   0.0000

          k = 0.1768-0.5303-0.5303 (  7554 PWs)   bands (ev):

    -5.0971  -4.5860  -4.0428  -3.6186  -3.6114  -2.9005  -2.3617  -2.3544
    -0.7999  -0.7935  -0.5243   0.2837   0.2914   1.1924   1.4953   2.0301
     2.0327   2.1051   2.7836   2.7892   2.9065   3.1472   3.1512   3.4422
     3.8027   3.9206   4.1843   4.1949   4.2470   4.8162   4.8803   5.3725
     7.4057   7.8979   8.2240   8.4397   8.4464   8.8042

     occupation numbers 
     1.0000   1.0000   1.0000   1.0000   1.0000   1.0000   1.0000   1.0000
     1.0000   1.0000   1.0000   1.0000   1.0000   1.0000   1.0000   1.0000
     1.0000   1.0000   1.0000   1.0000   1.0000   1.0000   1.0000   1.0000
     1.0000   1.0000   1.0000   1.0000   1.0000   1.0000   1.0000   1.0000
     0.0000   0.0000   0.0000   0.0000   0.0000   0.0000

          k =-0.1768 0.5303-0.5303 (  7554 PWs)   bands (ev):

    -5.0970  -4.5865  -4.0436  -3.6167  -3.6094  -2.9063  -2.3603  -2.3529
    -0.8027  -0.7962  -0.5116   0.2771   0.2847   1.1979   1.4984   2.0316
     2.0343   2.1036   2.7808   2.7863   2.9030   3.1466   3.1505   3.4421
     3.8073   3.9156   4.1933   4.2040   4.2411   4.8086   4.8928   5.3620
     7.4020   7.8912   8.2219   8.4434   8.4499   8.8017

     occupation numbers 
     1.0000   1.0000   1.0000   1.0000   1.0000   1.0000   1.0000   1.0000
     1.0000   1.0000   1.0000   1.0000   1.0000   1.0000   1.0000   1.0000
     1.0000   1.0000   1.0000   1.0000   1.0000   1.0000   1.0000   1.0000
     1.0000   1.0000   1.0000   1.0000   1.0000   1.0000   1.0000   1.0000
     0.0000   0.0000   0.0000   0.0000   0.0000   0.0000

          k =-0.5303-0.1768-0.5303 (  7554 PWs)   bands (ev):

    -5.0969  -4.5855  -4.0435  -3.6187  -3.6114  -2.9024  -2.3620  -2.3546
    -0.7990  -0.7928  -0.5196   0.2843   0.2920   1.1970   1.4917   2.0272
     2.0313   2.1021   2.7813   2.7859   2.9008   3.1483   3.1527   3.4372
     3.8061   3.9209   4.1878   4.1960   4.2476   4.8155   4.8875   5.3716
     7.4063   7.8982   8.2242   8.4434   8.4498   8.8053

     occupation numbers 
     1.0000   1.0000   1.0000   1.0000   1.0000   1.0000   1.0000   1.0000
     1.0000   1.0000   1.0000   1.0000   1.0000   1.0000   1.0000   1.0000
     1.0000   1.0000   1.0000   1.0000   1.0000   1.0000   1.0000   1.0000
     1.0000   1.0000   1.0000   1.0000   1.0000   1.0000   1.0000   1.0000
     0.0000   0.0000   0.0000   0.0000   0.0000   0.0000

          k = 0.5303 0.5303-0.1768 (  7554 PWs)   bands (ev):

    -5.0974  -4.5866  -4.0426  -3.6142  -3.6140  -2.9015  -2.3571  -2.3570
    -0.7990  -0.7986  -0.5228   0.2834   0.2837   1.1905   1.5004   2.0335
     2.0349   2.1076   2.7867   2.7883   2.9106   3.1466   3.1484   3.4474
     3.8014   3.9178   4.1911   4.1930   4.2439   4.8130   4.8792   5.3681
     7.4033   7.8945   8.2228   8.4411   8.4413   8.8019

     occupation numbers 
     1.0000   1.0000   1.0000   1.0000   1.0000   1.0000   1.0000   1.0000
     1.0000   1.0000   1.0000   1.0000   1.0000   1.0000   1.0000   1.0000
     1.0000   1.0000   1.0000   1.0000   1.0000   1.0000   1.0000   1.0000
     1.0000   1.0000   1.0000   1.0000   1.0000   1.0000   1.0000   1.0000
     0.0000   0.0000   0.0000   0.0000   0.0000   0.0000

          k =-0.5303 0.5303 0.1768 (  7554 PWs)   bands (ev):

    -5.0970  -4.5862  -4.0433  -3.6187  -3.6093  -2.9035  -2.3614  -2.3532
    -0.8042  -0.7918  -0.5180   0.2767   0.2916   1.1952   1.4968   2.0300
     2.0341   2.1047   2.7806   2.7889   2.9049   3.1449   3.1527   3.4422
     3.8049   3.9184   4.1913   4.1970   4.2443   4.8122   4.8866   5.3673
     7.4038   7.8945   8.2229   8.4398   8.4498   8.8029

     occupation numbers 
     1.0000   1.0000   1.0000   1.0000   1.0000   1.0000   1.0000   1.0000
     1.0000   1.0000   1.0000   1.0000   1.0000   1.0000   1.0000   1.0000
     1.0000   1.0000   1.0000   1.0000   1.0000   1.0000   1.0000   1.0000
     1.0000   1.0000   1.0000   1.0000   1.0000   1.0000   1.0000   1.0000
     0.0000   0.0000   0.0000   0.0000   0.0000   0.0000

          k =-0.5303-0.5303-0.1768 (  7554 PWs)   bands (ev):

    -5.0968  -4.5858  -4.0438  -3.6142  -3.6140  -2.9053  -2.3575  -2.3575
    -0.7974  -0.7972  -0.5132   0.2847   0.2850   1.1996   1.4934   2.0292
     2.0309   2.1011   2.7812   2.7832   2.8992   3.1494   3.1509   3.4372
     3.8083   3.9184   4.1950   4.1978   4.2447   4.8118   4.8938   5.3662
     7.4045   7.8949   8.2231   8.4483   8.4484   8.8040

     occupation numbers 
     1.0000   1.0000   1.0000   1.0000   1.0000   1.0000   1.0000   1.0000
     1.0000   1.0000   1.0000   1.0000   1.0000   1.0000   1.0000   1.0000
     1.0000   1.0000   1.0000   1.0000   1.0000   1.0000   1.0000   1.0000
     1.0000   1.0000   1.0000   1.0000   1.0000   1.0000   1.0000   1.0000
     0.0000   0.0000   0.0000   0.0000   0.0000   0.0000

          k = 0.0000-0.3536-0.3536 (  7592 PWs)   bands (ev):

    -5.2987  -4.2826  -4.2734  -3.2433  -3.2361  -2.9598  -2.9521  -2.0888
    -1.0988  -0.6710  -0.6635   0.1733   0.1803   0.8281   0.8367   1.7843
     2.6500   2.6576   2.7400   2.7437   3.3465   3.3548   3.4431   3.7037
     3.9610   3.9659   4.2843   4.2904   4.4904   4.5424   4.5541   5.8577
     7.2463   8.0060   8.0120   8.3151   8.3226   8.6965

     occupation numbers 
     1.0000   1.0000   1.0000   1.0000   1.0000   1.0000   1.0000   1.0000
     1.0000   1.0000   1.0000   1.0000   1.0000   1.0000   1.0000   1.0000
     1.0000   1.0000   1.0000   1.0000   1.0000   1.0000   1.0000   1.0000
     1.0000   1.0000   1.0000   1.0000   1.0000   1.0000   1.0000   0.9998
     0.0000   0.0000   0.0000   0.0000   0.0000   0.0000

          k = 0.3536 0.3536 0.0000 (  7592 PWs)   bands (ev):

    -5.2989  -4.2794  -4.2773  -3.2393  -3.2388  -2.9546  -2.9543  -2.0921
    -1.0947  -0.6704  -0.6703   0.1739   0.1739   0.8287   0.8395   1.7862
     2.6568   2.6572   2.7421   2.7425   3.3529   3.3532   3.4478   3.7011
     3.9616   3.9616   4.2837   4.2952   4.4901   4.5437   4.5457   5.8518
     7.2431   8.0079   8.0080   8.3157   8.3174   8.6931

     occupation numbers 
     1.0000   1.0000   1.0000   1.0000   1.0000   1.0000   1.0000   1.0000
     1.0000   1.0000   1.0000   1.0000   1.0000   1.0000   1.0000   1.0000
     1.0000   1.0000   1.0000   1.0000   1.0000   1.0000   1.0000   1.0000
     1.0000   1.0000   1.0000   1.0000   1.0000   1.0000   1.0000   0.9998
     0.0000   0.0000   0.0000   0.0000   0.0000   0.0000

          k =-0.3536 0.3536 0.0000 (  7592 PWs)   bands (ev):

    -5.2989  -4.2785  -4.2783  -3.2437  -3.2339  -2.9579  -2.9513  -2.0923
    -1.0946  -0.6772  -0.6635   0.1669   0.1808   0.8341   0.8342   1.7861
     2.6568   2.6579   2.7402   2.7438   3.3499   3.3565   3.4477   3.7013
     3.9569   3.9659   4.2894   4.2895   4.4887   4.5447   4.5463   5.8519
     7.2430   8.0021   8.0138   8.3161   8.3165   8.6932

     occupation numbers 
     1.0000   1.0000   1.0000   1.0000   1.0000   1.0000   1.0000   1.0000
     1.0000   1.0000   1.0000   1.0000   1.0000   1.0000   1.0000   1.0000
     1.0000   1.0000   1.0000   1.0000   1.0000   1.0000   1.0000   1.0000
     1.0000   1.0000   1.0000   1.0000   1.0000   1.0000   1.0000   0.9998
     0.0000   0.0000   0.0000   0.0000   0.0000   0.0000

          k = 0.0000 0.0000-0.7071 (  7528 PWs)   bands (ev):

    -4.7559  -4.7558  -3.7990  -3.7888  -3.7888  -3.7789  -1.5241  -1.5148
    -1.5146  -1.5054   0.6433   0.6510   0.6511   0.6586   2.2359   2.2393
     2.2415   2.2449   2.3394   2.3431   2.3435   2.3466   2.6225   2.6228
     4.2370   4.2372   4.2372   4.2375   4.8019   4.8077   4.8079   4.8135
     7.1840   7.1842   8.5113   8.5140   8.5142   8.5171

     occupation numbers 
     1.0000   1.0000   1.0000   1.0000   1.0000   1.0000   1.0000   1.0000
     1.0000   1.0000   1.0000   1.0000   1.0000   1.0000   1.0000   1.0000
     1.0000   1.0000   1.0000   1.0000   1.0000   1.0000   1.0000   1.0000
     1.0000   1.0000   1.0000   1.0000   1.0000   1.0000   1.0000   1.0000
     0.0000   0.0000   0.0000   0.0000   0.0000   0.0000

          k = 0.7071 0.0000 0.3536 (  7564 PWs)   bands (ev):

    -4.5172  -4.5078  -4.5063  -4.4971  -2.7166  -2.7107  -2.7080  -2.7022
    -0.4439  -0.4355  -0.4334  -0.4251   1.8345   1.8431   1.8448   1.8495
     1.8608   1.8610   1.8646   1.8698   3.3924   3.3942   3.3960   3.3977
     3.5243   3.5278   3.5312   3.5350   4.6919   4.7010   4.7046   4.7141
     8.5160   8.5214   8.5218   8.5270   8.9252   8.9328

     occupation numbers 
     1.0000   1.0000   1.0000   1.0000   1.0000   1.0000   1.0000   1.0000
     1.0000   1.0000   1.0000   1.0000   1.0000   1.0000   1.0000   1.0000
     1.0000   1.0000   1.0000   1.0000   1.0000   1.0000   1.0000   1.0000
     1.0000   1.0000   1.0000   1.0000   1.0000   1.0000   1.0000   1.0000
     0.0000   0.0000   0.0000   0.0000   0.0000   0.0000

     the Fermi energy is     6.3715 ev

!    total energy              =    -152.95699401 Ry
     Harris-Foulkes estimate   =    -152.95699400 Ry
     estimated scf accuracy    <          2.1E-10 Ry

     The total energy is the sum of the following terms:

     one-electron contribution =      40.84927977 Ry
     hartree contribution      =       8.76455637 Ry
     xc contribution           =     -68.21699168 Ry
     ewald contribution        =    -134.35357265 Ry
     smearing contrib. (-TS)   =      -0.00026582 Ry

     convergence has been achieved in  10 iterations

     Forces acting on atoms (Ry/au):

     atom    1 type  1   force =  -0.57353321E-02 -0.57353321E-02 -0.15164531E-03
     atom    2 type  1   force =   0.25024141E-02  0.25024141E-02  0.20461036E-02
     atom    3 type  1   force =   0.39838763E-03  0.39838763E-03  0.89163858E-06
     atom    4 type  1   force =   0.24044418E-02  0.24044418E-02 -0.19125895E-02
     atom    5 type  1   force =   0.19410464E-03 -0.35452535E-03  0.20352724E-03
     atom    6 type  1   force =   0.48150131E-03  0.46799304E-03  0.11695740E-04
     atom    7 type  1   force =  -0.35452501E-03  0.19284635E-03 -0.20635977E-03
     atom    8 type  1   force =  -0.11784719E-03 -0.11694406E-03 -0.52682678E-08
     atom    9 type  1   force =  -0.35452535E-03  0.19410464E-03  0.20352724E-03
     atom   10 type  1   force =   0.46799304E-03  0.48150131E-03  0.11695740E-04
     atom   11 type  1   force =   0.19284635E-03 -0.35452501E-03 -0.20635977E-03
     atom   12 type  1   force =  -0.11694406E-03 -0.11784719E-03 -0.52682678E-08
     atom   13 type  1   force =  -0.11481872E-04 -0.11481872E-04 -0.12397357E-05
     atom   14 type  1   force =  -0.66668083E-05 -0.66668083E-05 -0.11057808E-03
     atom   15 type  1   force =   0.61949357E-04  0.61949357E-04  0.13671399E-06
     atom   16 type  1   force =  -0.63157785E-05 -0.63157785E-05  0.11120474E-03
     The non-local contrib.  to forces
     atom    1 type  1   force =  -0.56272311E-02 -0.56272311E-02 -0.16354711E-03
     atom    2 type  1   force =   0.26804653E-02  0.26804653E-02  0.32944656E-02
     atom    3 type  1   force =   0.18124692E-03  0.18124692E-03 -0.80682701E-05
     atom    4 type  1   force =   0.25924499E-02  0.25924499E-02 -0.31603736E-02
     atom    5 type  1   force =   0.15012720E-03  0.36885013E-03  0.27687055E-04
     atom    6 type  1   force =  -0.56590579E-03 -0.61477314E-03  0.23086159E-04
     atom    7 type  1   force =   0.37102797E-03  0.15357348E-03 -0.30983052E-04
     atom    8 type  1   force =   0.15049056E-03  0.15069091E-03  0.26230975E-06
     atom    9 type  1   force =   0.36885013E-03  0.15012720E-03  0.27687055E-04
     atom   10 type  1   force =  -0.61477314E-03 -0.56590579E-03  0.23086159E-04
     atom   11 type  1   force =   0.15357348E-03  0.37102797E-03 -0.30983052E-04
     atom   12 type  1   force =   0.15069091E-03  0.15049056E-03  0.26230975E-06
     atom   13 type  1   force =   0.12254225E-03  0.12254225E-03  0.15503348E-05
     atom   14 type  1   force =  -0.13253177E-04 -0.13253177E-04  0.16420108E-03
     atom   15 type  1   force =  -0.86306961E-04 -0.86306961E-04  0.21208954E-06
     atom   16 type  1   force =  -0.13931987E-04 -0.13931987E-04 -0.16413209E-03
     The ionic contribution  to forces
     atom    1 type  1   force =  -0.19085401E-01 -0.19085401E-01 -0.37329826E-03
     atom    2 type  1   force =   0.87683571E-02  0.87683571E-02  0.15095977E-01
     atom    3 type  1   force =   0.69812815E-02  0.69812815E-02  0.22204460E-15
     atom    4 type  1   force =   0.87289723E-02  0.87289723E-02 -0.14812000E-01
     atom    5 type  1   force =   0.25886122E-02 -0.13604773E-02  0.43922399E-02
     atom    6 type  1   force =  -0.61446755E-02 -0.62628473E-02  0.63196442E-04
     atom    7 type  1   force =  -0.13604773E-02  0.25886122E-02 -0.43922399E-02
     atom    8 type  1   force =   0.22839220E-02  0.23102037E-02 -0.18028365E-04
     atom    9 type  1   force =  -0.13604773E-02  0.25886122E-02  0.43922399E-02
     atom   10 type  1   force =  -0.62628473E-02 -0.61446755E-02  0.63196442E-04
     atom   11 type  1   force =   0.25886122E-02 -0.13604773E-02 -0.43922399E-02
     atom   12 type  1   force =   0.23102037E-02  0.22839220E-02 -0.18028365E-04
     atom   13 type  1   force =  -0.18035465E-02 -0.18035465E-02  0.17763568E-13
     atom   14 type  1   force =   0.24319736E-03  0.24319736E-03  0.20488859E-02
     atom   15 type  1   force =   0.12723093E-02  0.12723093E-02  0.26645353E-14
     atom   16 type  1   force =   0.25195776E-03  0.25195776E-03 -0.20499006E-02
     The local contribution  to forces
     atom    1 type  1   force =   0.18479038E-01  0.18479038E-01  0.37020397E-03
     atom    2 type  1   force =  -0.86892153E-02 -0.86892153E-02 -0.16020108E-01
     atom    3 type  1   force =  -0.67501091E-02 -0.67501091E-02  0.79077572E-05
     atom    4 type  1   force =  -0.86672114E-02 -0.86672114E-02  0.15748216E-01
     atom    5 type  1   force =  -0.25331621E-02  0.66726393E-03 -0.42137856E-02
     atom    6 type  1   force =   0.71297308E-02  0.72790619E-02 -0.72567726E-04
     atom    7 type  1   force =   0.66597294E-03 -0.25381797E-02  0.42139033E-02
     atom    8 type  1   force =  -0.25418038E-02 -0.25667872E-02  0.17936162E-04
     atom    9 type  1   force =   0.66726393E-03 -0.25331621E-02 -0.42137856E-02
     atom   10 type  1   force =   0.72790619E-02  0.71297308E-02 -0.72567726E-04
     atom   11 type  1   force =  -0.25381797E-02  0.66597294E-03  0.42139033E-02
     atom   12 type  1   force =  -0.25667872E-02 -0.25418038E-02  0.17936162E-04
     atom   13 type  1   force =   0.16779964E-02  0.16779964E-02 -0.24129335E-05
     atom   14 type  1   force =  -0.23721600E-03 -0.23721600E-03 -0.23121778E-02
     atom   15 type  1   force =  -0.11300316E-02 -0.11300316E-02  0.18349990E-06
     atom   16 type  1   force =  -0.24545986E-03 -0.24545986E-03  0.23134057E-02
     The core correction contribution to forces
     atom    1 type  1   force =   0.49720671E-03  0.49720671E-03  0.14598491E-04
     atom    2 type  1   force =  -0.25720285E-03 -0.25720285E-03 -0.32547126E-03
     atom    3 type  1   force =  -0.13058031E-04 -0.13058031E-04  0.60458108E-06
     atom    4 type  1   force =  -0.24971750E-03 -0.24971750E-03  0.31323264E-03
     atom    5 type  1   force =  -0.11184535E-04 -0.30595266E-04 -0.15765523E-05
     atom    6 type  1   force =   0.63658190E-04  0.68009219E-04 -0.20546806E-05
     atom    7 type  1   force =  -0.30759377E-04 -0.11500358E-04  0.18393377E-05
     atom    8 type  1   force =  -0.12023910E-04 -0.12040402E-04 -0.14078409E-07
     atom    9 type  1   force =  -0.30595266E-04 -0.11184535E-04 -0.15765523E-05
     atom   10 type  1   force =   0.68009219E-04  0.63658190E-04 -0.20546806E-05
     atom   11 type  1   force =  -0.11500358E-04 -0.30759377E-04  0.18393377E-05
     atom   12 type  1   force =  -0.12040402E-04 -0.12023910E-04 -0.14078408E-07
     atom   13 type  1   force =  -0.96373417E-05 -0.96373417E-05 -0.13933400E-06
     atom   14 type  1   force =   0.89127367E-06  0.89127367E-06 -0.12939322E-04
     atom   15 type  1   force =   0.70216230E-05  0.70216230E-05 -0.15793450E-07
     atom   16 type  1   force =   0.93793944E-06  0.93793944E-06  0.12950994E-04
     The Hubbard contrib.    to forces
     atom    1 type  1   force =   0.00000000E+00  0.00000000E+00  0.00000000E+00
     atom    2 type  1   force =   0.00000000E+00  0.00000000E+00  0.00000000E+00
     atom    3 type  1   force =   0.00000000E+00  0.00000000E+00  0.00000000E+00
     atom    4 type  1   force =   0.00000000E+00  0.00000000E+00  0.00000000E+00
     atom    5 type  1   force =   0.00000000E+00  0.00000000E+00  0.00000000E+00
     atom    6 type  1   force =   0.00000000E+00  0.00000000E+00  0.00000000E+00
     atom    7 type  1   force =   0.00000000E+00  0.00000000E+00  0.00000000E+00
     atom    8 type  1   force =   0.00000000E+00  0.00000000E+00  0.00000000E+00
     atom    9 type  1   force =   0.00000000E+00  0.00000000E+00  0.00000000E+00
     atom   10 type  1   force =   0.00000000E+00  0.00000000E+00  0.00000000E+00
     atom   11 type  1   force =   0.00000000E+00  0.00000000E+00  0.00000000E+00
     atom   12 type  1   force =   0.00000000E+00  0.00000000E+00  0.00000000E+00
     atom   13 type  1   force =   0.00000000E+00  0.00000000E+00  0.00000000E+00
     atom   14 type  1   force =   0.00000000E+00  0.00000000E+00  0.00000000E+00
     atom   15 type  1   force =   0.00000000E+00  0.00000000E+00  0.00000000E+00
     atom   16 type  1   force =   0.00000000E+00  0.00000000E+00  0.00000000E+00
     The SCF correction term to forces
     atom    1 type  1   force =   0.10550430E-05  0.10550430E-05  0.38714447E-06
     atom    2 type  1   force =   0.90007470E-08  0.90007469E-08  0.12293455E-05
     atom    3 type  1   force =  -0.97442782E-06 -0.97442782E-06  0.43711289E-06
     atom    4 type  1   force =  -0.52142374E-07 -0.52142374E-07 -0.16742549E-05
     atom    5 type  1   force =  -0.28893572E-06  0.43233810E-06 -0.10479796E-05
     atom    6 type  1   force =  -0.13072065E-05 -0.14584492E-05  0.25088716E-07
     atom    7 type  1   force =  -0.29005831E-06  0.33990268E-06  0.11100588E-05
     atom    8 type  1   force =   0.15671687E-05  0.98815417E-06 -0.17175366E-06
     atom    9 type  1   force =   0.43233810E-06 -0.28893572E-06 -0.10479796E-05
     atom   10 type  1   force =  -0.14584492E-05 -0.13072065E-05  0.25088716E-07
     atom   11 type  1   force =   0.33990268E-06 -0.29005831E-06  0.11100588E-05
     atom   12 type  1   force =   0.98815417E-06  0.15671687E-05 -0.17175366E-06
     atom   13 type  1   force =   0.11625773E-05  0.11625773E-05 -0.24826067E-06
     atom   14 type  1   force =  -0.28704723E-06 -0.28704723E-06  0.14416228E-05
     atom   15 type  1   force =  -0.10437385E-05 -0.10437385E-05 -0.25353952E-06
     atom   16 type  1   force =   0.17958284E-06  0.17958284E-06 -0.11297872E-05

     Total force =     0.009994     Total SCF correction =     0.000006


     entering subroutine stress ...

          total   stress  (Ry/bohr**3)                   (kbar)     P=    0.42
   0.0000028239   0.0000000923   0.0000036685          0.42      0.01      0.54
   0.0000000923   0.0000028239   0.0000036685          0.01      0.42      0.54
   0.0000036685   0.0000036685   0.0000028973          0.54      0.54      0.43

     kinetic stress (kbar)   2190.11      0.00     -0.37
                                0.00   2190.11     -0.37
                               -0.37     -0.37   2190.11

     local   stress (kbar)   -287.58     -0.01     -4.31
                               -0.01   -287.58     -4.31
                               -4.31     -4.31   -287.64

     nonloc. stress (kbar)   1939.78      0.00      0.50
                                0.00   1939.78      0.50
                                0.50      0.50   1939.79

     hartree stress (kbar)    198.72     -0.00      0.50
                               -0.00    198.72      0.50
                                0.50      0.50    198.73

     exc-cor stress (kbar)    993.75      0.00      0.01
                                0.00    993.75      0.01
                                0.01      0.01    993.75

     corecor stress (kbar)  -1988.10     -0.00     -0.06
                               -0.00  -1988.10     -0.06
                               -0.06     -0.06  -1988.10

     ewald   stress (kbar)  -3046.26      0.02      4.27
                                0.02  -3046.26      4.27
                                4.27      4.27  -3046.21

     hubbard stress (kbar)      0.00      0.00      0.00
                                0.00      0.00      0.00
                                0.00      0.00      0.00

     london  stress (kbar)      0.00      0.00      0.00
                                0.00      0.00      0.00
                                0.00      0.00      0.00

     XDM     stress (kbar)      0.00      0.00      0.00
                                0.00      0.00      0.00
                                0.00      0.00      0.00

     dft-nl  stress (kbar)      0.00      0.00      0.00
                                0.00      0.00      0.00
                                0.00      0.00      0.00



     Writing output data file Si_diamond.scf.in.super.222.x002.save

     init_run     :     12.59s CPU     12.90s WALL (       1 calls)
     electrons    :    282.69s CPU    296.80s WALL (       1 calls)
     forces       :      4.84s CPU      4.70s WALL (       1 calls)
     stress       :     21.31s CPU     21.33s WALL (       1 calls)

     Called by init_run:
     wfcinit      :     11.44s CPU     11.73s WALL (       1 calls)
     potinit      :      0.14s CPU      0.15s WALL (       1 calls)

     Called by electrons:
     c_bands      :    232.06s CPU    245.01s WALL (      11 calls)
     sum_band     :     42.30s CPU     43.35s WALL (      11 calls)
     v_of_rho     :      1.11s CPU      1.13s WALL (      11 calls)
     v_h          :      0.07s CPU      0.07s WALL (      11 calls)
     v_xc         :      1.29s CPU      1.30s WALL (      13 calls)
     newd         :      6.74s CPU      6.82s WALL (      11 calls)
     mix_rho      :      0.94s CPU      0.94s WALL (      11 calls)

     Called by c_bands:
     init_us_2    :      3.01s CPU      3.21s WALL (     600 calls)
     cegterg      :    218.89s CPU    231.14s WALL (     264 calls)

     Called by sum_band:
     sum_band:bec :      0.19s CPU      0.23s WALL (     264 calls)
     addusdens    :      7.13s CPU      7.20s WALL (      11 calls)

     Called by *egterg:
     h_psi        :    151.44s CPU    154.22s WALL (    1023 calls)
     s_psi        :     13.42s CPU     12.63s WALL (    1023 calls)
     g_psi        :      0.38s CPU      0.34s WALL (     735 calls)
     cdiaghg      :     11.70s CPU     13.66s WALL (     975 calls)
     cegterg:over :     25.05s CPU     28.37s WALL (     735 calls)
     cegterg:upda :      5.24s CPU      7.16s WALL (     735 calls)
     cegterg:last :      2.09s CPU      2.38s WALL (     279 calls)

     Called by h_psi:
     h_psi:vloc   :    110.78s CPU    113.29s WALL (    1023 calls)
     h_psi:vnl    :     40.34s CPU     40.59s WALL (    1023 calls)
     add_vuspsi   :     13.83s CPU     13.45s WALL (    1023 calls)

     General routines
     calbec       :     43.95s CPU     44.75s WALL (    1335 calls)
     fft          :      1.55s CPU      1.58s WALL (     201 calls)
     ffts         :      0.49s CPU      0.49s WALL (     187 calls)
     fftw         :    116.75s CPU    119.82s WALL (   65758 calls)
     interpolate  :      0.19s CPU      0.19s WALL (      22 calls)

     Parallel routines
     fft_scatter  :     63.44s CPU     65.25s WALL (   66146 calls)

     PWSCF        :  5m22.66s CPU     5m37.44s WALL


   This run was terminated on:  11:56:18  28Sep2017            

=------------------------------------------------------------------------------=
   JOB DONE.
=------------------------------------------------------------------------------=
