
     Program PWSCF v.5.1 starts on 28Sep2017 at 12: 4:22 

     This program is part of the open-source Quantum ESPRESSO suite
     for quantum simulation of materials; please cite
         "P. Giannozzi et al., J. Phys.:Condens. Matter 21 395502 (2009);
          URL http://www.quantum-espresso.org", 
     in publications or presentations arising from this work. More details at
     http://www.quantum-espresso.org/quote

     Parallel version (MPI), running on     8 processors
     R & G space division:  proc/nbgrp/npool/nimage =       8
     Reading input from /tmp/Si_diamond.scf.in.super.222.xy001.2042/Si_diamond.scf.in.super.222.xy001.t
Warning: card &IONS ignored
Warning: card   ION_DYNAMICS='BFGS', ignored
Warning: card / ignored
Warning: card &CELL ignored
Warning: card  CELL_DYNAMICS = 'BFGS' ignored
Warning: card / ignored
     Message from routine read_cards :
     DEPRECATED: no units specified in CELL_PARAMETERS card

     Current dimensions of program PWSCF are:
     Max number of different atomic species (ntypx) = 10
     Max number of k-points (npk) =  40000
     Max angular momentum in pseudopotentials (lmaxx) =  3
 kfg - two_fermi_energies  F

     Subspace diagonalization in iterative solution of the eigenvalue problem:
     a serial algorithm will be used


     Parallelization info
     --------------------
     sticks:   dense  smooth     PW     G-vecs:    dense   smooth      PW
     Min         363     256     71                12921     7555    1109
     Max         364     257     73                12925     7568    1110
     Sum        2905    2053    571               103379    60495    8873



     bravais-lattice index     =            0
     lattice parameter (alat)  =    14.515605984  a.u.
     unit-cell volume          =    2162.6713 (a.u.)^3
     number of atoms/cell      =           16
     number of atomic types    =            1
     number of electrons       =        64.00
     number of Kohn-Sham states=           38
     kinetic-energy cutoff     =      35.0000  Ry
     charge density cutoff     =     200.0000  Ry
     convergence threshold     =      1.0E-09
     mixing beta               =       0.3000
     number of iterations used =            8  local-TF  mixing
     Exchange-correlation      = SLA  PW   PSX  PSC ( 1  4 10  8 0)
     A smooth kinetic-energy cutoff is imposed at      34.5000 Ry
     height of the smooth step-function =             800.0000 Ry
     width of the smooth step-function  =               1.0000 Ry


     celldm(1)=  14.515606  celldm(2)=   0.000000  celldm(3)=   0.000000
     celldm(4)=   0.000000  celldm(5)=   0.000000  celldm(6)=   0.000000

     crystal axes: (cart. coord. in units of alat)
               a(1) = (  -0.000000000000   0.707106781187   0.707106781187 )  
               a(2) = (   0.707106781187  -0.000000000000   0.707106781187 )  
               a(3) = (   0.707106781187   0.707106781187  -0.000000000000 )  

     reciprocal axes: (cart. coord. in units 2 pi/alat)
               b(1) = ( -0.707107  0.707107  0.707107 )  
               b(2) = (  0.707107 -0.707107  0.707107 )  
               b(3) = (  0.707107  0.707107 -0.707107 )  


     PseudoPot. # 1 for Si read from file:
     /users/kfg/psuedo/gbrv_1.5/si.pbesol.UPF
     MD5 check sum: ef58ba74faed4df802eb8a9742fc00a8
     Pseudo is Ultrasoft + core correction, Zval =  4.0
     Generated by new atomic code, or converted to UPF format
     Using radial grid of  899 points,  6 beta functions with: 
                l(1) =   0
                l(2) =   0
                l(3) =   1
                l(4) =   1
                l(5) =   2
                l(6) =   2
     Q(r) pseudized with  8 coefficients,  rinner =    0.900   0.900   0.900
                                                       0.900   0.900

     atomic species   valence    mass     pseudopotential
        Si             4.00    28.08550     Si( 1.00)

      2 Sym. Ops. (no inversion) found


                                    s                        frac. trans.

      isym =  1     identity                                     

 cryst.   s( 1) = (     1          0          0      )
                  (     0          1          0      )
                  (     0          0          1      )

 cart.    s( 1) = (  1.0000000  0.0000000  0.0000000 )
                  (  0.0000000  1.0000000  0.0000000 )
                  (  0.0000000  0.0000000  1.0000000 )


      isym =  2     inv. 180 deg rotation - cart. axis [0,1,-1]  

 cryst.   s( 2) = (     1          0          0      )
                  (     0          0          1      )
                  (     0          1          0      )

 cart.    s( 2) = (  1.0000000  0.0000000  0.0000000 )
                  (  0.0000000  0.0000000  1.0000000 )
                  (  0.0000000  1.0000000  0.0000000 )


     point group C_s (m)    
     there are  2 classes
     the character table:

       E     s    
A'     1.00  1.00
A''    1.00 -1.00

     the symmetry operations in each class:
     E        1
     s        2

   Cartesian axes

     site n.     atom                  positions (alat units)
         1           Si  tau(   1) = (    0.00141421356    0.00070710678    0.00070710678  )
         2           Si  tau(   2) = (    0.17677669530    0.17677669530    0.17677669530  )
         3           Si  tau(   3) = (    0.35355339059    0.35355339059    0.00000000000  )
         4           Si  tau(   4) = (    0.53033008589    0.53033008589    0.17677669530  )
         5           Si  tau(   5) = (    0.35355339059    0.00000000000    0.35355339059  )
         6           Si  tau(   6) = (    0.53033008589    0.17677669530    0.53033008589  )
         7           Si  tau(   7) = (    0.70710678119    0.35355339059    0.35355339059  )
         8           Si  tau(   8) = (    0.88388347648    0.53033008589    0.53033008589  )
         9           Si  tau(   9) = (    0.00000000000    0.35355339059    0.35355339059  )
        10           Si  tau(  10) = (    0.17677669530    0.53033008589    0.53033008589  )
        11           Si  tau(  11) = (    0.35355339059    0.70710678119    0.35355339059  )
        12           Si  tau(  12) = (    0.53033008589    0.88388347648    0.53033008589  )
        13           Si  tau(  13) = (    0.35355339059    0.35355339059    0.70710678119  )
        14           Si  tau(  14) = (    0.53033008589    0.53033008589    0.88388347648  )
        15           Si  tau(  15) = (    0.70710678119    0.70710678119    0.70710678119  )
        16           Si  tau(  16) = (    0.88388347648    0.88388347648    0.88388347648  )

   Crystallographic axes

     site n.     atom                  positions (cryst. coord.)
         1           Si  tau(   1) = (    0.00000000000    0.00100000000    0.00100000000  )
         2           Si  tau(   2) = (    0.12500000000    0.12500000000    0.12500000000  )
         3           Si  tau(   3) = (    0.00000000000    0.00000000000    0.50000000000  )
         4           Si  tau(   4) = (    0.12500000000    0.12500000000    0.62500000000  )
         5           Si  tau(   5) = (    0.00000000000    0.50000000000    0.00000000000  )
         6           Si  tau(   6) = (    0.12500000000    0.62500000000    0.12500000000  )
         7           Si  tau(   7) = (    0.00000000000    0.50000000000    0.50000000000  )
         8           Si  tau(   8) = (    0.12500000000    0.62500000000    0.62500000000  )
         9           Si  tau(   9) = (    0.50000000000    0.00000000000    0.00000000000  )
        10           Si  tau(  10) = (    0.62500000000    0.12500000000    0.12500000000  )
        11           Si  tau(  11) = (    0.50000000000    0.00000000000    0.50000000000  )
        12           Si  tau(  12) = (    0.62500000000    0.12500000000    0.62500000000  )
        13           Si  tau(  13) = (    0.50000000000    0.50000000000    0.00000000000  )
        14           Si  tau(  14) = (    0.62500000000    0.62500000000    0.12500000000  )
        15           Si  tau(  15) = (    0.50000000000    0.50000000000    0.50000000000  )
        16           Si  tau(  16) = (    0.62500000000    0.62500000000    0.62500000000  )

     number of k points=    24  gaussian smearing, width (Ry)=  0.0150
                       cart. coord. in units 2pi/alat
        k(    1) = (   0.0000000   0.0000000   0.0000000), wk =   0.0312500
        k(    2) = (   0.1767767   0.1767767  -0.1767767), wk =   0.1250000
        k(    3) = (  -0.3535534  -0.3535534   0.3535534), wk =   0.0625000
        k(    4) = (   0.3535534   0.0000000   0.0000000), wk =   0.0625000
        k(    5) = (  -0.1767767  -0.5303301   0.5303301), wk =   0.1250000
        k(    6) = (   0.0000000  -0.3535534   0.3535534), wk =   0.0625000
        k(    7) = (  -0.7071068   0.0000000   0.0000000), wk =   0.0312500
        k(    8) = (  -0.7071068   0.3535534   0.0000000), wk =   0.1250000
        k(    9) = (  -0.1767767   0.1767767   0.1767767), wk =   0.0625000
        k(   10) = (   0.1767767   0.1767767   0.1767767), wk =   0.0625000
        k(   11) = (   0.3535534  -0.3535534  -0.3535534), wk =   0.0312500
        k(   12) = (  -0.3535534  -0.3535534  -0.3535534), wk =   0.0312500
        k(   13) = (   0.0000000   0.3535534   0.0000000), wk =   0.1250000
        k(   14) = (   0.1767767  -0.5303301  -0.5303301), wk =   0.0625000
        k(   15) = (  -0.5303301  -0.1767767  -0.5303301), wk =   0.1250000
        k(   16) = (   0.5303301   0.1767767  -0.5303301), wk =   0.1250000
        k(   17) = (  -0.5303301   0.1767767   0.5303301), wk =   0.1250000
        k(   18) = (   0.5303301  -0.1767767   0.5303301), wk =   0.1250000
        k(   19) = (  -0.1767767  -0.5303301  -0.5303301), wk =   0.0625000
        k(   20) = (   0.0000000  -0.3535534  -0.3535534), wk =   0.0625000
        k(   21) = (  -0.3535534   0.0000000  -0.3535534), wk =   0.1250000
        k(   22) = (   0.3535534   0.0000000  -0.3535534), wk =   0.1250000
        k(   23) = (   0.0000000  -0.7071068   0.0000000), wk =   0.0625000
        k(   24) = (   0.3535534  -0.7071068   0.0000000), wk =   0.0625000

                       cryst. coord.
        k(    1) = (   0.0000000   0.0000000   0.0000000), wk =   0.0312500
        k(    2) = (   0.0000000   0.0000000   0.2500000), wk =   0.1250000
        k(    3) = (   0.0000000   0.0000000  -0.5000000), wk =   0.0625000
        k(    4) = (   0.0000000   0.2500000   0.2500000), wk =   0.0625000
        k(    5) = (   0.0000000   0.2500000  -0.5000000), wk =   0.1250000
        k(    6) = (   0.0000000   0.2500000  -0.2500000), wk =   0.0625000
        k(    7) = (   0.0000000  -0.5000000  -0.5000000), wk =   0.0312500
        k(    8) = (   0.2500000  -0.5000000  -0.2500000), wk =   0.1250000
        k(    9) = (   0.2500000   0.0000000   0.0000000), wk =   0.0625000
        k(   10) = (   0.2500000   0.2500000   0.2500000), wk =   0.0625000
        k(   11) = (  -0.5000000   0.0000000   0.0000000), wk =   0.0312500
        k(   12) = (  -0.5000000  -0.5000000  -0.5000000), wk =   0.0312500
        k(   13) = (   0.2500000   0.0000000   0.2500000), wk =   0.1250000
        k(   14) = (  -0.7500000  -0.2500000  -0.2500000), wk =   0.0625000
        k(   15) = (  -0.5000000  -0.7500000  -0.5000000), wk =   0.1250000
        k(   16) = (  -0.2500000   0.0000000   0.5000000), wk =   0.1250000
        k(   17) = (   0.5000000   0.0000000  -0.2500000), wk =   0.1250000
        k(   18) = (   0.2500000   0.7500000   0.2500000), wk =   0.1250000
        k(   19) = (  -0.7500000  -0.5000000  -0.5000000), wk =   0.0625000
        k(   20) = (  -0.5000000  -0.2500000  -0.2500000), wk =   0.0625000
        k(   21) = (  -0.2500000  -0.5000000  -0.2500000), wk =   0.1250000
        k(   22) = (  -0.2500000   0.0000000   0.2500000), wk =   0.1250000
        k(   23) = (  -0.5000000   0.0000000  -0.5000000), wk =   0.0625000
        k(   24) = (  -0.5000000   0.2500000  -0.2500000), wk =   0.0625000

     Dense  grid:   103379 G-vectors     FFT dimensions: (  72,  72,  72)

     Smooth grid:    60495 G-vectors     FFT dimensions: (  60,  60,  60)

     Largest allocated arrays     est. size (Mb)     dimensions
        Kohn-Sham Wavefunctions         0.56 Mb     (     971,   38)
        NL pseudopotentials             4.27 Mb     (     971,  288)
        Each V/rho on FFT grid          0.71 Mb     (   46656)
        Each G-vector array             0.10 Mb     (   12923)
        G-vector shells                 0.01 Mb     (     706)
     Largest temporary arrays     est. size (Mb)     dimensions
        Auxiliary wavefunctions         2.25 Mb     (     971,  152)
        Each subspace H/S matrix        0.35 Mb     (     152,  152)
        Each <psi_i|beta_j> matrix      0.17 Mb     (     288,   38)
        Arrays for rho mixing           5.70 Mb     (   46656,    8)

     Initial potential from superposition of free atoms

     starting charge   63.98963, renormalised to   64.00000
     Starting wfc are   64 randomized atomic wfcs

     total cpu time spent up to now is        9.8 secs

     per-process dynamical memory:    30.7 Mb

     Self-consistent Calculation

     iteration #  1     ecut=    35.00 Ry     beta=0.30
     Davidson diagonalization with overlap
     ethr =  1.00E-02,  avg # of iterations =  3.0

     Threshold (ethr) on eigenvalues was too large:
     Diagonalizing with lowered threshold

     Davidson diagonalization with overlap
     ethr =  6.90E-04,  avg # of iterations =  1.2

     total cpu time spent up to now is       59.2 secs

     total energy              =    -153.02856180 Ry
     Harris-Foulkes estimate   =    -153.07465759 Ry
     estimated scf accuracy    <       0.43521076 Ry

     iteration #  2     ecut=    35.00 Ry     beta=0.30
     Davidson diagonalization with overlap
     ethr =  6.80E-04,  avg # of iterations =  1.0

     total cpu time spent up to now is       79.9 secs

     total energy              =    -152.93741931 Ry
     Harris-Foulkes estimate   =    -153.03067072 Ry
     estimated scf accuracy    <       0.27050807 Ry

     iteration #  3     ecut=    35.00 Ry     beta=0.30
     Davidson diagonalization with overlap
     ethr =  4.23E-04,  avg # of iterations =  1.4

     total cpu time spent up to now is      100.2 secs

     total energy              =    -152.95481949 Ry
     Harris-Foulkes estimate   =    -152.95407362 Ry
     estimated scf accuracy    <       0.00311242 Ry

     iteration #  4     ecut=    35.00 Ry     beta=0.30
     Davidson diagonalization with overlap
     ethr =  4.86E-06,  avg # of iterations =  9.5

     total cpu time spent up to now is      153.7 secs

     total energy              =    -152.95692530 Ry
     Harris-Foulkes estimate   =    -152.95685905 Ry
     estimated scf accuracy    <       0.00123491 Ry

     iteration #  5     ecut=    35.00 Ry     beta=0.30
     Davidson diagonalization with overlap
     ethr =  1.93E-06,  avg # of iterations =  2.1

     total cpu time spent up to now is      175.5 secs

     total energy              =    -152.95700795 Ry
     Harris-Foulkes estimate   =    -152.95700692 Ry
     estimated scf accuracy    <       0.00003719 Ry

     iteration #  6     ecut=    35.00 Ry     beta=0.30
     Davidson diagonalization with overlap
     ethr =  5.81E-08,  avg # of iterations =  3.0

     total cpu time spent up to now is      208.1 secs

     total energy              =    -152.95701995 Ry
     Harris-Foulkes estimate   =    -152.95702669 Ry
     estimated scf accuracy    <       0.00002649 Ry

     iteration #  7     ecut=    35.00 Ry     beta=0.30
     Davidson diagonalization with overlap
     ethr =  4.14E-08,  avg # of iterations =  2.0

     total cpu time spent up to now is      230.8 secs

     total energy              =    -152.95702245 Ry
     Harris-Foulkes estimate   =    -152.95702228 Ry
     estimated scf accuracy    <       0.00000019 Ry

     iteration #  8     ecut=    35.00 Ry     beta=0.30
     Davidson diagonalization with overlap
     ethr =  3.01E-10,  avg # of iterations =  3.2

     total cpu time spent up to now is      263.6 secs

     total energy              =    -152.95702265 Ry
     Harris-Foulkes estimate   =    -152.95702261 Ry
     estimated scf accuracy    <          9.2E-09 Ry

     iteration #  9     ecut=    35.00 Ry     beta=0.30
     Davidson diagonalization with overlap
     ethr =  1.44E-11,  avg # of iterations =  2.9

     total cpu time spent up to now is      293.4 secs

     total energy              =    -152.95702266 Ry
     Harris-Foulkes estimate   =    -152.95702265 Ry
     estimated scf accuracy    <       0.00000002 Ry

     iteration # 10     ecut=    35.00 Ry     beta=0.30
     Davidson diagonalization with overlap
     ethr =  1.44E-11,  avg # of iterations =  2.0

     total cpu time spent up to now is      320.2 secs

     End of self-consistent calculation

          k = 0.0000 0.0000 0.0000 (  7631 PWs)   bands (ev):

    -5.8408  -3.5019  -3.4940  -3.4919  -3.4885  -1.6978  -1.6849  -1.6842
    -1.6834  -1.6798  -1.6750  -0.8745  -0.8672  -0.8664  -0.8605   3.2659
     3.2707   3.2710   3.2718   3.2727   3.2751   4.9248   4.9383   4.9386
     4.9391   4.9406   4.9413   4.9466   4.9519   6.1355   6.1467   6.1509
     6.7360   6.7376   6.7430   6.7438   6.7460   6.7514

     occupation numbers 
     1.0000   1.0000   1.0000   1.0000   1.0000   1.0000   1.0000   1.0000
     1.0000   1.0000   1.0000   1.0000   1.0000   1.0000   1.0000   1.0000
     1.0000   1.0000   1.0000   1.0000   1.0000   1.0000   1.0000   1.0000
     1.0000   1.0000   1.0000   1.0000   1.0000   0.9490   0.9404   0.9368
     0.0058   0.0056   0.0050   0.0049   0.0047   0.0042

          k = 0.1768 0.1768-0.1768 (  7564 PWs)   bands (ev):

    -5.6361  -4.1404  -3.4136  -3.4082  -3.4032  -2.5436  -2.5377  -2.5325
    -0.7021  -0.6940  -0.6898  -0.6463  -0.6399  -0.6353   0.1665   2.6669
     2.6694   2.6729   3.4377   3.4413   3.4433   3.8385   3.8424   3.8478
     4.5332   4.5663   4.5710   4.5729   5.0464   5.0556   5.8452   5.8554
     6.9273   6.9291   6.9351   7.7348   8.0133   8.0205

     occupation numbers 
     1.0000   1.0000   1.0000   1.0000   1.0000   1.0000   1.0000   1.0000
     1.0000   1.0000   1.0000   1.0000   1.0000   1.0000   1.0000   1.0000
     1.0000   1.0000   1.0000   1.0000   1.0000   1.0000   1.0000   1.0000
     1.0000   1.0000   1.0000   1.0000   1.0000   1.0000   0.9999   0.9998
     0.0001   0.0001   0.0000   0.0000   0.0000   0.0000

          k =-0.3536-0.3536 0.3536 (  7570 PWs)   bands (ev):

    -5.0413  -5.0360  -3.1235  -3.1123  -3.1111  -3.1100  -3.1076  -3.0995
    -0.2733  -0.2591  -0.2566  -0.2552  -0.2536  -0.2468   2.1929   2.1969
     2.5637   2.5662   2.5689   2.5703   2.5733   2.5808   3.9117   3.9208
     3.9226   3.9234   3.9245   3.9257   5.3654   5.3802   5.3809   5.3847
     7.5561   7.5643   7.5667   7.5671   7.5705   8.0990

     occupation numbers 
     1.0000   1.0000   1.0000   1.0000   1.0000   1.0000   1.0000   1.0000
     1.0000   1.0000   1.0000   1.0000   1.0000   1.0000   1.0000   1.0000
     1.0000   1.0000   1.0000   1.0000   1.0000   1.0000   1.0000   1.0000
     1.0000   1.0000   1.0000   1.0000   1.0000   1.0000   1.0000   1.0000
     0.0000   0.0000   0.0000   0.0000   0.0000   0.0000

          k = 0.3536 0.0000 0.0000 (  7563 PWs)   bands (ev):

    -5.5672  -3.6642  -3.6558  -3.6545  -3.6513  -3.4391  -1.6114  -1.6037
    -1.6007  -1.5991  -0.2731  -0.2663  -0.2643  -0.2595   0.3926   2.6857
     2.6859   2.6892   2.6896   3.5151   3.5200   3.6514   3.6558   3.6566
     3.6619   4.8047   4.8624   4.8699   4.8722   4.8812   5.3229   5.3311
     6.6557   7.5718   8.0197   8.0235   8.0250   8.0900

     occupation numbers 
     1.0000   1.0000   1.0000   1.0000   1.0000   1.0000   1.0000   1.0000
     1.0000   1.0000   1.0000   1.0000   1.0000   1.0000   1.0000   1.0000
     1.0000   1.0000   1.0000   1.0000   1.0000   1.0000   1.0000   1.0000
     1.0000   1.0000   1.0000   1.0000   1.0000   1.0000   1.0000   1.0000
     0.0245   0.0000   0.0000   0.0000   0.0000   0.0000

          k =-0.1768-0.5303 0.5303 (  7554 PWs)   bands (ev):

    -5.0971  -4.5867  -4.0434  -3.6167  -3.6093  -2.9054  -2.3602  -2.3528
    -0.8030  -0.7966  -0.5140   0.2768   0.2844   1.1956   1.5001   2.0324
     2.0356   2.1054   2.7823   2.7873   2.9058   3.1459   3.1499   3.4447
     3.8056   3.9154   4.1928   4.2024   4.2410   4.8088   4.8890   5.3625
     7.4016   7.8911   8.2218   8.4416   8.4482   8.8012

     occupation numbers 
     1.0000   1.0000   1.0000   1.0000   1.0000   1.0000   1.0000   1.0000
     1.0000   1.0000   1.0000   1.0000   1.0000   1.0000   1.0000   1.0000
     1.0000   1.0000   1.0000   1.0000   1.0000   1.0000   1.0000   1.0000
     1.0000   1.0000   1.0000   1.0000   1.0000   1.0000   1.0000   1.0000
     0.0000   0.0000   0.0000   0.0000   0.0000   0.0000

          k = 0.0000-0.3536 0.3536 (  7592 PWs)   bands (ev):

    -5.2990  -4.2833  -4.2742  -3.2416  -3.2344  -2.9572  -2.9494  -2.0955
    -1.0902  -0.6774  -0.6697   0.1675   0.1744   0.8325   0.8391   1.7879
     2.6572   2.6645   2.7404   2.7441   3.3515   3.3597   3.4525   3.6985
     3.9572   3.9620   4.2906   4.2928   4.4886   4.5361   4.5469   5.8461
     7.2397   8.0039   8.0100   8.3102   8.3179   8.6972

     occupation numbers 
     1.0000   1.0000   1.0000   1.0000   1.0000   1.0000   1.0000   1.0000
     1.0000   1.0000   1.0000   1.0000   1.0000   1.0000   1.0000   1.0000
     1.0000   1.0000   1.0000   1.0000   1.0000   1.0000   1.0000   1.0000
     1.0000   1.0000   1.0000   1.0000   1.0000   1.0000   1.0000   0.9999
     0.0000   0.0000   0.0000   0.0000   0.0000   0.0000

          k =-0.7071 0.0000 0.0000 (  7528 PWs)   bands (ev):

    -4.7605  -4.7511  -3.7964  -3.7881  -3.7871  -3.7838  -1.5226  -1.5147
    -1.5119  -1.5098   0.6428   0.6505   0.6549   0.6560   2.2380   2.2404
     2.2415   2.2425   2.3406   2.3410   2.3440   2.3468   2.6210   2.6241
     4.2285   4.2343   4.2400   4.2455   4.7990   4.8061   4.8083   4.8175
     7.1818   7.1863   8.5064   8.5136   8.5148   8.5220

     occupation numbers 
     1.0000   1.0000   1.0000   1.0000   1.0000   1.0000   1.0000   1.0000
     1.0000   1.0000   1.0000   1.0000   1.0000   1.0000   1.0000   1.0000
     1.0000   1.0000   1.0000   1.0000   1.0000   1.0000   1.0000   1.0000
     1.0000   1.0000   1.0000   1.0000   1.0000   1.0000   1.0000   1.0000
     0.0000   0.0000   0.0000   0.0000   0.0000   0.0000

          k =-0.7071 0.3536 0.0000 (  7564 PWs)   bands (ev):

    -4.5161  -4.5072  -4.5055  -4.4996  -2.7172  -2.7097  -2.7067  -2.7038
    -0.4430  -0.4354  -0.4316  -0.4279   1.8343   1.8442   1.8461   1.8485
     1.8599   1.8632   1.8639   1.8678   3.3910   3.3950   3.3954   3.3991
     3.5251   3.5271   3.5319   3.5342   4.6939   4.7019   4.7042   4.7116
     8.5160   8.5216   8.5226   8.5263   8.9240   8.9303

     occupation numbers 
     1.0000   1.0000   1.0000   1.0000   1.0000   1.0000   1.0000   1.0000
     1.0000   1.0000   1.0000   1.0000   1.0000   1.0000   1.0000   1.0000
     1.0000   1.0000   1.0000   1.0000   1.0000   1.0000   1.0000   1.0000
     1.0000   1.0000   1.0000   1.0000   1.0000   1.0000   1.0000   1.0000
     0.0000   0.0000   0.0000   0.0000   0.0000   0.0000

          k =-0.1768 0.1768 0.1768 (  7564 PWs)   bands (ev):

    -5.6361  -4.1397  -3.4150  -3.4067  -3.4046  -2.5450  -2.5361  -2.5333
    -0.7029  -0.6919  -0.6897  -0.6458  -0.6387  -0.6331   0.1640   2.6650
     2.6690   2.6711   3.4385   3.4416   3.4448   3.8361   3.8425   3.8436
     4.5303   4.5684   4.5714   4.5753   5.0467   5.0570   5.8462   5.8577
     6.9273   6.9316   6.9360   7.7357   8.0127   8.0160

     occupation numbers 
     1.0000   1.0000   1.0000   1.0000   1.0000   1.0000   1.0000   1.0000
     1.0000   1.0000   1.0000   1.0000   1.0000   1.0000   1.0000   1.0000
     1.0000   1.0000   1.0000   1.0000   1.0000   1.0000   1.0000   1.0000
     1.0000   1.0000   1.0000   1.0000   1.0000   1.0000   0.9999   0.9998
     0.0001   0.0001   0.0000   0.0000   0.0000   0.0000

          k = 0.1768 0.1768 0.1768 (  7564 PWs)   bands (ev):

    -5.6360  -4.1382  -3.4149  -3.4077  -3.4067  -2.5428  -2.5369  -2.5363
    -0.6961  -0.6918  -0.6914  -0.6402  -0.6385  -0.6335   0.1591   2.6626
     2.6671   2.6674   3.4423   3.4428   3.4448   3.8294   3.8393   3.8403
     4.5257   4.5722   4.5746   4.5771   5.0517   5.0552   5.8532   5.8571
     6.9311   6.9340   6.9367   7.7375   8.0131   8.0175

     occupation numbers 
     1.0000   1.0000   1.0000   1.0000   1.0000   1.0000   1.0000   1.0000
     1.0000   1.0000   1.0000   1.0000   1.0000   1.0000   1.0000   1.0000
     1.0000   1.0000   1.0000   1.0000   1.0000   1.0000   1.0000   1.0000
     1.0000   1.0000   1.0000   1.0000   1.0000   1.0000   0.9998   0.9998
     0.0001   0.0000   0.0000   0.0000   0.0000   0.0000

          k = 0.3536-0.3536-0.3536 (  7570 PWs)   bands (ev):

    -5.0385  -5.0384  -3.1252  -3.1121  -3.1111  -3.1099  -3.1059  -3.1020
    -0.2728  -0.2579  -0.2567  -0.2551  -0.2504  -0.2435   2.1927   2.1928
     2.5592   2.5666   2.5680   2.5703   2.5717   2.5741   3.9162   3.9222
     3.9224   3.9225   3.9229   3.9290   5.3681   5.3785   5.3792   5.3898
     7.5569   7.5655   7.5657   7.5660   7.5665   7.5747

     occupation numbers 
     1.0000   1.0000   1.0000   1.0000   1.0000   1.0000   1.0000   1.0000
     1.0000   1.0000   1.0000   1.0000   1.0000   1.0000   1.0000   1.0000
     1.0000   1.0000   1.0000   1.0000   1.0000   1.0000   1.0000   1.0000
     1.0000   1.0000   1.0000   1.0000   1.0000   1.0000   1.0000   1.0000
     0.0000   0.0000   0.0000   0.0000   0.0000   0.0000

          k =-0.3536-0.3536-0.3536 (  7570 PWs)   bands (ev):

    -5.0433  -5.0327  -3.1259  -3.1124  -3.1115  -3.1096  -3.1068  -3.1047
    -0.2580  -0.2574  -0.2567  -0.2539  -0.2492  -0.2446   2.1839   2.1924
     2.5500   2.5620   2.5642   2.5689   2.5690   2.5700   3.9177   3.9180
     3.9207   3.9257   3.9310   3.9350   5.3752   5.3753   5.3832   5.3904
     7.5625   7.5631   7.5645   7.5690   7.5745   7.5769

     occupation numbers 
     1.0000   1.0000   1.0000   1.0000   1.0000   1.0000   1.0000   1.0000
     1.0000   1.0000   1.0000   1.0000   1.0000   1.0000   1.0000   1.0000
     1.0000   1.0000   1.0000   1.0000   1.0000   1.0000   1.0000   1.0000
     1.0000   1.0000   1.0000   1.0000   1.0000   1.0000   1.0000   1.0000
     0.0000   0.0000   0.0000   0.0000   0.0000   0.0000

          k = 0.0000 0.3536 0.0000 (  7563 PWs)   bands (ev):

    -5.5671  -3.6650  -3.6566  -3.6544  -3.6496  -3.4392  -1.6124  -1.6038
    -1.6018  -1.5968  -0.2740  -0.2657  -0.2652  -0.2584   0.3926   2.6841
     2.6856   2.6896   2.6911   3.5164   3.5189   3.6491   3.6556   3.6569
     3.6639   4.8043   4.8669   4.8699   4.8713   4.8783   5.3249   5.3290
     6.6557   7.5717   8.0168   8.0199   8.0250   8.0283

     occupation numbers 
     1.0000   1.0000   1.0000   1.0000   1.0000   1.0000   1.0000   1.0000
     1.0000   1.0000   1.0000   1.0000   1.0000   1.0000   1.0000   1.0000
     1.0000   1.0000   1.0000   1.0000   1.0000   1.0000   1.0000   1.0000
     1.0000   1.0000   1.0000   1.0000   1.0000   1.0000   1.0000   1.0000
     0.0245   0.0000   0.0000   0.0000   0.0000   0.0000

          k = 0.1768-0.5303-0.5303 (  7554 PWs)   bands (ev):

    -5.0971  -4.5859  -4.0428  -3.6178  -3.6122  -2.9005  -2.3611  -2.3550
    -0.7976  -0.7958  -0.5244   0.2868   0.2884   1.1924   1.4953   2.0306
     2.0323   2.1050   2.7846   2.7883   2.9064   3.1491   3.1494   3.4422
     3.8028   3.9206   4.1845   4.1947   4.2469   4.8162   4.8802   5.3725
     7.4057   7.8979   8.2241   8.4409   8.4453   8.8042

     occupation numbers 
     1.0000   1.0000   1.0000   1.0000   1.0000   1.0000   1.0000   1.0000
     1.0000   1.0000   1.0000   1.0000   1.0000   1.0000   1.0000   1.0000
     1.0000   1.0000   1.0000   1.0000   1.0000   1.0000   1.0000   1.0000
     1.0000   1.0000   1.0000   1.0000   1.0000   1.0000   1.0000   1.0000
     0.0000   0.0000   0.0000   0.0000   0.0000   0.0000

          k =-0.5303-0.1768-0.5303 (  7554 PWs)   bands (ev):

    -5.0968  -4.5856  -4.0436  -3.6164  -3.6127  -2.9039  -2.3597  -2.3560
    -0.7981  -0.7950  -0.5164   0.2846   0.2884   1.1983   1.4926   2.0283
     2.0311   2.1016   2.7819   2.7840   2.9000   3.1490   3.1517   3.4372
     3.8072   3.9197   4.1927   4.1956   4.2461   4.8136   4.8906   5.3689
     7.4054   7.8966   8.2237   8.4459   8.4491   8.8047

     occupation numbers 
     1.0000   1.0000   1.0000   1.0000   1.0000   1.0000   1.0000   1.0000
     1.0000   1.0000   1.0000   1.0000   1.0000   1.0000   1.0000   1.0000
     1.0000   1.0000   1.0000   1.0000   1.0000   1.0000   1.0000   1.0000
     1.0000   1.0000   1.0000   1.0000   1.0000   1.0000   1.0000   1.0000
     0.0000   0.0000   0.0000   0.0000   0.0000   0.0000

          k = 0.5303 0.1768-0.5303 (  7554 PWs)   bands (ev):

    -5.0971  -4.5865  -4.0432  -3.6173  -3.6097  -2.9040  -2.3603  -2.3534
    -0.8038  -0.7944  -0.5173   0.2766   0.2878   1.1943   1.4994   2.0318
     2.0352   2.1058   2.7823   2.7886   2.9068   3.1451   3.1510   3.4447
     3.8044   3.9168   4.1924   4.1983   4.2426   4.8107   4.8859   5.3651
     7.4026   7.8928   8.2224   8.4400   8.4479   8.8018

     occupation numbers 
     1.0000   1.0000   1.0000   1.0000   1.0000   1.0000   1.0000   1.0000
     1.0000   1.0000   1.0000   1.0000   1.0000   1.0000   1.0000   1.0000
     1.0000   1.0000   1.0000   1.0000   1.0000   1.0000   1.0000   1.0000
     1.0000   1.0000   1.0000   1.0000   1.0000   1.0000   1.0000   1.0000
     0.0000   0.0000   0.0000   0.0000   0.0000   0.0000

          k =-0.5303 0.1768 0.5303 (  7554 PWs)   bands (ev):

    -5.0970  -4.5863  -4.0435  -3.6173  -3.6097  -2.9049  -2.3604  -2.3535
    -0.8034  -0.7940  -0.5148   0.2770   0.2881   1.1965   1.4977   2.0309
     2.0342   2.1041   2.7809   2.7874   2.9039   3.1458   3.1516   3.4422
     3.8061   3.9170   4.1931   4.1998   4.2427   4.8104   4.8896   5.3646
     7.4029   7.8928   8.2224   8.4418   8.4496   8.8023

     occupation numbers 
     1.0000   1.0000   1.0000   1.0000   1.0000   1.0000   1.0000   1.0000
     1.0000   1.0000   1.0000   1.0000   1.0000   1.0000   1.0000   1.0000
     1.0000   1.0000   1.0000   1.0000   1.0000   1.0000   1.0000   1.0000
     1.0000   1.0000   1.0000   1.0000   1.0000   1.0000   1.0000   1.0000
     0.0000   0.0000   0.0000   0.0000   0.0000   0.0000

          k = 0.5303-0.1768 0.5303 (  7554 PWs)   bands (ev):

    -5.0972  -4.5863  -4.0427  -3.6164  -3.6127  -2.9010  -2.3594  -2.3558
    -0.7994  -0.7961  -0.5236   0.2837   0.2874   1.1915   1.4978   2.0323
     2.0333   2.1062   2.7853   2.7887   2.9085   3.1473   3.1494   3.4448
     3.8021   3.9192   4.1877   4.1940   4.2454   4.8146   4.8797   5.3703
     7.4045   7.8962   8.2234   8.4404   8.4438   8.8030

     occupation numbers 
     1.0000   1.0000   1.0000   1.0000   1.0000   1.0000   1.0000   1.0000
     1.0000   1.0000   1.0000   1.0000   1.0000   1.0000   1.0000   1.0000
     1.0000   1.0000   1.0000   1.0000   1.0000   1.0000   1.0000   1.0000
     1.0000   1.0000   1.0000   1.0000   1.0000   1.0000   1.0000   1.0000
     0.0000   0.0000   0.0000   0.0000   0.0000   0.0000

          k =-0.1768-0.5303-0.5303 (  7554 PWs)   bands (ev):

    -5.0969  -4.5854  -4.0434  -3.6178  -3.6122  -2.9024  -2.3614  -2.3552
    -0.7965  -0.7952  -0.5196   0.2873   0.2891   1.1970   1.4917   2.0276
     2.0311   2.1020   2.7828   2.7845   2.9007   3.1496   3.1515   3.4372
     3.8062   3.9208   4.1881   4.1957   4.2475   4.8155   4.8875   5.3716
     7.4063   7.8982   8.2243   8.4446   8.4487   8.8054

     occupation numbers 
     1.0000   1.0000   1.0000   1.0000   1.0000   1.0000   1.0000   1.0000
     1.0000   1.0000   1.0000   1.0000   1.0000   1.0000   1.0000   1.0000
     1.0000   1.0000   1.0000   1.0000   1.0000   1.0000   1.0000   1.0000
     1.0000   1.0000   1.0000   1.0000   1.0000   1.0000   1.0000   1.0000
     0.0000   0.0000   0.0000   0.0000   0.0000   0.0000

          k = 0.0000-0.3536-0.3536 (  7592 PWs)   bands (ev):

    -5.2987  -4.2826  -4.2734  -3.2424  -3.2370  -2.9594  -2.9524  -2.0888
    -1.0988  -0.6688  -0.6656   0.1764   0.1772   0.8281   0.8367   1.7843
     2.6500   2.6576   2.7401   2.7435   3.3469   3.3545   3.4431   3.7037
     3.9626   3.9644   4.2843   4.2904   4.4906   4.5423   4.5537   5.8576
     7.2464   8.0083   8.0098   8.3151   8.3227   8.6893

     occupation numbers 
     1.0000   1.0000   1.0000   1.0000   1.0000   1.0000   1.0000   1.0000
     1.0000   1.0000   1.0000   1.0000   1.0000   1.0000   1.0000   1.0000
     1.0000   1.0000   1.0000   1.0000   1.0000   1.0000   1.0000   1.0000
     1.0000   1.0000   1.0000   1.0000   1.0000   1.0000   1.0000   0.9998
     0.0000   0.0000   0.0000   0.0000   0.0000   0.0000

          k =-0.3536 0.0000-0.3536 (  7592 PWs)   bands (ev):

    -5.2988  -4.2806  -4.2757  -3.2412  -3.2374  -2.9571  -2.9533  -2.0905
    -1.0968  -0.6706  -0.6669   0.1736   0.1771   0.8289   0.8376   1.7853
     2.6535   2.6574   2.7410   2.7430   3.3498   3.3540   3.4454   3.7025
     3.9613   3.9638   4.2840   4.2927   4.4903   4.5434   4.5494   5.8547
     7.2447   8.0070   8.0100   8.3157   8.3197   8.6944

     occupation numbers 
     1.0000   1.0000   1.0000   1.0000   1.0000   1.0000   1.0000   1.0000
     1.0000   1.0000   1.0000   1.0000   1.0000   1.0000   1.0000   1.0000
     1.0000   1.0000   1.0000   1.0000   1.0000   1.0000   1.0000   1.0000
     1.0000   1.0000   1.0000   1.0000   1.0000   1.0000   1.0000   0.9998
     0.0000   0.0000   0.0000   0.0000   0.0000   0.0000

          k = 0.3536 0.0000-0.3536 (  7592 PWs)   bands (ev):

    -5.2990  -4.2809  -4.2762  -3.2423  -3.2345  -2.9570  -2.9508  -2.0939
    -1.0924  -0.6772  -0.6667   0.1672   0.1776   0.8328   0.8371   1.7870
     2.6572   2.6609   2.7405   2.7437   3.3513   3.3575   3.4501   3.6999
     3.9571   3.9639   4.2890   4.2922   4.4887   4.5411   4.5458   5.8490
     7.2414   8.0031   8.0119   8.3132   8.3172   8.6940

     occupation numbers 
     1.0000   1.0000   1.0000   1.0000   1.0000   1.0000   1.0000   1.0000
     1.0000   1.0000   1.0000   1.0000   1.0000   1.0000   1.0000   1.0000
     1.0000   1.0000   1.0000   1.0000   1.0000   1.0000   1.0000   1.0000
     1.0000   1.0000   1.0000   1.0000   1.0000   1.0000   1.0000   0.9999
     0.0000   0.0000   0.0000   0.0000   0.0000   0.0000

          k = 0.0000-0.7071 0.0000 (  7528 PWs)   bands (ev):

    -4.7582  -4.7534  -3.7977  -3.7893  -3.7869  -3.7815  -1.5234  -1.5147
    -1.5128  -1.5080   0.6431   0.6513   0.6544   0.6553   2.2368   2.2399
     2.2414   2.2439   2.3405   2.3422   2.3431   2.3467   2.6219   2.6233
     4.2330   4.2357   4.2386   4.2414   4.8027   4.8057   4.8076   4.8149
     7.1829   7.1853   8.5098   8.5135   8.5146   8.5188

     occupation numbers 
     1.0000   1.0000   1.0000   1.0000   1.0000   1.0000   1.0000   1.0000
     1.0000   1.0000   1.0000   1.0000   1.0000   1.0000   1.0000   1.0000
     1.0000   1.0000   1.0000   1.0000   1.0000   1.0000   1.0000   1.0000
     1.0000   1.0000   1.0000   1.0000   1.0000   1.0000   1.0000   1.0000
     0.0000   0.0000   0.0000   0.0000   0.0000   0.0000

          k = 0.3536-0.7071 0.0000 (  7564 PWs)   bands (ev):

    -4.5151  -4.5071  -4.5050  -4.5013  -2.7187  -2.7092  -2.7081  -2.7013
    -0.4421  -0.4340  -0.4324  -0.4294   1.8340   1.8434   1.8462   1.8487
     1.8590   1.8616   1.8666   1.8685   3.3882   3.3942   3.3960   3.4018
     3.5248   3.5260   3.5331   3.5345   4.6966   4.7024   4.7041   4.7085
     8.5153   8.5205   8.5236   8.5272   8.9260   8.9311

     occupation numbers 
     1.0000   1.0000   1.0000   1.0000   1.0000   1.0000   1.0000   1.0000
     1.0000   1.0000   1.0000   1.0000   1.0000   1.0000   1.0000   1.0000
     1.0000   1.0000   1.0000   1.0000   1.0000   1.0000   1.0000   1.0000
     1.0000   1.0000   1.0000   1.0000   1.0000   1.0000   1.0000   1.0000
     0.0000   0.0000   0.0000   0.0000   0.0000   0.0000

     the Fermi energy is     6.3715 ev

!    total energy              =    -152.95702267 Ry
     Harris-Foulkes estimate   =    -152.95702266 Ry
     estimated scf accuracy    <          3.0E-10 Ry

     The total energy is the sum of the following terms:

     one-electron contribution =      40.84938382 Ry
     hartree contribution      =       8.76451993 Ry
     xc contribution           =     -68.21699212 Ry
     ewald contribution        =    -134.35366869 Ry
     smearing contrib. (-TS)   =      -0.00026562 Ry

     convergence has been achieved in  10 iterations

     Forces acting on atoms (Ry/au):

     atom    1 type  1   force =  -0.57729190E-02 -0.29439147E-02 -0.29439147E-02
     atom    2 type  1   force =   0.25055612E-02  0.22762540E-02  0.22762540E-02
     atom    3 type  1   force =   0.29601438E-03  0.30130180E-03 -0.17683571E-03
     atom    4 type  1   force =   0.14591676E-02  0.12200079E-02 -0.73430372E-03
     atom    5 type  1   force =   0.29601438E-03 -0.17683571E-03  0.30130180E-03
     atom    6 type  1   force =   0.14591676E-02 -0.73430372E-03  0.12200079E-02
     atom    7 type  1   force =  -0.35428642E-03 -0.68165320E-05 -0.68165320E-05
     atom    8 type  1   force =  -0.11768679E-03 -0.58484542E-04 -0.58484542E-04
     atom    9 type  1   force =  -0.35483105E-03  0.19892225E-03  0.19892225E-03
     atom   10 type  1   force =   0.47077154E-03  0.24477266E-03  0.24477266E-03
     atom   11 type  1   force =   0.90262299E-04 -0.17786625E-03 -0.10918745E-03
     atom   12 type  1   force =  -0.61640439E-04 -0.11412172E-03 -0.32879800E-05
     atom   13 type  1   force =   0.90262299E-04 -0.10918745E-03 -0.17786625E-03
     atom   14 type  1   force =  -0.61640439E-04 -0.32879800E-05 -0.11412172E-03
     atom   15 type  1   force =   0.62080418E-04  0.31097663E-04  0.31097663E-04
     atom   16 type  1   force =  -0.62977198E-05  0.52462300E-04  0.52462300E-04
     The non-local contrib.  to forces
     atom    1 type  1   force =  -0.56675190E-02 -0.28956154E-02 -0.28956154E-02
     atom    2 type  1   force =   0.26862385E-02  0.29935577E-02  0.29935577E-02
     atom    3 type  1   force =   0.16527951E-03  0.10396504E-03  0.18062842E-03
     atom    4 type  1   force =   0.10298422E-02  0.13185656E-02 -0.18979960E-02
     atom    5 type  1   force =   0.16527951E-03  0.18062842E-03  0.10396504E-03
     atom    6 type  1   force =   0.10298422E-02 -0.18979960E-02  0.13185656E-02
     atom    7 type  1   force =   0.36887416E-03  0.61413331E-04  0.61413331E-04
     atom    8 type  1   force =   0.15053677E-03  0.75388589E-04  0.75388589E-04
     atom    9 type  1   force =   0.36913794E-03  0.88892777E-04  0.88892777E-04
     atom   10 type  1   force =  -0.60900786E-03 -0.27734969E-03 -0.27734969E-03
     atom   11 type  1   force =   0.13782699E-03  0.18586543E-03  0.46323650E-04
     atom   12 type  1   force =   0.68642141E-04  0.15745934E-03 -0.66177162E-05
     atom   13 type  1   force =   0.13782699E-03  0.46323650E-04  0.18586543E-03
     atom   14 type  1   force =   0.68642141E-04 -0.66177162E-05  0.15745934E-03
     atom   15 type  1   force =  -0.86430297E-04 -0.43202713E-04 -0.43202713E-04
     atom   16 type  1   force =  -0.13897850E-04 -0.88958884E-04 -0.88958884E-04
     The ionic contribution  to forces
     atom    1 type  1   force =  -0.19177948E-01 -0.97299335E-02 -0.97299335E-02
     atom    2 type  1   force =   0.87844265E-02  0.11947281E-01  0.11947281E-01
     atom    3 type  1   force =   0.47848909E-02  0.56867849E-02 -0.68031889E-03
     atom    4 type  1   force =   0.13271943E-02  0.44008253E-02 -0.10541887E-01
     atom    5 type  1   force =   0.47848909E-02 -0.68031889E-03  0.56867849E-02
     atom    6 type  1   force =   0.13271943E-02 -0.10541887E-01  0.44008253E-02
     atom    7 type  1   force =  -0.13603896E-02 -0.90177224E-03 -0.90177224E-03
     atom    8 type  1   force =   0.22794267E-02  0.11427849E-02  0.11427849E-02
     atom    9 type  1   force =  -0.13605057E-02  0.34904677E-02  0.34904677E-02
     atom   10 type  1   force =  -0.62471729E-02 -0.30555638E-02 -0.30555638E-02
     atom   11 type  1   force =   0.39252042E-03 -0.68020281E-03 -0.30978980E-02
     atom   12 type  1   force =   0.12765663E-02  0.21653222E-02  0.11365443E-03
     atom   13 type  1   force =   0.39252042E-03 -0.30978980E-02 -0.68020281E-03
     atom   14 type  1   force =   0.12765663E-02  0.11365443E-03  0.21653222E-02
     atom   15 type  1   force =   0.12723337E-02  0.63613636E-03  0.63613636E-03
     atom   16 type  1   force =   0.24748563E-03 -0.89568080E-03 -0.89568080E-03
     The local contribution  to forces
     atom    1 type  1   force =   0.18569815E-01  0.94246859E-02  0.94246859E-02
     atom    2 type  1   force =  -0.87071734E-02 -0.12373166E-01 -0.12373166E-01
     atom    3 type  1   force =  -0.46410854E-02 -0.54803838E-02  0.33781300E-03
     atom    4 type  1   force =  -0.80283337E-03 -0.43727275E-02  0.11514753E-01
     atom    5 type  1   force =  -0.46410854E-02  0.33781300E-03 -0.54803838E-02
     atom    6 type  1   force =  -0.80283337E-03  0.11514753E-01 -0.43727275E-02
     atom    7 type  1   force =   0.66779483E-03  0.83733800E-03  0.83733800E-03
     atom    8 type  1   force =  -0.25362450E-02 -0.12710992E-02 -0.12710992E-02
     atom    9 type  1   force =   0.66712516E-03 -0.33730797E-02 -0.33730797E-02
     atom   10 type  1   force =   0.72601783E-02  0.35468095E-02  0.35468095E-02
     atom   11 type  1   force =  -0.43059434E-03  0.33187697E-03  0.29444269E-02
     atom   12 type  1   force =  -0.14016737E-02 -0.24250480E-02 -0.11051464E-03
     atom   13 type  1   force =  -0.43059434E-03  0.29444269E-02  0.33187697E-03
     atom   14 type  1   force =  -0.14016737E-02 -0.11051464E-03 -0.24250480E-02
     atom   15 type  1   force =  -0.11291233E-02 -0.56433720E-03 -0.56433720E-03
     atom   16 type  1   force =  -0.24098247E-03  0.10306447E-02  0.10306447E-02
     The core correction contribution to forces
     atom    1 type  1   force =   0.50080661E-03  0.25592350E-03  0.25592350E-03
     atom    2 type  1   force =  -0.25771538E-03 -0.29187885E-03 -0.29187885E-03
     atom    3 type  1   force =  -0.12087577E-04 -0.72680488E-05 -0.15010801E-04
     atom    4 type  1   force =  -0.94545872E-04 -0.12680735E-03  0.19150445E-03
     atom    5 type  1   force =  -0.12087577E-04 -0.15010801E-04 -0.72680488E-05
     atom    6 type  1   force =  -0.94545872E-04  0.19150445E-03 -0.12680735E-03
     atom    7 type  1   force =  -0.30597441E-04 -0.48415485E-05 -0.48415485E-05
     atom    8 type  1   force =  -0.12021280E-04 -0.60199530E-05 -0.60199530E-05
     atom    9 type  1   force =  -0.30618918E-04 -0.63785045E-05 -0.63785045E-05
     atom   10 type  1   force =   0.67493290E-04  0.31330744E-04  0.31330744E-04
     atom   11 type  1   force =  -0.10552781E-04 -0.15416964E-04 -0.39511495E-05
     atom   12 type  1   force =  -0.55665656E-05 -0.12486633E-04  0.44746116E-06
     atom   13 type  1   force =  -0.10552781E-04 -0.39511495E-05 -0.15416964E-04
     atom   14 type  1   force =  -0.55665656E-05  0.44746116E-06 -0.12486633E-04
     atom   15 type  1   force =   0.70359812E-05  0.35174639E-05  0.35174639E-05
     atom   16 type  1   force =   0.93751641E-06  0.69379318E-05  0.69379318E-05
     The Hubbard contrib.    to forces
     atom    1 type  1   force =   0.00000000E+00  0.00000000E+00  0.00000000E+00
     atom    2 type  1   force =   0.00000000E+00  0.00000000E+00  0.00000000E+00
     atom    3 type  1   force =   0.00000000E+00  0.00000000E+00  0.00000000E+00
     atom    4 type  1   force =   0.00000000E+00  0.00000000E+00  0.00000000E+00
     atom    5 type  1   force =   0.00000000E+00  0.00000000E+00  0.00000000E+00
     atom    6 type  1   force =   0.00000000E+00  0.00000000E+00  0.00000000E+00
     atom    7 type  1   force =   0.00000000E+00  0.00000000E+00  0.00000000E+00
     atom    8 type  1   force =   0.00000000E+00  0.00000000E+00  0.00000000E+00
     atom    9 type  1   force =   0.00000000E+00  0.00000000E+00  0.00000000E+00
     atom   10 type  1   force =   0.00000000E+00  0.00000000E+00  0.00000000E+00
     atom   11 type  1   force =   0.00000000E+00  0.00000000E+00  0.00000000E+00
     atom   12 type  1   force =   0.00000000E+00  0.00000000E+00  0.00000000E+00
     atom   13 type  1   force =   0.00000000E+00  0.00000000E+00  0.00000000E+00
     atom   14 type  1   force =   0.00000000E+00  0.00000000E+00  0.00000000E+00
     atom   15 type  1   force =   0.00000000E+00  0.00000000E+00  0.00000000E+00
     atom   16 type  1   force =   0.00000000E+00  0.00000000E+00  0.00000000E+00
     The SCF correction term to forces
     atom    1 type  1   force =   0.19247699E-05  0.10199824E-05  0.10199824E-05
     atom    2 type  1   force =  -0.21729581E-06  0.45492624E-06  0.45492624E-06
     atom    3 type  1   force =  -0.98538291E-06 -0.18010573E-05  0.47735856E-07
     atom    4 type  1   force =  -0.49197235E-06  0.14709245E-06 -0.68304088E-06
     atom    5 type  1   force =  -0.98538291E-06  0.47735856E-07 -0.18010573E-05
     atom    6 type  1   force =  -0.49197235E-06 -0.68304088E-06  0.14709245E-06
     atom    7 type  1   force =   0.29316455E-07  0.10411147E-05  0.10411147E-05
     atom    8 type  1   force =   0.61370504E-06  0.45632220E-06  0.45632220E-06
     atom    9 type  1   force =   0.28125314E-07 -0.98478205E-06 -0.98478205E-06
     atom   10 type  1   force =  -0.72158482E-06 -0.45890167E-06 -0.45890167E-06
     atom   11 type  1   force =   0.10596927E-05  0.63215736E-08  0.19063923E-05
     atom   12 type  1   force =   0.38904267E-06  0.62658874E-06 -0.26233220E-06
     atom   13 type  1   force =   0.10596927E-05  0.19063923E-05  0.63215736E-08
     atom   14 type  1   force =   0.38904267E-06 -0.26233220E-06  0.62658874E-06
     atom   15 type  1   force =  -0.17379913E-05 -0.10210629E-05 -0.10210629E-05
     atom   16 type  1   force =   0.15712396E-06 -0.48549766E-06 -0.48549766E-06

     Total force =     0.008768     Total SCF correction =     0.000006


     entering subroutine stress ...

          total   stress  (Ry/bohr**3)                   (kbar)     P=    0.42
   0.0000027980   0.0000018799   0.0000018799          0.41      0.28      0.28
   0.0000018799   0.0000028531   0.0000036908          0.28      0.42      0.54
   0.0000018799   0.0000036908   0.0000028531          0.28      0.54      0.42

     kinetic stress (kbar)   2190.11     -0.18     -0.18
                               -0.18   2190.11     -0.37
                               -0.18     -0.37   2190.11

     local   stress (kbar)   -287.57     -2.16     -2.16
                               -2.16   -287.61     -4.31
                               -2.16     -4.31   -287.61

     nonloc. stress (kbar)   1939.78      0.25      0.25
                                0.25   1939.78      0.50
                                0.25      0.50   1939.78

     hartree stress (kbar)    198.72      0.25      0.25
                                0.25    198.72      0.50
                                0.25      0.50    198.72

     exc-cor stress (kbar)    993.75      0.00      0.00
                                0.00    993.75      0.01
                                0.00      0.01    993.75

     corecor stress (kbar)  -1988.10     -0.03     -0.03
                               -0.03  -1988.10     -0.06
                               -0.03     -0.06  -1988.10

     ewald   stress (kbar)  -3046.28      2.14      2.14
                                2.14  -3046.23      4.27
                                2.14      4.27  -3046.23

     hubbard stress (kbar)      0.00      0.00      0.00
                                0.00      0.00      0.00
                                0.00      0.00      0.00

     london  stress (kbar)      0.00      0.00      0.00
                                0.00      0.00      0.00
                                0.00      0.00      0.00

     XDM     stress (kbar)      0.00      0.00      0.00
                                0.00      0.00      0.00
                                0.00      0.00      0.00

     dft-nl  stress (kbar)      0.00      0.00      0.00
                                0.00      0.00      0.00
                                0.00      0.00      0.00



     Writing output data file Si_diamond.scf.in.super.222.xy001.save

     init_run     :     10.39s CPU      9.67s WALL (       1 calls)
     electrons    :    294.26s CPU    310.41s WALL (       1 calls)
     forces       :      4.75s CPU      4.69s WALL (       1 calls)
     stress       :     19.31s CPU     19.41s WALL (       1 calls)

     Called by init_run:
     wfcinit      :      9.24s CPU      8.50s WALL (       1 calls)
     potinit      :      0.13s CPU      0.14s WALL (       1 calls)

     Called by electrons:
     c_bands      :    242.75s CPU    257.93s WALL (      11 calls)
     sum_band     :     43.18s CPU     44.01s WALL (      11 calls)
     v_of_rho     :      1.12s CPU      1.14s WALL (      11 calls)
     v_h          :      0.06s CPU      0.06s WALL (      11 calls)
     v_xc         :      1.30s CPU      1.31s WALL (      13 calls)
     newd         :      6.74s CPU      6.82s WALL (      11 calls)
     mix_rho      :      0.98s CPU      1.01s WALL (      11 calls)

     Called by c_bands:
     init_us_2    :      3.12s CPU      3.31s WALL (     600 calls)
     cegterg      :    229.54s CPU    244.27s WALL (     264 calls)

     Called by sum_band:
     sum_band:bec :      0.17s CPU      0.21s WALL (     264 calls)
     addusdens    :      7.26s CPU      7.39s WALL (      11 calls)

     Called by *egterg:
     h_psi        :    158.02s CPU    161.52s WALL (    1039 calls)
     s_psi        :     13.96s CPU     12.81s WALL (    1039 calls)
     g_psi        :      0.36s CPU      0.36s WALL (     751 calls)
     cdiaghg      :     12.20s CPU     14.20s WALL (     991 calls)
     cegterg:over :     25.42s CPU     29.52s WALL (     751 calls)
     cegterg:upda :      5.53s CPU      7.59s WALL (     751 calls)
     cegterg:last :      2.09s CPU      2.51s WALL (     278 calls)

     Called by h_psi:
     h_psi:vloc   :    115.95s CPU    118.81s WALL (    1039 calls)
     h_psi:vnl    :     41.77s CPU     42.36s WALL (    1039 calls)
     add_vuspsi   :     14.12s CPU     13.86s WALL (    1039 calls)

     General routines
     calbec       :     42.13s CPU     43.02s WALL (    1351 calls)
     fft          :      1.84s CPU      1.89s WALL (     201 calls)
     ffts         :      0.52s CPU      0.53s WALL (     187 calls)
     fftw         :    122.19s CPU    124.85s WALL (   66958 calls)
     interpolate  :      0.19s CPU      0.22s WALL (      22 calls)

     Parallel routines
     fft_scatter  :     66.91s CPU     69.00s WALL (   67346 calls)

     PWSCF        :  5m29.84s CPU     5m45.64s WALL


   This run was terminated on:  12:10: 8  28Sep2017            

=------------------------------------------------------------------------------=
   JOB DONE.
=------------------------------------------------------------------------------=
