
     Program PWSCF v.5.1 starts on 28Sep2017 at 12: 4:37 

     This program is part of the open-source Quantum ESPRESSO suite
     for quantum simulation of materials; please cite
         "P. Giannozzi et al., J. Phys.:Condens. Matter 21 395502 (2009);
          URL http://www.quantum-espresso.org", 
     in publications or presentations arising from this work. More details at
     http://www.quantum-espresso.org/quote

     Parallel version (MPI), running on     8 processors
     R & G space division:  proc/nbgrp/npool/nimage =       8
     Reading input from /tmp/Si_diamond.scf.in.super.222.xy005.30796/Si_diamond.scf.in.super.222.xy005.t
Warning: card &IONS ignored
Warning: card   ION_DYNAMICS='BFGS', ignored
Warning: card / ignored
Warning: card &CELL ignored
Warning: card  CELL_DYNAMICS = 'BFGS' ignored
Warning: card / ignored
     Message from routine read_cards :
     DEPRECATED: no units specified in CELL_PARAMETERS card

     Current dimensions of program PWSCF are:
     Max number of different atomic species (ntypx) = 10
     Max number of k-points (npk) =  40000
     Max angular momentum in pseudopotentials (lmaxx) =  3
 kfg - two_fermi_energies  F

     Subspace diagonalization in iterative solution of the eigenvalue problem:
     a serial algorithm will be used


     Parallelization info
     --------------------
     sticks:   dense  smooth     PW     G-vecs:    dense   smooth      PW
     Min         363     256     71                12921     7555    1109
     Max         364     257     73                12925     7568    1110
     Sum        2905    2053    571               103379    60495    8873



     bravais-lattice index     =            0
     lattice parameter (alat)  =    14.515605984  a.u.
     unit-cell volume          =    2162.6713 (a.u.)^3
     number of atoms/cell      =           16
     number of atomic types    =            1
     number of electrons       =        64.00
     number of Kohn-Sham states=           38
     kinetic-energy cutoff     =      35.0000  Ry
     charge density cutoff     =     200.0000  Ry
     convergence threshold     =      1.0E-09
     mixing beta               =       0.3000
     number of iterations used =            8  local-TF  mixing
     Exchange-correlation      = SLA  PW   PSX  PSC ( 1  4 10  8 0)
     A smooth kinetic-energy cutoff is imposed at      34.5000 Ry
     height of the smooth step-function =             800.0000 Ry
     width of the smooth step-function  =               1.0000 Ry


     celldm(1)=  14.515606  celldm(2)=   0.000000  celldm(3)=   0.000000
     celldm(4)=   0.000000  celldm(5)=   0.000000  celldm(6)=   0.000000

     crystal axes: (cart. coord. in units of alat)
               a(1) = (  -0.000000000000   0.707106781187   0.707106781187 )  
               a(2) = (   0.707106781187  -0.000000000000   0.707106781187 )  
               a(3) = (   0.707106781187   0.707106781187  -0.000000000000 )  

     reciprocal axes: (cart. coord. in units 2 pi/alat)
               b(1) = ( -0.707107  0.707107  0.707107 )  
               b(2) = (  0.707107 -0.707107  0.707107 )  
               b(3) = (  0.707107  0.707107 -0.707107 )  


     PseudoPot. # 1 for Si read from file:
     /users/kfg/psuedo/gbrv_1.5/si.pbesol.UPF
     MD5 check sum: ef58ba74faed4df802eb8a9742fc00a8
     Pseudo is Ultrasoft + core correction, Zval =  4.0
     Generated by new atomic code, or converted to UPF format
     Using radial grid of  899 points,  6 beta functions with: 
                l(1) =   0
                l(2) =   0
                l(3) =   1
                l(4) =   1
                l(5) =   2
                l(6) =   2
     Q(r) pseudized with  8 coefficients,  rinner =    0.900   0.900   0.900
                                                       0.900   0.900

     atomic species   valence    mass     pseudopotential
        Si             4.00    28.08550     Si( 1.00)

      2 Sym. Ops. (no inversion) found


                                    s                        frac. trans.

      isym =  1     identity                                     

 cryst.   s( 1) = (     1          0          0      )
                  (     0          1          0      )
                  (     0          0          1      )

 cart.    s( 1) = (  1.0000000  0.0000000  0.0000000 )
                  (  0.0000000  1.0000000  0.0000000 )
                  (  0.0000000  0.0000000  1.0000000 )


      isym =  2     inv. 180 deg rotation - cart. axis [0,1,-1]  

 cryst.   s( 2) = (     1          0          0      )
                  (     0          0          1      )
                  (     0          1          0      )

 cart.    s( 2) = (  1.0000000  0.0000000  0.0000000 )
                  (  0.0000000  0.0000000  1.0000000 )
                  (  0.0000000  1.0000000  0.0000000 )


     point group C_s (m)    
     there are  2 classes
     the character table:

       E     s    
A'     1.00  1.00
A''    1.00 -1.00

     the symmetry operations in each class:
     E        1
     s        2

   Cartesian axes

     site n.     atom                  positions (alat units)
         1           Si  tau(   1) = (    0.00707106781    0.00353553391    0.00353553391  )
         2           Si  tau(   2) = (    0.17677669530    0.17677669530    0.17677669530  )
         3           Si  tau(   3) = (    0.35355339059    0.35355339059    0.00000000000  )
         4           Si  tau(   4) = (    0.53033008589    0.53033008589    0.17677669530  )
         5           Si  tau(   5) = (    0.35355339059    0.00000000000    0.35355339059  )
         6           Si  tau(   6) = (    0.53033008589    0.17677669530    0.53033008589  )
         7           Si  tau(   7) = (    0.70710678119    0.35355339059    0.35355339059  )
         8           Si  tau(   8) = (    0.88388347648    0.53033008589    0.53033008589  )
         9           Si  tau(   9) = (    0.00000000000    0.35355339059    0.35355339059  )
        10           Si  tau(  10) = (    0.17677669530    0.53033008589    0.53033008589  )
        11           Si  tau(  11) = (    0.35355339059    0.70710678119    0.35355339059  )
        12           Si  tau(  12) = (    0.53033008589    0.88388347648    0.53033008589  )
        13           Si  tau(  13) = (    0.35355339059    0.35355339059    0.70710678119  )
        14           Si  tau(  14) = (    0.53033008589    0.53033008589    0.88388347648  )
        15           Si  tau(  15) = (    0.70710678119    0.70710678119    0.70710678119  )
        16           Si  tau(  16) = (    0.88388347648    0.88388347648    0.88388347648  )

   Crystallographic axes

     site n.     atom                  positions (cryst. coord.)
         1           Si  tau(   1) = (    0.00000000000    0.00500000000    0.00500000000  )
         2           Si  tau(   2) = (    0.12500000000    0.12500000000    0.12500000000  )
         3           Si  tau(   3) = (    0.00000000000    0.00000000000    0.50000000000  )
         4           Si  tau(   4) = (    0.12500000000    0.12500000000    0.62500000000  )
         5           Si  tau(   5) = (    0.00000000000    0.50000000000    0.00000000000  )
         6           Si  tau(   6) = (    0.12500000000    0.62500000000    0.12500000000  )
         7           Si  tau(   7) = (    0.00000000000    0.50000000000    0.50000000000  )
         8           Si  tau(   8) = (    0.12500000000    0.62500000000    0.62500000000  )
         9           Si  tau(   9) = (    0.50000000000    0.00000000000    0.00000000000  )
        10           Si  tau(  10) = (    0.62500000000    0.12500000000    0.12500000000  )
        11           Si  tau(  11) = (    0.50000000000    0.00000000000    0.50000000000  )
        12           Si  tau(  12) = (    0.62500000000    0.12500000000    0.62500000000  )
        13           Si  tau(  13) = (    0.50000000000    0.50000000000    0.00000000000  )
        14           Si  tau(  14) = (    0.62500000000    0.62500000000    0.12500000000  )
        15           Si  tau(  15) = (    0.50000000000    0.50000000000    0.50000000000  )
        16           Si  tau(  16) = (    0.62500000000    0.62500000000    0.62500000000  )

     number of k points=    24  gaussian smearing, width (Ry)=  0.0150
                       cart. coord. in units 2pi/alat
        k(    1) = (   0.0000000   0.0000000   0.0000000), wk =   0.0312500
        k(    2) = (   0.1767767   0.1767767  -0.1767767), wk =   0.1250000
        k(    3) = (  -0.3535534  -0.3535534   0.3535534), wk =   0.0625000
        k(    4) = (   0.3535534   0.0000000   0.0000000), wk =   0.0625000
        k(    5) = (  -0.1767767  -0.5303301   0.5303301), wk =   0.1250000
        k(    6) = (   0.0000000  -0.3535534   0.3535534), wk =   0.0625000
        k(    7) = (  -0.7071068   0.0000000   0.0000000), wk =   0.0312500
        k(    8) = (  -0.7071068   0.3535534   0.0000000), wk =   0.1250000
        k(    9) = (  -0.1767767   0.1767767   0.1767767), wk =   0.0625000
        k(   10) = (   0.1767767   0.1767767   0.1767767), wk =   0.0625000
        k(   11) = (   0.3535534  -0.3535534  -0.3535534), wk =   0.0312500
        k(   12) = (  -0.3535534  -0.3535534  -0.3535534), wk =   0.0312500
        k(   13) = (   0.0000000   0.3535534   0.0000000), wk =   0.1250000
        k(   14) = (   0.1767767  -0.5303301  -0.5303301), wk =   0.0625000
        k(   15) = (  -0.5303301  -0.1767767  -0.5303301), wk =   0.1250000
        k(   16) = (   0.5303301   0.1767767  -0.5303301), wk =   0.1250000
        k(   17) = (  -0.5303301   0.1767767   0.5303301), wk =   0.1250000
        k(   18) = (   0.5303301  -0.1767767   0.5303301), wk =   0.1250000
        k(   19) = (  -0.1767767  -0.5303301  -0.5303301), wk =   0.0625000
        k(   20) = (   0.0000000  -0.3535534  -0.3535534), wk =   0.0625000
        k(   21) = (  -0.3535534   0.0000000  -0.3535534), wk =   0.1250000
        k(   22) = (   0.3535534   0.0000000  -0.3535534), wk =   0.1250000
        k(   23) = (   0.0000000  -0.7071068   0.0000000), wk =   0.0625000
        k(   24) = (   0.3535534  -0.7071068   0.0000000), wk =   0.0625000

                       cryst. coord.
        k(    1) = (   0.0000000   0.0000000   0.0000000), wk =   0.0312500
        k(    2) = (   0.0000000   0.0000000   0.2500000), wk =   0.1250000
        k(    3) = (   0.0000000   0.0000000  -0.5000000), wk =   0.0625000
        k(    4) = (   0.0000000   0.2500000   0.2500000), wk =   0.0625000
        k(    5) = (   0.0000000   0.2500000  -0.5000000), wk =   0.1250000
        k(    6) = (   0.0000000   0.2500000  -0.2500000), wk =   0.0625000
        k(    7) = (   0.0000000  -0.5000000  -0.5000000), wk =   0.0312500
        k(    8) = (   0.2500000  -0.5000000  -0.2500000), wk =   0.1250000
        k(    9) = (   0.2500000   0.0000000   0.0000000), wk =   0.0625000
        k(   10) = (   0.2500000   0.2500000   0.2500000), wk =   0.0625000
        k(   11) = (  -0.5000000   0.0000000   0.0000000), wk =   0.0312500
        k(   12) = (  -0.5000000  -0.5000000  -0.5000000), wk =   0.0312500
        k(   13) = (   0.2500000   0.0000000   0.2500000), wk =   0.1250000
        k(   14) = (  -0.7500000  -0.2500000  -0.2500000), wk =   0.0625000
        k(   15) = (  -0.5000000  -0.7500000  -0.5000000), wk =   0.1250000
        k(   16) = (  -0.2500000   0.0000000   0.5000000), wk =   0.1250000
        k(   17) = (   0.5000000   0.0000000  -0.2500000), wk =   0.1250000
        k(   18) = (   0.2500000   0.7500000   0.2500000), wk =   0.1250000
        k(   19) = (  -0.7500000  -0.5000000  -0.5000000), wk =   0.0625000
        k(   20) = (  -0.5000000  -0.2500000  -0.2500000), wk =   0.0625000
        k(   21) = (  -0.2500000  -0.5000000  -0.2500000), wk =   0.1250000
        k(   22) = (  -0.2500000   0.0000000   0.2500000), wk =   0.1250000
        k(   23) = (  -0.5000000   0.0000000  -0.5000000), wk =   0.0625000
        k(   24) = (  -0.5000000   0.2500000  -0.2500000), wk =   0.0625000

     Dense  grid:   103379 G-vectors     FFT dimensions: (  72,  72,  72)

     Smooth grid:    60495 G-vectors     FFT dimensions: (  60,  60,  60)

     Largest allocated arrays     est. size (Mb)     dimensions
        Kohn-Sham Wavefunctions         0.56 Mb     (     971,   38)
        NL pseudopotentials             4.27 Mb     (     971,  288)
        Each V/rho on FFT grid          0.71 Mb     (   46656)
        Each G-vector array             0.10 Mb     (   12923)
        G-vector shells                 0.01 Mb     (     706)
     Largest temporary arrays     est. size (Mb)     dimensions
        Auxiliary wavefunctions         2.25 Mb     (     971,  152)
        Each subspace H/S matrix        0.35 Mb     (     152,  152)
        Each <psi_i|beta_j> matrix      0.17 Mb     (     288,   38)
        Arrays for rho mixing           5.70 Mb     (   46656,    8)

     Initial potential from superposition of free atoms

     starting charge   63.98963, renormalised to   64.00000
     Starting wfc are   64 randomized atomic wfcs

     total cpu time spent up to now is       12.2 secs

     per-process dynamical memory:    30.7 Mb

     Self-consistent Calculation

     iteration #  1     ecut=    35.00 Ry     beta=0.30
     Davidson diagonalization with overlap
     ethr =  1.00E-02,  avg # of iterations =  3.3

     Threshold (ethr) on eigenvalues was too large:
     Diagonalizing with lowered threshold

     Davidson diagonalization with overlap
     ethr =  6.90E-04,  avg # of iterations =  1.2

     total cpu time spent up to now is       61.9 secs

     total energy              =    -153.02644522 Ry
     Harris-Foulkes estimate   =    -153.07259262 Ry
     estimated scf accuracy    <       0.43547736 Ry

     iteration #  2     ecut=    35.00 Ry     beta=0.30
     Davidson diagonalization with overlap
     ethr =  6.80E-04,  avg # of iterations =  1.0

     total cpu time spent up to now is       81.6 secs

     total energy              =    -152.93515162 Ry
     Harris-Foulkes estimate   =    -153.02854002 Ry
     estimated scf accuracy    <       0.27068880 Ry

     iteration #  3     ecut=    35.00 Ry     beta=0.30
     Davidson diagonalization with overlap
     ethr =  4.23E-04,  avg # of iterations =  1.8

     total cpu time spent up to now is      102.1 secs

     total energy              =    -152.95260645 Ry
     Harris-Foulkes estimate   =    -152.95189891 Ry
     estimated scf accuracy    <       0.00312306 Ry

     iteration #  4     ecut=    35.00 Ry     beta=0.30
     Davidson diagonalization with overlap
     c_bands:  1 eigenvalues not converged
     ethr =  4.88E-06,  avg # of iterations = 10.8

     total cpu time spent up to now is      157.8 secs

     total energy              =    -152.95470800 Ry
     Harris-Foulkes estimate   =    -152.95461278 Ry
     estimated scf accuracy    <       0.00123515 Ry

     iteration #  5     ecut=    35.00 Ry     beta=0.30
     Davidson diagonalization with overlap
     ethr =  1.93E-06,  avg # of iterations =  2.3

     total cpu time spent up to now is      181.0 secs

     total energy              =    -152.95478941 Ry
     Harris-Foulkes estimate   =    -152.95478841 Ry
     estimated scf accuracy    <       0.00003807 Ry

     iteration #  6     ecut=    35.00 Ry     beta=0.30
     Davidson diagonalization with overlap
     ethr =  5.95E-08,  avg # of iterations =  3.0

     total cpu time spent up to now is      210.9 secs

     total energy              =    -152.95480200 Ry
     Harris-Foulkes estimate   =    -152.95480738 Ry
     estimated scf accuracy    <       0.00002253 Ry

     iteration #  7     ecut=    35.00 Ry     beta=0.30
     Davidson diagonalization with overlap
     ethr =  3.52E-08,  avg # of iterations =  2.0

     total cpu time spent up to now is      235.4 secs

     total energy              =    -152.95480449 Ry
     Harris-Foulkes estimate   =    -152.95480410 Ry
     estimated scf accuracy    <       0.00000063 Ry

     iteration #  8     ecut=    35.00 Ry     beta=0.30
     Davidson diagonalization with overlap
     ethr =  9.81E-10,  avg # of iterations =  3.0

     total cpu time spent up to now is      264.6 secs

     total energy              =    -152.95480466 Ry
     Harris-Foulkes estimate   =    -152.95480465 Ry
     estimated scf accuracy    <       0.00000007 Ry

     iteration #  9     ecut=    35.00 Ry     beta=0.30
     Davidson diagonalization with overlap
     ethr =  1.16E-10,  avg # of iterations =  2.1

     total cpu time spent up to now is      287.4 secs

     total energy              =    -152.95480468 Ry
     Harris-Foulkes estimate   =    -152.95480467 Ry
     estimated scf accuracy    <       0.00000002 Ry

     iteration # 10     ecut=    35.00 Ry     beta=0.30
     Davidson diagonalization with overlap
     ethr =  2.62E-11,  avg # of iterations =  2.4

     total cpu time spent up to now is      315.2 secs

     total energy              =    -152.95480468 Ry
     Harris-Foulkes estimate   =    -152.95480468 Ry
     estimated scf accuracy    <          5.1E-09 Ry

     iteration # 11     ecut=    35.00 Ry     beta=0.30
     Davidson diagonalization with overlap
     ethr =  8.01E-12,  avg # of iterations =  1.1

     total cpu time spent up to now is      335.9 secs

     total energy              =    -152.95480468 Ry
     Harris-Foulkes estimate   =    -152.95480468 Ry
     estimated scf accuracy    <          1.5E-09 Ry

     iteration # 12     ecut=    35.00 Ry     beta=0.30
     Davidson diagonalization with overlap
     ethr =  2.36E-12,  avg # of iterations =  2.4

     total cpu time spent up to now is      359.7 secs

     End of self-consistent calculation

          k = 0.0000 0.0000 0.0000 (  7631 PWs)   bands (ev):

    -5.8423  -3.5373  -3.4942  -3.4844  -3.4671  -1.7555  -1.6884  -1.6850
    -1.6806  -1.6631  -1.6393  -0.9008  -0.8670  -0.8629  -0.8319   3.2437
     3.2679   3.2692   3.2738   3.2781   3.2898   4.8625   4.9306   4.9316
     4.9347   4.9424   4.9454   4.9726   4.9978   6.1036   6.1561   6.1786
     6.7076   6.7154   6.7428   6.7469   6.7573   6.7831

     occupation numbers 
     1.0000   1.0000   1.0000   1.0000   1.0000   1.0000   1.0000   1.0000
     1.0000   1.0000   1.0000   1.0000   1.0000   1.0000   1.0000   1.0000
     1.0000   1.0000   1.0000   1.0000   1.0000   1.0000   1.0000   1.0000
     1.0000   1.0000   1.0000   1.0000   1.0000   0.9691   0.9337   0.9112
     0.0103   0.0089   0.0052   0.0048   0.0039   0.0023

          k = 0.1768 0.1768-0.1768 (  7564 PWs)   bands (ev):

    -5.6379  -4.1456  -3.4357  -3.4065  -3.3817  -2.5662  -2.5360  -2.5094
    -0.7520  -0.6967  -0.6822  -0.6545  -0.6368  -0.6074   0.1772   2.6600
     2.6724   2.6897   3.4206   3.4392   3.4498   3.8292   3.8488   3.8751
     4.5215   4.5616   4.5686   4.5837   5.0262   5.0717   5.8216   5.8703
     6.9083   6.9176   6.9473   7.7289   7.9954   8.0223

     occupation numbers 
     1.0000   1.0000   1.0000   1.0000   1.0000   1.0000   1.0000   1.0000
     1.0000   1.0000   1.0000   1.0000   1.0000   1.0000   1.0000   1.0000
     1.0000   1.0000   1.0000   1.0000   1.0000   1.0000   1.0000   1.0000
     1.0000   1.0000   1.0000   1.0000   1.0000   1.0000   0.9999   0.9998
     0.0001   0.0001   0.0000   0.0000   0.0000   0.0000

          k =-0.3536-0.3536 0.3536 (  7570 PWs)   bands (ev):

    -5.0553  -5.0272  -3.1764  -3.1178  -3.1116  -3.1059  -3.0943  -3.0537
    -0.3426  -0.2716  -0.2591  -0.2521  -0.2439  -0.2098   2.1905   2.2104
     2.5456   2.5574   2.5712   2.5783   2.5926   2.6344   3.8686   3.9131
     3.9227   3.9267   3.9320   3.9384   5.3148   5.3853   5.3886   5.4101
     7.5101   7.5362   7.5691   7.5710   7.5711   7.5912

     occupation numbers 
     1.0000   1.0000   1.0000   1.0000   1.0000   1.0000   1.0000   1.0000
     1.0000   1.0000   1.0000   1.0000   1.0000   1.0000   1.0000   1.0000
     1.0000   1.0000   1.0000   1.0000   1.0000   1.0000   1.0000   1.0000
     1.0000   1.0000   1.0000   1.0000   1.0000   1.0000   1.0000   1.0000
     0.0000   0.0000   0.0000   0.0000   0.0000   0.0000

          k = 0.3536 0.0000 0.0000 (  7563 PWs)   bands (ev):

    -5.5689  -3.7010  -3.6541  -3.6477  -3.6333  -3.4344  -1.6450  -1.6043
    -1.5891  -1.5814  -0.3013  -0.2687  -0.2581  -0.2338   0.3942   2.6779
     2.6785   2.6946   2.6971   3.5010   3.5257   3.6342   3.6537   3.6595
     3.6842   4.7905   4.8391   4.8631   4.8750   4.9174   5.3106   5.3520
     6.6540   7.5683   7.9941   8.0112   8.0363   8.0937

     occupation numbers 
     1.0000   1.0000   1.0000   1.0000   1.0000   1.0000   1.0000   1.0000
     1.0000   1.0000   1.0000   1.0000   1.0000   1.0000   1.0000   1.0000
     1.0000   1.0000   1.0000   1.0000   1.0000   1.0000   1.0000   1.0000
     1.0000   1.0000   1.0000   1.0000   1.0000   1.0000   1.0000   1.0000
     0.0258   0.0000   0.0000   0.0000   0.0000   0.0000

          k =-0.1768-0.5303 0.5303 (  7554 PWs)   bands (ev):

    -5.0997  -4.5903  -4.0461  -3.6281  -3.5901  -2.9143  -2.3725  -2.3350
    -0.8251  -0.7917  -0.4974   0.2478   0.2848   1.1978   1.5117   2.0307
     2.0458   2.1156   2.7708   2.7942   2.9121   3.1346   3.1531   3.4539
     3.8072   3.9033   4.1872   4.2261   4.2386   4.7948   4.9019   5.3463
     7.3900   7.8745   8.2148   8.4273   8.4599   8.7928

     occupation numbers 
     1.0000   1.0000   1.0000   1.0000   1.0000   1.0000   1.0000   1.0000
     1.0000   1.0000   1.0000   1.0000   1.0000   1.0000   1.0000   1.0000
     1.0000   1.0000   1.0000   1.0000   1.0000   1.0000   1.0000   1.0000
     1.0000   1.0000   1.0000   1.0000   1.0000   1.0000   1.0000   1.0000
     0.0000   0.0000   0.0000   0.0000   0.0000   0.0000

          k = 0.0000-0.3536 0.3536 (  7592 PWs)   bands (ev):

    -5.3016  -4.3049  -4.2590  -3.2549  -3.2171  -2.9680  -2.9287  -2.1096
    -1.0727  -0.7079  -0.6672   0.1425   0.1765   0.8266   0.8591   1.7933
     2.6548   2.6891   2.7347   2.7543   3.3436   3.3844   3.4747   3.6859
     3.9402   3.9624   4.2950   4.3071   4.4746   4.5158   4.5559   5.8251
     7.2239   7.9849   8.0167   8.2816   8.3230   8.6736

     occupation numbers 
     1.0000   1.0000   1.0000   1.0000   1.0000   1.0000   1.0000   1.0000
     1.0000   1.0000   1.0000   1.0000   1.0000   1.0000   1.0000   1.0000
     1.0000   1.0000   1.0000   1.0000   1.0000   1.0000   1.0000   1.0000
     1.0000   1.0000   1.0000   1.0000   1.0000   1.0000   1.0000   0.9999
     0.0000   0.0000   0.0000   0.0000   0.0000   0.0000

          k =-0.7071 0.0000 0.0000 (  7528 PWs)   bands (ev):

    -4.7820  -4.7340  -3.8277  -3.7855  -3.7810  -3.7637  -1.5567  -1.5152
    -1.5005  -1.4909   0.6092   0.6483   0.6700   0.6758   2.2251   2.2372
     2.2408   2.2481   2.3342   2.3345   2.3493   2.3629   2.6175   2.6316
     4.1915   4.2220   4.2509   4.2751   4.7687   4.7999   4.8106   4.8604
     7.1703   7.1938   8.4722   8.5101   8.5161   8.5519

     occupation numbers 
     1.0000   1.0000   1.0000   1.0000   1.0000   1.0000   1.0000   1.0000
     1.0000   1.0000   1.0000   1.0000   1.0000   1.0000   1.0000   1.0000
     1.0000   1.0000   1.0000   1.0000   1.0000   1.0000   1.0000   1.0000
     1.0000   1.0000   1.0000   1.0000   1.0000   1.0000   1.0000   1.0000
     0.0000   0.0000   0.0000   0.0000   0.0000   0.0000

          k =-0.7071 0.3536 0.0000 (  7564 PWs)   bands (ev):

    -4.5553  -4.5082  -4.4996  -4.4709  -2.7507  -2.7114  -2.6966  -2.6817
    -0.4786  -0.4390  -0.4211  -0.4011   1.7821   1.8376   1.8449   1.8526
     1.8566   1.8696   1.8788   1.9042   3.3670   3.3915   3.3939   3.4132
     3.5120   3.5187   3.5442   3.5552   4.6608   4.6982   4.7096   4.7483
     8.4881   8.5199   8.5241   8.5418   8.8979   8.9321

     occupation numbers 
     1.0000   1.0000   1.0000   1.0000   1.0000   1.0000   1.0000   1.0000
     1.0000   1.0000   1.0000   1.0000   1.0000   1.0000   1.0000   1.0000
     1.0000   1.0000   1.0000   1.0000   1.0000   1.0000   1.0000   1.0000
     1.0000   1.0000   1.0000   1.0000   1.0000   1.0000   1.0000   1.0000
     0.0000   0.0000   0.0000   0.0000   0.0000   0.0000

          k =-0.1768 0.1768 0.1768 (  7564 PWs)   bands (ev):

    -5.6377  -4.1424  -3.4428  -3.3994  -3.3883  -2.5729  -2.5285  -2.5136
    -0.7561  -0.6882  -0.6819  -0.6536  -0.6294  -0.5941   0.1646   2.6500
     2.6709   2.6809   3.4260   3.4405   3.4564   3.8164   3.8491   3.8549
     4.5133   4.5701   4.5720   4.5890   5.0282   5.0789   5.8259   5.8830
     6.9086   6.9302   6.9511   7.7333   7.9925   8.0106

     occupation numbers 
     1.0000   1.0000   1.0000   1.0000   1.0000   1.0000   1.0000   1.0000
     1.0000   1.0000   1.0000   1.0000   1.0000   1.0000   1.0000   1.0000
     1.0000   1.0000   1.0000   1.0000   1.0000   1.0000   1.0000   1.0000
     1.0000   1.0000   1.0000   1.0000   1.0000   1.0000   0.9999   0.9997
     0.0001   0.0001   0.0000   0.0000   0.0000   0.0000

          k = 0.1768 0.1768 0.1768 (  7564 PWs)   bands (ev):

    -5.6374  -4.1341  -3.4428  -3.4043  -3.3995  -2.5616  -2.5324  -2.5292
    -0.7075  -0.6879  -0.6853  -0.6389  -0.6284  -0.6008   0.1409   2.6382
     2.6613   2.6628   3.4442   3.4459   3.4548   3.7836   3.8336   3.8387
     4.5062   4.5752   4.5888   4.5988   5.0515   5.0682   5.8592   5.8801
     6.9284   6.9421   6.9554   7.7426   7.9949   7.9971

     occupation numbers 
     1.0000   1.0000   1.0000   1.0000   1.0000   1.0000   1.0000   1.0000
     1.0000   1.0000   1.0000   1.0000   1.0000   1.0000   1.0000   1.0000
     1.0000   1.0000   1.0000   1.0000   1.0000   1.0000   1.0000   1.0000
     1.0000   1.0000   1.0000   1.0000   1.0000   1.0000   0.9998   0.9997
     0.0001   0.0000   0.0000   0.0000   0.0000   0.0000

          k = 0.3536-0.3536-0.3536 (  7570 PWs)   bands (ev):

    -5.0419  -5.0387  -3.1843  -3.1172  -3.1116  -3.1058  -3.0861  -3.0654
    -0.3403  -0.2658  -0.2595  -0.2516  -0.2283  -0.1933   2.1878   2.1923
     2.5246   2.5592   2.5669   2.5779   2.5849   2.5986   3.8929   3.9205
     3.9212   3.9218   3.9242   3.9535   5.3287   5.3769   5.3803   5.4360
     7.5188   7.5629   7.5643   7.5654   7.5678   7.6052

     occupation numbers 
     1.0000   1.0000   1.0000   1.0000   1.0000   1.0000   1.0000   1.0000
     1.0000   1.0000   1.0000   1.0000   1.0000   1.0000   1.0000   1.0000
     1.0000   1.0000   1.0000   1.0000   1.0000   1.0000   1.0000   1.0000
     1.0000   1.0000   1.0000   1.0000   1.0000   1.0000   1.0000   1.0000
     0.0000   0.0000   0.0000   0.0000   0.0000   0.0000

          k =-0.3536-0.3536-0.3536 (  7570 PWs)   bands (ev):

    -5.0647  -5.0107  -3.1882  -3.1182  -3.1138  -3.1044  -3.0907  -3.0805
    -0.2659  -0.2634  -0.2596  -0.2451  -0.2215  -0.1980   2.1375   2.1899
     2.4890   2.5361   2.5467   2.5709   2.5714   2.5762   3.8976   3.8992
     3.9131   3.9380   3.9657   3.9841   5.3600   5.3609   5.4015   5.4376
     7.5484   7.5514   7.5580   7.5817   7.6079   7.6183

     occupation numbers 
     1.0000   1.0000   1.0000   1.0000   1.0000   1.0000   1.0000   1.0000
     1.0000   1.0000   1.0000   1.0000   1.0000   1.0000   1.0000   1.0000
     1.0000   1.0000   1.0000   1.0000   1.0000   1.0000   1.0000   1.0000
     1.0000   1.0000   1.0000   1.0000   1.0000   1.0000   1.0000   1.0000
     0.0000   0.0000   0.0000   0.0000   0.0000   0.0000

          k = 0.0000 0.3536 0.0000 (  7563 PWs)   bands (ev):

    -5.5688  -3.7045  -3.6580  -3.6475  -3.6245  -3.4368  -1.6488  -1.6049
    -1.5945  -1.5689  -0.3067  -0.2654  -0.2627  -0.2293   0.3942   2.6684
     2.6769   2.6962   2.7037   3.5089   3.5222   3.6219   3.6525   3.6596
     3.6934   4.7871   4.8562   4.8705   4.8726   4.9060   5.3203   5.3396
     6.6544   7.5678   7.9913   8.0050   8.0331   8.0467

     occupation numbers 
     1.0000   1.0000   1.0000   1.0000   1.0000   1.0000   1.0000   1.0000
     1.0000   1.0000   1.0000   1.0000   1.0000   1.0000   1.0000   1.0000
     1.0000   1.0000   1.0000   1.0000   1.0000   1.0000   1.0000   1.0000
     1.0000   1.0000   1.0000   1.0000   1.0000   1.0000   1.0000   1.0000
     0.0257   0.0000   0.0000   0.0000   0.0000   0.0000

          k = 0.1768-0.5303-0.5303 (  7554 PWs)   bands (ev):

    -5.0995  -4.5877  -4.0415  -3.6341  -3.6058  -2.8890  -2.3769  -2.3463
    -0.8003  -0.7879  -0.5474   0.2968   0.3057   1.1809   1.4885   2.0232
     2.0319   2.1077   2.7828   2.8018   2.9143   3.1497   3.1512   3.4423
     3.7937   3.9282   4.1468   4.1961   4.2566   4.8329   4.8588   5.3958
     7.4112   7.9087   8.2248   8.4230   8.4462   8.8072

     occupation numbers 
     1.0000   1.0000   1.0000   1.0000   1.0000   1.0000   1.0000   1.0000
     1.0000   1.0000   1.0000   1.0000   1.0000   1.0000   1.0000   1.0000
     1.0000   1.0000   1.0000   1.0000   1.0000   1.0000   1.0000   1.0000
     1.0000   1.0000   1.0000   1.0000   1.0000   1.0000   1.0000   1.0000
     0.0000   0.0000   0.0000   0.0000   0.0000   0.0000

          k =-0.5303-0.1768-0.5303 (  7554 PWs)   bands (ev):

    -5.0986  -4.5840  -4.0471  -3.6282  -3.6082  -2.9062  -2.3691  -2.3514
    -0.7987  -0.7841  -0.5099   0.2861   0.3053   1.2099   1.4750   2.0080
     2.0253   2.0945   2.7655   2.7779   2.8862   3.1493   3.1616   3.4189
     3.8142   3.9235   4.1901   4.1995   4.2586   4.8178   4.9093   5.3775
     7.4102   7.9040   8.2244   8.4486   8.4629   8.8102

     occupation numbers 
     1.0000   1.0000   1.0000   1.0000   1.0000   1.0000   1.0000   1.0000
     1.0000   1.0000   1.0000   1.0000   1.0000   1.0000   1.0000   1.0000
     1.0000   1.0000   1.0000   1.0000   1.0000   1.0000   1.0000   1.0000
     1.0000   1.0000   1.0000   1.0000   1.0000   1.0000   1.0000   1.0000
     0.0000   0.0000   0.0000   0.0000   0.0000   0.0000

          k = 0.5303 0.1768-0.5303 (  7554 PWs)   bands (ev):

    -5.0997  -4.5896  -4.0460  -3.6306  -3.5921  -2.9079  -2.3727  -2.3370
    -0.8283  -0.7799  -0.5140   0.2462   0.3015   1.1909   1.5083   2.0266
     2.0439   2.1178   2.7691   2.7986   2.9201   3.1292   3.1575   3.4547
     3.7999   3.9138   4.1851   4.2138   4.2410   4.8029   4.8873   5.3593
     7.3952   7.8825   8.2171   8.4184   8.4585   8.7948

     occupation numbers 
     1.0000   1.0000   1.0000   1.0000   1.0000   1.0000   1.0000   1.0000
     1.0000   1.0000   1.0000   1.0000   1.0000   1.0000   1.0000   1.0000
     1.0000   1.0000   1.0000   1.0000   1.0000   1.0000   1.0000   1.0000
     1.0000   1.0000   1.0000   1.0000   1.0000   1.0000   1.0000   1.0000
     0.0000   0.0000   0.0000   0.0000   0.0000   0.0000

          k =-0.5303 0.1768 0.5303 (  7554 PWs)   bands (ev):

    -5.0987  -4.5894  -4.0468  -3.6309  -3.5921  -2.9123  -2.3730  -2.3378
    -0.8265  -0.7789  -0.5014   0.2478   0.3029   1.2020   1.5002   2.0214
     2.0396   2.1083   2.7625   2.7940   2.9054   3.1325   3.1606   3.4419
     3.8086   3.9149   4.1883   4.2202   4.2414   4.8027   4.9056   5.3569
     7.3968   7.8824   8.2173   8.4287   8.4662   8.7971

     occupation numbers 
     1.0000   1.0000   1.0000   1.0000   1.0000   1.0000   1.0000   1.0000
     1.0000   1.0000   1.0000   1.0000   1.0000   1.0000   1.0000   1.0000
     1.0000   1.0000   1.0000   1.0000   1.0000   1.0000   1.0000   1.0000
     1.0000   1.0000   1.0000   1.0000   1.0000   1.0000   1.0000   1.0000
     0.0000   0.0000   0.0000   0.0000   0.0000   0.0000

          k = 0.5303-0.1768 0.5303 (  7554 PWs)   bands (ev):

    -5.1000  -4.5892  -4.0410  -3.6281  -3.6082  -2.8916  -2.3674  -2.3498
    -0.8071  -0.7899  -0.5442   0.2814   0.3004   1.1758   1.5019   2.0316
     2.0357   2.1131   2.7856   2.8015   2.9281   3.1397   3.1512   3.4566
     3.7890   3.9228   4.1641   4.1917   4.2509   4.8242   4.8568   5.3840
     7.4059   7.9008   8.2216   8.4197   8.4387   8.8009

     occupation numbers 
     1.0000   1.0000   1.0000   1.0000   1.0000   1.0000   1.0000   1.0000
     1.0000   1.0000   1.0000   1.0000   1.0000   1.0000   1.0000   1.0000
     1.0000   1.0000   1.0000   1.0000   1.0000   1.0000   1.0000   1.0000
     1.0000   1.0000   1.0000   1.0000   1.0000   1.0000   1.0000   1.0000
     0.0000   0.0000   0.0000   0.0000   0.0000   0.0000

          k =-0.1768-0.5303-0.5303 (  7554 PWs)   bands (ev):

    -5.0991  -4.5828  -4.0468  -3.6338  -3.6059  -2.8993  -2.3781  -2.3473
    -0.7920  -0.7848  -0.5258   0.2995   0.3094   1.2043   1.4695   2.0060
     2.0256   2.0977   2.7733   2.7781   2.8877   3.1523   3.1621   3.4176
     3.8102   3.9277   4.1665   4.2004   4.2640   4.8267   4.8929   5.3916
     7.4139   7.9120   8.2273   8.4427   8.4615   8.8141

     occupation numbers 
     1.0000   1.0000   1.0000   1.0000   1.0000   1.0000   1.0000   1.0000
     1.0000   1.0000   1.0000   1.0000   1.0000   1.0000   1.0000   1.0000
     1.0000   1.0000   1.0000   1.0000   1.0000   1.0000   1.0000   1.0000
     1.0000   1.0000   1.0000   1.0000   1.0000   1.0000   1.0000   1.0000
     0.0000   0.0000   0.0000   0.0000   0.0000   0.0000

          k = 0.0000-0.3536-0.3536 (  7592 PWs)   bands (ev):

    -5.2999  -4.3015  -4.2544  -3.2603  -3.2311  -2.9776  -2.9438  -2.0752
    -1.1162  -0.6633  -0.6479   0.1873   0.1906   0.8045   0.8472   1.7761
     2.6170   2.6562   2.7338   2.7515   3.3194   3.3589   3.4273   3.7115
     3.9675   3.9763   4.2648   4.2935   4.4972   4.5326   4.5898   5.8824
     7.2581   8.0081   8.0144   8.3087   8.3459   8.6691

     occupation numbers 
     1.0000   1.0000   1.0000   1.0000   1.0000   1.0000   1.0000   1.0000
     1.0000   1.0000   1.0000   1.0000   1.0000   1.0000   1.0000   1.0000
     1.0000   1.0000   1.0000   1.0000   1.0000   1.0000   1.0000   1.0000
     1.0000   1.0000   1.0000   1.0000   1.0000   1.0000   1.0000   0.9997
     0.0000   0.0000   0.0000   0.0000   0.0000   0.0000

          k =-0.3536 0.0000-0.3536 (  7592 PWs)   bands (ev):

    -5.3005  -4.2913  -4.2661  -3.2570  -3.2335  -2.9633  -2.9482  -2.0834
    -1.1072  -0.6719  -0.6534   0.1724   0.1901   0.8085   0.8517   1.7820
     2.6317   2.6541   2.7392   2.7512   3.3329   3.3562   3.4375   3.7060
     3.9607   3.9727   4.2630   4.3043   4.4970   4.5382   4.5707   5.8674
     7.2503   8.0008   8.0155   8.3120   8.3316   8.6928

     occupation numbers 
     1.0000   1.0000   1.0000   1.0000   1.0000   1.0000   1.0000   1.0000
     1.0000   1.0000   1.0000   1.0000   1.0000   1.0000   1.0000   1.0000
     1.0000   1.0000   1.0000   1.0000   1.0000   1.0000   1.0000   1.0000
     1.0000   1.0000   1.0000   1.0000   1.0000   1.0000   1.0000   0.9998
     0.0000   0.0000   0.0000   0.0000   0.0000   0.0000

          k = 0.3536 0.0000-0.3536 (  7592 PWs)   bands (ev):

    -5.3011  -4.2940  -4.2688  -3.2583  -3.2181  -2.9671  -2.9343  -2.1022
    -1.0842  -0.7060  -0.6521   0.1407   0.1920   0.8284   0.8491   1.7897
     2.6543   2.6721   2.7351   2.7531   3.3420   3.3739   3.4608   3.6945
     3.9379   3.9704   4.2864   4.3028   4.4751   4.5445   4.5515   5.8397
     7.2318   7.9803   8.0253   8.2951   8.3196   8.6888

     occupation numbers 
     1.0000   1.0000   1.0000   1.0000   1.0000   1.0000   1.0000   1.0000
     1.0000   1.0000   1.0000   1.0000   1.0000   1.0000   1.0000   1.0000
     1.0000   1.0000   1.0000   1.0000   1.0000   1.0000   1.0000   1.0000
     1.0000   1.0000   1.0000   1.0000   1.0000   1.0000   1.0000   0.9999
     0.0000   0.0000   0.0000   0.0000   0.0000   0.0000

          k = 0.0000-0.7071 0.0000 (  7528 PWs)   bands (ev):

    -4.7707  -4.7452  -3.8346  -3.7912  -3.7797  -3.7530  -1.5594  -1.5152
    -1.5055  -1.4805   0.6099   0.6522   0.6668   0.6722   2.2163   2.2333
     2.2401   2.2522   2.3325   2.3427   2.3458   2.3626   2.6226   2.6280
     4.2186   4.2283   4.2441   4.2576   4.7858   4.7991   4.8073   4.8460
     7.1762   7.1892   8.4877   8.5098   8.5151   8.5365

     occupation numbers 
     1.0000   1.0000   1.0000   1.0000   1.0000   1.0000   1.0000   1.0000
     1.0000   1.0000   1.0000   1.0000   1.0000   1.0000   1.0000   1.0000
     1.0000   1.0000   1.0000   1.0000   1.0000   1.0000   1.0000   1.0000
     1.0000   1.0000   1.0000   1.0000   1.0000   1.0000   1.0000   1.0000
     0.0000   0.0000   0.0000   0.0000   0.0000   0.0000

          k = 0.3536-0.7071 0.0000 (  7564 PWs)   bands (ev):

    -4.5504  -4.5073  -4.4975  -4.4794  -2.7573  -2.7091  -2.7038  -2.6692
    -0.4745  -0.4325  -0.4243  -0.4086   1.7783   1.8304   1.8479   1.8485
     1.8570   1.8625   1.8973   1.9023   3.3545   3.3853   3.3963   3.4235
     3.5117   3.5158   3.5528   3.5583   4.6741   4.7009   4.7098   4.7327
     8.4850   8.5141   8.5295   8.5463   8.8967   8.9241

     occupation numbers 
     1.0000   1.0000   1.0000   1.0000   1.0000   1.0000   1.0000   1.0000
     1.0000   1.0000   1.0000   1.0000   1.0000   1.0000   1.0000   1.0000
     1.0000   1.0000   1.0000   1.0000   1.0000   1.0000   1.0000   1.0000
     1.0000   1.0000   1.0000   1.0000   1.0000   1.0000   1.0000   1.0000
     0.0000   0.0000   0.0000   0.0000   0.0000   0.0000

     the Fermi energy is     6.3732 ev

!    total energy              =    -152.95480469 Ry
     Harris-Foulkes estimate   =    -152.95480468 Ry
     estimated scf accuracy    <          2.0E-10 Ry

     The total energy is the sum of the following terms:

     one-electron contribution =      40.84121331 Ry
     hartree contribution      =       8.76801669 Ry
     xc contribution           =     -68.21737795 Ry
     ewald contribution        =    -134.34637726 Ry
     smearing contrib. (-TS)   =      -0.00027948 Ry

     convergence has been achieved in  12 iterations

     Forces acting on atoms (Ry/au):

     atom    1 type  1   force =  -0.29636442E-01 -0.16312622E-01 -0.16312622E-01
     atom    2 type  1   force =   0.13625991E-01  0.12674256E-01  0.12674256E-01
     atom    3 type  1   force =   0.14792179E-02  0.14965707E-02 -0.87342432E-03
     atom    4 type  1   force =   0.71799153E-02  0.59534122E-02 -0.33237826E-02
     atom    5 type  1   force =   0.14792179E-02 -0.87342432E-03  0.14965707E-02
     atom    6 type  1   force =   0.71799153E-02 -0.33237826E-02  0.59534122E-02
     atom    7 type  1   force =  -0.17607426E-02 -0.53733486E-04 -0.53733486E-04
     atom    8 type  1   force =  -0.59930946E-03 -0.29094824E-03 -0.29094824E-03
     atom    9 type  1   force =  -0.17756004E-02  0.98729463E-03  0.98729463E-03
     atom   10 type  1   force =   0.22783022E-02  0.13711614E-02  0.13711614E-02
     atom   11 type  1   force =   0.43777852E-03 -0.89818592E-03 -0.56270283E-03
     atom   12 type  1   force =  -0.30500938E-03 -0.57511503E-03 -0.17968079E-04
     atom   13 type  1   force =   0.43777852E-03 -0.56270283E-03 -0.89818592E-03
     atom   14 type  1   force =  -0.30500938E-03 -0.17968079E-04 -0.57511503E-03
     atom   15 type  1   force =   0.31256570E-03  0.15728140E-03  0.15728140E-03
     atom   16 type  1   force =  -0.28569356E-04  0.26850683E-03  0.26850683E-03
     The non-local contrib.  to forces
     atom    1 type  1   force =  -0.29171549E-01 -0.16188525E-01 -0.16188525E-01
     atom    2 type  1   force =   0.14472807E-01  0.16281670E-01  0.16281670E-01
     atom    3 type  1   force =   0.79869007E-03  0.48953751E-03  0.81155284E-03
     atom    4 type  1   force =   0.52724352E-02  0.65911093E-02 -0.92698837E-02
     atom    5 type  1   force =   0.79869007E-03  0.81155284E-03  0.48953751E-03
     atom    6 type  1   force =   0.52724352E-02 -0.92698837E-02  0.65911093E-02
     atom    7 type  1   force =   0.18167849E-02  0.30714507E-03  0.30714507E-03
     atom    8 type  1   force =   0.75224181E-03  0.37957933E-03  0.37957933E-03
     atom    9 type  1   force =   0.18222091E-02  0.40848411E-03  0.40848411E-03
     atom   10 type  1   force =  -0.34055848E-02 -0.10226256E-02 -0.10226256E-02
     atom   11 type  1   force =   0.69844290E-03  0.94460064E-03  0.22318382E-03
     atom   12 type  1   force =   0.34810198E-03  0.78871091E-03 -0.28561065E-04
     atom   13 type  1   force =   0.69844290E-03  0.22318382E-03  0.94460064E-03
     atom   14 type  1   force =   0.34810198E-03 -0.28561065E-04  0.78871091E-03
     atom   15 type  1   force =  -0.43317232E-03 -0.21467734E-03 -0.21467734E-03
     atom   16 type  1   force =  -0.73621641E-04 -0.44462536E-03 -0.44462536E-03
     The ionic contribution  to forces
     atom    1 type  1   force =  -0.97725109E-01 -0.52483882E-01 -0.52483882E-01
     atom    2 type  1   force =   0.44636823E-01  0.61730581E-01  0.61730581E-01
     atom    3 type  1   force =   0.23925115E-01  0.28444692E-01 -0.34124124E-02
     atom    4 type  1   force =   0.77008177E-02  0.22502855E-01 -0.51948440E-01
     atom    5 type  1   force =   0.23925115E-01 -0.34124124E-02  0.28444692E-01
     atom    6 type  1   force =   0.77008177E-02 -0.51948440E-01  0.22502855E-01
     atom    7 type  1   force =  -0.67938017E-02 -0.45043572E-02 -0.45043572E-02
     atom    8 type  1   force =   0.11047339E-01  0.55981483E-02  0.55981483E-02
     atom    9 type  1   force =  -0.68083041E-02  0.17445236E-01  0.17445236E-01
     atom   10 type  1   force =  -0.32058676E-01 -0.14329531E-01 -0.14329531E-01
     atom   11 type  1   force =   0.19592060E-02 -0.33979004E-02 -0.15479886E-01
     atom   12 type  1   force =   0.64663946E-02  0.10667679E-01  0.36155312E-03
     atom   13 type  1   force =   0.19592060E-02 -0.15479886E-01 -0.33979004E-02
     atom   14 type  1   force =   0.64663946E-02  0.36155312E-03  0.10667679E-01
     atom   15 type  1   force =   0.63626432E-02  0.31775135E-02  0.31775135E-02
     atom   16 type  1   force =   0.12360192E-02 -0.43718494E-02 -0.43718494E-02
     The local contribution  to forces
     atom    1 type  1   force =   0.94681564E-01  0.50927214E-01  0.50927214E-01
     atom    2 type  1   force =  -0.44107120E-01 -0.63762899E-01 -0.63762899E-01
     atom    3 type  1   force =  -0.23186260E-01 -0.27404203E-01  0.17953285E-02
     atom    4 type  1   force =  -0.53067593E-02 -0.22505589E-01  0.56959082E-01
     atom    5 type  1   force =  -0.23186260E-01  0.17953285E-02 -0.27404203E-01
     atom    6 type  1   force =  -0.53067593E-02  0.56959082E-01 -0.22505589E-01
     atom    7 type  1   force =   0.33668344E-02  0.41685861E-02  0.41685861E-02
     atom    8 type  1   force =  -0.12339419E-01 -0.62388714E-02 -0.62388714E-02
     atom    9 type  1   force =   0.33613119E-02 -0.16837986E-01 -0.16837986E-01
     atom   10 type  1   force =   0.37373117E-01  0.16599166E-01  0.16599166E-01
     atom   11 type  1   force =  -0.21649507E-02  0.16334512E-02  0.14713928E-01
     atom   12 type  1   force =  -0.70915349E-02 -0.11969453E-01 -0.35320489E-03
     atom   13 type  1   force =  -0.21649507E-02  0.14713928E-01  0.16334512E-02
     atom   14 type  1   force =  -0.70915349E-02 -0.35320489E-03 -0.11969453E-01
     atom   15 type  1   force =  -0.56534912E-02 -0.28237675E-02 -0.28237675E-02
     atom   16 type  1   force =  -0.11958797E-02  0.50505523E-02  0.50505523E-02
     The core correction contribution to forces
     atom    1 type  1   force =   0.25785206E-02  0.14328992E-02  0.14328992E-02
     atom    2 type  1   force =  -0.13768671E-02 -0.15752036E-02 -0.15752036E-02
     atom    3 type  1   force =  -0.58039415E-04 -0.33856336E-04 -0.68122547E-04
     atom    4 type  1   force =  -0.48623000E-03 -0.63472535E-03  0.93544731E-03
     atom    5 type  1   force =  -0.58039415E-04 -0.68122547E-04 -0.33856336E-04
     atom    6 type  1   force =  -0.48623000E-03  0.93544731E-03 -0.63472535E-03
     atom    7 type  1   force =  -0.15089553E-03 -0.24363998E-04 -0.24363998E-04
     atom    8 type  1   force =  -0.59944261E-04 -0.30225496E-04 -0.30225496E-04
     atom    9 type  1   force =  -0.15135191E-03 -0.28805692E-04 -0.28805692E-04
     atom   10 type  1   force =   0.36942984E-03  0.12418902E-03  0.12418902E-03
     atom   11 type  1   force =  -0.53658959E-04 -0.78450044E-04 -0.19139897E-04
     atom   12 type  1   force =  -0.28125591E-04 -0.62392670E-04  0.19509702E-05
     atom   13 type  1   force =  -0.53658959E-04 -0.19139897E-04 -0.78450044E-04
     atom   14 type  1   force =  -0.28125591E-04  0.19509702E-05 -0.62392670E-04
     atom   15 type  1   force =   0.35267928E-04  0.17480442E-04  0.17480442E-04
     atom   16 type  1   force =   0.50058432E-05  0.34711385E-04  0.34711385E-04
     The Hubbard contrib.    to forces
     atom    1 type  1   force =   0.00000000E+00  0.00000000E+00  0.00000000E+00
     atom    2 type  1   force =   0.00000000E+00  0.00000000E+00  0.00000000E+00
     atom    3 type  1   force =   0.00000000E+00  0.00000000E+00  0.00000000E+00
     atom    4 type  1   force =   0.00000000E+00  0.00000000E+00  0.00000000E+00
     atom    5 type  1   force =   0.00000000E+00  0.00000000E+00  0.00000000E+00
     atom    6 type  1   force =   0.00000000E+00  0.00000000E+00  0.00000000E+00
     atom    7 type  1   force =   0.00000000E+00  0.00000000E+00  0.00000000E+00
     atom    8 type  1   force =   0.00000000E+00  0.00000000E+00  0.00000000E+00
     atom    9 type  1   force =   0.00000000E+00  0.00000000E+00  0.00000000E+00
     atom   10 type  1   force =   0.00000000E+00  0.00000000E+00  0.00000000E+00
     atom   11 type  1   force =   0.00000000E+00  0.00000000E+00  0.00000000E+00
     atom   12 type  1   force =   0.00000000E+00  0.00000000E+00  0.00000000E+00
     atom   13 type  1   force =   0.00000000E+00  0.00000000E+00  0.00000000E+00
     atom   14 type  1   force =   0.00000000E+00  0.00000000E+00  0.00000000E+00
     atom   15 type  1   force =   0.00000000E+00  0.00000000E+00  0.00000000E+00
     atom   16 type  1   force =   0.00000000E+00  0.00000000E+00  0.00000000E+00
     The SCF correction term to forces
     atom    1 type  1   force =   0.15167320E-06 -0.35873867E-06 -0.35873867E-06
     atom    2 type  1   force =   0.36956176E-06  0.77854183E-07  0.77854183E-07
     atom    3 type  1   force =  -0.26729015E-06  0.37002811E-06  0.19935811E-06
     atom    4 type  1   force =  -0.32793649E-06 -0.26842884E-06 -0.18266924E-07
     atom    5 type  1   force =  -0.26729015E-06  0.19935812E-06  0.37002810E-06
     atom    6 type  1   force =  -0.32793649E-06 -0.18266924E-07 -0.26842884E-06
     atom    7 type  1   force =   0.35577216E-06 -0.77343027E-06 -0.77343027E-06
     atom    8 type  1   force =   0.49305354E-06  0.39104112E-06  0.39104112E-06
     atom    9 type  1   force =   0.55503942E-06  0.33584363E-06  0.33584363E-06
     atom   10 type  1   force =   0.36517455E-07 -0.67383219E-07 -0.67383219E-07
     atom   11 type  1   force =  -0.12402864E-05  0.82729272E-07 -0.81835209E-06
     atom   12 type  1   force =   0.17502787E-06  0.31086448E-06  0.26383677E-06
     atom   13 type  1   force =  -0.12402864E-05 -0.81835209E-06  0.82729272E-07
     atom   14 type  1   force =   0.17502787E-06  0.26383677E-06  0.31086448E-06
     atom   15 type  1   force =   0.13385478E-05  0.70226916E-06  0.70226916E-06
     atom   16 type  1   force =  -0.72584795E-07 -0.31200260E-06 -0.31200260E-06

     Total force =     0.046318     Total SCF correction =     0.000003


     entering subroutine stress ...

          total   stress  (Ry/bohr**3)                   (kbar)     P=    0.64
   0.0000034265   0.0000103837   0.0000103837          0.50      1.53      1.53
   0.0000103837   0.0000048055   0.0000190077          1.53      0.71      2.80
   0.0000103837   0.0000190077   0.0000048055          1.53      2.80      0.71

     kinetic stress (kbar)   2190.19     -0.89     -0.89
                               -0.89   2190.19     -1.81
                               -0.89     -1.81   2190.19

     local   stress (kbar)   -287.10    -10.86    -10.86
                              -10.86   -288.20    -21.59
                              -10.86    -21.59   -288.20

     nonloc. stress (kbar)   1939.84      1.31      1.31
                                1.31   1939.97      2.54
                                1.31      2.54   1939.97

     hartree stress (kbar)    198.69      1.23      1.23
                                1.23    198.86      2.50
                                1.23      2.50    198.86

     exc-cor stress (kbar)    993.76      0.02      0.02
                                0.02    993.76      0.03
                                0.02      0.03    993.76

     corecor stress (kbar)  -1988.11     -0.15     -0.15
                               -0.15  -1988.12     -0.30
                               -0.15     -0.30  -1988.12

     ewald   stress (kbar)  -3046.77     10.88     10.88
                               10.88  -3045.74     21.43
                               10.88     21.43  -3045.74

     hubbard stress (kbar)      0.00      0.00      0.00
                                0.00      0.00      0.00
                                0.00      0.00      0.00

     london  stress (kbar)      0.00      0.00      0.00
                                0.00      0.00      0.00
                                0.00      0.00      0.00

     XDM     stress (kbar)      0.00      0.00      0.00
                                0.00      0.00      0.00
                                0.00      0.00      0.00

     dft-nl  stress (kbar)      0.00      0.00      0.00
                                0.00      0.00      0.00
                                0.00      0.00      0.00



     Writing output data file Si_diamond.scf.in.super.222.xy005.save

     init_run     :     11.65s CPU     12.04s WALL (       1 calls)
     electrons    :    333.14s CPU    347.60s WALL (       1 calls)
     forces       :      4.90s CPU      4.74s WALL (       1 calls)
     stress       :     20.87s CPU     20.87s WALL (       1 calls)

     Called by init_run:
     wfcinit      :     10.51s CPU     10.86s WALL (       1 calls)
     potinit      :      0.13s CPU      0.13s WALL (       1 calls)

     Called by electrons:
     c_bands      :    274.34s CPU    288.16s WALL (      13 calls)
     sum_band     :     48.40s CPU     48.88s WALL (      13 calls)
     v_of_rho     :      1.30s CPU      1.32s WALL (      13 calls)
     v_h          :      0.07s CPU      0.08s WALL (      13 calls)
     v_xc         :      1.45s CPU      1.46s WALL (      15 calls)
     newd         :      8.39s CPU      8.48s WALL (      13 calls)
     mix_rho      :      1.18s CPU      1.21s WALL (      13 calls)

     Called by c_bands:
     init_us_2    :      3.14s CPU      3.25s WALL (     696 calls)
     cegterg      :    259.01s CPU    272.06s WALL (     312 calls)

     Called by sum_band:
     sum_band:bec :      0.21s CPU      0.26s WALL (     312 calls)
     addusdens    :      8.45s CPU      8.57s WALL (      13 calls)

     Called by *egterg:
     h_psi        :    176.41s CPU    179.71s WALL (    1212 calls)
     s_psi        :     15.52s CPU     14.22s WALL (    1212 calls)
     g_psi        :      0.37s CPU      0.39s WALL (     876 calls)
     cdiaghg      :     13.28s CPU     15.04s WALL (    1164 calls)
     cegterg:over :     29.75s CPU     33.61s WALL (     876 calls)
     cegterg:upda :      6.19s CPU      8.12s WALL (     876 calls)
     cegterg:last :      2.60s CPU      3.01s WALL (     331 calls)

     Called by h_psi:
     h_psi:vloc   :    129.45s CPU    132.38s WALL (    1212 calls)
     h_psi:vnl    :     46.63s CPU     46.96s WALL (    1212 calls)
     add_vuspsi   :     15.87s CPU     15.45s WALL (    1212 calls)

     General routines
     calbec       :     46.27s CPU     46.57s WALL (    1572 calls)
     fft          :      2.13s CPU      2.17s WALL (     233 calls)
     ffts         :      0.60s CPU      0.63s WALL (     225 calls)
     fftw         :    138.01s CPU    141.17s WALL (   74958 calls)
     interpolate  :      0.25s CPU      0.24s WALL (      26 calls)

     Parallel routines
     fft_scatter  :     77.62s CPU     79.40s WALL (   75416 calls)

     PWSCF        :  6m11.68s CPU     6m26.71s WALL


   This run was terminated on:  12:11: 4  28Sep2017            

=------------------------------------------------------------------------------=
   JOB DONE.
=------------------------------------------------------------------------------=
