
     Program PWSCF v.5.1 starts on 14Feb2017 at  6:18: 9 

     This program is part of the open-source Quantum ESPRESSO suite
     for quantum simulation of materials; please cite
         "P. Giannozzi et al., J. Phys.:Condens. Matter 21 395502 (2009);
          URL http://www.quantum-espresso.org", 
     in publications or presentations arising from this work. More details at
     http://www.quantum-espresso.org/quote

     Parallel version (MPI), running on    16 processors
     R & G space division:  proc/nbgrp/npool/nimage =      16
     Reading input from /tmp/Si_diamond.scf.in.super.444.a.02.3079/Si_diamond.scf.in.super.444.a.02.t
Warning: card &IONS ignored
Warning: card   ION_DYNAMICS='BFGS', ignored
Warning: card / ignored
Warning: card &CELL ignored
Warning: card  CELL_DYNAMICS = 'BFGS' ignored
Warning: card / ignored
     Message from routine read_cards :
     DEPRECATED: no units specified in CELL_PARAMETERS card

     Current dimensions of program PWSCF are:
     Max number of different atomic species (ntypx) = 10
     Max number of k-points (npk) =  40000
     Max angular momentum in pseudopotentials (lmaxx) =  3

     Subspace diagonalization in iterative solution of the eigenvalue problem:
     a serial algorithm will be used


     Parallelization info
     --------------------
     sticks:   dense  smooth     PW     G-vecs:    dense   smooth      PW
     Min         726     508    134                51681    30247    4089
     Max         727     509    135                51684    30277    4090
     Sum       11629    8137   2149               826925   484169   65427



     bravais-lattice index     =            0
     lattice parameter (alat)  =    29.031211967  a.u.
     unit-cell volume          =   17301.3703 (a.u.)^3
     number of atoms/cell      =          128
     number of atomic types    =            1
     number of electrons       =       512.00
     number of Kohn-Sham states=          307
     kinetic-energy cutoff     =      35.0000  Ry
     charge density cutoff     =     200.0000  Ry
     convergence threshold     =      1.0E-09
     mixing beta               =       0.3000
     number of iterations used =            8  local-TF  mixing
     Exchange-correlation      = SLA  PW   PSX  PSC ( 1  4 10  8 0)
     A smooth kinetic-energy cutoff is imposed at      34.5000 Ry
     height of the smooth step-function =             800.0000 Ry
     width of the smooth step-function  =               1.0000 Ry


     celldm(1)=  29.031212  celldm(2)=   0.000000  celldm(3)=   0.000000
     celldm(4)=   0.000000  celldm(5)=   0.000000  celldm(6)=   0.000000

     crystal axes: (cart. coord. in units of alat)
               a(1) = (  -0.000000000000   0.707106781187   0.707106781187 )  
               a(2) = (   0.707106781187  -0.000000000000   0.707106781187 )  
               a(3) = (   0.707106781187   0.707106781187  -0.000000000000 )  

     reciprocal axes: (cart. coord. in units 2 pi/alat)
               b(1) = ( -0.707107  0.707107  0.707107 )  
               b(2) = (  0.707107 -0.707107  0.707107 )  
               b(3) = (  0.707107  0.707107 -0.707107 )  


     PseudoPot. # 1 for Si read from file:
     /users/kfg/psuedo/gbrv_1.5/si.pbesol.UPF
     MD5 check sum: ef58ba74faed4df802eb8a9742fc00a8
     Pseudo is Ultrasoft + core correction, Zval =  4.0
     Generated by new atomic code, or converted to UPF format
     Using radial grid of  899 points,  6 beta functions with: 
                l(1) =   0
                l(2) =   0
                l(3) =   1
                l(4) =   1
                l(5) =   2
                l(6) =   2
     Q(r) pseudized with  8 coefficients,  rinner =    0.900   0.900   0.900
                                                       0.900   0.900

     atomic species   valence    mass     pseudopotential
        Si             4.00    28.08550     Si( 1.00)

     No symmetry found


                                    s                        frac. trans.

      isym =  1     identity                                     

 cryst.   s( 1) = (     1          0          0      )
                  (     0          1          0      )
                  (     0          0          1      )

 cart.    s( 1) = (  1.0000000  0.0000000  0.0000000 )
                  (  0.0000000  1.0000000  0.0000000 )
                  (  0.0000000  0.0000000  1.0000000 )


     point group C_1 (1)    
     there are  1 classes
     the character table:

       E    
A      1.00

     the symmetry operations in each class:
     E        1

   Cartesian axes

     site n.     atom                  positions (alat units)
         1           Si  tau(   1) = (   -0.00121930998    0.00116400674    0.00176521159  )
         2           Si  tau(   2) = (    0.08943099533    0.09081332830    0.08676936863  )
         3           Si  tau(   3) = (    0.17634523076    0.17578091346    0.00062718106  )
         4           Si  tau(   4) = (    0.26423686676    0.26470319481    0.08536698901  )
         5           Si  tau(   5) = (    0.35144758617    0.35064800546    0.00176331857  )
         6           Si  tau(   6) = (    0.44115191083    0.44374907176    0.08667339324  )
         7           Si  tau(   7) = (    0.53322626434    0.52793565282    0.00096052181  )
         8           Si  tau(   8) = (    0.61676890724    0.61581992547    0.08886289787  )
         9           Si  tau(   9) = (    0.17716908395    0.00089282581    0.17343011797  )
        10           Si  tau(  10) = (    0.26800887329    0.08710563934    0.26406583469  )
        11           Si  tau(  11) = (    0.35473991621    0.17364710719    0.17774826987  )
        12           Si  tau(  12) = (    0.44272472967    0.26364670772    0.26474379475  )
        13           Si  tau(  13) = (    0.53009158614    0.35156686540    0.17550588299  )
        14           Si  tau(  14) = (    0.61580481144    0.44423445901    0.26374664814  )
        15           Si  tau(  15) = (    0.70475778549    0.52865426577    0.17413360674  )
        16           Si  tau(  16) = (    0.79614283293    0.61843530181    0.26604069454  )
        17           Si  tau(  17) = (    0.35294480946   -0.00052292312    0.35152239023  )
        18           Si  tau(  18) = (    0.44047191018    0.08964728877    0.44465359256  )
        19           Si  tau(  19) = (    0.53008430471    0.17388849377    0.35262502225  )
        20           Si  tau(  20) = (    0.61553355902    0.26809253378    0.44410705258  )
        21           Si  tau(  21) = (    0.70716425567    0.35505887632    0.35432402013  )
        22           Si  tau(  22) = (    0.79391087922    0.44145281386    0.44338474556  )
        23           Si  tau(  23) = (    0.88270691375    0.53014111916    0.35283506689  )
        24           Si  tau(  24) = (    0.97569365504    0.61632968244    0.44527294531  )
        25           Si  tau(  25) = (    0.52758093139   -0.00129279279    0.52832777292  )
        26           Si  tau(  26) = (    0.61699031450    0.08520586880    0.61630447962  )
        27           Si  tau(  27) = (    0.70748492150    0.17589765151    0.52751493110  )
        28           Si  tau(  28) = (    0.79458360739    0.26531078974    0.62170329068  )
        29           Si  tau(  29) = (    0.88330295743    0.35487730822    0.52838175930  )
        30           Si  tau(  30) = (    0.97485703532    0.44030694460    0.61670991438  )
        31           Si  tau(  31) = (    1.06259984441    0.52926382420    0.53205064867  )
        32           Si  tau(  32) = (    1.14926291809    0.61879097555    0.62114338174  )
        33           Si  tau(  33) = (   -0.00150488458    0.17633978018    0.17675478564  )
        34           Si  tau(  34) = (    0.09169319183    0.26194187677    0.26640652384  )
        35           Si  tau(  35) = (    0.17826111797    0.35358663964    0.17753802365  )
        36           Si  tau(  36) = (    0.26729550520    0.44459293142    0.26430393658  )
        37           Si  tau(  37) = (    0.35478319198    0.53056984084    0.17924505704  )
        38           Si  tau(  38) = (    0.44025039120    0.61702948235    0.26448788443  )
        39           Si  tau(  39) = (    0.52896914964    0.70605149476    0.17648166544  )
        40           Si  tau(  40) = (    0.61826069086    0.79684166189    0.26751430830  )
        41           Si  tau(  41) = (    0.17977103190    0.17350875829    0.35265500664  )
        42           Si  tau(  42) = (    0.26680723973    0.26232871815    0.44062622748  )
        43           Si  tau(  43) = (    0.35552706384    0.35577406606    0.35527924503  )
        44           Si  tau(  44) = (    0.43867967423    0.43859229571    0.44385506985  )
        45           Si  tau(  45) = (    0.53215672024    0.52858493615    0.35420049737  )
        46           Si  tau(  46) = (    0.61998527368    0.61987814551    0.44338661933  )
        47           Si  tau(  47) = (    0.70557288163    0.70540601360    0.35246167737  )
        48           Si  tau(  48) = (    0.79692734585    0.79612631210    0.44133495936  )
        49           Si  tau(  49) = (    0.35376421046    0.17839010411    0.52953843437  )
        50           Si  tau(  50) = (    0.44182520234    0.26302904650    0.61774973253  )
        51           Si  tau(  51) = (    0.53302401156    0.35192297105    0.52897397115  )
        52           Si  tau(  52) = (    0.61820549871    0.44250133190    0.61778721888  )
        53           Si  tau(  53) = (    0.70766334044    0.52826183446    0.52913608876  )
        54           Si  tau(  54) = (    0.79616666804    0.61645433208    0.61611136445  )
        55           Si  tau(  55) = (    0.88497084540    0.70478229715    0.52822508764  )
        56           Si  tau(  56) = (    0.97533547166    0.79528753296    0.61972207065  )
        57           Si  tau(  57) = (    0.52990563083    0.18002380531    0.70915715133  )
        58           Si  tau(  58) = (    0.61932758304    0.26175252849    0.79362905042  )
        59           Si  tau(  59) = (    0.70649843998    0.35132717906    0.70611503701  )
        60           Si  tau(  60) = (    0.79742262675    0.43910796757    0.79501927692  )
        61           Si  tau(  61) = (    0.88632735872    0.52871202452    0.70613584507  )
        62           Si  tau(  62) = (    0.97216129801    0.61910972624    0.79403753772  )
        63           Si  tau(  63) = (    1.05801064625    0.70826753703    0.70545013792  )
        64           Si  tau(  64) = (    1.14856329483    0.79831268647    0.79271014344  )
        65           Si  tau(  65) = (    0.00226765615    0.35170940590    0.35510127774  )
        66           Si  tau(  66) = (    0.09050504924    0.43969134462    0.44466722113  )
        67           Si  tau(  67) = (    0.17682818901    0.52792905140    0.35154512567  )
        68           Si  tau(  68) = (    0.26312899751    0.61594619040    0.44533560496  )
        69           Si  tau(  69) = (    0.35533256894    0.70401201635    0.35325460408  )
        70           Si  tau(  70) = (    0.44005558619    0.79658811719    0.43868464219  )
        71           Si  tau(  71) = (    0.53029987369    0.88182541383    0.35391305383  )
        72           Si  tau(  72) = (    0.61705345791    0.97134932419    0.44314156138  )
        73           Si  tau(  73) = (    0.17396720816    0.35365290454    0.53338363503  )
        74           Si  tau(  74) = (    0.26711529002    0.44355251384    0.61998589783  )
        75           Si  tau(  75) = (    0.35571341166    0.53164571939    0.53320101120  )
        76           Si  tau(  76) = (    0.44139772951    0.61535854935    0.61605194915  )
        77           Si  tau(  77) = (    0.53322858485    0.70820388190    0.52773768780  )
        78           Si  tau(  78) = (    0.62037310149    0.79824172631    0.61715511621  )
        79           Si  tau(  79) = (    0.70569717493    0.88210811435    0.52730391106  )
        80           Si  tau(  80) = (    0.79645525676    0.97100976213    0.61668209680  )
        81           Si  tau(  81) = (    0.35472087601    0.35024867034    0.70802118143  )
        82           Si  tau(  82) = (    0.44416084473    0.44384231035    0.79736101035  )
        83           Si  tau(  83) = (    0.53317671649    0.52932768349    0.70472830945  )
        84           Si  tau(  84) = (    0.61841405879    0.62023576129    0.79314947445  )
        85           Si  tau(  85) = (    0.70843997090    0.70500971927    0.70386002918  )
        86           Si  tau(  86) = (    0.79743935169    0.79717481429    0.79663410177  )
        87           Si  tau(  87) = (    0.88529364232    0.88272532959    0.70843296995  )
        88           Si  tau(  88) = (    0.97281987664    0.97193991587    0.79859387725  )
        89           Si  tau(  89) = (    0.52939591082    0.35346729623    0.88371944621  )
        90           Si  tau(  90) = (    0.62163145524    0.44069039347    0.97097696347  )
        91           Si  tau(  91) = (    0.70921603624    0.53361330703    0.88511787367  )
        92           Si  tau(  92) = (    0.79576541405    0.61749260290    0.97221978715  )
        93           Si  tau(  93) = (    0.88335749474    0.70415891367    0.88311408280  )
        94           Si  tau(  94) = (    0.97445167134    0.79402634050    0.97309002001  )
        95           Si  tau(  95) = (    1.05893207205    0.88429455194    0.88397736733  )
        96           Si  tau(  96) = (    1.14901469242    0.97102907015    0.97480995154  )
        97           Si  tau(  97) = (   -0.00213448180    0.52743096518    0.52689652327  )
        98           Si  tau(  98) = (    0.08744078083    0.61909070442    0.62016121777  )
        99           Si  tau(  99) = (    0.17712048287    0.70672253405    0.53014215726  )
       100           Si  tau( 100) = (    0.26745589697    0.79576337792    0.62203944026  )
       101           Si  tau( 101) = (    0.35112146693    0.88097428879    0.53244810348  )
       102           Si  tau( 102) = (    0.44133491003    0.97158244110    0.61952162993  )
       103           Si  tau( 103) = (    0.53308188647    1.06063248647    0.53046357986  )
       104           Si  tau( 104) = (    0.61742339609    1.14641191479    0.62133863259  )
       105           Si  tau( 105) = (    0.17563957898    0.53360855083    0.70485514685  )
       106           Si  tau( 106) = (    0.26617188951    0.61539758516    0.79386822345  )
       107           Si  tau( 107) = (    0.35425295950    0.70882101036    0.70390949186  )
       108           Si  tau( 108) = (    0.44333061939    0.79526262775    0.79516364366  )
       109           Si  tau( 109) = (    0.53202996049    0.88704409716    0.70814040416  )
       110           Si  tau( 110) = (    0.62001261100    0.97016299188    0.79854875705  )
       111           Si  tau( 111) = (    0.70595450971    1.06388480774    0.70377113989  )
       112           Si  tau( 112) = (    0.79367663076    1.15181446600    0.79364582713  )
       113           Si  tau( 113) = (    0.35180295675    0.53086199875    0.88444351758  )
       114           Si  tau( 114) = (    0.44082579559    0.61527563249    0.97295689317  )
       115           Si  tau( 115) = (    0.53199411597    0.70431306479    0.88234354899  )
       116           Si  tau( 116) = (    0.61533610373    0.79379990929    0.97217971596  )
       117           Si  tau( 117) = (    0.70391668103    0.88280660435    0.88294372313  )
       118           Si  tau( 118) = (    0.79223513505    0.97023744444    0.97411238255  )
       119           Si  tau( 119) = (    0.88689023824    1.06081025510    0.88625710017  )
       120           Si  tau( 120) = (    0.97279472770    1.14757118078    0.97494105829  )
       121           Si  tau( 121) = (    0.52741685693    0.52934760380    1.05729966406  )
       122           Si  tau( 122) = (    0.62110586368    0.62027353415    1.15160555979  )
       123           Si  tau( 123) = (    0.70613193060    0.71014302356    1.05774881056  )
       124           Si  tau( 124) = (    0.79612603498    0.79406790044    1.14887308452  )
       125           Si  tau( 125) = (    0.88429491998    0.88691369582    1.05827586537  )
       126           Si  tau( 126) = (    0.97162625045    0.97164322172    1.14722674940  )
       127           Si  tau( 127) = (    1.06174805321    1.05830791951    1.06083972914  )
       128           Si  tau( 128) = (    1.14970077305    1.15033796995    1.15098790631  )

   Crystallographic axes

     site n.     atom                  positions (cryst. coord.)
         1           Si  tau(   1) = (    0.00293345250   -0.00043706632   -0.00128729838  )
         2           Si  tau(   2) = (    0.06233266597    0.06037775194    0.06609677455  )
         3           Si  tau(   3) = (    0.00004445140    0.00084251657    0.24854730043  )
         4           Si  tau(   4) = (    0.06069332054    0.06003383310    0.31365352756  )
         5           Si  tau(   5) = (    0.00068146558    0.00181224346    0.49520969936  )
         6           Si  tau(   6) = (    0.06312381422    0.05945087400    0.56443214136  )
         7           Si  tau(   7) = (   -0.00306183580    0.00442021876    0.74967559608  )
         8           Si  tau(   8) = (    0.06216452623    0.06350658912    0.80873636434  )
         9           Si  tau(   9) = (   -0.00201252501    0.24727974997    0.00327517139  )
        10           Si  tau(  10) = (    0.05880483893    0.31464064586    0.06438113758  )
        11           Si  tau(  11) = (   -0.00236494631    0.25373896025    0.24793904037  )
        12           Si  tau(  12) = (    0.06057484886    0.31382941623    0.31227790087  )
        13           Si  tau(  13) = (   -0.00213464064    0.25033744064    0.49932526977  )
        14           Si  tau(  14) = (    0.06517848376    0.30781560307    0.56306391304  )
        15           Si  tau(  15) = (   -0.00139293882    0.24765504715    0.74902297128  )
        16           Si  tau(  16) = (    0.06246097885    0.31377737950    0.81213861241  )
        17           Si  tau(  17) = (   -0.00137556476    0.49850329650    0.00063603980  )
        18           Si  tau(  18) = (    0.06634710177    0.56248803939    0.06043330984  )
        19           Si  tau(  19) = (   -0.00252492890    0.50121201779    0.24844039513  )
        20           Si  tau(  20) = (    0.06835320345    0.55970901346    0.31078689380  )
        21           Si  tau(  21) = (    0.00156881594    0.49952101880    0.50056026240  )
        22           Si  tau(  22) = (    0.06429487215    0.56274584836    0.56001368435  )
        23           Si  tau(  23) = (    0.00019040427    0.49879373261    0.74954235642  )
        24           Si  tau(  24) = (    0.06074681717    0.56896422105    0.81087497863  )
        25           Si  tau(  25) = (   -0.00038604584    0.74755434768   -0.00144223925  )
        26           Si  tau(  26) = (    0.05976468913    0.81182146450    0.06073460612  )
        27           Si  tau(  27) = (   -0.00287957844    0.74889834836    0.25163642280  )
        28           Si  tau(  28) = (    0.06535821427    0.81386301119    0.30984790283  )
        29           Si  tau(  29) = (   -0.00003103486    0.74727568497    0.50190333712  )
        30           Si  tau(  30) = (    0.05809576846    0.81406375652    0.56459228421  )
        31           Si  tau(  31) = (   -0.00090889494    0.75334213816    0.74940097319  )
        32           Si  tau(  32) = (    0.06411438952    0.81431500512    0.81098820037  )
        33           Si  tau(  33) = (    0.25073967599   -0.00077066092   -0.00135756727  )
        34           Si  tau(  34) = (    0.30876185917    0.06799385994    0.06167989551  )
        35           Si  tau(  35) = (    0.24951220573    0.00156447516    0.25053481552  )
        36           Si  tau(  36) = (    0.31225931822    0.06152289348    0.31649003513  )
        37           Si  tau(  37) = (    0.25104532678    0.00244546388    0.49929373792  )
        38           Si  tau(  38) = (    0.31202287075    0.06201948250    0.56058859157  )
        39           Si  tau(  39) = (    0.25000750945   -0.00042474467    0.74850009017  )
        40           Si  tau(  40) = (    0.31543699707    0.06288536586    0.81146728824  )
        41           Si  tau(  41) = (    0.24493665048    0.25379284275    0.00044178868  )
        42           Si  tau(  42) = (    0.30840300044    0.31473658640    0.06258583057  )
        43           Si  tau(  43) = (    0.25139502032    0.25104570643    0.25174548904  )
        44           Si  tau(  44) = (    0.31379114381    0.31391471570    0.30647202913  )
        45           Si  tau(  45) = (    0.24793194084    0.25298320634    0.49960004473  )
        46           Si  tau(  46) = (    0.31344593416    0.31359743627    0.56319414624  )
        47           Si  tau(  47) = (    0.24911004866    0.24934603570    0.74848470275  )
        48           Si  tau(  48) = (    0.31150452614    0.31263735893    0.81438810180  )
        49           Si  tau(  49) = (    0.25043199799    0.49844843769    0.00184970663  )
        50           Si  tau(  50) = (    0.31038705071    0.56324299919    0.06159219415  )
        51           Si  tau(  51) = (    0.24598330825    0.50209885589    0.25171093033  )
        52           Si  tau(  52) = (    0.31259992397    0.56108313964    0.31319146097  )
        53           Si  tau(  53) = (    0.24729969510    0.50101173797    0.49977535567  )
        54           Si  tau(  54) = (    0.30858071235    0.56273233519    0.56321736466  )
        55           Si  tau(  55) = (    0.24609899711    0.50092408582    0.75061368604  )
        56           Si  tau(  56) = (    0.31089656022    0.56552279699    0.81380985489  )
        57           Si  tau(  57) = (    0.25404601919    0.74885364208    0.00054608783  )
        58           Si  tau(  58) = (    0.30833673744    0.81402422916    0.06183723833  )
        59           Si  tau(  59) = (    0.24815472388    0.75044273805    0.24869693757  )
        60           Si  tau(  60) = (    0.30879679657    0.81553024719    0.31219564651  )
        61           Si  tau(  61) = (    0.24644121662    0.75218567236    0.50127049904  )
        62           Si  tau(  62) = (    0.31182416693    0.81111448794    0.56372920451  )
        63           Si  tau(  63) = (    0.25152285211    0.74613430051    0.75011870455  )
        64           Si  tau(  64) = (    0.31286613765    0.80819529823    0.81611849057  )
        65           Si  tau(  65) = (    0.49818715237    0.00400189062   -0.00079494054  )
        66           Si  tau(  66) = (    0.56133920479    0.06751521007    0.06047825803  )
        67           Si  tau(  67) = (    0.49684574293    0.00031414157    0.24975868153  )
        68           Si  tau(  68) = (    0.56437925578    0.06542039656    0.30670020037  )
        69           Si  tau(  69) = (    0.49634232776    0.00323512431    0.49928101384  )
        70           Si  tau(  70) = (    0.56230345568    0.05809031491    0.56424226328  )
        71           Si  tau(  71) = (    0.49882041351    0.00168822711    0.74826904638  )
        72           Si  tau(  72) = (    0.56387341267    0.06282339348    0.80982197540  )
        73           Si  tau(  73) = (    0.50421615969    0.25010221092   -0.00407542572  )
        74           Si  tau(  74) = (    0.56315619001    0.31363627518    0.06412179068  )
        75           Si  tau(  75) = (    0.50143297858    0.25262712293    0.25042760816  )
        76           Si  tau(  76) = (    0.55862338618    0.31260563544    0.31162502004  )
        77           Si  tau(  77) = (    0.49689311682    0.24944067865    0.50465841789  )
        78           Si  tau(  78) = (    0.56216667849    0.31062245695    0.56671759691  )
        79           Si  tau(  79) = (    0.49760154280    0.24811879971    0.74988771600  )
        80           Si  tau(  80) = (    0.55948876692    0.31263141805    0.81372640788  )
        81           Si  tau(  81) = (    0.49748425165    0.50380890557   -0.00215783186  )
        82           Si  tau(  82) = (    0.56359413965    0.56404461529    0.06409367520  )
        83           Si  tau(  83) = (    0.49559648917    0.50103984384    0.25298589975  )
        84           Si  tau(  84) = (    0.56212951007    0.55955323368    0.31501631542  )
        85           Si  tau(  85) = (    0.49527864545    0.50012975384    0.50175566115  )
        86           Si  tau(  86) = (    0.56311831930    0.56349243167    0.56425711465  )
        87           Si  tau(  87) = (    0.49912168573    0.50275382841    0.74924044724  )
        88           Si  tau(  88) = (    0.56406891979    0.56531337224    0.81046169105  )
        89           Si  tau(  89) = (    0.50048369670    0.74928432946   -0.00060545252  )
        90           Si  tau(  90) = (    0.55863974347    0.81452904701    0.06459058778  )
        91           Si  tau(  91) = (    0.50170297000    0.75004273124    0.25294020586  )
        92           Si  tau(  92) = (    0.56140529063    0.81352111797    0.31186112306  )
        93           Si  tau(  93) = (    0.49774342466    0.75116848836    0.49808766112  )
        94           Si  tau(  94) = (    0.56049857691    0.81565852679    0.56242424270  )
        95           Si  tau(  95) = (    0.50157901613    0.74855376557    0.74900233235  )
        96           Si  tau(  96) = (    0.56343988665    0.81514956756    0.80980259383  )
        97           Si  tau(  97) = (    0.74703142323   -0.00188721406   -0.00113139905  )
        98           Si  tau(  98) = (    0.81445346870    0.06258693633    0.06107300183  )
        99           Si  tau(  99) = (    0.74935231611    0.00038191268    0.25010427637  )
       100           Si  tau( 100) = (    0.81341810871    0.06627850404    0.31196125279  )
       101           Si  tau( 101) = (    0.75116018797    0.00183514123    0.49472559934  )
       102           Si  tau( 102) = (    0.81300957055    0.06312632068    0.56101549462  )
       103           Si  tau( 103) = (    0.74812900117    0.00205978781    0.75183184589  )
       104           Si  tau( 104) = (    0.81340412926    0.06530139178    0.80786714870  )
       105           Si  tau( 105) = (    0.75153014154    0.24528556665    0.00310630804  )
       106           Si  tau( 106) = (    0.80828946173    0.31440974661    0.06201414945  )
       107           Si  tau( 107) = (    0.74845664819    0.24702170188    0.25396763795  )
       108           Si  tau( 108) = (    0.81111911421    0.31341209496    0.31355207959  )
       109           Si  tau( 109) = (    0.75176378527    0.24969797836    0.50270600735  )
       110           Si  tau( 110) = (    0.81225294997    0.31706553246    0.55976471086  )
       111           Si  tau( 111) = (    0.75073628635    0.24454640450    0.75382403756  )
       112           Si  tau( 112) = (    0.81443403812    0.30795065433    0.81447760103  )
       113           Si  tau( 113) = (    0.75200987169    0.49878214603   -0.00125763331  )
       114           Si  tau( 114) = (    0.81133907961    0.56462975431    0.05879206446  )
       115           Si  tau( 115) = (    0.74575900407    0.50206320959    0.25029008432  )
       116           Si  tau( 116) = (    0.81362783679    0.56124190258    0.30897476073  )
       117           Si  tau( 117) = (    0.75082977190    0.49784121617    0.49764730093  )
       118           Si  tau( 118) = (    0.81466811138    0.56293483130    0.55745484128  )
       119           Si  tau( 119) = (    0.74965842871    0.50369838210    0.75055382116  )
       120           Si  tau( 120) = (    0.81297304874    0.56580181841    0.80993767890  )
       121           Si  tau( 121) = (    0.74898900641    0.74625851800   -0.00037844590  )
       122           Si  tau( 122) = (    0.81371955473    0.81489664644    0.06347968965  )
       123           Si  tau( 123) = (    0.75077762777    0.74510508570    0.25351626737  )
       124           Si  tau( 124) = (    0.81092062789    0.81383126967    0.31206096635  )
       125           Si  tau( 125) = (    0.75016579492    0.74646228662    0.50411958236  )
       126           Si  tau( 126) = (    0.81122381456    0.81119981356    0.56288720738  )
       127           Si  tau( 127) = (    0.74769442436    0.75255950809    0.74897898858  )
       128           Si  tau( 128) = (    0.81432191986    0.81342078737    0.81250163855  )

     number of k points=     8  gaussian smearing, width (Ry)=  0.0150
                       cart. coord. in units 2pi/alat
        k(    1) = (   0.0000000   0.0000000   0.0000000), wk =   0.2500000
        k(    2) = (  -0.3535534  -0.3535534   0.3535534), wk =   0.2500000
        k(    3) = (  -0.7071068   0.0000000   0.0000000), wk =   0.2500000
        k(    4) = (   0.3535534   0.3535534   0.3535534), wk =   0.2500000
        k(    5) = (   0.3535534  -0.3535534  -0.3535534), wk =   0.2500000
        k(    6) = (  -0.3535534   0.3535534  -0.3535534), wk =   0.2500000
        k(    7) = (   0.0000000  -0.7071068   0.0000000), wk =   0.2500000
        k(    8) = (   0.0000000   0.0000000  -0.7071068), wk =   0.2500000

                       cryst. coord.
        k(    1) = (   0.0000000   0.0000000   0.0000000), wk =   0.2500000
        k(    2) = (   0.0000000   0.0000000  -0.5000000), wk =   0.2500000
        k(    3) = (   0.0000000  -0.5000000  -0.5000000), wk =   0.2500000
        k(    4) = (   0.5000000   0.5000000   0.5000000), wk =   0.2500000
        k(    5) = (  -0.5000000   0.0000000   0.0000000), wk =   0.2500000
        k(    6) = (   0.0000000  -0.5000000   0.0000000), wk =   0.2500000
        k(    7) = (  -0.5000000   0.0000000  -0.5000000), wk =   0.2500000
        k(    8) = (  -0.5000000  -0.5000000   0.0000000), wk =   0.2500000

     Dense  grid:   826925 G-vectors     FFT dimensions: ( 135, 135, 135)

     Smooth grid:   484169 G-vectors     FFT dimensions: ( 120, 120, 120)

     Largest allocated arrays     est. size (Mb)     dimensions
        Kohn-Sham Wavefunctions        17.73 Mb     (    3784,  307)
        NL pseudopotentials           133.03 Mb     (    3784, 2304)
        Each V/rho on FFT grid          2.50 Mb     (  164025)
        Each G-vector array             0.39 Mb     (   51681)
        G-vector shells                 0.02 Mb     (    2817)
     Largest temporary arrays     est. size (Mb)     dimensions
        Auxiliary wavefunctions        70.90 Mb     (    3784, 1228)
        Each subspace H/S matrix       23.01 Mb     (    1228, 1228)
        Each <psi_i|beta_j> matrix     10.79 Mb     (    2304,  307)
        Arrays for rho mixing          20.02 Mb     (  164025,    8)

     Initial potential from superposition of free atoms

     starting charge  511.91704, renormalised to  512.00000
     Starting wfc are  512 randomized atomic wfcs

     total cpu time spent up to now is      367.6 secs

     per-process dynamical memory:   363.8 Mb

     Self-consistent Calculation

     iteration #  1     ecut=    35.00 Ry     beta=0.30
     Davidson diagonalization with overlap
     ethr =  1.00E-02,  avg # of iterations =  4.1

     Threshold (ethr) on eigenvalues was too large:
     Diagonalizing with lowered threshold

     Davidson diagonalization with overlap
     ethr =  6.94E-04,  avg # of iterations =  4.0

     total cpu time spent up to now is     2134.0 secs

     total energy              =   -1224.07671283 Ry
     Harris-Foulkes estimate   =   -1224.44953973 Ry
     estimated scf accuracy    <       3.50390987 Ry

     iteration #  2     ecut=    35.00 Ry     beta=0.30
     Davidson diagonalization with overlap
     ethr =  6.84E-04,  avg # of iterations =  2.0

     total cpu time spent up to now is     2865.0 secs

     total energy              =   -1223.33771020 Ry
     Harris-Foulkes estimate   =   -1224.09318873 Ry
     estimated scf accuracy    <       2.17778631 Ry

     iteration #  3     ecut=    35.00 Ry     beta=0.30
     Davidson diagonalization with overlap
     ethr =  4.25E-04,  avg # of iterations =  6.8

     total cpu time spent up to now is     3722.5 secs

     total energy              =   -1223.48035305 Ry
     Harris-Foulkes estimate   =   -1223.47571009 Ry
     estimated scf accuracy    <       0.02569919 Ry

     iteration #  4     ecut=    35.00 Ry     beta=0.30
     Davidson diagonalization with overlap
     c_bands:  1 eigenvalues not converged
     ethr =  5.02E-06,  avg # of iterations = 14.3

     total cpu time spent up to now is     5447.7 secs

     total energy              =   -1223.49763665 Ry
     Harris-Foulkes estimate   =   -1223.49615723 Ry
     estimated scf accuracy    <       0.01017423 Ry

     iteration #  5     ecut=    35.00 Ry     beta=0.30
     Davidson diagonalization with overlap
     ethr =  1.99E-06,  avg # of iterations =  3.6

     total cpu time spent up to now is     6212.8 secs

     total energy              =   -1223.49824857 Ry
     Harris-Foulkes estimate   =   -1223.49820114 Ry
     estimated scf accuracy    <       0.00044748 Ry

     iteration #  6     ecut=    35.00 Ry     beta=0.30
     Davidson diagonalization with overlap
     ethr =  8.74E-08,  avg # of iterations =  3.0

     total cpu time spent up to now is     7184.2 secs

     total energy              =   -1223.49835741 Ry
     Harris-Foulkes estimate   =   -1223.49837703 Ry
     estimated scf accuracy    <       0.00012841 Ry

     iteration #  7     ecut=    35.00 Ry     beta=0.30
     Davidson diagonalization with overlap
     ethr =  2.51E-08,  avg # of iterations =  2.0

     total cpu time spent up to now is     7945.9 secs

     total energy              =   -1223.49837541 Ry
     Harris-Foulkes estimate   =   -1223.49837122 Ry
     estimated scf accuracy    <       0.00002789 Ry

     iteration #  8     ecut=    35.00 Ry     beta=0.30
     Davidson diagonalization with overlap
     ethr =  5.45E-09,  avg # of iterations =  2.3

     total cpu time spent up to now is     8561.2 secs

     total energy              =   -1223.49837401 Ry
     Harris-Foulkes estimate   =   -1223.49837739 Ry
     estimated scf accuracy    <       0.00001475 Ry

     iteration #  9     ecut=    35.00 Ry     beta=0.30
     Davidson diagonalization with overlap
     ethr =  2.88E-09,  avg # of iterations =  2.0

     total cpu time spent up to now is     9240.0 secs

     total energy              =   -1223.49837479 Ry
     Harris-Foulkes estimate   =   -1223.49837508 Ry
     estimated scf accuracy    <       0.00000182 Ry

     iteration # 10     ecut=    35.00 Ry     beta=0.30
     Davidson diagonalization with overlap
     ethr =  3.55E-10,  avg # of iterations =  3.0

     total cpu time spent up to now is    10163.5 secs

     total energy              =   -1223.49837507 Ry
     Harris-Foulkes estimate   =   -1223.49837511 Ry
     estimated scf accuracy    <       0.00000052 Ry

     iteration # 11     ecut=    35.00 Ry     beta=0.30
     Davidson diagonalization with overlap
     ethr =  1.02E-10,  avg # of iterations =  2.0

     total cpu time spent up to now is    11047.7 secs

     total energy              =   -1223.49837510 Ry
     Harris-Foulkes estimate   =   -1223.49837515 Ry
     estimated scf accuracy    <       0.00000022 Ry

     iteration # 12     ecut=    35.00 Ry     beta=0.30
     Davidson diagonalization with overlap
     ethr =  4.36E-11,  avg # of iterations =  2.4

     total cpu time spent up to now is    11796.1 secs

     total energy              =   -1223.49837513 Ry
     Harris-Foulkes estimate   =   -1223.49837513 Ry
     estimated scf accuracy    <       0.00000003 Ry

     iteration # 13     ecut=    35.00 Ry     beta=0.30
     Davidson diagonalization with overlap
     ethr =  4.90E-12,  avg # of iterations =  2.9

     total cpu time spent up to now is    12567.7 secs

     total energy              =   -1223.49837514 Ry
     Harris-Foulkes estimate   =   -1223.49837513 Ry
     estimated scf accuracy    <          6.0E-09 Ry

     iteration # 14     ecut=    35.00 Ry     beta=0.30
     Davidson diagonalization with overlap
     ethr =  1.17E-12,  avg # of iterations =  2.1

     total cpu time spent up to now is    13422.6 secs

     total energy              =   -1223.49837514 Ry
     Harris-Foulkes estimate   =   -1223.49837514 Ry
     estimated scf accuracy    <          2.6E-09 Ry

     iteration # 15     ecut=    35.00 Ry     beta=0.30
     Davidson diagonalization with overlap
     ethr =  5.11E-13,  avg # of iterations =  2.1

     total cpu time spent up to now is    14262.4 secs

     End of self-consistent calculation

          k = 0.0000 0.0000 0.0000 ( 60495 PWs)   bands (ev):

    -5.8542  -5.1157  -5.0940  -5.0748  -5.0656  -5.0433  -5.0364  -5.0138
    -5.0023  -4.8113  -4.7981  -4.7724  -4.7608  -4.7420  -4.7232  -3.9005
    -3.8691  -3.8424  -3.8288  -3.8206  -3.8118  -3.8032  -3.7856  -3.7739
    -3.7633  -3.7432  -3.7203  -3.5514  -3.5270  -3.4802  -3.4700  -3.2713
    -3.2434  -3.2350  -3.2010  -3.1909  -3.1776  -3.1679  -3.1506  -3.1421
    -3.1336  -3.1213  -3.1106  -3.1064  -3.0969  -3.0849  -3.0752  -3.0663
    -3.0551  -3.0487  -3.0464  -3.0357  -3.0123  -3.0027  -2.9914  -1.7542
    -1.7386  -1.7189  -1.6890  -1.6853  -1.6499  -1.5972  -1.5750  -1.5590
    -1.5424  -1.5294  -1.5162  -1.5126  -1.4977  -1.4878  -1.4662  -1.4546
    -1.4321  -0.9086  -0.9042  -0.8438  -0.8306  -0.4243  -0.3721  -0.3627
    -0.3427  -0.3276  -0.3206  -0.3109  -0.3023  -0.2887  -0.2713  -0.2665
    -0.2560  -0.2499  -0.2491  -0.2321  -0.2151  -0.2032  -0.1945  -0.1904
    -0.1889  -0.1795  -0.1608  -0.1377  -0.1263   0.5840   0.6030   0.6129
     0.6253   0.6323   0.6377   0.6585   0.6679   0.6722   0.6942   0.7067
     0.7174   2.0906   2.0984   2.1241   2.1398   2.1501   2.1582   2.1626
     2.1757   2.1860   2.1873   2.1956   2.2113   2.2184   2.2301   2.2377
     2.2474   2.2512   2.2581   2.2624   2.2710   2.2978   2.3118   2.3183
     2.3267   2.3419   2.3462   2.3514   2.3598   2.3637   2.3702   2.3807
     2.3857   2.4542   2.4670   2.4913   2.5021   2.5119   2.5202   2.5325
     2.5396   2.5467   2.5477   2.5604   2.5669   2.5743   2.5766   2.5864
     2.5919   2.6071   2.6080   2.6145   2.6191   2.6275   2.6351   2.6409
     2.6547   2.6581   2.6631   2.6740   2.6933   2.7042   2.7351   3.2456
     3.2573   3.2685   3.2690   3.2775   3.2990   3.8129   3.8189   3.8384
     3.8563   3.8603   3.8721   3.8752   3.8753   3.8925   3.8960   3.9010
     3.9174   3.9247   3.9404   3.9431   3.9457   3.9529   3.9611   3.9670
     3.9762   3.9821   3.9913   3.9939   4.0139   4.1710   4.1801   4.1951
     4.2055   4.2191   4.2351   4.2543   4.2662   4.2732   4.2780   4.2938
     4.3024   4.7290   4.7511   4.7538   4.7706   4.7738   4.7951   4.8111
     4.8209   4.8369   4.8485   4.8554   4.8687   4.9056   4.9072   4.9147
     4.9494   4.9705   4.9977   4.9995   5.0137   5.2376   5.2772   5.3123
     5.3291   5.3513   5.3738   5.3840   5.3911   5.4125   5.4165   5.4439
     5.4575   5.4613   5.4703   5.4773   5.5129   6.1115   6.1676   6.2198
     6.6753   6.7032   6.7205   6.7293   6.7528   6.7906   7.1245   7.1431
     7.1531   7.1726   7.1895   7.2127   7.4356   7.4428   7.4623   7.4768
     7.4832   7.4956   7.5058   7.5104   7.5152   7.5235   7.5302   7.5429
     7.5579   7.5700   7.5761   7.5834   7.5883   7.5959   7.5987   7.6099
     7.6151   7.6202   7.6292   7.6398   7.6469   7.6537   7.6563   7.6738
     8.0495   8.0589   8.0707   8.0858   8.1121   8.1221   8.1229   8.1416
     8.4393   8.4526   8.4569

     occupation numbers 
     1.0000   1.0000   1.0000   1.0000   1.0000   1.0000   1.0000   1.0000
     1.0000   1.0000   1.0000   1.0000   1.0000   1.0000   1.0000   1.0000
     1.0000   1.0000   1.0000   1.0000   1.0000   1.0000   1.0000   1.0000
     1.0000   1.0000   1.0000   1.0000   1.0000   1.0000   1.0000   1.0000
     1.0000   1.0000   1.0000   1.0000   1.0000   1.0000   1.0000   1.0000
     1.0000   1.0000   1.0000   1.0000   1.0000   1.0000   1.0000   1.0000
     1.0000   1.0000   1.0000   1.0000   1.0000   1.0000   1.0000   1.0000
     1.0000   1.0000   1.0000   1.0000   1.0000   1.0000   1.0000   1.0000
     1.0000   1.0000   1.0000   1.0000   1.0000   1.0000   1.0000   1.0000
     1.0000   1.0000   1.0000   1.0000   1.0000   1.0000   1.0000   1.0000
     1.0000   1.0000   1.0000   1.0000   1.0000   1.0000   1.0000   1.0000
     1.0000   1.0000   1.0000   1.0000   1.0000   1.0000   1.0000   1.0000
     1.0000   1.0000   1.0000   1.0000   1.0000   1.0000   1.0000   1.0000
     1.0000   1.0000   1.0000   1.0000   1.0000   1.0000   1.0000   1.0000
     1.0000   1.0000   1.0000   1.0000   1.0000   1.0000   1.0000   1.0000
     1.0000   1.0000   1.0000   1.0000   1.0000   1.0000   1.0000   1.0000
     1.0000   1.0000   1.0000   1.0000   1.0000   1.0000   1.0000   1.0000
     1.0000   1.0000   1.0000   1.0000   1.0000   1.0000   1.0000   1.0000
     1.0000   1.0000   1.0000   1.0000   1.0000   1.0000   1.0000   1.0000
     1.0000   1.0000   1.0000   1.0000   1.0000   1.0000   1.0000   1.0000
     1.0000   1.0000   1.0000   1.0000   1.0000   1.0000   1.0000   1.0000
     1.0000   1.0000   1.0000   1.0000   1.0000   1.0000   1.0000   1.0000
     1.0000   1.0000   1.0000   1.0000   1.0000   1.0000   1.0000   1.0000
     1.0000   1.0000   1.0000   1.0000   1.0000   1.0000   1.0000   1.0000
     1.0000   1.0000   1.0000   1.0000   1.0000   1.0000   1.0000   1.0000
     1.0000   1.0000   1.0000   1.0000   1.0000   1.0000   1.0000   1.0000
     1.0000   1.0000   1.0000   1.0000   1.0000   1.0000   1.0000   1.0000
     1.0000   1.0000   1.0000   1.0000   1.0000   1.0000   1.0000   1.0000
     1.0000   1.0000   1.0000   1.0000   1.0000   1.0000   1.0000   1.0000
     1.0000   1.0000   1.0000   1.0000   1.0000   1.0000   1.0000   1.0000
     1.0000   1.0000   1.0000   1.0000   1.0000   1.0000   1.0000   1.0000
     1.0000   1.0000   1.0000   1.0000   1.0000   0.9671   0.9266   0.8618
     0.0193   0.0119   0.0086   0.0073   0.0046   0.0021   0.0000   0.0000
     0.0000   0.0000   0.0000   0.0000   0.0000   0.0000   0.0000   0.0000
     0.0000   0.0000   0.0000   0.0000   0.0000   0.0000   0.0000   0.0000
     0.0000   0.0000   0.0000   0.0000   0.0000   0.0000   0.0000   0.0000
     0.0000   0.0000   0.0000   0.0000   0.0000   0.0000   0.0000   0.0000
     0.0000   0.0000   0.0000   0.0000   0.0000   0.0000   0.0000   0.0000
     0.0000   0.0000   0.0000

          k =-0.3536-0.3536 0.3536 ( 60452 PWs)   bands (ev):

    -5.6569  -5.6450  -5.1391  -5.1341  -5.1229  -5.1176  -5.0891  -5.0779
    -4.6388  -4.6263  -4.6123  -4.5976  -4.5713  -4.5598  -4.1858  -4.1585
    -4.0955  -4.0888  -4.0680  -4.0580  -4.0329  -4.0198  -3.7041  -3.6820
    -3.6707  -3.6429  -3.6349  -3.6293  -3.6229  -3.6049  -3.5955  -3.5728
    -3.5649  -3.5545  -3.4642  -3.4291  -3.4274  -3.3990  -3.3718  -3.3510
    -2.9580  -2.9493  -2.9271  -2.9238  -2.9034  -2.8806  -2.6075  -2.5769
    -2.5623  -2.5539  -2.5139  -2.4788  -2.4307  -2.4117  -2.4029  -2.3905
    -2.3711  -2.3572  -2.3460  -2.3301  -2.3217  -2.3098  -2.2925  -2.2702
    -0.9020  -0.8864  -0.8814  -0.8652  -0.8432  -0.8360  -0.8273  -0.8090
    -0.7979  -0.7895  -0.7792  -0.7503  -0.7469  -0.7315  -0.7207  -0.7132
    -0.6991  -0.6834  -0.6628  -0.6440  -0.6262  -0.5971  -0.5784  -0.5613
    -0.5379  -0.5095  -0.4932  -0.4772  -0.4472  -0.4034   0.1606   0.1786
     0.2159   0.2178   0.2329   0.2471   0.2529   0.2680   0.2808   0.3007
     0.3112   0.3193   0.3468   0.3620   1.1502   1.1906   1.1943   1.2120
     1.2275   1.2358   1.4385   1.4578   1.4785   1.5178   1.5196   1.5349
     1.9586   1.9721   1.9857   1.9961   2.0045   2.0083   2.0183   2.0291
     2.0411   2.0510   2.0555   2.0705   2.0843   2.1069   2.1171   2.1200
     2.1295   2.1498   2.6360   2.6432   2.6583   2.6737   2.6797   2.6883
     2.7067   2.7192   2.7297   2.7351   2.7533   2.7591   2.7724   2.7813
     2.7846   2.7880   2.8049   2.8162   2.8735   2.8831   2.8947   2.9262
     2.9296   2.9404   3.1069   3.1149   3.1221   3.1252   3.1319   3.1398
     3.1513   3.1656   3.1691   3.1746   3.1844   3.1988   3.3867   3.3942
     3.4034   3.4117   3.4152   3.4185   3.4316   3.4442   3.4509   3.4592
     3.4803   3.5032   3.7432   3.7576   3.7754   3.7959   3.8075   3.8296
     3.8384   3.8412   3.8614   3.8682   3.8750   3.8843   3.8956   3.9028
     3.9173   3.9245   3.9365   3.9492   4.1359   4.1424   4.1633   4.1730
     4.1934   4.1981   4.2087   4.2162   4.2275   4.2328   4.2376   4.2468
     4.2538   4.2599   4.2772   4.2823   4.2842   4.2957   4.5165   4.5229
     4.5411   4.5498   4.5692   4.5812   4.5957   4.6167   4.7664   4.7860
     4.8023   4.8087   4.8165   4.8261   4.8771   4.8994   4.9108   4.9423
     4.9745   4.9900   4.9997   5.0256   5.0875   5.1199   5.3278   5.3407
     5.3562   5.3844   5.3932   5.4351   5.7917   5.8211   5.8861   5.9441
     6.8564   6.8767   6.8972   6.9125   6.9419   6.9574   7.3464   7.3616
     7.3673   7.3949   7.4126   7.4228   7.7024   7.7142   7.8328   7.8389
     7.8500   7.8689   7.8923   7.8993   7.9745   7.9818   7.9907   8.0081
     8.0304   8.0541   8.1731   8.1804   8.1854   8.1900   8.2137   8.2217
     8.2328   8.2355   8.2454   8.2508   8.2814   8.2995   8.3790   8.4038
     8.4153   8.4201   8.4293   8.4349   8.4467   8.4549   8.4601   8.4745
     8.4763   8.5049   8.5705

     occupation numbers 
     1.0000   1.0000   1.0000   1.0000   1.0000   1.0000   1.0000   1.0000
     1.0000   1.0000   1.0000   1.0000   1.0000   1.0000   1.0000   1.0000
     1.0000   1.0000   1.0000   1.0000   1.0000   1.0000   1.0000   1.0000
     1.0000   1.0000   1.0000   1.0000   1.0000   1.0000   1.0000   1.0000
     1.0000   1.0000   1.0000   1.0000   1.0000   1.0000   1.0000   1.0000
     1.0000   1.0000   1.0000   1.0000   1.0000   1.0000   1.0000   1.0000
     1.0000   1.0000   1.0000   1.0000   1.0000   1.0000   1.0000   1.0000
     1.0000   1.0000   1.0000   1.0000   1.0000   1.0000   1.0000   1.0000
     1.0000   1.0000   1.0000   1.0000   1.0000   1.0000   1.0000   1.0000
     1.0000   1.0000   1.0000   1.0000   1.0000   1.0000   1.0000   1.0000
     1.0000   1.0000   1.0000   1.0000   1.0000   1.0000   1.0000   1.0000
     1.0000   1.0000   1.0000   1.0000   1.0000   1.0000   1.0000   1.0000
     1.0000   1.0000   1.0000   1.0000   1.0000   1.0000   1.0000   1.0000
     1.0000   1.0000   1.0000   1.0000   1.0000   1.0000   1.0000   1.0000
     1.0000   1.0000   1.0000   1.0000   1.0000   1.0000   1.0000   1.0000
     1.0000   1.0000   1.0000   1.0000   1.0000   1.0000   1.0000   1.0000
     1.0000   1.0000   1.0000   1.0000   1.0000   1.0000   1.0000   1.0000
     1.0000   1.0000   1.0000   1.0000   1.0000   1.0000   1.0000   1.0000
     1.0000   1.0000   1.0000   1.0000   1.0000   1.0000   1.0000   1.0000
     1.0000   1.0000   1.0000   1.0000   1.0000   1.0000   1.0000   1.0000
     1.0000   1.0000   1.0000   1.0000   1.0000   1.0000   1.0000   1.0000
     1.0000   1.0000   1.0000   1.0000   1.0000   1.0000   1.0000   1.0000
     1.0000   1.0000   1.0000   1.0000   1.0000   1.0000   1.0000   1.0000
     1.0000   1.0000   1.0000   1.0000   1.0000   1.0000   1.0000   1.0000
     1.0000   1.0000   1.0000   1.0000   1.0000   1.0000   1.0000   1.0000
     1.0000   1.0000   1.0000   1.0000   1.0000   1.0000   1.0000   1.0000
     1.0000   1.0000   1.0000   1.0000   1.0000   1.0000   1.0000   1.0000
     1.0000   1.0000   1.0000   1.0000   1.0000   1.0000   1.0000   1.0000
     1.0000   1.0000   1.0000   1.0000   1.0000   1.0000   1.0000   1.0000
     1.0000   1.0000   1.0000   1.0000   1.0000   1.0000   1.0000   1.0000
     1.0000   1.0000   1.0000   1.0000   1.0000   1.0000   1.0000   1.0000
     1.0000   1.0000   1.0000   1.0000   1.0000   0.9999   0.9997   0.9986
     0.0004   0.0003   0.0002   0.0001   0.0000   0.0000   0.0000   0.0000
     0.0000   0.0000   0.0000   0.0000   0.0000   0.0000   0.0000   0.0000
     0.0000   0.0000   0.0000   0.0000   0.0000   0.0000   0.0000   0.0000
     0.0000   0.0000   0.0000   0.0000   0.0000   0.0000   0.0000   0.0000
     0.0000   0.0000   0.0000   0.0000   0.0000   0.0000   0.0000   0.0000
     0.0000   0.0000   0.0000   0.0000   0.0000   0.0000   0.0000   0.0000
     0.0000   0.0000   0.0000

          k =-0.7071 0.0000 0.0000 ( 60622 PWs)   bands (ev):

    -5.5992  -5.5643  -5.3400  -5.3148  -5.3122  -5.2891  -4.6013  -4.5938
    -4.5457  -4.5393  -4.5247  -4.4969  -4.4756  -4.4404  -4.3462  -4.3277
    -4.3205  -4.2927  -4.2777  -4.2542  -4.2443  -4.2346  -3.7505  -3.7271
    -3.6923  -3.6821  -3.6667  -3.6401  -3.6312  -3.6081  -3.4587  -3.4232
    -3.3079  -3.2912  -3.2832  -3.2538  -3.2407  -3.2264  -3.2074  -3.1824
    -3.0190  -3.0081  -2.9855  -2.9797  -2.9509  -2.9381  -2.9167  -2.8923
    -2.7860  -2.7642  -2.7359  -2.7169  -2.6954  -2.6780  -2.6505  -2.6362
    -2.1350  -2.1032  -2.0899  -2.0624  -1.6855  -1.6534  -1.6289  -1.6158
    -1.6012  -1.5874  -1.5688  -1.5393  -1.1118  -1.1058  -1.1008  -1.1001
    -0.7540  -0.7369  -0.6975  -0.6837  -0.6658  -0.6541  -0.6468  -0.6182
    -0.4995  -0.4801  -0.4622  -0.4504  -0.4452  -0.4206  -0.3921  -0.3725
    -0.3236  -0.3041  -0.2824  -0.2686  -0.2483  -0.2341  -0.2069  -0.1945
     0.1381   0.1443   0.1585   0.1669   0.1777   0.1835   0.2071   0.2302
     0.3793   0.4148   0.7750   0.7825   0.8126   0.8300   0.8432   0.8504
     0.8792   0.8984   1.7121   1.7460   1.7604   1.7646   1.7673   1.7795
     1.7852   1.8139   1.8201   1.8249   1.8592   1.8602   1.8648   1.8774
     1.8833   1.8967   1.9037   1.9186   1.9320   1.9484   2.5956   2.5989
     2.6153   2.6232   2.6295   2.6439   2.6498   2.6549   2.6616   2.6738
     2.6800   2.6822   2.6887   2.7038   2.7139   2.7200   2.7233   2.7287
     2.7399   2.7453   2.7571   2.7602   2.7638   2.7834   3.2867   3.2886
     3.3121   3.3128   3.3269   3.3287   3.3372   3.3398   3.3457   3.3613
     3.3662   3.3724   3.3897   3.3923   3.4068   3.4234   3.4368   3.4494
     3.4588   3.4629   3.4750   3.4933   3.5031   3.5068   3.5129   3.5311
     3.5372   3.5444   3.5537   3.5554   3.5641   3.5846   3.6065   3.6262
     3.6359   3.6553   3.6730   3.6860   3.6959   3.7105   3.7151   3.7185
     3.7256   3.7437   3.9174   3.9324   3.9513   3.9615   3.9703   3.9774
     3.9896   4.0157   4.2390   4.2483   4.2686   4.2883   4.2913   4.3138
     4.3189   4.3331   4.4444   4.4570   4.4838   4.4895   4.5161   4.5262
     4.5399   4.5567   4.5614   4.5631   4.5946   4.5989   4.6446   4.6784
     4.6894   4.7106   4.7168   4.7265   4.7436   4.7704   4.8015   4.8090
     4.8252   4.8522   4.8827   4.8991   4.9133   4.9361   4.9434   4.9542
     5.3173   5.3223   5.3727   5.3858   5.8451   5.8515   5.8861   5.9066
     6.6220   6.6614   7.1978   7.2080   7.2377   7.2486   7.5290   7.5640
     7.9160   7.9324   7.9494   7.9527   7.9650   7.9709   7.9869   7.9888
     7.9939   8.0019   8.0136   8.0146   8.0286   8.0412   8.0526   8.0695
     8.0878   8.0944   8.2510   8.2665   8.2757   8.2976   8.3013   8.3115
     8.3187   8.3412   8.3746   8.3844   8.3981   8.4213   8.4325   8.4380
     8.4483   8.4601   8.4907   8.4976   8.5016   8.5055   8.5122   8.5187
     8.5529   8.5648   8.6509

     occupation numbers 
     1.0000   1.0000   1.0000   1.0000   1.0000   1.0000   1.0000   1.0000
     1.0000   1.0000   1.0000   1.0000   1.0000   1.0000   1.0000   1.0000
     1.0000   1.0000   1.0000   1.0000   1.0000   1.0000   1.0000   1.0000
     1.0000   1.0000   1.0000   1.0000   1.0000   1.0000   1.0000   1.0000
     1.0000   1.0000   1.0000   1.0000   1.0000   1.0000   1.0000   1.0000
     1.0000   1.0000   1.0000   1.0000   1.0000   1.0000   1.0000   1.0000
     1.0000   1.0000   1.0000   1.0000   1.0000   1.0000   1.0000   1.0000
     1.0000   1.0000   1.0000   1.0000   1.0000   1.0000   1.0000   1.0000
     1.0000   1.0000   1.0000   1.0000   1.0000   1.0000   1.0000   1.0000
     1.0000   1.0000   1.0000   1.0000   1.0000   1.0000   1.0000   1.0000
     1.0000   1.0000   1.0000   1.0000   1.0000   1.0000   1.0000   1.0000
     1.0000   1.0000   1.0000   1.0000   1.0000   1.0000   1.0000   1.0000
     1.0000   1.0000   1.0000   1.0000   1.0000   1.0000   1.0000   1.0000
     1.0000   1.0000   1.0000   1.0000   1.0000   1.0000   1.0000   1.0000
     1.0000   1.0000   1.0000   1.0000   1.0000   1.0000   1.0000   1.0000
     1.0000   1.0000   1.0000   1.0000   1.0000   1.0000   1.0000   1.0000
     1.0000   1.0000   1.0000   1.0000   1.0000   1.0000   1.0000   1.0000
     1.0000   1.0000   1.0000   1.0000   1.0000   1.0000   1.0000   1.0000
     1.0000   1.0000   1.0000   1.0000   1.0000   1.0000   1.0000   1.0000
     1.0000   1.0000   1.0000   1.0000   1.0000   1.0000   1.0000   1.0000
     1.0000   1.0000   1.0000   1.0000   1.0000   1.0000   1.0000   1.0000
     1.0000   1.0000   1.0000   1.0000   1.0000   1.0000   1.0000   1.0000
     1.0000   1.0000   1.0000   1.0000   1.0000   1.0000   1.0000   1.0000
     1.0000   1.0000   1.0000   1.0000   1.0000   1.0000   1.0000   1.0000
     1.0000   1.0000   1.0000   1.0000   1.0000   1.0000   1.0000   1.0000
     1.0000   1.0000   1.0000   1.0000   1.0000   1.0000   1.0000   1.0000
     1.0000   1.0000   1.0000   1.0000   1.0000   1.0000   1.0000   1.0000
     1.0000   1.0000   1.0000   1.0000   1.0000   1.0000   1.0000   1.0000
     1.0000   1.0000   1.0000   1.0000   1.0000   1.0000   1.0000   1.0000
     1.0000   1.0000   1.0000   1.0000   1.0000   1.0000   1.0000   1.0000
     1.0000   1.0000   1.0000   1.0000   1.0000   1.0000   1.0000   1.0000
     1.0000   1.0000   1.0000   1.0000   0.9999   0.9999   0.9997   0.9994
     0.0447   0.0244   0.0000   0.0000   0.0000   0.0000   0.0000   0.0000
     0.0000   0.0000   0.0000   0.0000   0.0000   0.0000   0.0000   0.0000
     0.0000   0.0000   0.0000   0.0000   0.0000   0.0000   0.0000   0.0000
     0.0000   0.0000   0.0000   0.0000   0.0000   0.0000   0.0000   0.0000
     0.0000   0.0000   0.0000   0.0000   0.0000   0.0000   0.0000   0.0000
     0.0000   0.0000   0.0000   0.0000   0.0000   0.0000   0.0000   0.0000
     0.0000   0.0000   0.0000

          k = 0.3536 0.3536 0.3536 ( 60452 PWs)   bands (ev):

    -5.6568  -5.6453  -5.1396  -5.1282  -5.1209  -5.1149  -5.1047  -5.0710
    -4.6384  -4.6249  -4.6089  -4.5945  -4.5827  -4.5629  -4.1839  -4.1557
    -4.1102  -4.0713  -4.0568  -4.0468  -4.0400  -4.0306  -3.7001  -3.6867
    -3.6681  -3.6581  -3.6499  -3.6348  -3.6230  -3.6018  -3.5883  -3.5783
    -3.5611  -3.5450  -3.4493  -3.4303  -3.4166  -3.3925  -3.3798  -3.3655
    -2.9531  -2.9452  -2.9399  -2.9177  -2.8929  -2.8888  -2.6004  -2.5801
    -2.5685  -2.5507  -2.5237  -2.4898  -2.4281  -2.4201  -2.3960  -2.3876
    -2.3656  -2.3605  -2.3425  -2.3325  -2.3260  -2.3176  -2.2802  -2.2595
    -0.9081  -0.8938  -0.8768  -0.8576  -0.8519  -0.8362  -0.8281  -0.8214
    -0.8078  -0.7845  -0.7742  -0.7557  -0.7346  -0.7282  -0.7181  -0.7103
    -0.7036  -0.6747  -0.6594  -0.6394  -0.6258  -0.5980  -0.5891  -0.5676
    -0.5475  -0.5067  -0.5007  -0.4718  -0.4434  -0.3818   0.1606   0.1887
     0.2093   0.2228   0.2315   0.2374   0.2617   0.2631   0.2844   0.2990
     0.3144   0.3224   0.3368   0.3565   1.1313   1.1676   1.1944   1.2170
     1.2437   1.2539   1.4590   1.4660   1.4725   1.4979   1.5111   1.5543
     1.9599   1.9725   1.9909   2.0013   2.0019   2.0158   2.0197   2.0231
     2.0326   2.0415   2.0594   2.0671   2.0853   2.0943   2.1078   2.1142
     2.1322   2.1513   2.6332   2.6567   2.6628   2.6772   2.6805   2.6886
     2.7029   2.7242   2.7265   2.7504   2.7556   2.7634   2.7689   2.7776
     2.7818   2.8006   2.8050   2.8176   2.8767   2.8824   2.8905   2.9009
     2.9312   2.9490   3.0905   3.1024   3.1225   3.1255   3.1358   3.1452
     3.1470   3.1647   3.1709   3.1730   3.1871   3.2020   3.3819   3.3877
     3.4073   3.4158   3.4216   3.4258   3.4320   3.4412   3.4520   3.4647
     3.4724   3.4900   3.7436   3.7542   3.7894   3.7956   3.8094   3.8236
     3.8438   3.8568   3.8608   3.8681   3.8796   3.8879   3.8936   3.9047
     3.9092   3.9229   3.9298   3.9439   4.1278   4.1499   4.1535   4.1759
     4.1962   4.2027   4.2106   4.2141   4.2237   4.2288   4.2314   4.2445
     4.2515   4.2643   4.2718   4.2830   4.2936   4.2969   4.5113   4.5262
     4.5302   4.5557   4.5721   4.5891   4.6030   4.6133   4.7664   4.7823
     4.7993   4.8049   4.8179   4.8470   4.8721   4.9038   4.9237   4.9469
     4.9696   5.0112   5.0163   5.0221   5.0670   5.1102   5.3103   5.3516
     5.3635   5.3822   5.3944   5.4172   5.8173   5.8303   5.8500   5.9271
     6.8786   6.8809   6.8987   6.9068   6.9306   6.9491   7.3325   7.3568
     7.3804   7.3846   7.4129   7.4353   7.7014   7.7200   7.8236   7.8312
     7.8507   7.8824   7.8886   7.9060   7.9628   7.9883   7.9964   8.0104
     8.0297   8.0445   8.1666   8.1842   8.1929   8.2062   8.2086   8.2235
     8.2353   8.2367   8.2474   8.2544   8.2696   8.2969   8.3819   8.3956
     8.4051   8.4205   8.4267   8.4300   8.4452   8.4650   8.4668   8.4750
     8.4913   8.4992   8.5662

     occupation numbers 
     1.0000   1.0000   1.0000   1.0000   1.0000   1.0000   1.0000   1.0000
     1.0000   1.0000   1.0000   1.0000   1.0000   1.0000   1.0000   1.0000
     1.0000   1.0000   1.0000   1.0000   1.0000   1.0000   1.0000   1.0000
     1.0000   1.0000   1.0000   1.0000   1.0000   1.0000   1.0000   1.0000
     1.0000   1.0000   1.0000   1.0000   1.0000   1.0000   1.0000   1.0000
     1.0000   1.0000   1.0000   1.0000   1.0000   1.0000   1.0000   1.0000
     1.0000   1.0000   1.0000   1.0000   1.0000   1.0000   1.0000   1.0000
     1.0000   1.0000   1.0000   1.0000   1.0000   1.0000   1.0000   1.0000
     1.0000   1.0000   1.0000   1.0000   1.0000   1.0000   1.0000   1.0000
     1.0000   1.0000   1.0000   1.0000   1.0000   1.0000   1.0000   1.0000
     1.0000   1.0000   1.0000   1.0000   1.0000   1.0000   1.0000   1.0000
     1.0000   1.0000   1.0000   1.0000   1.0000   1.0000   1.0000   1.0000
     1.0000   1.0000   1.0000   1.0000   1.0000   1.0000   1.0000   1.0000
     1.0000   1.0000   1.0000   1.0000   1.0000   1.0000   1.0000   1.0000
     1.0000   1.0000   1.0000   1.0000   1.0000   1.0000   1.0000   1.0000
     1.0000   1.0000   1.0000   1.0000   1.0000   1.0000   1.0000   1.0000
     1.0000   1.0000   1.0000   1.0000   1.0000   1.0000   1.0000   1.0000
     1.0000   1.0000   1.0000   1.0000   1.0000   1.0000   1.0000   1.0000
     1.0000   1.0000   1.0000   1.0000   1.0000   1.0000   1.0000   1.0000
     1.0000   1.0000   1.0000   1.0000   1.0000   1.0000   1.0000   1.0000
     1.0000   1.0000   1.0000   1.0000   1.0000   1.0000   1.0000   1.0000
     1.0000   1.0000   1.0000   1.0000   1.0000   1.0000   1.0000   1.0000
     1.0000   1.0000   1.0000   1.0000   1.0000   1.0000   1.0000   1.0000
     1.0000   1.0000   1.0000   1.0000   1.0000   1.0000   1.0000   1.0000
     1.0000   1.0000   1.0000   1.0000   1.0000   1.0000   1.0000   1.0000
     1.0000   1.0000   1.0000   1.0000   1.0000   1.0000   1.0000   1.0000
     1.0000   1.0000   1.0000   1.0000   1.0000   1.0000   1.0000   1.0000
     1.0000   1.0000   1.0000   1.0000   1.0000   1.0000   1.0000   1.0000
     1.0000   1.0000   1.0000   1.0000   1.0000   1.0000   1.0000   1.0000
     1.0000   1.0000   1.0000   1.0000   1.0000   1.0000   1.0000   1.0000
     1.0000   1.0000   1.0000   1.0000   1.0000   1.0000   1.0000   1.0000
     1.0000   1.0000   1.0000   1.0000   0.9999   0.9999   0.9999   0.9991
     0.0003   0.0002   0.0002   0.0001   0.0001   0.0000   0.0000   0.0000
     0.0000   0.0000   0.0000   0.0000   0.0000   0.0000   0.0000   0.0000
     0.0000   0.0000   0.0000   0.0000   0.0000   0.0000   0.0000   0.0000
     0.0000   0.0000   0.0000   0.0000   0.0000   0.0000   0.0000   0.0000
     0.0000   0.0000   0.0000   0.0000   0.0000   0.0000   0.0000   0.0000
     0.0000   0.0000   0.0000   0.0000   0.0000   0.0000   0.0000   0.0000
     0.0000   0.0000   0.0000

          k = 0.3536-0.3536-0.3536 ( 60452 PWs)   bands (ev):

    -5.6626  -5.6371  -5.1493  -5.1368  -5.1190  -5.1028  -5.0956  -5.0882
    -4.6378  -4.6151  -4.6133  -4.5978  -4.5762  -4.5564  -4.1700  -4.1472
    -4.1006  -4.0847  -4.0635  -4.0477  -4.0356  -4.0228  -3.7145  -3.6925
    -3.6769  -3.6518  -3.6398  -3.6228  -3.6129  -3.6098  -3.6054  -3.5921
    -3.5747  -3.5546  -3.4669  -3.4319  -3.4098  -3.4023  -3.3981  -3.3624
    -2.9537  -2.9337  -2.9098  -2.8899  -2.8836  -2.8520  -2.5978  -2.5894
    -2.5595  -2.5457  -2.5407  -2.5028  -2.4300  -2.4084  -2.3903  -2.3851
    -2.3712  -2.3696  -2.3569  -2.3341  -2.3230  -2.3145  -2.2979  -2.2777
    -0.8965  -0.8788  -0.8737  -0.8583  -0.8436  -0.8392  -0.8232  -0.8051
    -0.7949  -0.7819  -0.7671  -0.7472  -0.7404  -0.7178  -0.7050  -0.6891
    -0.6748  -0.6710  -0.6406  -0.6274  -0.6231  -0.6009  -0.5807  -0.5673
    -0.5599  -0.5455  -0.5305  -0.5157  -0.4857  -0.4653   0.1232   0.1538
     0.2148   0.2364   0.2583   0.2701   0.2730   0.2884   0.2973   0.3083
     0.3090   0.3303   0.3563   0.3881   1.1355   1.1533   1.1675   1.1859
     1.2003   1.2193   1.4436   1.4691   1.4854   1.4930   1.5149   1.5361
     1.9702   1.9876   1.9932   2.0000   2.0127   2.0165   2.0241   2.0252
     2.0396   2.0449   2.0567   2.0740   2.0909   2.0965   2.1072   2.1415
     2.1509   2.1686   2.6287   2.6339   2.6410   2.6480   2.6525   2.6623
     2.7212   2.7275   2.7339   2.7480   2.7663   2.7768   2.7892   2.7966
     2.8028   2.8119   2.8267   2.8360   2.8754   2.8955   2.9233   2.9338
     2.9503   2.9845   3.0860   3.1052   3.1163   3.1203   3.1314   3.1431
     3.1561   3.1587   3.1701   3.1719   3.1812   3.1989   3.3909   3.4090
     3.4119   3.4244   3.4336   3.4382   3.4448   3.4566   3.4695   3.4832
     3.4945   3.5076   3.7260   3.7557   3.7678   3.7858   3.7884   3.7955
     3.8010   3.8152   3.8314   3.8405   3.8430   3.8632   3.8890   3.9084
     3.9129   3.9211   3.9469   3.9714   4.1162   4.1328   4.1454   4.1500
     4.1647   4.1740   4.1857   4.1864   4.1929   4.2119   4.2166   4.2260
     4.2276   4.2491   4.2759   4.2774   4.2865   4.3049   4.5048   4.5222
     4.5546   4.5625   4.5793   4.5963   4.6028   4.6398   4.7765   4.8029
     4.8089   4.8252   4.8309   4.8506   4.8616   4.8681   4.8732   4.8894
     4.9285   4.9447   5.0394   5.0498   5.0762   5.1295   5.3435   5.3766
     5.3906   5.4009   5.4193   5.4595   5.8330   5.8644   5.8892   5.9599
     6.8819   6.8977   6.9215   6.9327   6.9429   6.9785   7.3577   7.3685
     7.3840   7.3909   7.4108   7.4410   7.7125   7.7349   7.8455   7.8588
     7.8795   7.8896   7.9054   7.9233   7.9535   7.9678   7.9846   7.9980
     8.0032   8.0129   8.1726   8.1840   8.1896   8.2108   8.2171   8.2271
     8.2408   8.2470   8.2642   8.2732   8.2796   8.3096   8.3520   8.3678
     8.3768   8.3998   8.4103   8.4229   8.4311   8.4398   8.4549   8.4581
     8.4643   8.4810   8.6003

     occupation numbers 
     1.0000   1.0000   1.0000   1.0000   1.0000   1.0000   1.0000   1.0000
     1.0000   1.0000   1.0000   1.0000   1.0000   1.0000   1.0000   1.0000
     1.0000   1.0000   1.0000   1.0000   1.0000   1.0000   1.0000   1.0000
     1.0000   1.0000   1.0000   1.0000   1.0000   1.0000   1.0000   1.0000
     1.0000   1.0000   1.0000   1.0000   1.0000   1.0000   1.0000   1.0000
     1.0000   1.0000   1.0000   1.0000   1.0000   1.0000   1.0000   1.0000
     1.0000   1.0000   1.0000   1.0000   1.0000   1.0000   1.0000   1.0000
     1.0000   1.0000   1.0000   1.0000   1.0000   1.0000   1.0000   1.0000
     1.0000   1.0000   1.0000   1.0000   1.0000   1.0000   1.0000   1.0000
     1.0000   1.0000   1.0000   1.0000   1.0000   1.0000   1.0000   1.0000
     1.0000   1.0000   1.0000   1.0000   1.0000   1.0000   1.0000   1.0000
     1.0000   1.0000   1.0000   1.0000   1.0000   1.0000   1.0000   1.0000
     1.0000   1.0000   1.0000   1.0000   1.0000   1.0000   1.0000   1.0000
     1.0000   1.0000   1.0000   1.0000   1.0000   1.0000   1.0000   1.0000
     1.0000   1.0000   1.0000   1.0000   1.0000   1.0000   1.0000   1.0000
     1.0000   1.0000   1.0000   1.0000   1.0000   1.0000   1.0000   1.0000
     1.0000   1.0000   1.0000   1.0000   1.0000   1.0000   1.0000   1.0000
     1.0000   1.0000   1.0000   1.0000   1.0000   1.0000   1.0000   1.0000
     1.0000   1.0000   1.0000   1.0000   1.0000   1.0000   1.0000   1.0000
     1.0000   1.0000   1.0000   1.0000   1.0000   1.0000   1.0000   1.0000
     1.0000   1.0000   1.0000   1.0000   1.0000   1.0000   1.0000   1.0000
     1.0000   1.0000   1.0000   1.0000   1.0000   1.0000   1.0000   1.0000
     1.0000   1.0000   1.0000   1.0000   1.0000   1.0000   1.0000   1.0000
     1.0000   1.0000   1.0000   1.0000   1.0000   1.0000   1.0000   1.0000
     1.0000   1.0000   1.0000   1.0000   1.0000   1.0000   1.0000   1.0000
     1.0000   1.0000   1.0000   1.0000   1.0000   1.0000   1.0000   1.0000
     1.0000   1.0000   1.0000   1.0000   1.0000   1.0000   1.0000   1.0000
     1.0000   1.0000   1.0000   1.0000   1.0000   1.0000   1.0000   1.0000
     1.0000   1.0000   1.0000   1.0000   1.0000   1.0000   1.0000   1.0000
     1.0000   1.0000   1.0000   1.0000   1.0000   1.0000   1.0000   1.0000
     1.0000   1.0000   1.0000   1.0000   1.0000   1.0000   1.0000   1.0000
     1.0000   1.0000   1.0000   1.0000   0.9999   0.9998   0.9996   0.9981
     0.0002   0.0002   0.0001   0.0001   0.0000   0.0000   0.0000   0.0000
     0.0000   0.0000   0.0000   0.0000   0.0000   0.0000   0.0000   0.0000
     0.0000   0.0000   0.0000   0.0000   0.0000   0.0000   0.0000   0.0000
     0.0000   0.0000   0.0000   0.0000   0.0000   0.0000   0.0000   0.0000
     0.0000   0.0000   0.0000   0.0000   0.0000   0.0000   0.0000   0.0000
     0.0000   0.0000   0.0000   0.0000   0.0000   0.0000   0.0000   0.0000
     0.0000   0.0000   0.0000

          k =-0.3536 0.3536-0.3536 ( 60452 PWs)   bands (ev):

    -5.6600  -5.6406  -5.1511  -5.1349  -5.1211  -5.0994  -5.0917  -5.0857
    -4.6441  -4.6242  -4.6163  -4.5951  -4.5824  -4.5569  -4.1729  -4.1391
    -4.1096  -4.0699  -4.0603  -4.0555  -4.0232  -4.0065  -3.6987  -3.6768
    -3.6653  -3.6561  -3.6505  -3.6452  -3.6333  -3.6026  -3.5974  -3.5826
    -3.5755  -3.5662  -3.4713  -3.4494  -3.4352  -3.4144  -3.3718  -3.3607
    -2.9618  -2.9310  -2.9035  -2.8942  -2.8652  -2.8525  -2.5988  -2.5829
    -2.5695  -2.5414  -2.5340  -2.5047  -2.4361  -2.4210  -2.4060  -2.3898
    -2.3688  -2.3554  -2.3492  -2.3329  -2.3217  -2.3096  -2.2893  -2.2792
    -0.9066  -0.8857  -0.8819  -0.8755  -0.8468  -0.8359  -0.8251  -0.8078
    -0.7926  -0.7703  -0.7683  -0.7483  -0.7313  -0.7121  -0.7026  -0.6930
    -0.6768  -0.6590  -0.6350  -0.6225  -0.6111  -0.5938  -0.5905  -0.5725
    -0.5653  -0.5514  -0.5310  -0.5113  -0.4871  -0.4616   0.1319   0.1419
     0.2112   0.2287   0.2493   0.2719   0.2748   0.2919   0.3089   0.3116
     0.3290   0.3351   0.3480   0.3835   1.1078   1.1343   1.1583   1.1769
     1.2036   1.2535   1.4401   1.4658   1.5025   1.5065   1.5116   1.5300
     1.9652   1.9757   1.9911   1.9994   2.0061   2.0148   2.0243   2.0335
     2.0415   2.0444   2.0607   2.0762   2.0926   2.0983   2.1057   2.1413
     2.1581   2.1608   2.6215   2.6317   2.6420   2.6494   2.6548   2.6677
     2.7162   2.7397   2.7418   2.7493   2.7548   2.7707   2.7925   2.7939
     2.8041   2.8069   2.8181   2.8351   2.8843   2.8929   2.9146   2.9432
     2.9512   2.9901   3.0998   3.1096   3.1264   3.1334   3.1401   3.1440
     3.1508   3.1581   3.1653   3.1745   3.1775   3.1933   3.3922   3.4109
     3.4163   3.4247   3.4341   3.4416   3.4520   3.4561   3.4637   3.4756
     3.4928   3.5023   3.7300   3.7433   3.7687   3.7744   3.7875   3.8038
     3.8135   3.8190   3.8247   3.8437   3.8501   3.8706   3.8778   3.8998
     3.9116   3.9262   3.9626   3.9770   4.1050   4.1202   4.1390   4.1475
     4.1609   4.1651   4.1841   4.1859   4.1998   4.2116   4.2247   4.2258
     4.2439   4.2513   4.2549   4.2771   4.2892   4.3099   4.5001   4.5202
     4.5484   4.5640   4.5829   4.5935   4.5996   4.6377   4.7645   4.7829
     4.7983   4.8129   4.8356   4.8440   4.8679   4.8796   4.8917   4.8973
     4.9255   4.9472   5.0278   5.0536   5.0769   5.1267   5.3279   5.3684
     5.3915   5.3970   5.4555   5.4633   5.8397   5.8736   5.8942   5.9457
     6.8837   6.8946   6.9125   6.9335   6.9495   6.9811   7.3462   7.3640
     7.3694   7.3862   7.4458   7.4607   7.7092   7.7415   7.8396   7.8451
     7.8673   7.8945   7.9089   7.9350   7.9517   7.9701   7.9875   8.0007
     8.0076   8.0282   8.1646   8.1714   8.1807   8.2143   8.2234   8.2392
     8.2402   8.2525   8.2620   8.2628   8.2801   8.3030   8.3671   8.3774
     8.3879   8.3933   8.4127   8.4205   8.4315   8.4409   8.4459   8.4608
     8.4646   8.4776   8.5802

     occupation numbers 
     1.0000   1.0000   1.0000   1.0000   1.0000   1.0000   1.0000   1.0000
     1.0000   1.0000   1.0000   1.0000   1.0000   1.0000   1.0000   1.0000
     1.0000   1.0000   1.0000   1.0000   1.0000   1.0000   1.0000   1.0000
     1.0000   1.0000   1.0000   1.0000   1.0000   1.0000   1.0000   1.0000
     1.0000   1.0000   1.0000   1.0000   1.0000   1.0000   1.0000   1.0000
     1.0000   1.0000   1.0000   1.0000   1.0000   1.0000   1.0000   1.0000
     1.0000   1.0000   1.0000   1.0000   1.0000   1.0000   1.0000   1.0000
     1.0000   1.0000   1.0000   1.0000   1.0000   1.0000   1.0000   1.0000
     1.0000   1.0000   1.0000   1.0000   1.0000   1.0000   1.0000   1.0000
     1.0000   1.0000   1.0000   1.0000   1.0000   1.0000   1.0000   1.0000
     1.0000   1.0000   1.0000   1.0000   1.0000   1.0000   1.0000   1.0000
     1.0000   1.0000   1.0000   1.0000   1.0000   1.0000   1.0000   1.0000
     1.0000   1.0000   1.0000   1.0000   1.0000   1.0000   1.0000   1.0000
     1.0000   1.0000   1.0000   1.0000   1.0000   1.0000   1.0000   1.0000
     1.0000   1.0000   1.0000   1.0000   1.0000   1.0000   1.0000   1.0000
     1.0000   1.0000   1.0000   1.0000   1.0000   1.0000   1.0000   1.0000
     1.0000   1.0000   1.0000   1.0000   1.0000   1.0000   1.0000   1.0000
     1.0000   1.0000   1.0000   1.0000   1.0000   1.0000   1.0000   1.0000
     1.0000   1.0000   1.0000   1.0000   1.0000   1.0000   1.0000   1.0000
     1.0000   1.0000   1.0000   1.0000   1.0000   1.0000   1.0000   1.0000
     1.0000   1.0000   1.0000   1.0000   1.0000   1.0000   1.0000   1.0000
     1.0000   1.0000   1.0000   1.0000   1.0000   1.0000   1.0000   1.0000
     1.0000   1.0000   1.0000   1.0000   1.0000   1.0000   1.0000   1.0000
     1.0000   1.0000   1.0000   1.0000   1.0000   1.0000   1.0000   1.0000
     1.0000   1.0000   1.0000   1.0000   1.0000   1.0000   1.0000   1.0000
     1.0000   1.0000   1.0000   1.0000   1.0000   1.0000   1.0000   1.0000
     1.0000   1.0000   1.0000   1.0000   1.0000   1.0000   1.0000   1.0000
     1.0000   1.0000   1.0000   1.0000   1.0000   1.0000   1.0000   1.0000
     1.0000   1.0000   1.0000   1.0000   1.0000   1.0000   1.0000   1.0000
     1.0000   1.0000   1.0000   1.0000   1.0000   1.0000   1.0000   1.0000
     1.0000   1.0000   1.0000   1.0000   1.0000   1.0000   1.0000   1.0000
     1.0000   1.0000   1.0000   1.0000   0.9999   0.9998   0.9996   0.9986
     0.0002   0.0002   0.0001   0.0001   0.0000   0.0000   0.0000   0.0000
     0.0000   0.0000   0.0000   0.0000   0.0000   0.0000   0.0000   0.0000
     0.0000   0.0000   0.0000   0.0000   0.0000   0.0000   0.0000   0.0000
     0.0000   0.0000   0.0000   0.0000   0.0000   0.0000   0.0000   0.0000
     0.0000   0.0000   0.0000   0.0000   0.0000   0.0000   0.0000   0.0000
     0.0000   0.0000   0.0000   0.0000   0.0000   0.0000   0.0000   0.0000
     0.0000   0.0000   0.0000

          k = 0.0000-0.7071 0.0000 ( 60622 PWs)   bands (ev):

    -5.5863  -5.5785  -5.3442  -5.3163  -5.3081  -5.2863  -4.5967  -4.5917
    -4.5475  -4.5324  -4.5021  -4.4923  -4.4840  -4.4644  -4.3633  -4.3395
    -4.3075  -4.3020  -4.2925  -4.2485  -4.2425  -4.2136  -3.7315  -3.7211
    -3.7137  -3.6789  -3.6494  -3.6387  -3.6332  -3.6147  -3.4496  -3.4395
    -3.3250  -3.3041  -3.2769  -3.2475  -3.2397  -3.2211  -3.1967  -3.1892
    -3.0316  -3.0164  -2.9917  -2.9650  -2.9514  -2.9227  -2.9107  -2.9046
    -2.7703  -2.7604  -2.7211  -2.7168  -2.7029  -2.6799  -2.6550  -2.6445
    -2.1573  -2.0905  -2.0895  -2.0594  -1.6798  -1.6597  -1.6466  -1.6218
    -1.6048  -1.5911  -1.5634  -1.5184  -1.1291  -1.1051  -1.0972  -1.0708
    -0.7480  -0.7243  -0.7089  -0.7065  -0.6783  -0.6649  -0.6370  -0.5993
    -0.5292  -0.4816  -0.4760  -0.4394  -0.4330  -0.3996  -0.3849  -0.3550
    -0.3117  -0.2894  -0.2848  -0.2770  -0.2516  -0.2314  -0.2192  -0.2136
     0.1039   0.1323   0.1458   0.1620   0.1919   0.2085   0.2207   0.2276
     0.3991   0.4039   0.7500   0.7763   0.8207   0.8278   0.8531   0.8591
     0.8730   0.9136   1.7251   1.7354   1.7465   1.7512   1.7634   1.7819
     1.7880   1.8033   1.8137   1.8257   1.8513   1.8631   1.8732   1.8801
     1.8920   1.9021   1.9136   1.9196   1.9314   1.9455   2.5836   2.6039
     2.6083   2.6223   2.6294   2.6396   2.6470   2.6549   2.6629   2.6715
     2.6767   2.6811   2.6876   2.6921   2.7112   2.7201   2.7279   2.7371
     2.7402   2.7631   2.7649   2.7685   2.7797   2.7841   3.2779   3.2855
     3.2871   3.3069   3.3097   3.3285   3.3451   3.3535   3.3588   3.3656
     3.3712   3.3811   3.3829   3.3901   3.4118   3.4160   3.4312   3.4433
     3.4476   3.4552   3.4879   3.5001   3.5093   3.5125   3.5250   3.5337
     3.5385   3.5494   3.5536   3.5645   3.5739   3.5757   3.6251   3.6360
     3.6459   3.6515   3.6613   3.6716   3.6845   3.6991   3.7069   3.7160
     3.7313   3.7608   3.9074   3.9233   3.9317   3.9664   3.9758   3.9815
     4.0071   4.0150   4.2092   4.2553   4.2610   4.2727   4.2981   4.3120
     4.3309   4.3475   4.4443   4.4713   4.4745   4.4825   4.4935   4.5029
     4.5369   4.5616   4.5674   4.5824   4.5989   4.6135   4.6259   4.6415
     4.7056   4.7073   4.7250   4.7342   4.7474   4.7910   4.8125   4.8205
     4.8353   4.8492   4.8678   4.8848   4.9145   4.9283   4.9431   4.9520
     5.3431   5.3444   5.3569   5.3650   5.8254   5.8525   5.8809   5.9199
     6.6418   6.6480   7.2002   7.2252   7.2315   7.2472   7.5461   7.5518
     7.9154   7.9203   7.9333   7.9507   7.9538   7.9649   7.9824   7.9835
     8.0096   8.0124   8.0217   8.0302   8.0340   8.0419   8.0554   8.0664
     8.0922   8.1008   8.2278   8.2546   8.2660   8.3072   8.3105   8.3203
     8.3364   8.3381   8.3749   8.3933   8.4036   8.4188   8.4199   8.4334
     8.4508   8.4551   8.4766   8.4909   8.5046   8.5126   8.5212   8.5311
     8.5481   8.5524   8.6337

     occupation numbers 
     1.0000   1.0000   1.0000   1.0000   1.0000   1.0000   1.0000   1.0000
     1.0000   1.0000   1.0000   1.0000   1.0000   1.0000   1.0000   1.0000
     1.0000   1.0000   1.0000   1.0000   1.0000   1.0000   1.0000   1.0000
     1.0000   1.0000   1.0000   1.0000   1.0000   1.0000   1.0000   1.0000
     1.0000   1.0000   1.0000   1.0000   1.0000   1.0000   1.0000   1.0000
     1.0000   1.0000   1.0000   1.0000   1.0000   1.0000   1.0000   1.0000
     1.0000   1.0000   1.0000   1.0000   1.0000   1.0000   1.0000   1.0000
     1.0000   1.0000   1.0000   1.0000   1.0000   1.0000   1.0000   1.0000
     1.0000   1.0000   1.0000   1.0000   1.0000   1.0000   1.0000   1.0000
     1.0000   1.0000   1.0000   1.0000   1.0000   1.0000   1.0000   1.0000
     1.0000   1.0000   1.0000   1.0000   1.0000   1.0000   1.0000   1.0000
     1.0000   1.0000   1.0000   1.0000   1.0000   1.0000   1.0000   1.0000
     1.0000   1.0000   1.0000   1.0000   1.0000   1.0000   1.0000   1.0000
     1.0000   1.0000   1.0000   1.0000   1.0000   1.0000   1.0000   1.0000
     1.0000   1.0000   1.0000   1.0000   1.0000   1.0000   1.0000   1.0000
     1.0000   1.0000   1.0000   1.0000   1.0000   1.0000   1.0000   1.0000
     1.0000   1.0000   1.0000   1.0000   1.0000   1.0000   1.0000   1.0000
     1.0000   1.0000   1.0000   1.0000   1.0000   1.0000   1.0000   1.0000
     1.0000   1.0000   1.0000   1.0000   1.0000   1.0000   1.0000   1.0000
     1.0000   1.0000   1.0000   1.0000   1.0000   1.0000   1.0000   1.0000
     1.0000   1.0000   1.0000   1.0000   1.0000   1.0000   1.0000   1.0000
     1.0000   1.0000   1.0000   1.0000   1.0000   1.0000   1.0000   1.0000
     1.0000   1.0000   1.0000   1.0000   1.0000   1.0000   1.0000   1.0000
     1.0000   1.0000   1.0000   1.0000   1.0000   1.0000   1.0000   1.0000
     1.0000   1.0000   1.0000   1.0000   1.0000   1.0000   1.0000   1.0000
     1.0000   1.0000   1.0000   1.0000   1.0000   1.0000   1.0000   1.0000
     1.0000   1.0000   1.0000   1.0000   1.0000   1.0000   1.0000   1.0000
     1.0000   1.0000   1.0000   1.0000   1.0000   1.0000   1.0000   1.0000
     1.0000   1.0000   1.0000   1.0000   1.0000   1.0000   1.0000   1.0000
     1.0000   1.0000   1.0000   1.0000   1.0000   1.0000   1.0000   1.0000
     1.0000   1.0000   1.0000   1.0000   1.0000   1.0000   1.0000   1.0000
     1.0000   1.0000   1.0000   1.0000   0.9999   0.9999   0.9997   0.9992
     0.0332   0.0302   0.0000   0.0000   0.0000   0.0000   0.0000   0.0000
     0.0000   0.0000   0.0000   0.0000   0.0000   0.0000   0.0000   0.0000
     0.0000   0.0000   0.0000   0.0000   0.0000   0.0000   0.0000   0.0000
     0.0000   0.0000   0.0000   0.0000   0.0000   0.0000   0.0000   0.0000
     0.0000   0.0000   0.0000   0.0000   0.0000   0.0000   0.0000   0.0000
     0.0000   0.0000   0.0000   0.0000   0.0000   0.0000   0.0000   0.0000
     0.0000   0.0000   0.0000

          k = 0.0000 0.0000-0.7071 ( 60622 PWs)   bands (ev):

    -5.5931  -5.5715  -5.3342  -5.3308  -5.2980  -5.2917  -4.6211  -4.5816
    -4.5592  -4.5407  -4.4979  -4.4859  -4.4807  -4.4478  -4.3514  -4.3220
    -4.3073  -4.2838  -4.2738  -4.2644  -4.2560  -4.2437  -3.7510  -3.7234
    -3.6932  -3.6804  -3.6751  -3.6411  -3.6351  -3.5852  -3.4812  -3.4121
    -3.3269  -3.2867  -3.2735  -3.2473  -3.2414  -3.2236  -3.2186  -3.1978
    -3.0064  -2.9879  -2.9734  -2.9631  -2.9489  -2.9373  -2.9298  -2.9227
    -2.7852  -2.7549  -2.7458  -2.7112  -2.6909  -2.6703  -2.6634  -2.6364
    -2.1511  -2.1226  -2.0790  -2.0458  -1.6513  -1.6373  -1.6181  -1.6056
    -1.6007  -1.5971  -1.5919  -1.5794  -1.1613  -1.1174  -1.0670  -1.0603
    -0.7372  -0.7345  -0.7098  -0.6989  -0.6755  -0.6573  -0.6335  -0.6217
    -0.5022  -0.4984  -0.4612  -0.4528  -0.4188  -0.4115  -0.3944  -0.3717
    -0.3308  -0.3200  -0.2798  -0.2681  -0.2394  -0.2275  -0.2070  -0.1876
     0.1026   0.1381   0.1477   0.1684   0.1731   0.2008   0.2045   0.2526
     0.3800   0.4187   0.7791   0.7937   0.8190   0.8354   0.8398   0.8612
     0.8745   0.8787   1.7282   1.7416   1.7492   1.7616   1.7745   1.7845
     1.8014   1.8062   1.8109   1.8318   1.8370   1.8529   1.8611   1.8634
     1.8900   1.9015   1.9119   1.9149   1.9402   1.9474   2.5811   2.5964
     2.6038   2.6143   2.6352   2.6499   2.6568   2.6634   2.6713   2.6758
     2.6801   2.6863   2.6912   2.6942   2.7000   2.7078   2.7288   2.7430
     2.7473   2.7497   2.7591   2.7600   2.7637   2.7760   3.2855   3.2953
     3.2991   3.3157   3.3266   3.3308   3.3446   3.3461   3.3502   3.3531
     3.3697   3.3721   3.3844   3.3918   3.4060   3.4128   3.4253   3.4445
     3.4516   3.4713   3.4881   3.4917   3.5070   3.5122   3.5191   3.5286
     3.5390   3.5432   3.5532   3.5600   3.5657   3.5794   3.6135   3.6286
     3.6379   3.6492   3.6630   3.6738   3.6891   3.7058   3.7185   3.7279
     3.7360   3.7473   3.9161   3.9388   3.9476   3.9535   3.9694   3.9808
     3.9940   4.0074   4.2415   4.2571   4.2754   4.2900   4.2972   4.3104
     4.3200   4.3240   4.4519   4.4636   4.4879   4.4943   4.5098   4.5273
     4.5394   4.5463   4.5529   4.5783   4.5795   4.5908   4.6502   4.6691
     4.6811   4.6946   4.7298   4.7406   4.7655   4.7744   4.8069   4.8106
[...]
     atom   77 type  1   force =   0.00000000E+00  0.00000000E+00  0.00000000E+00
     atom   78 type  1   force =   0.00000000E+00  0.00000000E+00  0.00000000E+00
     atom   79 type  1   force =   0.00000000E+00  0.00000000E+00  0.00000000E+00
     atom   80 type  1   force =   0.00000000E+00  0.00000000E+00  0.00000000E+00
     atom   81 type  1   force =   0.00000000E+00  0.00000000E+00  0.00000000E+00
     atom   82 type  1   force =   0.00000000E+00  0.00000000E+00  0.00000000E+00
     atom   83 type  1   force =   0.00000000E+00  0.00000000E+00  0.00000000E+00
     atom   84 type  1   force =   0.00000000E+00  0.00000000E+00  0.00000000E+00
     atom   85 type  1   force =   0.00000000E+00  0.00000000E+00  0.00000000E+00
     atom   86 type  1   force =   0.00000000E+00  0.00000000E+00  0.00000000E+00
     atom   87 type  1   force =   0.00000000E+00  0.00000000E+00  0.00000000E+00
     atom   88 type  1   force =   0.00000000E+00  0.00000000E+00  0.00000000E+00
     atom   89 type  1   force =   0.00000000E+00  0.00000000E+00  0.00000000E+00
     atom   90 type  1   force =   0.00000000E+00  0.00000000E+00  0.00000000E+00
     atom   91 type  1   force =   0.00000000E+00  0.00000000E+00  0.00000000E+00
     atom   92 type  1   force =   0.00000000E+00  0.00000000E+00  0.00000000E+00
     atom   93 type  1   force =   0.00000000E+00  0.00000000E+00  0.00000000E+00
     atom   94 type  1   force =   0.00000000E+00  0.00000000E+00  0.00000000E+00
     atom   95 type  1   force =   0.00000000E+00  0.00000000E+00  0.00000000E+00
     atom   96 type  1   force =   0.00000000E+00  0.00000000E+00  0.00000000E+00
     atom   97 type  1   force =   0.00000000E+00  0.00000000E+00  0.00000000E+00
     atom   98 type  1   force =   0.00000000E+00  0.00000000E+00  0.00000000E+00
     atom   99 type  1   force =   0.00000000E+00  0.00000000E+00  0.00000000E+00
     atom  100 type  1   force =   0.00000000E+00  0.00000000E+00  0.00000000E+00
     atom  101 type  1   force =   0.00000000E+00  0.00000000E+00  0.00000000E+00
     atom  102 type  1   force =   0.00000000E+00  0.00000000E+00  0.00000000E+00
     atom  103 type  1   force =   0.00000000E+00  0.00000000E+00  0.00000000E+00
     atom  104 type  1   force =   0.00000000E+00  0.00000000E+00  0.00000000E+00
     atom  105 type  1   force =   0.00000000E+00  0.00000000E+00  0.00000000E+00
     atom  106 type  1   force =   0.00000000E+00  0.00000000E+00  0.00000000E+00
     atom  107 type  1   force =   0.00000000E+00  0.00000000E+00  0.00000000E+00
     atom  108 type  1   force =   0.00000000E+00  0.00000000E+00  0.00000000E+00
     atom  109 type  1   force =   0.00000000E+00  0.00000000E+00  0.00000000E+00
     atom  110 type  1   force =   0.00000000E+00  0.00000000E+00  0.00000000E+00
     atom  111 type  1   force =   0.00000000E+00  0.00000000E+00  0.00000000E+00
     atom  112 type  1   force =   0.00000000E+00  0.00000000E+00  0.00000000E+00
     atom  113 type  1   force =   0.00000000E+00  0.00000000E+00  0.00000000E+00
     atom  114 type  1   force =   0.00000000E+00  0.00000000E+00  0.00000000E+00
     atom  115 type  1   force =   0.00000000E+00  0.00000000E+00  0.00000000E+00
     atom  116 type  1   force =   0.00000000E+00  0.00000000E+00  0.00000000E+00
     atom  117 type  1   force =   0.00000000E+00  0.00000000E+00  0.00000000E+00
     atom  118 type  1   force =   0.00000000E+00  0.00000000E+00  0.00000000E+00
     atom  119 type  1   force =   0.00000000E+00  0.00000000E+00  0.00000000E+00
     atom  120 type  1   force =   0.00000000E+00  0.00000000E+00  0.00000000E+00
     atom  121 type  1   force =   0.00000000E+00  0.00000000E+00  0.00000000E+00
     atom  122 type  1   force =   0.00000000E+00  0.00000000E+00  0.00000000E+00
     atom  123 type  1   force =   0.00000000E+00  0.00000000E+00  0.00000000E+00
     atom  124 type  1   force =   0.00000000E+00  0.00000000E+00  0.00000000E+00
     atom  125 type  1   force =   0.00000000E+00  0.00000000E+00  0.00000000E+00
     atom  126 type  1   force =   0.00000000E+00  0.00000000E+00  0.00000000E+00
     atom  127 type  1   force =   0.00000000E+00  0.00000000E+00  0.00000000E+00
     atom  128 type  1   force =   0.00000000E+00  0.00000000E+00  0.00000000E+00
     The SCF correction term to forces
     atom    1 type  1   force =   0.62996569E-06 -0.23245701E-06 -0.11996784E-05
     atom    2 type  1   force =   0.74401930E-06 -0.40615701E-06 -0.65901549E-07
     atom    3 type  1   force =   0.10632241E-05 -0.15900440E-06  0.44912250E-06
     atom    4 type  1   force =   0.13921791E-05 -0.90650965E-07  0.65804805E-06
     atom    5 type  1   force =   0.10045267E-06 -0.60191740E-06 -0.22707398E-06
     atom    6 type  1   force =  -0.35460501E-06 -0.14284724E-05 -0.10571101E-06
     atom    7 type  1   force =   0.18133801E-06 -0.10557427E-05 -0.45272002E-06
     atom    8 type  1   force =   0.40027041E-06 -0.19798513E-06 -0.54636962E-06
     atom    9 type  1   force =   0.11956437E-05  0.14552847E-05 -0.74578428E-06
     atom   10 type  1   force =   0.99804556E-07  0.13016026E-05 -0.40041115E-06
     atom   11 type  1   force =  -0.69376332E-06 -0.60450678E-07 -0.72364068E-06
     atom   12 type  1   force =  -0.13923411E-05  0.34854337E-06 -0.92776916E-06
     atom   13 type  1   force =  -0.97997279E-06  0.33605473E-06 -0.43205799E-06
     atom   14 type  1   force =  -0.19574139E-05  0.46090200E-06 -0.51302106E-06
     atom   15 type  1   force =  -0.10276544E-05 -0.15986695E-06 -0.71984974E-06
     atom   16 type  1   force =  -0.51564029E-06  0.15343306E-05 -0.11189518E-05
     atom   17 type  1   force =   0.81358966E-06  0.39222345E-07 -0.40630724E-06
     atom   18 type  1   force =   0.27497654E-07 -0.89162172E-06  0.18275188E-06
     atom   19 type  1   force =  -0.76199862E-06 -0.35363466E-06  0.39528016E-06
     atom   20 type  1   force =  -0.44712645E-06 -0.91339166E-06  0.82315766E-06
     atom   21 type  1   force =  -0.78666267E-06 -0.35668314E-06  0.10449421E-07
     atom   22 type  1   force =   0.53486239E-06 -0.83474591E-06  0.12256128E-05
     atom   23 type  1   force =   0.11138970E-05  0.19057567E-06  0.10237916E-05
     atom   24 type  1   force =   0.23498023E-05  0.15803543E-06  0.95467205E-06
     atom   25 type  1   force =   0.27003616E-06  0.87179934E-08 -0.66730514E-06
     atom   26 type  1   force =  -0.39668844E-06  0.32536189E-06 -0.21139608E-06
     atom   27 type  1   force =  -0.52952148E-06 -0.73410035E-06  0.53702395E-06
     atom   28 type  1   force =   0.23926770E-06 -0.40027117E-06 -0.24934173E-06
     atom   29 type  1   force =   0.13788708E-05 -0.18657311E-06  0.76917188E-06
     atom   30 type  1   force =   0.90170617E-06 -0.93322270E-07  0.40562663E-06
     atom   31 type  1   force =   0.40044641E-06 -0.70430135E-06 -0.31753413E-06
     atom   32 type  1   force =  -0.31536731E-06 -0.18573004E-06 -0.14054995E-05
     atom   33 type  1   force =   0.94909710E-06  0.11491247E-05  0.55199898E-06
     atom   34 type  1   force =   0.56946956E-06  0.62555939E-06  0.15394494E-05
     atom   35 type  1   force =   0.15561721E-07 -0.67225315E-06  0.60691849E-06
     atom   36 type  1   force =  -0.21358245E-06 -0.39526846E-06  0.10486321E-05
     atom   37 type  1   force =   0.12281853E-09 -0.34423591E-07  0.68987927E-06
     atom   38 type  1   force =  -0.58294072E-06 -0.31955814E-06  0.19503292E-05
     atom   39 type  1   force =  -0.11144135E-05 -0.25463526E-06  0.37403624E-06
     atom   40 type  1   force =  -0.22632963E-06  0.63405415E-06  0.14100289E-05
     atom   41 type  1   force =   0.10479311E-07  0.11199892E-05 -0.77393039E-06
     atom   42 type  1   force =  -0.12951661E-05  0.10847997E-05 -0.54309043E-06
     atom   43 type  1   force =  -0.88716070E-06  0.41902620E-06  0.19618388E-06
     atom   44 type  1   force =  -0.15837820E-05  0.14567140E-05  0.35509146E-07
     atom   45 type  1   force =  -0.16797435E-05  0.71429734E-06  0.54855087E-07
     atom   46 type  1   force =  -0.22723894E-05  0.12106418E-05  0.36670101E-06
     atom   47 type  1   force =  -0.92940326E-06  0.11346995E-05  0.98822864E-06
     atom   48 type  1   force =  -0.77895589E-06  0.22580191E-05 -0.25044155E-07
     atom   49 type  1   force =   0.44121134E-06  0.72000052E-06 -0.20961895E-06
     atom   50 type  1   force =   0.23999107E-07  0.46460331E-07  0.59060443E-06
     atom   51 type  1   force =  -0.14898099E-05 -0.49907462E-06  0.34563321E-06
     atom   52 type  1   force =  -0.83268348E-06 -0.12222659E-06  0.71208618E-06
     atom   53 type  1   force =  -0.37705344E-06  0.11343188E-05  0.56261827E-06
     atom   54 type  1   force =   0.28755119E-06  0.74285096E-07  0.12203613E-05
     atom   55 type  1   force =   0.76619015E-07 -0.11431218E-07  0.16338114E-06
     atom   56 type  1   force =   0.89310783E-06 -0.22812802E-06 -0.51400100E-06
     atom   57 type  1   force =  -0.34006656E-06  0.16357447E-06 -0.74961166E-06
     atom   58 type  1   force =  -0.12165998E-05  0.77247562E-06  0.19342644E-06
     atom   59 type  1   force =  -0.94058640E-07 -0.49288186E-07  0.10775471E-05
     atom   60 type  1   force =  -0.12289006E-06  0.82484729E-06  0.10924170E-05
     atom   61 type  1   force =   0.34611919E-06 -0.25103781E-06  0.62460903E-07
     atom   62 type  1   force =  -0.77406004E-06 -0.11269541E-06  0.29979380E-06
     atom   63 type  1   force =   0.15327360E-06  0.80903559E-08  0.40167707E-06
     atom   64 type  1   force =  -0.59816622E-06  0.12252721E-05 -0.55412316E-07
     atom   65 type  1   force =   0.30898756E-07  0.19108314E-06  0.26980368E-06
     atom   66 type  1   force =   0.63787177E-06 -0.11506109E-05 -0.60059633E-07
     atom   67 type  1   force =   0.15103363E-06 -0.38337782E-06  0.11240735E-05
     atom   68 type  1   force =   0.12384808E-05 -0.63140883E-06  0.54119372E-06
     atom   69 type  1   force =  -0.22924533E-06 -0.52283093E-06  0.94761488E-06
     atom   70 type  1   force =   0.23878160E-06 -0.10615728E-05  0.85422258E-06
     atom   71 type  1   force =  -0.34064604E-07  0.69459883E-06  0.16212191E-05
     atom   72 type  1   force =   0.93562141E-06 -0.15301764E-06  0.51716681E-06
     atom   73 type  1   force =  -0.57560013E-07  0.11780702E-05 -0.11098034E-05
     atom   74 type  1   force =  -0.32638486E-06  0.10845594E-05 -0.88765223E-06
     atom   75 type  1   force =  -0.10567992E-05  0.53787893E-06 -0.37389421E-06
     atom   76 type  1   force =  -0.11256072E-05  0.85343456E-06 -0.11449444E-05
     atom   77 type  1   force =  -0.87599012E-06  0.10676044E-05  0.20269545E-06
     atom   78 type  1   force =  -0.11676191E-05  0.77404748E-06 -0.86934991E-06
     atom   79 type  1   force =  -0.14172099E-05  0.84713979E-06 -0.41800544E-06
     atom   80 type  1   force =  -0.12697444E-05  0.85535005E-06 -0.23944724E-05
     atom   81 type  1   force =   0.50054419E-06  0.84599007E-06 -0.70281735E-06
     atom   82 type  1   force =   0.42557776E-06 -0.43713544E-06  0.39955374E-06
     atom   83 type  1   force =  -0.10506266E-05  0.56424304E-06  0.98417938E-06
     atom   84 type  1   force =   0.11055867E-06 -0.26518027E-06  0.10872110E-05
     atom   85 type  1   force =  -0.10667903E-05  0.10216682E-06 -0.24427897E-06
     atom   86 type  1   force =  -0.68961269E-07 -0.17254344E-05  0.50951097E-06
     atom   87 type  1   force =  -0.13217347E-06  0.25717705E-06 -0.33205381E-06
     atom   88 type  1   force =   0.20581762E-05 -0.50168560E-07  0.27758424E-06
     atom   89 type  1   force =   0.22731563E-06  0.10576864E-05  0.73217509E-06
     atom   90 type  1   force =  -0.15831165E-06  0.53147065E-06  0.25965051E-06
     atom   91 type  1   force =  -0.98934792E-06 -0.58872588E-06  0.85461790E-06
     atom   92 type  1   force =  -0.18772254E-06 -0.64541368E-06 -0.43386802E-06
     atom   93 type  1   force =   0.35890984E-06 -0.19168677E-06  0.94684022E-06
     atom   94 type  1   force =   0.36796114E-06 -0.32723487E-06  0.20785915E-06
     atom   95 type  1   force =   0.31736622E-06 -0.29662096E-06  0.78101036E-06
     atom   96 type  1   force =   0.15086090E-06  0.29027543E-06 -0.50252828E-06
     atom   97 type  1   force =   0.81648907E-06 -0.39629070E-06 -0.22434557E-06
     atom   98 type  1   force =   0.11953043E-05 -0.91881528E-06  0.25364158E-06
     atom   99 type  1   force =   0.94284985E-06 -0.14149340E-05  0.33164163E-06
     atom  100 type  1   force =   0.10975166E-05 -0.10217209E-05  0.44728585E-07
     atom  101 type  1   force =   0.11131154E-05 -0.56471414E-06  0.30362055E-06
     atom  102 type  1   force =   0.53626393E-06 -0.25579496E-06  0.53705682E-06
     atom  103 type  1   force =   0.18918054E-06 -0.75284866E-06 -0.27204041E-06
     atom  104 type  1   force =   0.13416490E-06 -0.85514571E-06 -0.64829189E-06
     atom  105 type  1   force =   0.57708219E-06  0.50794343E-06 -0.19901292E-05
     atom  106 type  1   force =   0.10528284E-06  0.30216751E-06 -0.19843683E-05
     atom  107 type  1   force =   0.45315706E-06  0.15767329E-06 -0.34841688E-06
     atom  108 type  1   force =  -0.41607182E-06  0.44285211E-06 -0.89425329E-06
     atom  109 type  1   force =  -0.81400998E-06 -0.61425130E-06 -0.11396073E-05
     atom  110 type  1   force =  -0.17199948E-05  0.34156050E-06 -0.18200812E-05
     atom  111 type  1   force =  -0.65223869E-06 -0.43044776E-07 -0.14306849E-05
     atom  112 type  1   force =   0.37159368E-06  0.88846823E-06 -0.22340489E-05
     atom  113 type  1   force =   0.19729756E-05  0.55755274E-06 -0.71003541E-06
     atom  114 type  1   force =   0.14156612E-05 -0.52244709E-06  0.74163490E-06
     atom  115 type  1   force =  -0.72274885E-06 -0.97305747E-06 -0.39596013E-06
     atom  116 type  1   force =  -0.54570808E-06 -0.15139061E-05  0.64928344E-07
     atom  117 type  1   force =  -0.17106394E-06 -0.75793508E-06 -0.33337473E-06
     atom  118 type  1   force =   0.78975022E-06 -0.11848052E-05  0.54774051E-06
     atom  119 type  1   force =   0.50980970E-06 -0.50761869E-06 -0.80467571E-06
     atom  120 type  1   force =   0.23474162E-05 -0.67811745E-06  0.46755896E-07
     atom  121 type  1   force =   0.44172723E-06 -0.23093177E-06 -0.67345932E-06
     atom  122 type  1   force =  -0.10844535E-05 -0.74209472E-06 -0.80081428E-06
     atom  123 type  1   force =  -0.14776855E-06 -0.11989620E-05 -0.24168654E-07
     atom  124 type  1   force =   0.52949349E-06 -0.23219764E-06  0.91302450E-07
     atom  125 type  1   force =   0.11926174E-05 -0.12486346E-05 -0.15888376E-06
     atom  126 type  1   force =   0.59679198E-06 -0.43133417E-06  0.23701073E-06
     atom  127 type  1   force =   0.16115107E-05 -0.24989303E-06  0.50616570E-06
     atom  128 type  1   force =   0.72599690E-06  0.67403233E-06 -0.26053092E-06

     Total force =     0.366383     Total SCF correction =     0.000016


     entering subroutine stress ...

          total   stress  (Ry/bohr**3)                   (kbar)     P=    2.44
   0.0000180816  -0.0000314068   0.0000015734          2.66     -4.62      0.23
  -0.0000314068   0.0000156834  -0.0000008076         -4.62      2.31     -0.12
   0.0000015734  -0.0000008076   0.0000159561          0.23     -0.12      2.35

     kinetic stress (kbar)   2190.84      3.11      0.09
                                3.11   2190.85      0.18
                                0.09      0.18   2190.89

     local   stress (kbar)   -290.98     36.55      0.59
                               36.55   -289.48      1.52
                                0.59      1.52   -289.06

     nonloc. stress (kbar)   1941.23     -4.31      0.02
                               -4.31   1941.01     -0.19
                                0.02     -0.19   1941.02

     hartree stress (kbar)    199.61     -4.09     -0.14
                               -4.09    199.55     -0.09
                               -0.14     -0.09    199.37

     exc-cor stress (kbar)    993.77     -0.05     -0.00
                               -0.05    993.77     -0.00
                               -0.00     -0.00    993.77

     corecor stress (kbar)  -1988.26      0.51     -0.00
                                0.51  -1988.23      0.02
                               -0.00      0.02  -1988.23

     ewald   stress (kbar)  -3043.56    -36.34     -0.32
                              -36.34  -3045.16     -1.56
                               -0.32     -1.56  -3045.42

     hubbard stress (kbar)      0.00      0.00      0.00
                                0.00      0.00      0.00
                                0.00      0.00      0.00

     london  stress (kbar)      0.00      0.00      0.00
                                0.00      0.00      0.00
                                0.00      0.00      0.00

     XDM     stress (kbar)      0.00      0.00      0.00
                                0.00      0.00      0.00
                                0.00      0.00      0.00

     dft-nl  stress (kbar)      0.00      0.00      0.00
                                0.00      0.00      0.00
                                0.00      0.00      0.00



     Writing output data file Si_diamond.scf.in.super.444.a.022.save

     init_run     :    470.30s CPU    366.83s WALL (       1 calls)
     electrons    :  16768.66s CPU  13894.98s WALL (       1 calls)
     forces       :    397.06s CPU    319.64s WALL (       1 calls)
     stress       :   1415.79s CPU   1401.27s WALL (       1 calls)

     Called by init_run:
     wfcinit      :    443.47s CPU    339.92s WALL (       1 calls)
     potinit      :      0.61s CPU      0.63s WALL (       1 calls)

     Called by electrons:
     c_bands      :  14059.79s CPU  11478.78s WALL (      16 calls)
     sum_band     :   2179.12s CPU   1885.49s WALL (      16 calls)
     v_of_rho     :      9.11s CPU      9.14s WALL (      16 calls)
     v_h          :      0.63s CPU      0.62s WALL (      16 calls)
     v_xc         :      9.53s CPU      9.57s WALL (      18 calls)
     newd         :    533.11s CPU    533.96s WALL (      16 calls)
     mix_rho      :     10.30s CPU     10.34s WALL (      16 calls)

     Called by c_bands:
     init_us_2    :     44.36s CPU     45.12s WALL (     280 calls)
     cegterg      :  13839.05s CPU  11254.37s WALL (     128 calls)

     Called by sum_band:
     sum_band:bec :      8.30s CPU      8.34s WALL (     128 calls)
     addusdens    :    379.24s CPU    380.03s WALL (      16 calls)

     Called by *egterg:
     h_psi        :   8143.77s CPU   6655.24s WALL (     604 calls)
     s_psi        :   2256.10s CPU   1479.73s WALL (     604 calls)
     g_psi        :      3.45s CPU      4.47s WALL (     468 calls)
     cdiaghg      :   1459.79s CPU   1575.44s WALL (     588 calls)
     cegterg:over :   1077.18s CPU    840.51s WALL (     468 calls)
     cegterg:upda :    474.11s CPU    329.21s WALL (     468 calls)
     cegterg:last :    328.66s CPU    218.35s WALL (     135 calls)

     Called by h_psi:
     h_psi:vloc   :   3501.09s CPU   3519.54s WALL (     604 calls)
     h_psi:vnl    :   4634.49s CPU   3127.23s WALL (     604 calls)
     add_vuspsi   :   2230.28s CPU   1464.84s WALL (     604 calls)

     General routines
     calbec       :   3605.05s CPU   2523.76s WALL (     748 calls)
     fft          :    131.77s CPU    132.29s WALL (     281 calls)
     ffts         :      6.10s CPU      6.10s WALL (     288 calls)
     fftw         :   3890.27s CPU   3911.13s WALL (  241130 calls)
     interpolate  :      2.04s CPU      2.06s WALL (      32 calls)

     Parallel routines
     fft_scatter  :   2588.73s CPU   2604.71s WALL (  241699 calls)

     PWSCF        :     5h17m CPU        4h26m WALL


   This run was terminated on:  10:44:50  14Feb2017            

=------------------------------------------------------------------------------=
   JOB DONE.
=------------------------------------------------------------------------------=
