
     Program PWSCF v.5.1 starts on 21Aug2017 at 11: 4:35 

     This program is part of the open-source Quantum ESPRESSO suite
     for quantum simulation of materials; please cite
         "P. Giannozzi et al., J. Phys.:Condens. Matter 21 395502 (2009);
          URL http://www.quantum-espresso.org", 
     in publications or presentations arising from this work. More details at
     http://www.quantum-espresso.org/quote

     Parallel version (MPI), running on     8 processors
     R & G space division:  proc/nbgrp/npool/nimage =       8
     Reading input from /tmp/CaO_rocksalt.relax.in.up_1.00.super.222.sub1.16297/CaO_rocksalt.relax.in.up_1.00.super.222.sub1.t
Warning: card &IONS ignored
Warning: card   ION_DYNAMICS='BFGS', ignored
Warning: card / ignored
Warning: card &CELL ignored
Warning: card  CELL_DYNAMICS = 'BFGS' ignored
Warning: card / ignored
     Message from routine read_cards :
     DEPRECATED: no units specified in CELL_PARAMETERS card

     Current dimensions of program PWSCF are:
     Max number of different atomic species (ntypx) = 10
     Max number of k-points (npk) =  40000
     Max angular momentum in pseudopotentials (lmaxx) =  3
 kfg - two_fermi_energies  F

     Subspace diagonalization in iterative solution of the eigenvalue problem:
     a serial algorithm will be used


     Parallelization info
     --------------------
     sticks:   dense  smooth     PW     G-vecs:    dense   smooth      PW
     Min         279     223     62                 8755     6264     922
     Max         280     224     63                 8759     6294     926
     Sum        2233    1789    499                70049    50237    7391



     bravais-lattice index     =            0
     lattice parameter (alat)  =    12.744332997  a.u.
     unit-cell volume          =    1463.6470 (a.u.)^3
     number of atoms/cell      =           16
     number of atomic types    =            3
     number of electrons       =       128.00
     number of Kohn-Sham states=           77
     kinetic-energy cutoff     =      40.0000  Ry
     charge density cutoff     =     200.0000  Ry
     convergence threshold     =      1.0E-10
     mixing beta               =       0.3000
     number of iterations used =            8  local-TF  mixing
     Exchange-correlation      = SLA  PW   PSX  PSC ( 1  4 10  8 0)
     A smooth kinetic-energy cutoff is imposed at      39.5000 Ry
     height of the smooth step-function =             800.0000 Ry
     width of the smooth step-function  =               1.0000 Ry


     celldm(1)=  12.744333  celldm(2)=   0.000000  celldm(3)=   0.000000
     celldm(4)=   0.000000  celldm(5)=   0.000000  celldm(6)=   0.000000

     crystal axes: (cart. coord. in units of alat)
               a(1) = (   0.000000000000   0.707106781187   0.707106781187 )  
               a(2) = (   0.707106781187   0.000000000000   0.707106781187 )  
               a(3) = (   0.707106781187   0.707106781187   0.000000000000 )  

     reciprocal axes: (cart. coord. in units 2 pi/alat)
               b(1) = ( -0.707107  0.707107  0.707107 )  
               b(2) = (  0.707107 -0.707107  0.707107 )  
               b(3) = (  0.707107  0.707107 -0.707107 )  


     PseudoPot. # 1 for Ca read from file:
     /users/kfg/psuedo/gbrv_1.5/ca.pbesol.UPF
     MD5 check sum: 0533207b58cddeaa036efa5b63902087
     Pseudo is Ultrasoft + core correction, Zval = 10.0
     Generated by new atomic code, or converted to UPF format
     Using radial grid of  845 points,  6 beta functions with: 
                l(1) =   0
                l(2) =   0
                l(3) =   1
                l(4) =   1
                l(5) =   2
                l(6) =   2
     Q(r) pseudized with  8 coefficients,  rinner =    1.500   1.500   1.500
                                                       1.500   1.500

     PseudoPot. # 2 for Mg read from file:
     /users/kfg/psuedo/gbrv_1.5/mg.pbesol.UPF
     MD5 check sum: 4059f37963cf5867752dbf5ab2400678
     Pseudo is Ultrasoft, Zval = 10.0
     Generated by new atomic code, or converted to UPF format
     Using radial grid of  821 points,  7 beta functions with: 
                l(1) =   0
                l(2) =   0
                l(3) =   0
                l(4) =   1
                l(5) =   1
                l(6) =   2
                l(7) =   2
     Q(r) pseudized with  8 coefficients,  rinner =    1.200   1.200   1.200
                                                       1.200   1.200

     PseudoPot. # 3 for O  read from file:
     /users/kfg/psuedo/gbrv_1.5/o.pbesol.UPF
     MD5 check sum: 501638753501ef6325af9037351f7734
     Pseudo is Ultrasoft + core correction, Zval =  6.0
     Generated by new atomic code, or converted to UPF format
     Using radial grid of  737 points,  5 beta functions with: 
                l(1) =   0
                l(2) =   0
                l(3) =   1
                l(4) =   1
                l(5) =   2
     Q(r) pseudized with  8 coefficients,  rinner =    0.900   0.900   0.900
                                                       0.900   0.900

     atomic species   valence    mass     pseudopotential
        Ca            10.00    40.07800     Ca( 1.00)
        Mg            10.00    40.07800     Mg( 1.00)
        O              6.00    15.99940     O ( 1.00)

     48 Sym. Ops., with inversion, found


                                    s                        frac. trans.

      isym =  1     identity                                     

 cryst.   s( 1) = (     1          0          0      )
                  (     0          1          0      )
                  (     0          0          1      )

 cart.    s( 1) = (  1.0000000  0.0000000  0.0000000 )
                  (  0.0000000  1.0000000  0.0000000 )
                  (  0.0000000  0.0000000  1.0000000 )


      isym =  2     180 deg rotation - cart. axis [0,0,1]        

 cryst.   s( 2) = (     0          1         -1      )
                  (     1          0         -1      )
                  (     0          0         -1      )

 cart.    s( 2) = ( -1.0000000  0.0000000  0.0000000 )
                  (  0.0000000 -1.0000000  0.0000000 )
                  (  0.0000000  0.0000000  1.0000000 )


      isym =  3     180 deg rotation - cart. axis [0,1,0]        

 cryst.   s( 3) = (     0         -1          1      )
                  (     0         -1          0      )
                  (     1         -1          0      )

 cart.    s( 3) = ( -1.0000000  0.0000000  0.0000000 )
                  (  0.0000000  1.0000000  0.0000000 )
                  (  0.0000000  0.0000000 -1.0000000 )


      isym =  4     180 deg rotation - cart. axis [1,0,0]        

 cryst.   s( 4) = (    -1          0          0      )
                  (    -1          0          1      )
                  (    -1          1          0      )

 cart.    s( 4) = (  1.0000000  0.0000000  0.0000000 )
                  (  0.0000000 -1.0000000  0.0000000 )
                  (  0.0000000  0.0000000 -1.0000000 )


      isym =  5     180 deg rotation - cart. axis [1,1,0]        

 cryst.   s( 5) = (    -1          0          1      )
                  (     0         -1          1      )
                  (     0          0          1      )

 cart.    s( 5) = (  0.0000000  1.0000000  0.0000000 )
                  (  1.0000000  0.0000000  0.0000000 )
                  (  0.0000000  0.0000000 -1.0000000 )


      isym =  6     180 deg rotation - cart. axis [1,-1,0]       

 cryst.   s( 6) = (     0         -1          0      )
                  (    -1          0          0      )
                  (     0          0         -1      )

 cart.    s( 6) = (  0.0000000 -1.0000000  0.0000000 )
                  ( -1.0000000  0.0000000  0.0000000 )
                  (  0.0000000  0.0000000 -1.0000000 )


      isym =  7      90 deg rotation - cart. axis [0,0,-1]       

 cryst.   s( 7) = (     0          1          0      )
                  (     0          1         -1      )
                  (    -1          1          0      )

 cart.    s( 7) = (  0.0000000  1.0000000  0.0000000 )
                  ( -1.0000000  0.0000000  0.0000000 )
                  (  0.0000000  0.0000000  1.0000000 )


      isym =  8      90 deg rotation - cart. axis [0,0,1]        

 cryst.   s( 8) = (     1          0         -1      )
                  (     1          0          0      )
                  (     1         -1          0      )

 cart.    s( 8) = (  0.0000000 -1.0000000  0.0000000 )
                  (  1.0000000  0.0000000  0.0000000 )
                  (  0.0000000  0.0000000  1.0000000 )


      isym =  9     180 deg rotation - cart. axis [1,0,1]        

 cryst.   s( 9) = (    -1          1          0      )
                  (     0          1          0      )
                  (     0          1         -1      )

 cart.    s( 9) = (  0.0000000  0.0000000  1.0000000 )
                  (  0.0000000 -1.0000000  0.0000000 )
                  (  1.0000000  0.0000000  0.0000000 )


      isym = 10     180 deg rotation - cart. axis [-1,0,1]       

 cryst.   s(10) = (     0          0         -1      )
                  (     0         -1          0      )
                  (    -1          0          0      )

 cart.    s(10) = (  0.0000000  0.0000000 -1.0000000 )
                  (  0.0000000 -1.0000000  0.0000000 )
                  ( -1.0000000  0.0000000  0.0000000 )


      isym = 11      90 deg rotation - cart. axis [0,1,0]        

 cryst.   s(11) = (     0          0          1      )
                  (    -1          0          1      )
                  (     0         -1          1      )

 cart.    s(11) = (  0.0000000  0.0000000  1.0000000 )
                  (  0.0000000  1.0000000  0.0000000 )
                  ( -1.0000000  0.0000000  0.0000000 )


      isym = 12      90 deg rotation - cart. axis [0,-1,0]       

 cryst.   s(12) = (     1         -1          0      )
                  (     1          0         -1      )
                  (     1          0          0      )

 cart.    s(12) = (  0.0000000  0.0000000 -1.0000000 )
                  (  0.0000000  1.0000000  0.0000000 )
                  (  1.0000000  0.0000000  0.0000000 )


      isym = 13     180 deg rotation - cart. axis [0,1,1]        

 cryst.   s(13) = (     1          0          0      )
                  (     1         -1          0      )
                  (     1          0         -1      )

 cart.    s(13) = ( -1.0000000  0.0000000  0.0000000 )
                  (  0.0000000  0.0000000  1.0000000 )
                  (  0.0000000  1.0000000  0.0000000 )


      isym = 14     180 deg rotation - cart. axis [0,1,-1]       

 cryst.   s(14) = (    -1          0          0      )
                  (     0          0         -1      )
                  (     0         -1          0      )

 cart.    s(14) = ( -1.0000000  0.0000000  0.0000000 )
                  (  0.0000000  0.0000000 -1.0000000 )
                  (  0.0000000 -1.0000000  0.0000000 )


      isym = 15      90 deg rotation - cart. axis [-1,0,0]       

 cryst.   s(15) = (     0         -1          1      )
                  (     0          0          1      )
                  (    -1          0          1      )

 cart.    s(15) = (  1.0000000  0.0000000  0.0000000 )
                  (  0.0000000  0.0000000  1.0000000 )
                  (  0.0000000 -1.0000000  0.0000000 )


      isym = 16      90 deg rotation - cart. axis [1,0,0]        

 cryst.   s(16) = (     0          1         -1      )
                  (    -1          1          0      )
                  (     0          1          0      )

 cart.    s(16) = (  1.0000000  0.0000000  0.0000000 )
                  (  0.0000000  0.0000000 -1.0000000 )
                  (  0.0000000  1.0000000  0.0000000 )


      isym = 17     120 deg rotation - cart. axis [-1,-1,-1]     

 cryst.   s(17) = (     0          0          1      )
                  (     1          0          0      )
                  (     0          1          0      )

 cart.    s(17) = (  0.0000000  1.0000000  0.0000000 )
                  (  0.0000000  0.0000000  1.0000000 )
                  (  1.0000000  0.0000000  0.0000000 )


      isym = 18     120 deg rotation - cart. axis [-1,1,1]       

 cryst.   s(18) = (     1         -1          0      )
                  (     0         -1          1      )
                  (     0         -1          0      )

 cart.    s(18) = (  0.0000000 -1.0000000  0.0000000 )
                  (  0.0000000  0.0000000  1.0000000 )
                  ( -1.0000000  0.0000000  0.0000000 )


      isym = 19     120 deg rotation - cart. axis [1,1,-1]       

 cryst.   s(19) = (    -1          1          0      )
                  (    -1          0          0      )
                  (    -1          0          1      )

 cart.    s(19) = (  0.0000000  1.0000000  0.0000000 )
                  (  0.0000000  0.0000000 -1.0000000 )
                  ( -1.0000000  0.0000000  0.0000000 )


      isym = 20     120 deg rotation - cart. axis [1,-1,1]       

 cryst.   s(20) = (     0          0         -1      )
                  (     0          1         -1      )
                  (     1          0         -1      )

 cart.    s(20) = (  0.0000000 -1.0000000  0.0000000 )
                  (  0.0000000  0.0000000 -1.0000000 )
                  (  1.0000000  0.0000000  0.0000000 )


      isym = 21     120 deg rotation - cart. axis [1,1,1]        

 cryst.   s(21) = (     0          1          0      )
                  (     0          0          1      )
                  (     1          0          0      )

 cart.    s(21) = (  0.0000000  0.0000000  1.0000000 )
                  (  1.0000000  0.0000000  0.0000000 )
                  (  0.0000000  1.0000000  0.0000000 )


      isym = 22     120 deg rotation - cart. axis [-1,1,-1]      

 cryst.   s(22) = (    -1          0          1      )
                  (    -1          1          0      )
                  (    -1          0          0      )

 cart.    s(22) = (  0.0000000  0.0000000  1.0000000 )
                  ( -1.0000000  0.0000000  0.0000000 )
                  (  0.0000000 -1.0000000  0.0000000 )


      isym = 23     120 deg rotation - cart. axis [1,-1,-1]      

 cryst.   s(23) = (     1          0         -1      )
                  (     0          0         -1      )
                  (     0          1         -1      )

 cart.    s(23) = (  0.0000000  0.0000000 -1.0000000 )
                  ( -1.0000000  0.0000000  0.0000000 )
                  (  0.0000000  1.0000000  0.0000000 )


      isym = 24     120 deg rotation - cart. axis [-1,-1,1]      

 cryst.   s(24) = (     0         -1          0      )
                  (     1         -1          0      )
                  (     0         -1          1      )

 cart.    s(24) = (  0.0000000  0.0000000 -1.0000000 )
                  (  1.0000000  0.0000000  0.0000000 )
                  (  0.0000000 -1.0000000  0.0000000 )


      isym = 25     inversion                                    

 cryst.   s(25) = (    -1          0          0      )
                  (     0         -1          0      )
                  (     0          0         -1      )

 cart.    s(25) = ( -1.0000000  0.0000000  0.0000000 )
                  (  0.0000000 -1.0000000  0.0000000 )
                  (  0.0000000  0.0000000 -1.0000000 )


      isym = 26     inv. 180 deg rotation - cart. axis [0,0,1]   

 cryst.   s(26) = (     0         -1          1      )
                  (    -1          0          1      )
                  (     0          0          1      )

 cart.    s(26) = (  1.0000000  0.0000000  0.0000000 )
                  (  0.0000000  1.0000000  0.0000000 )
                  (  0.0000000  0.0000000 -1.0000000 )


      isym = 27     inv. 180 deg rotation - cart. axis [0,1,0]   

 cryst.   s(27) = (     0          1         -1      )
                  (     0          1          0      )
                  (    -1          1          0      )

 cart.    s(27) = (  1.0000000  0.0000000  0.0000000 )
                  (  0.0000000 -1.0000000  0.0000000 )
                  (  0.0000000  0.0000000  1.0000000 )


      isym = 28     inv. 180 deg rotation - cart. axis [1,0,0]   

 cryst.   s(28) = (     1          0          0      )
                  (     1          0         -1      )
                  (     1         -1          0      )

 cart.    s(28) = ( -1.0000000  0.0000000  0.0000000 )
                  (  0.0000000  1.0000000  0.0000000 )
                  (  0.0000000  0.0000000  1.0000000 )


      isym = 29     inv. 180 deg rotation - cart. axis [1,1,0]   

 cryst.   s(29) = (     1          0         -1      )
                  (     0          1         -1      )
                  (     0          0         -1      )

 cart.    s(29) = (  0.0000000 -1.0000000  0.0000000 )
                  ( -1.0000000  0.0000000  0.0000000 )
                  (  0.0000000  0.0000000  1.0000000 )


      isym = 30     inv. 180 deg rotation - cart. axis [1,-1,0]  

 cryst.   s(30) = (     0          1          0      )
                  (     1          0          0      )
                  (     0          0          1      )

 cart.    s(30) = (  0.0000000  1.0000000  0.0000000 )
                  (  1.0000000  0.0000000  0.0000000 )
                  (  0.0000000  0.0000000  1.0000000 )


      isym = 31     inv.  90 deg rotation - cart. axis [0,0,-1]  

 cryst.   s(31) = (     0         -1          0      )
                  (     0         -1          1      )
                  (     1         -1          0      )

 cart.    s(31) = (  0.0000000 -1.0000000  0.0000000 )
                  (  1.0000000  0.0000000  0.0000000 )
                  (  0.0000000  0.0000000 -1.0000000 )


      isym = 32     inv.  90 deg rotation - cart. axis [0,0,1]   

 cryst.   s(32) = (    -1          0          1      )
                  (    -1          0          0      )
                  (    -1          1          0      )

 cart.    s(32) = (  0.0000000  1.0000000  0.0000000 )
                  ( -1.0000000  0.0000000  0.0000000 )
                  (  0.0000000  0.0000000 -1.0000000 )


      isym = 33     inv. 180 deg rotation - cart. axis [1,0,1]   

 cryst.   s(33) = (     1         -1          0      )
                  (     0         -1          0      )
                  (     0         -1          1      )

 cart.    s(33) = (  0.0000000  0.0000000 -1.0000000 )
                  (  0.0000000  1.0000000  0.0000000 )
                  ( -1.0000000  0.0000000  0.0000000 )


      isym = 34     inv. 180 deg rotation - cart. axis [-1,0,1]  

 cryst.   s(34) = (     0          0          1      )
                  (     0          1          0      )
                  (     1          0          0      )

 cart.    s(34) = (  0.0000000  0.0000000  1.0000000 )
                  (  0.0000000  1.0000000  0.0000000 )
                  (  1.0000000  0.0000000  0.0000000 )


      isym = 35     inv.  90 deg rotation - cart. axis [0,1,0]   

 cryst.   s(35) = (     0          0         -1      )
                  (     1          0         -1      )
                  (     0          1         -1      )

 cart.    s(35) = (  0.0000000  0.0000000 -1.0000000 )
                  (  0.0000000 -1.0000000  0.0000000 )
                  (  1.0000000  0.0000000  0.0000000 )


      isym = 36     inv.  90 deg rotation - cart. axis [0,-1,0]  

 cryst.   s(36) = (    -1          1          0      )
                  (    -1          0          1      )
                  (    -1          0          0      )

 cart.    s(36) = (  0.0000000  0.0000000  1.0000000 )
                  (  0.0000000 -1.0000000  0.0000000 )
                  ( -1.0000000  0.0000000  0.0000000 )


      isym = 37     inv. 180 deg rotation - cart. axis [0,1,1]   

 cryst.   s(37) = (    -1          0          0      )
                  (    -1          1          0      )
                  (    -1          0          1      )

 cart.    s(37) = (  1.0000000  0.0000000  0.0000000 )
                  (  0.0000000  0.0000000 -1.0000000 )
                  (  0.0000000 -1.0000000  0.0000000 )


      isym = 38     inv. 180 deg rotation - cart. axis [0,1,-1]  

 cryst.   s(38) = (     1          0          0      )
                  (     0          0          1      )
                  (     0          1          0      )

 cart.    s(38) = (  1.0000000  0.0000000  0.0000000 )
                  (  0.0000000  0.0000000  1.0000000 )
                  (  0.0000000  1.0000000  0.0000000 )


      isym = 39     inv.  90 deg rotation - cart. axis [-1,0,0]  

 cryst.   s(39) = (     0          1         -1      )
                  (     0          0         -1      )
                  (     1          0         -1      )

 cart.    s(39) = ( -1.0000000  0.0000000  0.0000000 )
                  (  0.0000000  0.0000000 -1.0000000 )
                  (  0.0000000  1.0000000  0.0000000 )


      isym = 40     inv.  90 deg rotation - cart. axis [1,0,0]   

 cryst.   s(40) = (     0         -1          1      )
                  (     1         -1          0      )
                  (     0         -1          0      )

 cart.    s(40) = ( -1.0000000  0.0000000  0.0000000 )
                  (  0.0000000  0.0000000  1.0000000 )
                  (  0.0000000 -1.0000000  0.0000000 )


      isym = 41     inv. 120 deg rotation - cart. axis [-1,-1,-1]

 cryst.   s(41) = (     0          0         -1      )
                  (    -1          0          0      )
                  (     0         -1          0      )

 cart.    s(41) = (  0.0000000 -1.0000000  0.0000000 )
                  (  0.0000000  0.0000000 -1.0000000 )
                  ( -1.0000000  0.0000000  0.0000000 )


      isym = 42     inv. 120 deg rotation - cart. axis [-1,1,1]  

 cryst.   s(42) = (    -1          1          0      )
                  (     0          1         -1      )
                  (     0          1          0      )

 cart.    s(42) = (  0.0000000  1.0000000  0.0000000 )
                  (  0.0000000  0.0000000 -1.0000000 )
                  (  1.0000000  0.0000000  0.0000000 )


      isym = 43     inv. 120 deg rotation - cart. axis [1,1,-1]  

 cryst.   s(43) = (     1         -1          0      )
                  (     1          0          0      )
                  (     1          0         -1      )

 cart.    s(43) = (  0.0000000 -1.0000000  0.0000000 )
                  (  0.0000000  0.0000000  1.0000000 )
                  (  1.0000000  0.0000000  0.0000000 )


      isym = 44     inv. 120 deg rotation - cart. axis [1,-1,1]  

 cryst.   s(44) = (     0          0          1      )
                  (     0         -1          1      )
                  (    -1          0          1      )

 cart.    s(44) = (  0.0000000  1.0000000  0.0000000 )
                  (  0.0000000  0.0000000  1.0000000 )
                  ( -1.0000000  0.0000000  0.0000000 )


      isym = 45     inv. 120 deg rotation - cart. axis [1,1,1]   

 cryst.   s(45) = (     0         -1          0      )
                  (     0          0         -1      )
                  (    -1          0          0      )

 cart.    s(45) = (  0.0000000  0.0000000 -1.0000000 )
                  ( -1.0000000  0.0000000  0.0000000 )
                  (  0.0000000 -1.0000000  0.0000000 )


      isym = 46     inv. 120 deg rotation - cart. axis [-1,1,-1] 

 cryst.   s(46) = (     1          0         -1      )
                  (     1         -1          0      )
                  (     1          0          0      )

 cart.    s(46) = (  0.0000000  0.0000000 -1.0000000 )
                  (  1.0000000  0.0000000  0.0000000 )
                  (  0.0000000  1.0000000  0.0000000 )


      isym = 47     inv. 120 deg rotation - cart. axis [1,-1,-1] 

 cryst.   s(47) = (    -1          0          1      )
                  (     0          0          1      )
                  (     0         -1          1      )

 cart.    s(47) = (  0.0000000  0.0000000  1.0000000 )
                  (  1.0000000  0.0000000  0.0000000 )
                  (  0.0000000 -1.0000000  0.0000000 )


      isym = 48     inv. 120 deg rotation - cart. axis [-1,-1,1] 

 cryst.   s(48) = (     0          1          0      )
                  (    -1          1          0      )
                  (     0          1         -1      )

 cart.    s(48) = (  0.0000000  0.0000000  1.0000000 )
                  ( -1.0000000  0.0000000  0.0000000 )
                  (  0.0000000  1.0000000  0.0000000 )


     point group O_h (m-3m) 
     there are 10 classes
     the character table:

       E     8C3   6C2'  6C4   3C2   i     6S4   8S6   3s_h  6s_d 
A_1g   1.00  1.00  1.00  1.00  1.00  1.00  1.00  1.00  1.00  1.00
A_2g   1.00  1.00 -1.00 -1.00  1.00  1.00 -1.00  1.00  1.00 -1.00
E_g    2.00 -1.00  0.00  0.00  2.00  2.00  0.00 -1.00  2.00  0.00
T_1g   3.00  0.00 -1.00  1.00 -1.00  3.00  1.00  0.00 -1.00 -1.00
T_2g   3.00  0.00  1.00 -1.00 -1.00  3.00 -1.00  0.00 -1.00  1.00
A_1u   1.00  1.00  1.00  1.00  1.00 -1.00 -1.00 -1.00 -1.00 -1.00
A_2u   1.00  1.00 -1.00 -1.00  1.00 -1.00  1.00 -1.00 -1.00  1.00
E_u    2.00 -1.00  0.00  0.00  2.00 -2.00  0.00  1.00 -2.00  0.00
T_1u   3.00  0.00 -1.00  1.00 -1.00 -3.00 -1.00  0.00  1.00  1.00
T_2u   3.00  0.00  1.00 -1.00 -1.00 -3.00  1.00  0.00  1.00 -1.00

     the symmetry operations in each class:
     E        1
     3C2      2    4    3
     6C2'     5    6   14   13   10    9
     6C4      7    8   15   16   12   11
     8C3     17   19   20   18   24   21   22   23
     i       25
     3s_h    26   28   27
     6s_d    29   30   38   37   34   33
     6S4     31   32   39   40   36   35
     8S6     41   43   44   42   48   45   46   47

   Cartesian axes

     site n.     atom                  positions (alat units)
         1           Mg  tau(   1) = (    0.00000000000    0.00000000000    0.00000000000  )
         2           O   tau(   2) = (    0.35355339059    0.35355339059    0.35355339059  )
         3           Ca  tau(   3) = (    0.35355339059    0.35355339059    0.00000000000  )
         4           O   tau(   4) = (    0.70710678119    0.70710678119    0.35355339059  )
         5           Ca  tau(   5) = (    0.35355339059    0.00000000000    0.35355339059  )
         6           O   tau(   6) = (    0.70710678119    0.35355339059    0.70710678119  )
         7           Ca  tau(   7) = (    0.70710678119    0.35355339059    0.35355339059  )
         8           O   tau(   8) = (    1.06066017178    0.70710678119    0.70710678119  )
         9           Ca  tau(   9) = (    0.00000000000    0.35355339059    0.35355339059  )
        10           O   tau(  10) = (    0.35355339059    0.70710678119    0.70710678119  )
        11           Ca  tau(  11) = (    0.35355339059    0.70710678119    0.35355339059  )
        12           O   tau(  12) = (    0.70710678119    1.06066017178    0.70710678119  )
        13           Ca  tau(  13) = (    0.35355339059    0.35355339059    0.70710678119  )
        14           O   tau(  14) = (    0.70710678119    0.70710678119    1.06066017178  )
        15           Ca  tau(  15) = (    0.70710678119    0.70710678119    0.70710678119  )
        16           O   tau(  16) = (    1.06066017178    1.06066017178    1.06066017178  )

   Crystallographic axes

     site n.     atom                  positions (cryst. coord.)
         1           Mg  tau(   1) = (    0.00000000000    0.00000000000    0.00000000000  )
         2           O   tau(   2) = (    0.25000000000    0.25000000000    0.25000000000  )
         3           Ca  tau(   3) = (    0.00000000000    0.00000000000    0.50000000000  )
         4           O   tau(   4) = (    0.25000000000    0.25000000000    0.75000000000  )
         5           Ca  tau(   5) = (    0.00000000000    0.50000000000    0.00000000000  )
         6           O   tau(   6) = (    0.25000000000    0.75000000000    0.25000000000  )
         7           Ca  tau(   7) = (    0.00000000000    0.50000000000    0.50000000000  )
         8           O   tau(   8) = (    0.25000000000    0.75000000000    0.75000000000  )
         9           Ca  tau(   9) = (    0.50000000000    0.00000000000    0.00000000000  )
        10           O   tau(  10) = (    0.75000000000    0.25000000000    0.25000000000  )
        11           Ca  tau(  11) = (    0.50000000000    0.00000000000    0.50000000000  )
        12           O   tau(  12) = (    0.75000000000    0.25000000000    0.75000000000  )
        13           Ca  tau(  13) = (    0.50000000000    0.50000000000    0.00000000000  )
        14           O   tau(  14) = (    0.75000000000    0.75000000000    0.25000000000  )
        15           Ca  tau(  15) = (    0.50000000000    0.50000000000    0.50000000000  )
        16           O   tau(  16) = (    0.75000000000    0.75000000000    0.75000000000  )

     number of k points=     8  gaussian smearing, width (Ry)=  0.0050
                       cart. coord. in units 2pi/alat
        k(    1) = (   0.0000000   0.0000000   0.0000000), wk =   0.0312500
        k(    2) = (   0.1767767   0.1767767  -0.1767767), wk =   0.2500000
        k(    3) = (  -0.3535534  -0.3535534   0.3535534), wk =   0.1250000
        k(    4) = (   0.3535534   0.0000000   0.0000000), wk =   0.1875000
        k(    5) = (  -0.1767767  -0.5303301   0.5303301), wk =   0.7500000
        k(    6) = (   0.0000000  -0.3535534   0.3535534), wk =   0.3750000
        k(    7) = (  -0.7071068   0.0000000   0.0000000), wk =   0.0937500
        k(    8) = (  -0.7071068   0.3535534   0.0000000), wk =   0.1875000

                       cryst. coord.
        k(    1) = (   0.0000000   0.0000000   0.0000000), wk =   0.0312500
        k(    2) = (   0.0000000   0.0000000   0.2500000), wk =   0.2500000
        k(    3) = (   0.0000000   0.0000000  -0.5000000), wk =   0.1250000
        k(    4) = (   0.0000000   0.2500000   0.2500000), wk =   0.1875000
        k(    5) = (   0.0000000   0.2500000  -0.5000000), wk =   0.7500000
        k(    6) = (   0.0000000   0.2500000  -0.2500000), wk =   0.3750000
        k(    7) = (   0.0000000  -0.5000000  -0.5000000), wk =   0.0937500
        k(    8) = (   0.2500000  -0.5000000  -0.2500000), wk =   0.1875000

     Dense  grid:    70049 G-vectors     FFT dimensions: (  60,  60,  60)

     Smooth grid:    50237 G-vectors     FFT dimensions: (  54,  54,  54)

     Largest allocated arrays     est. size (Mb)     dimensions
        Kohn-Sham Wavefunctions         0.94 Mb     (     803,   77)
        NL pseudopotentials             3.05 Mb     (     803,  249)
        Each V/rho on FFT grid          0.44 Mb     (   28800)
        Each G-vector array             0.07 Mb     (    8759)
        G-vector shells                 0.00 Mb     (     548)
     Largest temporary arrays     est. size (Mb)     dimensions
        Auxiliary wavefunctions         3.77 Mb     (     803,  308)
        Each subspace H/S matrix        1.45 Mb     (     308,  308)
        Each <psi_i|beta_j> matrix      0.29 Mb     (     249,   77)
        Arrays for rho mixing           3.52 Mb     (   28800,    8)

     Check: negative/imaginary core charge=   -0.000003    0.000000

     Initial potential from superposition of free atoms

     starting charge  127.66353, renormalised to  128.00000
     Starting wfc are  107 randomized atomic wfcs

     total cpu time spent up to now is       11.9 secs

     Self-consistent Calculation

     iteration #  1     ecut=    40.00 Ry     beta=0.30
     Davidson diagonalization with overlap
     ethr =  1.00E-02,  avg # of iterations =  2.4

     total cpu time spent up to now is       28.5 secs

     total energy              =    -909.32108293 Ry
     Harris-Foulkes estimate   =    -910.00789476 Ry
     estimated scf accuracy    <       3.51637556 Ry

     iteration #  2     ecut=    40.00 Ry     beta=0.30
     Davidson diagonalization with overlap
     ethr =  2.75E-03,  avg # of iterations =  1.5

     total cpu time spent up to now is       43.8 secs

     total energy              =    -908.94557207 Ry
     Harris-Foulkes estimate   =    -909.44599330 Ry
     estimated scf accuracy    <       1.32793533 Ry

     iteration #  3     ecut=    40.00 Ry     beta=0.30
     Davidson diagonalization with overlap
     ethr =  1.04E-03,  avg # of iterations =  2.0

     total cpu time spent up to now is       65.6 secs

     total energy              =    -909.15775895 Ry
     Harris-Foulkes estimate   =    -909.18579196 Ry
     estimated scf accuracy    <       0.11214591 Ry

     iteration #  4     ecut=    40.00 Ry     beta=0.30
     Davidson diagonalization with overlap
     ethr =  8.76E-05,  avg # of iterations =  4.3

     total cpu time spent up to now is       85.1 secs

     total energy              =    -909.14143296 Ry
     Harris-Foulkes estimate   =    -909.17666634 Ry
     estimated scf accuracy    <       0.07995077 Ry

     iteration #  5     ecut=    40.00 Ry     beta=0.30
     Davidson diagonalization with overlap
     ethr =  6.25E-05,  avg # of iterations =  3.4

     total cpu time spent up to now is      103.7 secs

     total energy              =    -909.15452394 Ry
     Harris-Foulkes estimate   =    -909.15636605 Ry
     estimated scf accuracy    <       0.01081858 Ry

     iteration #  6     ecut=    40.00 Ry     beta=0.30
     Davidson diagonalization with overlap
     ethr =  8.45E-06,  avg # of iterations =  5.5

     total cpu time spent up to now is      119.7 secs

     total energy              =    -909.15347264 Ry
     Harris-Foulkes estimate   =    -909.15490444 Ry
     estimated scf accuracy    <       0.00306379 Ry

     iteration #  7     ecut=    40.00 Ry     beta=0.30
     Davidson diagonalization with overlap
     ethr =  2.39E-06,  avg # of iterations =  5.9

     total cpu time spent up to now is      146.6 secs

     total energy              =    -909.15391507 Ry
     Harris-Foulkes estimate   =    -909.15394148 Ry
     estimated scf accuracy    <       0.00014298 Ry

     iteration #  8     ecut=    40.00 Ry     beta=0.30
     Davidson diagonalization with overlap
     ethr =  1.12E-07,  avg # of iterations =  2.9

     total cpu time spent up to now is      165.2 secs

     total energy              =    -909.15393319 Ry
     Harris-Foulkes estimate   =    -909.15393749 Ry
     estimated scf accuracy    <       0.00003591 Ry

     iteration #  9     ecut=    40.00 Ry     beta=0.30
     Davidson diagonalization with overlap
     ethr =  2.81E-08,  avg # of iterations =  1.3

     total cpu time spent up to now is      180.2 secs

     total energy              =    -909.15392808 Ry
     Harris-Foulkes estimate   =    -909.15393446 Ry
     estimated scf accuracy    <       0.00001534 Ry

     iteration # 10     ecut=    40.00 Ry     beta=0.30
     Davidson diagonalization with overlap
     ethr =  1.20E-08,  avg # of iterations =  2.0

     total cpu time spent up to now is      192.6 secs

     total energy              =    -909.15392883 Ry
     Harris-Foulkes estimate   =    -909.15392942 Ry
     estimated scf accuracy    <       0.00000342 Ry

     iteration # 11     ecut=    40.00 Ry     beta=0.30
     Davidson diagonalization with overlap
     ethr =  2.67E-09,  avg # of iterations =  2.0

     total cpu time spent up to now is      205.2 secs

     total energy              =    -909.15392884 Ry
     Harris-Foulkes estimate   =    -909.15392924 Ry
     estimated scf accuracy    <       0.00000156 Ry

     iteration # 12     ecut=    40.00 Ry     beta=0.30
     Davidson diagonalization with overlap
     ethr =  1.22E-09,  avg # of iterations =  2.4

     total cpu time spent up to now is      218.2 secs

     total energy              =    -909.15392898 Ry
     Harris-Foulkes estimate   =    -909.15392902 Ry
     estimated scf accuracy    <       0.00000023 Ry

     iteration # 13     ecut=    40.00 Ry     beta=0.30
     Davidson diagonalization with overlap
     ethr =  1.82E-10,  avg # of iterations =  2.0

     total cpu time spent up to now is      239.1 secs

     total energy              =    -909.15392898 Ry
     Harris-Foulkes estimate   =    -909.15392900 Ry
     estimated scf accuracy    <       0.00000006 Ry

     iteration # 14     ecut=    40.00 Ry     beta=0.30
     Davidson diagonalization with overlap
     ethr =  4.84E-11,  avg # of iterations =  2.3

     total cpu time spent up to now is      254.7 secs

     total energy              =    -909.15392900 Ry
     Harris-Foulkes estimate   =    -909.15392899 Ry
     estimated scf accuracy    <          1.2E-09 Ry

     iteration # 15     ecut=    40.00 Ry     beta=0.30
     Davidson diagonalization with overlap
     ethr =  9.06E-13,  avg # of iterations =  3.0

     total cpu time spent up to now is      269.0 secs

     total energy              =    -909.15392900 Ry
     Harris-Foulkes estimate   =    -909.15392900 Ry
     estimated scf accuracy    <          5.7E-10 Ry

     iteration # 16     ecut=    40.00 Ry     beta=0.30
     Davidson diagonalization with overlap
     ethr =  4.47E-13,  avg # of iterations =  3.0

     total cpu time spent up to now is      284.3 secs

     total energy              =    -909.15392900 Ry
     Harris-Foulkes estimate   =    -909.15392900 Ry
     estimated scf accuracy    <          1.4E-10 Ry

     iteration # 17     ecut=    40.00 Ry     beta=0.30
     Davidson diagonalization with overlap
     ethr =  1.08E-13,  avg # of iterations =  2.0

     total cpu time spent up to now is      296.8 secs

     End of self-consistent calculation

          k = 0.0000 0.0000 0.0000 (  6231 PWs)   bands (ev):

   -66.1845 -33.1368 -33.1368 -33.1368 -29.9398 -29.7772 -29.7122 -29.7122
   -29.7122 -29.6771 -29.6771 -11.9059 -11.8374 -11.8374 -11.8374 -11.2448
   -11.2448 -11.2448 -10.9330 -10.9330 -10.9330 -10.9056 -10.9056 -10.9056
   -10.7103 -10.7103 -10.7085 -10.7085 -10.7085 -10.7033 -10.7033 -10.7033
    -8.0792  -7.7670  -7.7670  -7.7427  -6.8585  -6.8585  -6.8585  -6.6336
     4.0251   4.7694   4.7694   4.7694   5.8132   5.8132   5.8132   6.1785
     6.1785   6.1785   6.2287   6.2287   6.2287   6.4185   6.4185   6.8973
     6.8973   6.8973   7.0577   7.0577   7.0577   7.4220   7.4220   7.4220
    11.2703  11.2703  11.2703  11.4660  13.9211  13.9211  13.9211  14.5061
    14.8598  14.8598  14.8598  15.2691  15.4331

     occupation numbers 
     1.0000   1.0000   1.0000   1.0000   1.0000   1.0000   1.0000   1.0000
     1.0000   1.0000   1.0000   1.0000   1.0000   1.0000   1.0000   1.0000
     1.0000   1.0000   1.0000   1.0000   1.0000   1.0000   1.0000   1.0000
     1.0000   1.0000   1.0000   1.0000   1.0000   1.0000   1.0000   1.0000
     1.0000   1.0000   1.0000   1.0000   1.0000   1.0000   1.0000   1.0000
     1.0000   1.0000   1.0000   1.0000   1.0000   1.0000   1.0000   1.0000
     1.0000   1.0000   1.0000   1.0000   1.0000   1.0000   1.0000   1.0000
     1.0000   1.0000   1.0000   1.0000   1.0000   1.0000   1.0000   1.0000
     0.0000   0.0000   0.0000   0.0000   0.0000   0.0000   0.0000   0.0000
     0.0000   0.0000   0.0000   0.0000   0.0000

          k = 0.1768 0.1768-0.1768 (  6234 PWs)   bands (ev):

   -66.1845 -33.1368 -33.1368 -33.1368 -29.9356 -29.7702 -29.7237 -29.7071
   -29.7071 -29.6823 -29.6823 -11.7968 -11.7554 -11.7554 -11.7201 -11.3097
   -11.2224 -11.2224 -11.0127 -10.9898 -10.9898 -10.9206 -10.9165 -10.9165
   -10.8779 -10.7787 -10.7787 -10.7375 -10.7192 -10.7192 -10.7080 -10.7080
    -7.8540  -7.6202  -7.6202  -7.5561  -7.0048  -6.9691  -6.9691  -6.7778
     4.2954   5.0250   5.0250   5.0494   5.6406   5.7460   5.7460   6.2189
     6.2189   6.2495   6.3008   6.3602   6.3602   6.4167   6.4167   6.6191
     6.7259   6.7259   6.8716   6.8893   6.8893   6.9215   7.2234   7.2234
    11.7528  11.7655  11.7655  12.1495  13.7667  14.0343  14.0343  14.2042
    14.3977  14.5218  14.5218  14.6929  14.8970

     occupation numbers 
     1.0000   1.0000   1.0000   1.0000   1.0000   1.0000   1.0000   1.0000
     1.0000   1.0000   1.0000   1.0000   1.0000   1.0000   1.0000   1.0000
     1.0000   1.0000   1.0000   1.0000   1.0000   1.0000   1.0000   1.0000
     1.0000   1.0000   1.0000   1.0000   1.0000   1.0000   1.0000   1.0000
     1.0000   1.0000   1.0000   1.0000   1.0000   1.0000   1.0000   1.0000
     1.0000   1.0000   1.0000   1.0000   1.0000   1.0000   1.0000   1.0000
     1.0000   1.0000   1.0000   1.0000   1.0000   1.0000   1.0000   1.0000
     1.0000   1.0000   1.0000   1.0000   1.0000   1.0000   1.0000   1.0000
     0.0000   0.0000   0.0000   0.0000   0.0000   0.0000   0.0000   0.0000
     0.0000   0.0000   0.0000   0.0000   0.0000

          k =-0.3536-0.3536 0.3536 (  6266 PWs)   bands (ev):

   -66.1845 -33.1368 -33.1368 -33.1368 -29.9313 -29.7525 -29.7461 -29.6947
   -29.6947 -29.6947 -29.6947 -11.6309 -11.6309 -11.5517 -11.5365 -11.4437
   -11.2882 -11.2882 -11.2868 -11.0649 -10.9404 -10.9404 -10.9374 -10.9374
   -10.8970 -10.8970 -10.8200 -10.7966 -10.7320 -10.7320 -10.7092 -10.7092
    -7.4631  -7.3737  -7.3737  -7.3280  -7.1816  -7.1816  -7.1473  -7.1452
     4.8494   5.1126   5.4855   5.4855   5.6730   5.6730   5.8458   5.8507
     5.9982   5.9982   6.3462   6.3604   6.3859   6.3859   6.5411   6.5411
     6.6008   6.6079   6.7067   6.7067   6.7436   6.7436   6.9035   6.9035
    12.7281  12.7333  12.7333  13.0384  13.1665  13.2238  13.2238  13.6108
    14.1221  14.2404  14.6930  14.6930  15.0116

     occupation numbers 
     1.0000   1.0000   1.0000   1.0000   1.0000   1.0000   1.0000   1.0000
     1.0000   1.0000   1.0000   1.0000   1.0000   1.0000   1.0000   1.0000
     1.0000   1.0000   1.0000   1.0000   1.0000   1.0000   1.0000   1.0000
     1.0000   1.0000   1.0000   1.0000   1.0000   1.0000   1.0000   1.0000
     1.0000   1.0000   1.0000   1.0000   1.0000   1.0000   1.0000   1.0000
     1.0000   1.0000   1.0000   1.0000   1.0000   1.0000   1.0000   1.0000
     1.0000   1.0000   1.0000   1.0000   1.0000   1.0000   1.0000   1.0000
     1.0000   1.0000   1.0000   1.0000   1.0000   1.0000   1.0000   1.0000
     0.0000   0.0000   0.0000   0.0000   0.0000   0.0000   0.0000   0.0000
     0.0000   0.0000   0.0000   0.0000   0.0000

          k = 0.3536 0.0000 0.0000 (  6254 PWs)   bands (ev):

   -66.1845 -33.1368 -33.1368 -33.1368 -29.9342 -29.7683 -29.7128 -29.7128
   -29.7128 -29.6910 -29.6766 -11.7654 -11.7434 -11.7080 -11.7080 -11.2960
   -11.1914 -11.1914 -11.0605 -11.0312 -10.9662 -10.9662 -10.9358 -10.8933
   -10.8933 -10.8060 -10.7844 -10.7844 -10.7328 -10.7328 -10.7113 -10.7097
    -7.8274  -7.6385  -7.5377  -7.5249  -7.0318  -7.0318  -6.9290  -6.7933
     4.3454   5.0458   5.0458   5.0794   5.5181   5.8545   5.8545   6.2284
     6.2378   6.2546   6.2546   6.3727   6.3727   6.3982   6.4689   6.5591
     6.5798   6.6298   6.6819   6.6819   7.0084   7.0084   7.3025   7.3025
    11.5502  12.0897  12.0897  12.2222  13.4098  14.1085  14.2504  14.2504
    14.3608  14.4436  14.7622  14.7623  14.8158

     occupation numbers 
     1.0000   1.0000   1.0000   1.0000   1.0000   1.0000   1.0000   1.0000
     1.0000   1.0000   1.0000   1.0000   1.0000   1.0000   1.0000   1.0000
     1.0000   1.0000   1.0000   1.0000   1.0000   1.0000   1.0000   1.0000
     1.0000   1.0000   1.0000   1.0000   1.0000   1.0000   1.0000   1.0000
     1.0000   1.0000   1.0000   1.0000   1.0000   1.0000   1.0000   1.0000
     1.0000   1.0000   1.0000   1.0000   1.0000   1.0000   1.0000   1.0000
     1.0000   1.0000   1.0000   1.0000   1.0000   1.0000   1.0000   1.0000
     1.0000   1.0000   1.0000   1.0000   1.0000   1.0000   1.0000   1.0000
     0.0000   0.0000   0.0000   0.0000   0.0000   0.0000   0.0000   0.0000
     0.0000   0.0000   0.0000   0.0000   0.0000

          k =-0.1768-0.5303 0.5303 (  6253 PWs)   bands (ev):

   -66.1845 -33.1368 -33.1368 -33.1368 -29.9300 -29.7534 -29.7349 -29.7080
   -29.7044 -29.6967 -29.6815 -11.6018 -11.5898 -11.5825 -11.5112 -11.3919
   -11.3138 -11.2365 -11.2315 -11.0646 -11.0491 -10.9650 -10.9439 -10.9349
   -10.8777 -10.8695 -10.8501 -10.8083 -10.7618 -10.7580 -10.7555 -10.7105
    -7.5566  -7.4398  -7.3477  -7.2675  -7.2479  -7.1898  -7.0830  -7.0099
     4.7180   5.3201   5.3522   5.4504   5.4950   5.6569   5.8497   5.9301
     6.0183   6.0406   6.3362   6.3425   6.3526   6.4032   6.4871   6.4995
     6.5766   6.5971   6.6139   6.7465   6.8038   6.9222   6.9452   7.0601
    12.2489  12.9333  13.0260  13.0284  13.1899  13.4471  13.6428  13.8368
    14.0905  14.2539  14.6774  14.7166  14.7991

     occupation numbers 
     1.0000   1.0000   1.0000   1.0000   1.0000   1.0000   1.0000   1.0000
     1.0000   1.0000   1.0000   1.0000   1.0000   1.0000   1.0000   1.0000
     1.0000   1.0000   1.0000   1.0000   1.0000   1.0000   1.0000   1.0000
     1.0000   1.0000   1.0000   1.0000   1.0000   1.0000   1.0000   1.0000
     1.0000   1.0000   1.0000   1.0000   1.0000   1.0000   1.0000   1.0000
     1.0000   1.0000   1.0000   1.0000   1.0000   1.0000   1.0000   1.0000
     1.0000   1.0000   1.0000   1.0000   1.0000   1.0000   1.0000   1.0000
     1.0000   1.0000   1.0000   1.0000   1.0000   1.0000   1.0000   1.0000
     0.0000   0.0000   0.0000   0.0000   0.0000   0.0000   0.0000   0.0000
     0.0000   0.0000   0.0000   0.0000   0.0000

          k = 0.0000-0.3536 0.3536 (  6259 PWs)   bands (ev):

   -66.1845 -33.1368 -33.1368 -33.1368 -29.9314 -29.7585 -29.7327 -29.7125
   -29.6953 -29.6941 -29.6843 -11.6619 -11.6405 -11.6045 -11.5747 -11.4021
   -11.2574 -11.2377 -11.1591 -11.1404 -10.9614 -10.9475 -10.9324 -10.9125
   -10.9064 -10.8659 -10.7856 -10.7761 -10.7754 -10.7598 -10.7442 -10.7090
    -7.6053  -7.4947  -7.3869  -7.3281  -7.2216  -7.1344  -7.0618  -6.9635
     4.6466   5.2635   5.3259   5.3748   5.4549   5.5940   5.9153   6.0256
     6.0864   6.1901   6.3112   6.3479   6.4019   6.4249   6.5141   6.5260
     6.6172   6.6180   6.6513   6.6541   6.7537   6.8181   6.9316   7.1443
    12.3083  12.3475  12.6631  12.8324  13.3960  13.6154  13.6784  14.1641
    14.2066  14.2767  14.3478  14.5574  14.8071

     occupation numbers 
     1.0000   1.0000   1.0000   1.0000   1.0000   1.0000   1.0000   1.0000
     1.0000   1.0000   1.0000   1.0000   1.0000   1.0000   1.0000   1.0000
     1.0000   1.0000   1.0000   1.0000   1.0000   1.0000   1.0000   1.0000
     1.0000   1.0000   1.0000   1.0000   1.0000   1.0000   1.0000   1.0000
     1.0000   1.0000   1.0000   1.0000   1.0000   1.0000   1.0000   1.0000
     1.0000   1.0000   1.0000   1.0000   1.0000   1.0000   1.0000   1.0000
     1.0000   1.0000   1.0000   1.0000   1.0000   1.0000   1.0000   1.0000
     1.0000   1.0000   1.0000   1.0000   1.0000   1.0000   1.0000   1.0000
     0.0000   0.0000   0.0000   0.0000   0.0000   0.0000   0.0000   0.0000
     0.0000   0.0000   0.0000   0.0000   0.0000

          k =-0.7071 0.0000 0.0000 (  6314 PWs)   bands (ev):

   -66.1845 -33.1368 -33.1368 -33.1368 -29.9286 -29.7530 -29.7135 -29.7134
   -29.7134 -29.7112 -29.6760 -11.5879 -11.5761 -11.5413 -11.5413 -11.2928
   -11.2565 -11.1791 -11.1441 -11.1176 -11.1176 -10.9906 -10.9906 -10.9501
   -10.9486 -10.9486 -10.8409 -10.8409 -10.7786 -10.7786 -10.7122 -10.7107
    -7.6273  -7.4660  -7.3175  -7.3099  -7.2025  -7.2025  -7.0162  -6.9490
     4.6433   5.2820   5.2820   5.3697   5.5774   5.7547   5.9368   5.9368
     6.1042   6.1083   6.1480   6.2796   6.3053   6.3053   6.4002   6.4002
     6.5207   6.6144   6.6247   6.6247   7.0304   7.0304   7.1669   7.1669
    12.1482  12.5954  12.8456  13.7743  13.7743  13.8165  13.8165  13.8589
    14.0238  14.0844  14.4934  14.5867  14.5869

     occupation numbers 
     1.0000   1.0000   1.0000   1.0000   1.0000   1.0000   1.0000   1.0000
     1.0000   1.0000   1.0000   1.0000   1.0000   1.0000   1.0000   1.0000
     1.0000   1.0000   1.0000   1.0000   1.0000   1.0000   1.0000   1.0000
     1.0000   1.0000   1.0000   1.0000   1.0000   1.0000   1.0000   1.0000
     1.0000   1.0000   1.0000   1.0000   1.0000   1.0000   1.0000   1.0000
     1.0000   1.0000   1.0000   1.0000   1.0000   1.0000   1.0000   1.0000
     1.0000   1.0000   1.0000   1.0000   1.0000   1.0000   1.0000   1.0000
     1.0000   1.0000   1.0000   1.0000   1.0000   1.0000   1.0000   1.0000
     0.0000   0.0000   0.0000   0.0000   0.0000   0.0000   0.0000   0.0000
     0.0000   0.0000   0.0000   0.0000   0.0000

          k =-0.7071 0.3536 0.0000 (  6228 PWs)   bands (ev):

   -66.1845 -33.1368 -33.1368 -33.1368 -29.9286 -29.7412 -29.7412 -29.7141
   -29.7105 -29.6867 -29.6867 -11.5476 -11.4519 -11.4519 -11.4449 -11.4363
   -11.4170 -11.4170 -11.1925 -11.0750 -11.0619 -10.9748 -10.9748 -10.9014
   -10.9005 -10.9005 -10.8350 -10.8230 -10.7926 -10.7606 -10.7509 -10.7509
    -7.4119  -7.4119  -7.3878  -7.2875  -7.1734  -7.1546  -7.1306  -7.1306
     4.7984   5.3681   5.4922   5.4922   5.6311   5.6328   5.6856   5.6856
     6.0176   6.0176   6.3118   6.3690   6.3690   6.4099   6.4278   6.4844
     6.5960   6.6410   6.6410   6.8012   6.8330   6.8330   6.9238   6.9677
    12.8354  12.8731  13.0974  13.1133  13.1133  13.8895  13.9181  13.9181
    13.9886  14.1856  14.4040  14.4040  14.6794

     occupation numbers 
     1.0000   1.0000   1.0000   1.0000   1.0000   1.0000   1.0000   1.0000
     1.0000   1.0000   1.0000   1.0000   1.0000   1.0000   1.0000   1.0000
     1.0000   1.0000   1.0000   1.0000   1.0000   1.0000   1.0000   1.0000
     1.0000   1.0000   1.0000   1.0000   1.0000   1.0000   1.0000   1.0000
     1.0000   1.0000   1.0000   1.0000   1.0000   1.0000   1.0000   1.0000
     1.0000   1.0000   1.0000   1.0000   1.0000   1.0000   1.0000   1.0000
     1.0000   1.0000   1.0000   1.0000   1.0000   1.0000   1.0000   1.0000
     1.0000   1.0000   1.0000   1.0000   1.0000   1.0000   1.0000   1.0000
     0.0000   0.0000   0.0000   0.0000   0.0000   0.0000   0.0000   0.0000
     0.0000   0.0000   0.0000   0.0000   0.0000

     the Fermi energy is    10.4511 ev

!    total energy              =    -909.15392900 Ry
     Harris-Foulkes estimate   =    -909.15392900 Ry
     estimated scf accuracy    <          3.9E-12 Ry

     The total energy is the sum of the following terms:

     one-electron contribution =    -279.08419531 Ry
     hartree contribution      =     197.46095809 Ry
     xc contribution           =    -157.89703767 Ry
     ewald contribution        =    -669.63365411 Ry
     smearing contrib. (-TS)   =      -0.00000000 Ry

     convergence has been achieved in  17 iterations

     Forces acting on atoms (Ry/au):

     atom    1 type  2   force =   0.13945222E-30  0.46484075E-31 -0.18593630E-30
     atom    2 type  3   force =   0.46484075E-31  0.46484075E-31  0.46484075E-31
     atom    3 type  1   force =   0.33700954E-30 -0.29052547E-30  0.34863056E-31
     atom    4 type  3   force =   0.00000000E+00  0.00000000E+00 -0.21133447E-01
     atom    5 type  1   force =   0.11621019E-30 -0.34863056E-30 -0.23242037E-31
     atom    6 type  3   force =   0.00000000E+00 -0.21133447E-01  0.00000000E+00
     atom    7 type  1   force =  -0.58105093E-31 -0.24404139E-30  0.24404139E-30
     atom    8 type  3   force =   0.21133447E-01  0.00000000E+00  0.00000000E+00
     atom    9 type  1   force =   0.30214649E-30 -0.34863056E-30  0.11621019E-30
     atom   10 type  3   force =  -0.21133447E-01  0.00000000E+00  0.00000000E+00
     atom   11 type  1   force =  -0.92968149E-31  0.27890445E-30  0.92968149E-31
     atom   12 type  3   force =   0.00000000E+00  0.21133447E-01  0.00000000E+00
     atom   13 type  1   force =  -0.46484075E-31  0.46484075E-31 -0.13945222E-30
     atom   14 type  3   force =   0.00000000E+00  0.00000000E+00  0.21133447E-01
     atom   15 type  1   force =  -0.46484075E-31 -0.46484075E-31  0.32538852E-30
     atom   16 type  3   force =  -0.37768311E-31 -0.61010348E-31 -0.43578820E-31
     The non-local contrib.  to forces
     atom    1 type  2   force =  -0.76159508E-27 -0.76159508E-27  0.76159508E-27
     atom    2 type  3   force =   0.15971806E-20  0.15971806E-20 -0.23957710E-20
     atom    3 type  1   force =   0.12185521E-25 -0.12185521E-25 -0.18278282E-25
     atom    4 type  3   force =  -0.71433330E-17  0.67344548E-17 -0.89177123E-01
     atom    5 type  1   force =  -0.12185521E-25 -0.12185521E-25  0.12947116E-25
     atom    6 type  3   force =   0.69388939E-17 -0.89177123E-01 -0.69388939E-17
     atom    7 type  1   force =   0.15231902E-26 -0.15231902E-26 -0.15231902E-26
     atom    8 type  3   force =   0.89177123E-01  0.00000000E+00  0.00000000E+00
     atom    9 type  1   force =  -0.15231902E-26 -0.15231902E-26  0.15231902E-26
     atom   10 type  3   force =  -0.89177123E-01  0.00000000E+00  0.00000000E+00
     atom   11 type  1   force =  -0.24371043E-25  0.00000000E+00  0.24371043E-25
     atom   12 type  3   force =   0.00000000E+00  0.89177123E-01  0.00000000E+00
     atom   13 type  1   force =  -0.60927606E-26 -0.60927606E-26  0.60927606E-26
     atom   14 type  3   force =   0.71433330E-17 -0.67344548E-17  0.89177123E-01
     atom   15 type  1   force =   0.00000000E+00  0.00000000E+00  0.00000000E+00
     atom   16 type  3   force =  -0.11978855E-20 -0.19964758E-20  0.43922468E-20
     The ionic contribution  to forces
     atom    1 type  2   force =  -0.86829044E-14 -0.86829044E-14  0.38745506E-14
     atom    2 type  3   force =  -0.18107505E-14 -0.18107505E-14  0.40590361E-14
     atom    3 type  1   force =  -0.14434751E-13 -0.14434751E-13 -0.27686014E-13
     atom    4 type  3   force =   0.10764282E-13  0.10764282E-13 -0.38398415E-14
     atom    5 type  1   force =   0.23722983E-13 -0.21741864E-13 -0.45058187E-14
     atom    6 type  3   force =   0.94003548E-14  0.15062950E-14  0.13907917E-13
     atom    7 type  1   force =   0.72158383E-14 -0.82499699E-14 -0.14962960E-13
     atom    8 type  3   force =  -0.12346125E-14  0.13347780E-14 -0.38109875E-14
     atom    9 type  1   force =  -0.21741864E-13  0.23722983E-13 -0.45058187E-14
     atom   10 type  3   force =   0.15062950E-14  0.94003548E-14  0.13907917E-13
     atom   11 type  1   force =  -0.82499699E-14  0.72158383E-14 -0.14962960E-13
     atom   12 type  3   force =   0.13347780E-14 -0.12346125E-14 -0.38109875E-14
     atom   13 type  1   force =   0.37563524E-14  0.37563524E-14  0.28500056E-13
     atom   14 type  3   force =  -0.10313636E-13 -0.10313636E-13 -0.80657494E-14
     atom   15 type  1   force =   0.74803465E-14  0.74803465E-14  0.18245349E-13
     atom   16 type  3   force =   0.12872579E-14  0.12872579E-14  0.36563108E-14
     The local contribution  to forces
     atom    1 type  2   force =   0.16618870E-14  0.90957654E-15  0.84589596E-15
     atom    2 type  3   force =   0.10266094E-13  0.96242458E-14  0.69232814E-14
     atom    3 type  1   force =   0.81174097E-14  0.74518233E-14 -0.20455642E-14
     atom    4 type  3   force =   0.10970391E-13  0.11921020E-13  0.66997925E-01
     atom    5 type  1   force =   0.89100408E-14 -0.11816201E-14  0.63445385E-14
     atom    6 type  3   force =   0.11136925E-13  0.66997925E-01  0.36403172E-14
     atom    7 type  1   force =   0.13288945E-13  0.72918031E-14  0.49809583E-14
     atom    8 type  3   force =  -0.66997925E-01  0.15997620E-13  0.12660012E-13
     atom    9 type  1   force =  -0.79519962E-15  0.83883078E-14  0.65239641E-14
     atom   10 type  3   force =   0.66997925E-01  0.11376317E-13  0.37036346E-14
     atom   11 type  1   force =   0.75858154E-14  0.12566162E-13  0.53853689E-14
     atom   12 type  3   force =   0.16292523E-13 -0.66997925E-01  0.12242811E-13
     atom   13 type  1   force =  -0.44258642E-15 -0.10587215E-15 -0.18876041E-14
     atom   14 type  3   force =   0.11594892E-13  0.11671220E-13 -0.66997925E-01
     atom   15 type  1   force =   0.12250134E-13  0.11777340E-13  0.95865680E-14
     atom   16 type  3   force =   0.18027246E-13  0.18936241E-13  0.20485350E-13
     The core correction contribution to forces
     atom    1 type  2   force =   0.00000000E+00  0.00000000E+00  0.00000000E+00
     atom    2 type  3   force =   0.36463074E-16  0.25167043E-16  0.33257902E-16
     atom    3 type  1   force =  -0.20133799E-15 -0.16730761E-15  0.31572586E-15
     atom    4 type  3   force =   0.24204814E-16  0.18065519E-16  0.10462726E-02
     atom    5 type  1   force =  -0.35587800E-15  0.31173806E-15 -0.25190540E-15
     atom    6 type  3   force =   0.15016200E-16  0.10462726E-02 -0.18675382E-16
     atom    7 type  1   force =  -0.51971213E-15 -0.67433662E-16  0.11519881E-15
     atom    8 type  3   force =  -0.10462726E-02  0.96331363E-16  0.76978354E-17
     atom    9 type  1   force =   0.28821855E-15 -0.34673456E-15 -0.27759299E-15
     atom   10 type  3   force =   0.10462726E-02  0.32526065E-16 -0.23527187E-16
     atom   11 type  1   force =  -0.23955245E-16 -0.46242245E-15  0.90518797E-16
     atom   12 type  3   force =   0.93946118E-16 -0.10462726E-02  0.28189256E-17
     atom   13 type  1   force =  -0.55164147E-15 -0.47032220E-15 -0.13618197E-14
     atom   14 type  3   force =  -0.35073940E-16 -0.16073297E-16 -0.10462726E-02
     atom   15 type  1   force =  -0.84579954E-15 -0.82467884E-15 -0.28785666E-15
     atom   16 type  3   force =   0.73935812E-16  0.75338498E-16  0.20220371E-16
     The Hubbard contrib.    to forces
     atom    1 type  2   force =   0.00000000E+00  0.00000000E+00  0.00000000E+00
     atom    2 type  3   force =   0.00000000E+00  0.00000000E+00  0.00000000E+00
     atom    3 type  1   force =   0.00000000E+00  0.00000000E+00  0.00000000E+00
     atom    4 type  3   force =   0.00000000E+00  0.00000000E+00  0.00000000E+00
     atom    5 type  1   force =   0.00000000E+00  0.00000000E+00  0.00000000E+00
     atom    6 type  3   force =   0.00000000E+00  0.00000000E+00  0.00000000E+00
     atom    7 type  1   force =   0.00000000E+00  0.00000000E+00  0.00000000E+00
     atom    8 type  3   force =   0.00000000E+00  0.00000000E+00  0.00000000E+00
     atom    9 type  1   force =   0.00000000E+00  0.00000000E+00  0.00000000E+00
     atom   10 type  3   force =   0.00000000E+00  0.00000000E+00  0.00000000E+00
     atom   11 type  1   force =   0.00000000E+00  0.00000000E+00  0.00000000E+00
     atom   12 type  3   force =   0.00000000E+00  0.00000000E+00  0.00000000E+00
     atom   13 type  1   force =   0.00000000E+00  0.00000000E+00  0.00000000E+00
     atom   14 type  3   force =   0.00000000E+00  0.00000000E+00  0.00000000E+00
     atom   15 type  1   force =   0.00000000E+00  0.00000000E+00  0.00000000E+00
     atom   16 type  3   force =   0.00000000E+00  0.00000000E+00  0.00000000E+00
     The SCF correction term to forces
     atom    1 type  2   force =   0.33482379E-16  0.26575039E-15  0.16035470E-15
     atom    2 type  3   force =   0.50032377E-16  0.35331838E-15  0.35886563E-15
     atom    3 type  1   force =  -0.43985358E-15 -0.28357202E-15  0.49616921E-15
     atom    4 type  3   force =  -0.48907268E-15 -0.14828382E-15 -0.52146230E-06
     atom    5 type  1   force =   0.23107575E-16 -0.10929600E-15 -0.40276994E-17
     atom    6 type  3   force =  -0.16279951E-15 -0.52146230E-06  0.67211687E-16
     atom    7 type  1   force =  -0.40188746E-15 -0.13898907E-15  0.39812636E-15
     atom    8 type  3   force =   0.52146230E-06 -0.29042152E-16  0.39296229E-15
     atom    9 type  1   force =   0.10470949E-15  0.17891410E-15  0.26064814E-15
     atom   10 type  3   force =  -0.52146230E-06 -0.32729462E-15 -0.11953371E-15
     atom   11 type  1   force =  -0.31601925E-15 -0.35494627E-15  0.51821670E-15
     atom   12 type  3   force =  -0.14241778E-15  0.52146230E-06  0.19202212E-15
     atom   13 type  1   force =   0.30212849E-15  0.10247247E-15  0.19705741E-16
     atom   14 type  3   force =   0.22227251E-15 -0.50261072E-16  0.52146230E-06
     atom   15 type  1   force =  -0.39739026E-15 -0.41886317E-15  0.34406123E-15
     atom   16 type  3   force =  -0.11663863E-15 -0.22551294E-15  0.73622516E-17

     Total force =     0.051766     Total SCF correction =     0.000001


     entering subroutine stress ...

          total   stress  (Ry/bohr**3)                   (kbar)     P=  -35.63
  -0.0002421912   0.0000000000   0.0000000000        -35.63      0.00      0.00
   0.0000000000  -0.0002421912   0.0000000000          0.00    -35.63      0.00
   0.0000000000   0.0000000000  -0.0002421912          0.00      0.00    -35.63

     kinetic stress (kbar)  18754.33     -0.00     -0.00
                               -0.00  18754.33     -0.00
                               -0.00     -0.00  18754.33

     local   stress (kbar)  -2566.25      0.00      0.00
                                0.00  -2566.25      0.00
                                0.00      0.00  -2566.25

     nonloc. stress (kbar)   4501.76      0.00      0.00
                                0.00   4501.76      0.00
                                0.00      0.00   4501.76

     hartree stress (kbar)   6615.33     -0.00      0.00
                               -0.00   6615.33      0.00
                                0.00      0.00   6615.33

     exc-cor stress (kbar)  -3496.35     -0.00      0.00
                               -0.00  -3496.35      0.00
                                0.00      0.00  -3496.35

     corecor stress (kbar)  -1410.41     -0.00      0.00
                               -0.00  -1410.41      0.00
                                0.00      0.00  -1410.41

     ewald   stress (kbar) -22434.03     -0.00      0.00
                               -0.00 -22434.03     -0.00
                                0.00     -0.00 -22434.03

     hubbard stress (kbar)      0.00      0.00      0.00
                                0.00      0.00      0.00
                                0.00      0.00      0.00

     london  stress (kbar)      0.00      0.00      0.00
                                0.00      0.00      0.00
                                0.00      0.00      0.00

     XDM     stress (kbar)      0.00      0.00      0.00
                                0.00      0.00      0.00
                                0.00      0.00      0.00

     dft-nl  stress (kbar)      0.00      0.00      0.00
                                0.00      0.00      0.00
                                0.00      0.00      0.00



     Writing output data file CaO_rocksalt.relax.in.up_1.00.super.222.sub1.save

     init_run     :      9.86s CPU     11.27s WALL (       1 calls)
     electrons    :    253.83s CPU    284.98s WALL (       1 calls)
     forces       :      2.12s CPU      2.03s WALL (       1 calls)
     stress       :      5.46s CPU      5.57s WALL (       1 calls)

     Called by init_run:
     wfcinit      :      8.02s CPU      9.36s WALL (       1 calls)
     potinit      :      0.14s CPU      0.16s WALL (       1 calls)

     Called by electrons:
     c_bands      :    210.04s CPU    238.44s WALL (      17 calls)
     sum_band     :     35.52s CPU     37.79s WALL (      17 calls)
     v_of_rho     :      1.06s CPU      1.21s WALL (      18 calls)
     v_h          :      0.07s CPU      0.07s WALL (      18 calls)
     v_xc         :      1.09s CPU      1.25s WALL (      20 calls)
     newd         :      6.11s CPU      6.37s WALL (      18 calls)
     mix_rho      :      1.51s CPU      1.58s WALL (      17 calls)

     Called by c_bands:
     init_us_2    :      1.16s CPU      1.25s WALL (     296 calls)
     cegterg      :    204.37s CPU    232.19s WALL (     136 calls)

     Called by sum_band:
     sum_band:bec :      0.17s CPU      0.18s WALL (     136 calls)
     addusdens    :      5.67s CPU      5.83s WALL (      17 calls)

     Called by *egterg:
     h_psi        :    123.87s CPU    130.40s WALL (     525 calls)
     s_psi        :     11.97s CPU     11.11s WALL (     525 calls)
     g_psi        :      0.12s CPU      0.14s WALL (     381 calls)
     cdiaghg      :     28.68s CPU     46.60s WALL (     517 calls)
     cegterg:over :     22.46s CPU     24.20s WALL (     381 calls)
     cegterg:upda :      6.15s CPU      6.68s WALL (     381 calls)
     cegterg:last :      3.14s CPU      2.94s WALL (     136 calls)

     Called by h_psi:
     h_psi:vloc   :     91.94s CPU     97.89s WALL (     525 calls)
     h_psi:vnl    :     31.76s CPU     32.32s WALL (     525 calls)
     add_vuspsi   :     12.30s CPU     11.67s WALL (     525 calls)

     General routines
     calbec       :     28.03s CPU     29.80s WALL (     677 calls)
     fft          :      1.83s CPU      1.94s WALL (     309 calls)
     ffts         :      0.96s CPU      1.03s WALL (     439 calls)
     fftw         :    106.46s CPU    113.49s WALL (   60738 calls)
     interpolate  :      0.21s CPU      0.21s WALL (      35 calls)

     Parallel routines
     fft_scatter  :     50.71s CPU     55.52s WALL (   61486 calls)

     PWSCF        :  4m32.47s CPU     5m 5.23s WALL


   This run was terminated on:  11: 9:40  21Aug2017            

=------------------------------------------------------------------------------=
   JOB DONE.
=------------------------------------------------------------------------------=
