
     Program PWSCF v.5.1 starts on 21Aug2017 at 10:55: 6 

     This program is part of the open-source Quantum ESPRESSO suite
     for quantum simulation of materials; please cite
         "P. Giannozzi et al., J. Phys.:Condens. Matter 21 395502 (2009);
          URL http://www.quantum-espresso.org", 
     in publications or presentations arising from this work. More details at
     http://www.quantum-espresso.org/quote

     Parallel version (MPI), running on     8 processors
     R & G space division:  proc/nbgrp/npool/nimage =       8
     Reading input from /tmp/CaO_rocksalt.relax.in.up_1.00.super.222.02.10485/CaO_rocksalt.relax.in.up_1.00.super.222.02.t
Warning: card &IONS ignored
Warning: card   ION_DYNAMICS='BFGS', ignored
Warning: card / ignored
Warning: card &CELL ignored
Warning: card  CELL_DYNAMICS = 'BFGS' ignored
Warning: card / ignored
     Message from routine read_cards :
     DEPRECATED: no units specified in CELL_PARAMETERS card

     Current dimensions of program PWSCF are:
     Max number of different atomic species (ntypx) = 10
     Max number of k-points (npk) =  40000
     Max angular momentum in pseudopotentials (lmaxx) =  3
 kfg - two_fermi_energies  F

     Subspace diagonalization in iterative solution of the eigenvalue problem:
     a serial algorithm will be used


     Parallelization info
     --------------------
     sticks:   dense  smooth     PW     G-vecs:    dense   smooth      PW
     Min         279     223     62                 8755     6264     922
     Max         280     224     63                 8759     6294     926
     Sum        2233    1789    499                70049    50237    7391



     bravais-lattice index     =            0
     lattice parameter (alat)  =    12.744332997  a.u.
     unit-cell volume          =    1463.6470 (a.u.)^3
     number of atoms/cell      =           16
     number of atomic types    =            2
     number of electrons       =       128.00
     number of Kohn-Sham states=           77
     kinetic-energy cutoff     =      40.0000  Ry
     charge density cutoff     =     200.0000  Ry
     convergence threshold     =      1.0E-10
     mixing beta               =       0.3000
     number of iterations used =            8  local-TF  mixing
     Exchange-correlation      = SLA  PW   PSX  PSC ( 1  4 10  8 0)
     A smooth kinetic-energy cutoff is imposed at      39.5000 Ry
     height of the smooth step-function =             800.0000 Ry
     width of the smooth step-function  =               1.0000 Ry


     celldm(1)=  12.744333  celldm(2)=   0.000000  celldm(3)=   0.000000
     celldm(4)=   0.000000  celldm(5)=   0.000000  celldm(6)=   0.000000

     crystal axes: (cart. coord. in units of alat)
               a(1) = (   0.000000000000   0.707106781187   0.707106781187 )  
               a(2) = (   0.707106781187   0.000000000000   0.707106781187 )  
               a(3) = (   0.707106781187   0.707106781187   0.000000000000 )  

     reciprocal axes: (cart. coord. in units 2 pi/alat)
               b(1) = ( -0.707107  0.707107  0.707107 )  
               b(2) = (  0.707107 -0.707107  0.707107 )  
               b(3) = (  0.707107  0.707107 -0.707107 )  


     PseudoPot. # 1 for Ca read from file:
     /users/kfg/psuedo/gbrv_1.5/ca.pbesol.UPF
     MD5 check sum: 0533207b58cddeaa036efa5b63902087
     Pseudo is Ultrasoft + core correction, Zval = 10.0
     Generated by new atomic code, or converted to UPF format
     Using radial grid of  845 points,  6 beta functions with: 
                l(1) =   0
                l(2) =   0
                l(3) =   1
                l(4) =   1
                l(5) =   2
                l(6) =   2
     Q(r) pseudized with  8 coefficients,  rinner =    1.500   1.500   1.500
                                                       1.500   1.500

     PseudoPot. # 2 for O  read from file:
     /users/kfg/psuedo/gbrv_1.5/o.pbesol.UPF
     MD5 check sum: 501638753501ef6325af9037351f7734
     Pseudo is Ultrasoft + core correction, Zval =  6.0
     Generated by new atomic code, or converted to UPF format
     Using radial grid of  737 points,  5 beta functions with: 
                l(1) =   0
                l(2) =   0
                l(3) =   1
                l(4) =   1
                l(5) =   2
     Q(r) pseudized with  8 coefficients,  rinner =    0.900   0.900   0.900
                                                       0.900   0.900

     atomic species   valence    mass     pseudopotential
        Ca            10.00    40.07800     Ca( 1.00)
        O              6.00    15.99940     O ( 1.00)

     No symmetry found


                                    s                        frac. trans.

      isym =  1     identity                                     

 cryst.   s( 1) = (     1          0          0      )
                  (     0          1          0      )
                  (     0          0          1      )

 cart.    s( 1) = (  1.0000000  0.0000000  0.0000000 )
                  (  0.0000000  1.0000000  0.0000000 )
                  (  0.0000000  0.0000000  1.0000000 )


     point group C_1 (1)    
     there are  1 classes
     the character table:

       E    
A      1.00

     the symmetry operations in each class:
     E        1

   Cartesian axes

     site n.     atom                  positions (alat units)
         1           Ca  tau(   1) = (   -0.00007789960    0.00051603710    0.00043089832  )
         2           O   tau(   2) = (    0.35331026533    0.35342741995    0.35342195161  )
         3           Ca  tau(   3) = (    0.35324593991    0.35303979409   -0.00044900939  )
         4           O   tau(   4) = (    0.70748305742    0.70672495724    0.35426155058  )
         5           Ca  tau(   5) = (    0.35400328765    0.00059327075    0.35429968072  )
         6           O   tau(   6) = (    0.70673616818    0.35342299987    0.70753760838  )
         7           Ca  tau(   7) = (    0.70716901857    0.35364890210    0.35398122848  )
         8           O   tau(   8) = (    1.06043639872    0.70783427881    0.70744503188  )
         9           Ca  tau(   9) = (   -0.00076475358    0.35279075901    0.35410222053  )
        10           O   tau(  10) = (    0.35304447356    0.70655761025    0.70648143652  )
        11           Ca  tau(  11) = (    0.35351269856    0.70686369754    0.35385605441  )
        12           O   tau(  12) = (    0.70762163959    1.06003718086    0.70707622084  )
        13           Ca  tau(  13) = (    0.35357218290    0.35285862110    0.70670445435  )
        14           O   tau(  14) = (    0.70707925553    0.70667379542    1.06128542856  )
        15           Ca  tau(  15) = (    0.70728072999    0.70634079477    0.70639507144  )
        16           O   tau(  16) = (    1.06139207788    1.06039916161    1.06029584647  )

   Crystallographic axes

     site n.     atom                  positions (cryst. coord.)
         1           Ca  tau(   1) = (    0.00072466779   -0.00011528554    0.00000511887  )
         2           O   tau(   2) = (    0.24998989944    0.24982421777    0.24983195118  )
         3           Ca  tau(   3) = (   -0.00046326469   -0.00017173048    0.49973692955  )
         4           O   tau(   4) = (    0.24996468694    0.25103680251    0.74949533245  )
         5           Ca  tau(   5) = (    0.00062908731    0.50042632630    0.00020992422  )
         6           O   tau(   6) = (    0.25047450363    0.75013477803    0.24934109603  )
         7           Ca  tau(   7) = (    0.00032605543    0.50027899872    0.49980901823  )
         8           O   tau(   8) = (    0.25091182931    0.74956652940    0.75011700770  )
         9           Ca  tau(   9) = (    0.50038958185    0.00038658089   -0.00146810578  )
        10           O   tau(  10) = (    0.74952935074    0.24958627835    0.24969400427  )
        11           Ca  tau(  11) = (    0.50007090316    0.00035712812    0.49958532465  )
        12           O   tau(  12) = (    0.74917380960    0.25078297154    0.74994514820  )
        13           Ca  tau(  13) = (    0.49921094758    0.50022007636   -0.00019350002  )
        14           O   tau(  14) = (    0.75015541972    0.75072882691    0.24923224594  )
        15           Ca  tau(  15) = (    0.49883211065    0.50016137978    0.50008462098  )
        16           O   tau(  16) = (    0.74904028527    0.75044448093    0.75059059060  )

     number of k points=    36  gaussian smearing, width (Ry)=  0.0050
                       cart. coord. in units 2pi/alat
        k(    1) = (   0.0000000   0.0000000   0.0000000), wk =   0.0312500
        k(    2) = (   0.1767767   0.1767767  -0.1767767), wk =   0.0625000
        k(    3) = (  -0.3535534  -0.3535534   0.3535534), wk =   0.0312500
        k(    4) = (   0.3535534   0.0000000   0.0000000), wk =   0.0625000
        k(    5) = (  -0.1767767  -0.5303301   0.5303301), wk =   0.0625000
        k(    6) = (   0.0000000  -0.3535534   0.3535534), wk =   0.0625000
        k(    7) = (  -0.7071068   0.0000000   0.0000000), wk =   0.0312500
        k(    8) = (  -0.7071068   0.3535534   0.0000000), wk =   0.0625000
        k(    9) = (  -0.1767767  -0.1767767  -0.1767767), wk =   0.0625000
        k(   10) = (  -0.1767767   0.1767767   0.1767767), wk =   0.0625000
        k(   11) = (   0.1767767  -0.1767767   0.1767767), wk =   0.0625000
        k(   12) = (   0.3535534   0.3535534   0.3535534), wk =   0.0312500
        k(   13) = (   0.3535534  -0.3535534  -0.3535534), wk =   0.0312500
        k(   14) = (  -0.3535534   0.3535534  -0.3535534), wk =   0.0312500
        k(   15) = (   0.0000000   0.3535534   0.0000000), wk =   0.0625000
        k(   16) = (   0.0000000   0.0000000   0.3535534), wk =   0.0625000
        k(   17) = (   0.1767767   0.5303301   0.5303301), wk =   0.0625000
        k(   18) = (   0.1767767  -0.5303301  -0.5303301), wk =   0.0625000
        k(   19) = (  -0.1767767   0.5303301  -0.5303301), wk =   0.0625000
        k(   20) = (  -0.5303301  -0.1767767  -0.5303301), wk =   0.0625000
        k(   21) = (   0.5303301   0.1767767  -0.5303301), wk =   0.0625000
        k(   22) = (  -0.5303301   0.1767767   0.5303301), wk =   0.0625000
        k(   23) = (   0.5303301  -0.1767767   0.5303301), wk =   0.0625000
        k(   24) = (   0.5303301   0.5303301  -0.1767767), wk =   0.0625000
        k(   25) = (  -0.5303301   0.5303301   0.1767767), wk =   0.0625000
        k(   26) = (   0.5303301  -0.5303301   0.1767767), wk =   0.0625000
        k(   27) = (  -0.5303301  -0.5303301  -0.1767767), wk =   0.0625000
        k(   28) = (   0.0000000   0.3535534   0.3535534), wk =   0.0625000
        k(   29) = (  -0.3535534   0.0000000  -0.3535534), wk =   0.0625000
        k(   30) = (   0.3535534   0.0000000  -0.3535534), wk =   0.0625000
        k(   31) = (   0.3535534   0.3535534   0.0000000), wk =   0.0625000
        k(   32) = (  -0.3535534   0.3535534   0.0000000), wk =   0.0625000
        k(   33) = (   0.0000000  -0.7071068   0.0000000), wk =   0.0312500
        k(   34) = (   0.0000000   0.0000000  -0.7071068), wk =   0.0312500
        k(   35) = (   0.3535534  -0.7071068   0.0000000), wk =   0.0625000
        k(   36) = (   0.7071068   0.0000000   0.3535534), wk =   0.0625000

                       cryst. coord.
        k(    1) = (   0.0000000   0.0000000   0.0000000), wk =   0.0312500
        k(    2) = (   0.0000000   0.0000000   0.2500000), wk =   0.0625000
        k(    3) = (   0.0000000   0.0000000  -0.5000000), wk =   0.0312500
        k(    4) = (   0.0000000   0.2500000   0.2500000), wk =   0.0625000
        k(    5) = (   0.0000000   0.2500000  -0.5000000), wk =   0.0625000
        k(    6) = (   0.0000000   0.2500000  -0.2500000), wk =   0.0625000
        k(    7) = (   0.0000000  -0.5000000  -0.5000000), wk =   0.0312500
        k(    8) = (   0.2500000  -0.5000000  -0.2500000), wk =   0.0625000
        k(    9) = (  -0.2500000  -0.2500000  -0.2500000), wk =   0.0625000
        k(   10) = (   0.2500000   0.0000000   0.0000000), wk =   0.0625000
        k(   11) = (   0.0000000   0.2500000   0.0000000), wk =   0.0625000
        k(   12) = (   0.5000000   0.5000000   0.5000000), wk =   0.0312500
        k(   13) = (  -0.5000000   0.0000000   0.0000000), wk =   0.0312500
        k(   14) = (   0.0000000  -0.5000000   0.0000000), wk =   0.0312500
        k(   15) = (   0.2500000   0.0000000   0.2500000), wk =   0.0625000
        k(   16) = (   0.2500000   0.2500000   0.0000000), wk =   0.0625000
        k(   17) = (   0.7500000   0.5000000   0.5000000), wk =   0.0625000
        k(   18) = (  -0.7500000  -0.2500000  -0.2500000), wk =   0.0625000
        k(   19) = (   0.0000000  -0.5000000   0.2500000), wk =   0.0625000
        k(   20) = (  -0.5000000  -0.7500000  -0.5000000), wk =   0.0625000
        k(   21) = (  -0.2500000   0.0000000   0.5000000), wk =   0.0625000
        k(   22) = (   0.5000000   0.0000000  -0.2500000), wk =   0.0625000
        k(   23) = (   0.2500000   0.7500000   0.2500000), wk =   0.0625000
        k(   24) = (   0.2500000   0.2500000   0.7500000), wk =   0.0625000
        k(   25) = (   0.5000000  -0.2500000   0.0000000), wk =   0.0625000
        k(   26) = (  -0.2500000   0.5000000   0.0000000), wk =   0.0625000
        k(   27) = (  -0.5000000  -0.5000000  -0.7500000), wk =   0.0625000
        k(   28) = (   0.5000000   0.2500000   0.2500000), wk =   0.0625000
        k(   29) = (  -0.2500000  -0.5000000  -0.2500000), wk =   0.0625000
        k(   30) = (  -0.2500000   0.0000000   0.2500000), wk =   0.0625000
        k(   31) = (   0.2500000   0.2500000   0.5000000), wk =   0.0625000
        k(   32) = (   0.2500000  -0.2500000   0.0000000), wk =   0.0625000
        k(   33) = (  -0.5000000   0.0000000  -0.5000000), wk =   0.0312500
        k(   34) = (  -0.5000000  -0.5000000   0.0000000), wk =   0.0312500
        k(   35) = (  -0.5000000   0.2500000  -0.2500000), wk =   0.0625000
        k(   36) = (   0.2500000   0.7500000   0.5000000), wk =   0.0625000

     Dense  grid:    70049 G-vectors     FFT dimensions: (  60,  60,  60)

     Smooth grid:    50237 G-vectors     FFT dimensions: (  54,  54,  54)

     Largest allocated arrays     est. size (Mb)     dimensions
        Kohn-Sham Wavefunctions         0.95 Mb     (     805,   77)
        NL pseudopotentials             3.05 Mb     (     805,  248)
        Each V/rho on FFT grid          0.44 Mb     (   28800)
        Each G-vector array             0.07 Mb     (    8759)
        G-vector shells                 0.00 Mb     (     548)
     Largest temporary arrays     est. size (Mb)     dimensions
        Auxiliary wavefunctions         3.78 Mb     (     805,  308)
        Each subspace H/S matrix        1.45 Mb     (     308,  308)
        Each <psi_i|beta_j> matrix      0.29 Mb     (     248,   77)
        Arrays for rho mixing           3.52 Mb     (   28800,    8)

     Check: negative/imaginary core charge=   -0.000003    0.000000

     Initial potential from superposition of free atoms

     starting charge  127.95858, renormalised to  128.00000
     Starting wfc are  112 randomized atomic wfcs

     total cpu time spent up to now is       22.2 secs

     per-process dynamical memory:    55.0 Mb

     Self-consistent Calculation

     iteration #  1     ecut=    40.00 Ry     beta=0.30
     Davidson diagonalization with overlap
     ethr =  1.00E-02,  avg # of iterations =  2.4

     total cpu time spent up to now is       69.2 secs

     total energy              =    -859.13121584 Ry
     Harris-Foulkes estimate   =    -859.84525204 Ry
     estimated scf accuracy    <       3.61053859 Ry

     iteration #  2     ecut=    40.00 Ry     beta=0.30
     Davidson diagonalization with overlap
     ethr =  2.82E-03,  avg # of iterations =  1.3

     total cpu time spent up to now is      110.0 secs

     total energy              =    -858.73673186 Ry
     Harris-Foulkes estimate   =    -859.25721323 Ry
     estimated scf accuracy    <       1.35211581 Ry

     iteration #  3     ecut=    40.00 Ry     beta=0.30
     Davidson diagonalization with overlap
     ethr =  1.06E-03,  avg # of iterations =  2.1

     total cpu time spent up to now is      160.6 secs

     total energy              =    -858.97560868 Ry
     Harris-Foulkes estimate   =    -858.99915235 Ry
     estimated scf accuracy    <       0.08778906 Ry

     iteration #  4     ecut=    40.00 Ry     beta=0.30
     Davidson diagonalization with overlap
     ethr =  6.86E-05,  avg # of iterations =  2.8

     total cpu time spent up to now is      215.4 secs

     total energy              =    -858.97625871 Ry
     Harris-Foulkes estimate   =    -858.99988728 Ry
     estimated scf accuracy    <       0.07660536 Ry

     iteration #  5     ecut=    40.00 Ry     beta=0.30
     Davidson diagonalization with overlap
     ethr =  5.98E-05,  avg # of iterations =  2.0

     total cpu time spent up to now is      262.9 secs

     total energy              =    -858.98529957 Ry
     Harris-Foulkes estimate   =    -858.98530035 Ry
     estimated scf accuracy    <       0.00014583 Ry

     iteration #  6     ecut=    40.00 Ry     beta=0.30
     Davidson diagonalization with overlap
     c_bands:  1 eigenvalues not converged
     c_bands:  2 eigenvalues not converged
     c_bands:  2 eigenvalues not converged
     c_bands:  2 eigenvalues not converged
     c_bands:  1 eigenvalues not converged
     c_bands:  2 eigenvalues not converged
     c_bands:  1 eigenvalues not converged
     c_bands:  2 eigenvalues not converged
     c_bands:  2 eigenvalues not converged
     c_bands:  1 eigenvalues not converged
     c_bands:  2 eigenvalues not converged
     c_bands:  2 eigenvalues not converged
     ethr =  1.14E-07,  avg # of iterations = 11.4

     total cpu time spent up to now is      394.1 secs

     total energy              =    -858.98546307 Ry
     Harris-Foulkes estimate   =    -858.98544373 Ry
     estimated scf accuracy    <       0.00007967 Ry

     iteration #  7     ecut=    40.00 Ry     beta=0.30
     Davidson diagonalization with overlap
     ethr =  6.22E-08,  avg # of iterations =  5.0

     total cpu time spent up to now is      467.8 secs

     total energy              =    -858.98541059 Ry
     Harris-Foulkes estimate   =    -858.98557709 Ry
     estimated scf accuracy    <       0.00049809 Ry

     iteration #  8     ecut=    40.00 Ry     beta=0.30
     Davidson diagonalization with overlap
     ethr =  6.22E-08,  avg # of iterations =  3.0

     total cpu time spent up to now is      526.6 secs

     total energy              =    -858.98547872 Ry
     Harris-Foulkes estimate   =    -858.98547852 Ry
     estimated scf accuracy    <       0.00000681 Ry

     iteration #  9     ecut=    40.00 Ry     beta=0.30
     Davidson diagonalization with overlap
     ethr =  5.32E-09,  avg # of iterations =  2.0

     total cpu time spent up to now is      574.6 secs

     total energy              =    -858.98547349 Ry
     Harris-Foulkes estimate   =    -858.98547956 Ry
     estimated scf accuracy    <       0.00001347 Ry

     iteration # 10     ecut=    40.00 Ry     beta=0.30
     Davidson diagonalization with overlap
     ethr =  5.32E-09,  avg # of iterations =  3.0

     total cpu time spent up to now is      632.8 secs

     total energy              =    -858.98547645 Ry
     Harris-Foulkes estimate   =    -858.98547757 Ry
     estimated scf accuracy    <       0.00000369 Ry

     iteration # 11     ecut=    40.00 Ry     beta=0.30
     Davidson diagonalization with overlap
     ethr =  2.88E-09,  avg # of iterations =  2.0

     total cpu time spent up to now is      680.5 secs

     total energy              =    -858.98547656 Ry
     Harris-Foulkes estimate   =    -858.98547679 Ry
     estimated scf accuracy    <       0.00000043 Ry

     iteration # 12     ecut=    40.00 Ry     beta=0.30
     Davidson diagonalization with overlap
     ethr =  3.36E-10,  avg # of iterations =  2.8

     total cpu time spent up to now is      740.1 secs

     total energy              =    -858.98547667 Ry
     Harris-Foulkes estimate   =    -858.98547665 Ry
     estimated scf accuracy    <       0.00000001 Ry

     iteration # 13     ecut=    40.00 Ry     beta=0.30
     Davidson diagonalization with overlap
     ethr =  9.09E-12,  avg # of iterations =  2.3

     total cpu time spent up to now is      789.6 secs

     total energy              =    -858.98547668 Ry
     Harris-Foulkes estimate   =    -858.98547667 Ry
     estimated scf accuracy    <          2.9E-09 Ry

     iteration # 14     ecut=    40.00 Ry     beta=0.30
     Davidson diagonalization with overlap
     ethr =  2.26E-12,  avg # of iterations =  2.8

     total cpu time spent up to now is      842.2 secs

     total energy              =    -858.98547668 Ry
     Harris-Foulkes estimate   =    -858.98547668 Ry
     estimated scf accuracy    <          8.2E-10 Ry

     iteration # 15     ecut=    40.00 Ry     beta=0.30
     Davidson diagonalization with overlap
     ethr =  6.44E-13,  avg # of iterations =  2.0

     total cpu time spent up to now is      896.2 secs

     End of self-consistent calculation

          k = 0.0000 0.0000 0.0000 (  6231 PWs)   bands (ev):

   -29.4053 -29.2941 -29.2884 -29.2859 -29.2851 -29.2497 -29.2469 -29.2413
   -11.4846 -11.4845 -11.4845 -11.4845 -10.9009 -10.9008 -10.9007 -10.4824
   -10.4822 -10.4820 -10.4816 -10.4815 -10.4813 -10.2874 -10.2873 -10.2856
   -10.2851 -10.2849 -10.2847 -10.2844 -10.2842 -10.2266 -10.2251 -10.2246
    -7.5479  -7.3061  -7.3061  -7.3060  -6.2183  -6.2183  -6.2182  -6.2182
     5.1529   5.1529   5.1530   5.1530   6.5808   6.5810   6.5816   6.6355
     6.6357   6.6358   6.6358   6.6359   6.6361   6.6367   6.6368   7.5185
     7.5186   7.5187   7.5187   7.5188   7.5188   7.8909   7.8910   7.8910
    11.4418  11.4418  11.4419  12.6800  14.1611  14.1613  14.1614  15.0342
    15.0346  15.0346  15.0349  15.7392  15.7393

     occupation numbers 
     1.0000   1.0000   1.0000   1.0000   1.0000   1.0000   1.0000   1.0000
     1.0000   1.0000   1.0000   1.0000   1.0000   1.0000   1.0000   1.0000
     1.0000   1.0000   1.0000   1.0000   1.0000   1.0000   1.0000   1.0000
     1.0000   1.0000   1.0000   1.0000   1.0000   1.0000   1.0000   1.0000
     1.0000   1.0000   1.0000   1.0000   1.0000   1.0000   1.0000   1.0000
     1.0000   1.0000   1.0000   1.0000   1.0000   1.0000   1.0000   1.0000
     1.0000   1.0000   1.0000   1.0000   1.0000   1.0000   1.0000   1.0000
     1.0000   1.0000   1.0000   1.0000   1.0000   1.0000   1.0000   1.0000
     0.0000   0.0000   0.0000   0.0000   0.0000   0.0000   0.0000   0.0000
     0.0000   0.0000   0.0000   0.0000   0.0000

          k = 0.1768 0.1768-0.1768 (  6234 PWs)   bands (ev):

   -29.3885 -29.3054 -29.2900 -29.2812 -29.2807 -29.2546 -29.2522 -29.2449
   -11.3810 -11.3808 -11.3805 -11.3403 -10.9083 -10.9073 -10.9065 -10.5673
   -10.5654 -10.5635 -10.4751 -10.4542 -10.4541 -10.4532 -10.3578 -10.3568
   -10.3560 -10.3157 -10.3144 -10.3135 -10.2777 -10.2772 -10.2348 -10.2334
    -7.2923  -7.1200  -7.1199  -7.1197  -6.3753  -6.3589  -6.3588  -6.3588
     5.4183   5.4192   5.4200   5.4653   6.4882   6.4884   6.4887   6.6561
     6.6569   6.6576   6.7585   6.7586   6.7588   6.7908   6.7911   7.1955
     7.1972   7.1989   7.3372   7.3817   7.3820   7.3821   7.6702   7.6703
    11.9637  11.9665  11.9693  13.3744  14.1125  14.4364  14.4371  14.6338
    14.6378  14.6425  14.6602  15.5514  15.5528

     occupation numbers 
     1.0000   1.0000   1.0000   1.0000   1.0000   1.0000   1.0000   1.0000
     1.0000   1.0000   1.0000   1.0000   1.0000   1.0000   1.0000   1.0000
     1.0000   1.0000   1.0000   1.0000   1.0000   1.0000   1.0000   1.0000
     1.0000   1.0000   1.0000   1.0000   1.0000   1.0000   1.0000   1.0000
     1.0000   1.0000   1.0000   1.0000   1.0000   1.0000   1.0000   1.0000
     1.0000   1.0000   1.0000   1.0000   1.0000   1.0000   1.0000   1.0000
     1.0000   1.0000   1.0000   1.0000   1.0000   1.0000   1.0000   1.0000
     1.0000   1.0000   1.0000   1.0000   1.0000   1.0000   1.0000   1.0000
     0.0000   0.0000   0.0000   0.0000   0.0000   0.0000   0.0000   0.0000
     0.0000   0.0000   0.0000   0.0000   0.0000

          k =-0.3536-0.3536 0.3536 (  6266 PWs)   bands (ev):

   -29.3535 -29.3401 -29.2864 -29.2729 -29.2726 -29.2632 -29.2606 -29.2489
   -11.1269 -11.1233 -11.1224 -11.1145 -11.1140 -11.1101 -10.9568 -10.9482
   -10.5311 -10.5203 -10.5186 -10.5105 -10.5088 -10.4985 -10.3957 -10.3922
   -10.3859 -10.3829 -10.3786 -10.3732 -10.2631 -10.2622 -10.2499 -10.2488
    -6.7945  -6.7883  -6.7265  -6.7250  -6.7220  -6.7136  -6.7103  -6.7096
     6.0390   6.0445   6.0473   6.0505   6.0535   6.0585   6.2979   6.3021
     6.7617   6.7669   6.7714   6.7795   6.7858   6.7874   7.0551   7.0592
     7.0616   7.0642   7.0661   7.0713   7.1951   7.1963   7.2025   7.2048
    13.2115  13.2151  13.2227  13.2276  13.2342  13.2408  14.1651  14.1768
    14.8454  14.8604  15.1571  15.1673  15.1694

     occupation numbers 
     1.0000   1.0000   1.0000   1.0000   1.0000   1.0000   1.0000   1.0000
     1.0000   1.0000   1.0000   1.0000   1.0000   1.0000   1.0000   1.0000
     1.0000   1.0000   1.0000   1.0000   1.0000   1.0000   1.0000   1.0000
     1.0000   1.0000   1.0000   1.0000   1.0000   1.0000   1.0000   1.0000
     1.0000   1.0000   1.0000   1.0000   1.0000   1.0000   1.0000   1.0000
     1.0000   1.0000   1.0000   1.0000   1.0000   1.0000   1.0000   1.0000
     1.0000   1.0000   1.0000   1.0000   1.0000   1.0000   1.0000   1.0000
     1.0000   1.0000   1.0000   1.0000   1.0000   1.0000   1.0000   1.0000
     0.0000   0.0000   0.0000   0.0000   0.0000   0.0000   0.0000   0.0000
     0.0000   0.0000   0.0000   0.0000   0.0000

          k = 0.3536 0.0000 0.0000 (  6254 PWs)   bands (ev):

   -29.3829 -29.2972 -29.2892 -29.2868 -29.2856 -29.2660 -29.2471 -29.2429
   -11.3443 -11.3440 -11.3436 -11.3433 -10.9220 -10.8409 -10.8408 -10.6069
   -10.6065 -10.5446 -10.5445 -10.4818 -10.4451 -10.4447 -10.3823 -10.3809
   -10.3803 -10.3786 -10.2911 -10.2876 -10.2857 -10.2851 -10.2626 -10.2595
    -7.2484  -7.1148  -7.0773  -7.0772  -6.3784  -6.3782  -6.3781  -6.3780
     5.4571   5.4591   5.4602   5.4623   6.2762   6.6235   6.6242   6.6850
     6.6863   6.6867   6.6881   6.8049   6.8068   6.8084   6.8099   7.0148
     7.0155   7.0241   7.2193   7.2193   7.5201   7.5203   7.7682   7.7683
    11.7349  12.3159  12.3159  13.4387  13.5994  14.7134  14.7249  14.7296
    14.7418  14.7610  14.7644  15.5160  15.5186

     occupation numbers 
     1.0000   1.0000   1.0000   1.0000   1.0000   1.0000   1.0000   1.0000
     1.0000   1.0000   1.0000   1.0000   1.0000   1.0000   1.0000   1.0000
     1.0000   1.0000   1.0000   1.0000   1.0000   1.0000   1.0000   1.0000
     1.0000   1.0000   1.0000   1.0000   1.0000   1.0000   1.0000   1.0000
     1.0000   1.0000   1.0000   1.0000   1.0000   1.0000   1.0000   1.0000
     1.0000   1.0000   1.0000   1.0000   1.0000   1.0000   1.0000   1.0000
     1.0000   1.0000   1.0000   1.0000   1.0000   1.0000   1.0000   1.0000
     1.0000   1.0000   1.0000   1.0000   1.0000   1.0000   1.0000   1.0000
     0.0000   0.0000   0.0000   0.0000   0.0000   0.0000   0.0000   0.0000
     0.0000   0.0000   0.0000   0.0000   0.0000

          k =-0.1768-0.5303 0.5303 (  6253 PWs)   bands (ev):

   -29.3514 -29.3205 -29.3019 -29.2812 -29.2757 -29.2710 -29.2519 -29.2448
   -11.1645 -11.1638 -11.1632 -11.0882 -10.9834 -10.9544 -10.9540 -10.8129
   -10.6430 -10.6420 -10.5879 -10.4838 -10.4830 -10.4742 -10.4733 -10.4120
   -10.3902 -10.3651 -10.3416 -10.3391 -10.3366 -10.3002 -10.2812 -10.2502
    -6.9219  -6.8691  -6.8221  -6.8218  -6.6243  -6.5919  -6.5916  -6.5771
     5.8230   5.8240   5.8568   5.9251   6.0595   6.3586   6.3591   6.3643
     6.7510   6.7544   6.7707   6.7794   6.7814   6.8055   6.8905   6.9921
     6.9929   7.0230   7.0260   7.2113   7.2511   7.3904   7.3914   7.5004
    12.4925  13.3912  13.4008  13.4027  13.7781  13.7817  14.1085  14.3822
    14.4283  15.1501  15.2201  15.3009  15.3435

     occupation numbers 
     1.0000   1.0000   1.0000   1.0000   1.0000   1.0000   1.0000   1.0000
     1.0000   1.0000   1.0000   1.0000   1.0000   1.0000   1.0000   1.0000
     1.0000   1.0000   1.0000   1.0000   1.0000   1.0000   1.0000   1.0000
     1.0000   1.0000   1.0000   1.0000   1.0000   1.0000   1.0000   1.0000
     1.0000   1.0000   1.0000   1.0000   1.0000   1.0000   1.0000   1.0000
     1.0000   1.0000   1.0000   1.0000   1.0000   1.0000   1.0000   1.0000
     1.0000   1.0000   1.0000   1.0000   1.0000   1.0000   1.0000   1.0000
     1.0000   1.0000   1.0000   1.0000   1.0000   1.0000   1.0000   1.0000
     0.0000   0.0000   0.0000   0.0000   0.0000   0.0000   0.0000   0.0000
     0.0000   0.0000   0.0000   0.0000   0.0000

          k = 0.0000-0.3536 0.3536 (  6259 PWs)   bands (ev):

   -29.3638 -29.3113 -29.3077 -29.2756 -29.2723 -29.2639 -29.2594 -29.2443
   -11.2320 -11.2319 -11.1797 -11.1791 -10.9858 -10.9851 -10.8666 -10.7840
   -10.7294 -10.5042 -10.5037 -10.4944 -10.4942 -10.4502 -10.4501 -10.4125
   -10.3677 -10.3653 -10.3204 -10.3194 -10.3171 -10.3150 -10.3026 -10.2296
    -7.0022  -6.9029  -6.9026  -6.8821  -6.5666  -6.5663  -6.5331  -6.5329
     5.7694   5.7698   5.7750   5.7756   6.2234   6.2239   6.5096   6.6654
     6.6665   6.7293   6.7320   6.7957   6.7962   6.8714   6.8728   7.0544
     7.0572   7.0771   7.0801   7.0857   7.2403   7.2435   7.2884   7.6084
    12.5665  12.5695  13.0065  13.7968  13.8026  13.9208  14.1348  14.6367
    14.7026  14.7052  14.7651  14.7656  15.2524

     occupation numbers 
     1.0000   1.0000   1.0000   1.0000   1.0000   1.0000   1.0000   1.0000
     1.0000   1.0000   1.0000   1.0000   1.0000   1.0000   1.0000   1.0000
     1.0000   1.0000   1.0000   1.0000   1.0000   1.0000   1.0000   1.0000
     1.0000   1.0000   1.0000   1.0000   1.0000   1.0000   1.0000   1.0000
     1.0000   1.0000   1.0000   1.0000   1.0000   1.0000   1.0000   1.0000
     1.0000   1.0000   1.0000   1.0000   1.0000   1.0000   1.0000   1.0000
     1.0000   1.0000   1.0000   1.0000   1.0000   1.0000   1.0000   1.0000
     1.0000   1.0000   1.0000   1.0000   1.0000   1.0000   1.0000   1.0000
     0.0000   0.0000   0.0000   0.0000   0.0000   0.0000   0.0000   0.0000
     0.0000   0.0000   0.0000   0.0000   0.0000

          k =-0.7071 0.0000 0.0000 (  6314 PWs)   bands (ev):

   -29.3327 -29.3290 -29.2903 -29.2878 -29.2858 -29.2838 -29.2466 -29.2428
   -11.1554 -11.1543 -11.1541 -11.1531 -10.8213 -10.8209 -10.7193 -10.7188
   -10.6945 -10.6944 -10.6934 -10.6932 -10.5285 -10.5259 -10.5244 -10.5215
   -10.3574 -10.3555 -10.3554 -10.3547 -10.2871 -10.2863 -10.2857 -10.2836
    -6.9501  -6.9495  -6.8572  -6.8570  -6.5346  -6.5340  -6.5339  -6.5335
     5.7437   5.7469   5.7476   5.7510   6.1492   6.1518   6.5550   6.5554
     6.7358   6.7377   6.7381   6.7401   6.8140   6.8144   6.8175   6.8185
     7.0198   7.0237   7.0274   7.0316   7.5858   7.5860   7.5879   7.5881
    12.5454  12.5504  14.2293  14.2300  14.2387  14.2414  14.4015  14.4199
    14.4229  14.4398  14.6022  14.6079  15.2482

     occupation numbers 
     1.0000   1.0000   1.0000   1.0000   1.0000   1.0000   1.0000   1.0000
     1.0000   1.0000   1.0000   1.0000   1.0000   1.0000   1.0000   1.0000
     1.0000   1.0000   1.0000   1.0000   1.0000   1.0000   1.0000   1.0000
     1.0000   1.0000   1.0000   1.0000   1.0000   1.0000   1.0000   1.0000
     1.0000   1.0000   1.0000   1.0000   1.0000   1.0000   1.0000   1.0000
     1.0000   1.0000   1.0000   1.0000   1.0000   1.0000   1.0000   1.0000
     1.0000   1.0000   1.0000   1.0000   1.0000   1.0000   1.0000   1.0000
     1.0000   1.0000   1.0000   1.0000   1.0000   1.0000   1.0000   1.0000
     0.0000   0.0000   0.0000   0.0000   0.0000   0.0000   0.0000   0.0000
     0.0000   0.0000   0.0000   0.0000   0.0000

          k =-0.7071 0.3536 0.0000 (  6228 PWs)   bands (ev):

   -29.3285 -29.3222 -29.3106 -29.3040 -29.2708 -29.2641 -29.2524 -29.2461
   -11.0401 -11.0368 -11.0327 -11.0274 -10.9986 -10.9951 -10.9922 -10.9890
   -10.6476 -10.6455 -10.6441 -10.6424 -10.4218 -10.4208 -10.4181 -10.4118
   -10.4043 -10.4026 -10.4007 -10.3994 -10.3043 -10.2997 -10.2921 -10.2877
    -6.7543  -6.7493  -6.7447  -6.7391  -6.6989  -6.6931  -6.6885  -6.6836
     6.0037   6.0070   6.0087   6.0128   6.0871   6.0909   6.0941   6.0965
     6.8096   6.8108   6.8121   6.8139   6.8522   6.8540   6.8566   6.8580
     7.0665   7.0780   7.0831   7.0943   7.3597   7.3605   7.3630   7.3634
    13.2432  13.2503  13.2572  13.2644  14.3570  14.3695  14.3873  14.3944
    14.5908  14.5980  14.6085  14.6163  15.0951

     occupation numbers 
     1.0000   1.0000   1.0000   1.0000   1.0000   1.0000   1.0000   1.0000
     1.0000   1.0000   1.0000   1.0000   1.0000   1.0000   1.0000   1.0000
     1.0000   1.0000   1.0000   1.0000   1.0000   1.0000   1.0000   1.0000
     1.0000   1.0000   1.0000   1.0000   1.0000   1.0000   1.0000   1.0000
     1.0000   1.0000   1.0000   1.0000   1.0000   1.0000   1.0000   1.0000
     1.0000   1.0000   1.0000   1.0000   1.0000   1.0000   1.0000   1.0000
     1.0000   1.0000   1.0000   1.0000   1.0000   1.0000   1.0000   1.0000
     1.0000   1.0000   1.0000   1.0000   1.0000   1.0000   1.0000   1.0000
     0.0000   0.0000   0.0000   0.0000   0.0000   0.0000   0.0000   0.0000
     0.0000   0.0000   0.0000   0.0000   0.0000

          k =-0.1768-0.1768-0.1768 (  6234 PWs)   bands (ev):

   -29.3884 -29.3068 -29.2874 -29.2831 -29.2801 -29.2548 -29.2514 -29.2455
   -11.3811 -11.3807 -11.3805 -11.3403 -10.9088 -10.9075 -10.9059 -10.5672
   -10.5655 -10.5636 -10.4753 -10.4540 -10.4538 -10.4533 -10.3577 -10.3569
   -10.3559 -10.3161 -10.3146 -10.3140 -10.2767 -10.2762 -10.2353 -10.2340
    -7.2923  -7.1199  -7.1199  -7.1197  -6.3753  -6.3589  -6.3588  -6.3588
     5.4174   5.4192   5.4210   5.4651   6.4880   6.4884   6.4889   6.6556
     6.6570   6.6584   6.7583   6.7585   6.7587   6.7907   6.7911   7.1934
     7.1971   7.2009   7.3371   7.3819   7.3820   7.3822   7.6702   7.6704
    11.9618  11.9665  11.9711  13.3744  14.1127  14.4361  14.4369  14.6320
    14.6367  14.6456  14.6605  15.5486  15.5523

     occupation numbers 
     1.0000   1.0000   1.0000   1.0000   1.0000   1.0000   1.0000   1.0000
     1.0000   1.0000   1.0000   1.0000   1.0000   1.0000   1.0000   1.0000
     1.0000   1.0000   1.0000   1.0000   1.0000   1.0000   1.0000   1.0000
     1.0000   1.0000   1.0000   1.0000   1.0000   1.0000   1.0000   1.0000
     1.0000   1.0000   1.0000   1.0000   1.0000   1.0000   1.0000   1.0000
     1.0000   1.0000   1.0000   1.0000   1.0000   1.0000   1.0000   1.0000
     1.0000   1.0000   1.0000   1.0000   1.0000   1.0000   1.0000   1.0000
     1.0000   1.0000   1.0000   1.0000   1.0000   1.0000   1.0000   1.0000
     0.0000   0.0000   0.0000   0.0000   0.0000   0.0000   0.0000   0.0000
     0.0000   0.0000   0.0000   0.0000   0.0000

          k =-0.1768 0.1768 0.1768 (  6234 PWs)   bands (ev):

   -29.3887 -29.3029 -29.2904 -29.2839 -29.2810 -29.2547 -29.2513 -29.2447
   -11.3812 -11.3808 -11.3804 -11.3403 -10.9083 -10.9073 -10.9063 -10.5670
   -10.5652 -10.5640 -10.4745 -10.4546 -10.4543 -10.4536 -10.3579 -10.3572
   -10.3561 -10.3142 -10.3140 -10.3132 -10.2796 -10.2794 -10.2330 -10.2326
    -7.2923  -7.1200  -7.1198  -7.1197  -6.3753  -6.3589  -6.3588  -6.3587
     5.4176   5.4192   5.4208   5.4652   6.4881   6.4884   6.4889   6.6558
     6.6572   6.6584   6.7583   6.7584   6.7586   6.7907   6.7908   7.1937
     7.1971   7.2005   7.3371   7.3818   7.3821   7.3822   7.6703   7.6704
    11.9632  11.9665  11.9698  13.3744  14.1123  14.4367  14.4371  14.6333
    14.6377  14.6428  14.6608  15.5499  15.5537

     occupation numbers 
     1.0000   1.0000   1.0000   1.0000   1.0000   1.0000   1.0000   1.0000
     1.0000   1.0000   1.0000   1.0000   1.0000   1.0000   1.0000   1.0000
     1.0000   1.0000   1.0000   1.0000   1.0000   1.0000   1.0000   1.0000
     1.0000   1.0000   1.0000   1.0000   1.0000   1.0000   1.0000   1.0000
     1.0000   1.0000   1.0000   1.0000   1.0000   1.0000   1.0000   1.0000
     1.0000   1.0000   1.0000   1.0000   1.0000   1.0000   1.0000   1.0000
     1.0000   1.0000   1.0000   1.0000   1.0000   1.0000   1.0000   1.0000
     1.0000   1.0000   1.0000   1.0000   1.0000   1.0000   1.0000   1.0000
     0.0000   0.0000   0.0000   0.0000   0.0000   0.0000   0.0000   0.0000
     0.0000   0.0000   0.0000   0.0000   0.0000

          k = 0.1768-0.1768 0.1768 (  6234 PWs)   bands (ev):

   -29.3884 -29.3071 -29.2861 -29.2841 -29.2800 -29.2549 -29.2511 -29.2458
   -11.3810 -11.3808 -11.3806 -11.3403 -10.9082 -10.9074 -10.9066 -10.5666
   -10.5654 -10.5642 -10.4754 -10.4540 -10.4536 -10.4534 -10.3576 -10.3571
   -10.3557 -10.3161 -10.3146 -10.3142 -10.2765 -10.2761 -10.2354 -10.2342
    -7.2923  -7.1199  -7.1198  -7.1197  -6.3752  -6.3589  -6.3588  -6.3588
     5.4182   5.4192   5.4201   5.4652   6.4881   6.4884   6.4887   6.6562
     6.6569   6.6576   6.7585   6.7586   6.7587   6.7908   6.7911   7.1951
     7.1973   7.1992   7.3373   7.3818   7.3819   7.3821   7.6702   7.6703
    11.9640  11.9665  11.9690  13.3744  14.1126  14.4362  14.4371  14.6344
    14.6386  14.6417  14.6597  15.5505  15.5529

     occupation numbers 
     1.0000   1.0000   1.0000   1.0000   1.0000   1.0000   1.0000   1.0000
     1.0000   1.0000   1.0000   1.0000   1.0000   1.0000   1.0000   1.0000
     1.0000   1.0000   1.0000   1.0000   1.0000   1.0000   1.0000   1.0000
     1.0000   1.0000   1.0000   1.0000   1.0000   1.0000   1.0000   1.0000
     1.0000   1.0000   1.0000   1.0000   1.0000   1.0000   1.0000   1.0000
     1.0000   1.0000   1.0000   1.0000   1.0000   1.0000   1.0000   1.0000
     1.0000   1.0000   1.0000   1.0000   1.0000   1.0000   1.0000   1.0000
     1.0000   1.0000   1.0000   1.0000   1.0000   1.0000   1.0000   1.0000
     0.0000   0.0000   0.0000   0.0000   0.0000   0.0000   0.0000   0.0000
     0.0000   0.0000   0.0000   0.0000   0.0000

          k = 0.3536 0.3536 0.3536 (  6266 PWs)   bands (ev):

   -29.3504 -29.3442 -29.2835 -29.2771 -29.2695 -29.2655 -29.2577 -29.2503
   -11.1248 -11.1234 -11.1218 -11.1159 -11.1133 -11.1121 -10.9558 -10.9492
   -10.5291 -10.5236 -10.5159 -10.5132 -10.5060 -10.5002 -10.3925 -10.3892
   -10.3873 -10.3823 -10.3811 -10.3765 -10.2591 -10.2585 -10.2533 -10.2524
    -6.7955  -6.7876  -6.7282  -6.7252  -6.7210  -6.7142  -6.7101  -6.7080
     6.0399   6.0445   6.0469   6.0512   6.0534   6.0575   6.2953   6.3047
     6.7623   6.7687   6.7725   6.7802   6.7808   6.7881   7.0537   7.0557
     7.0595   7.0668   7.0685   7.0727   7.1921   7.1929   7.2063   7.2081
    13.2091  13.2173  13.2231  13.2280  13.2330  13.2413  14.1681  14.1742
    14.8495  14.8564  15.1583  15.1622  15.1683

     occupation numbers 
     1.0000   1.0000   1.0000   1.0000   1.0000   1.0000   1.0000   1.0000
     1.0000   1.0000   1.0000   1.0000   1.0000   1.0000   1.0000   1.0000
     1.0000   1.0000   1.0000   1.0000   1.0000   1.0000   1.0000   1.0000
     1.0000   1.0000   1.0000   1.0000   1.0000   1.0000   1.0000   1.0000
     1.0000   1.0000   1.0000   1.0000   1.0000   1.0000   1.0000   1.0000
     1.0000   1.0000   1.0000   1.0000   1.0000   1.0000   1.0000   1.0000
     1.0000   1.0000   1.0000   1.0000   1.0000   1.0000   1.0000   1.0000
     1.0000   1.0000   1.0000   1.0000   1.0000   1.0000   1.0000   1.0000
     0.0000   0.0000   0.0000   0.0000   0.0000   0.0000   0.0000   0.0000
     0.0000   0.0000   0.0000   0.0000   0.0000

          k = 0.3536-0.3536-0.3536 (  6266 PWs)   bands (ev):

   -29.3570 -29.3345 -29.2869 -29.2782 -29.2723 -29.2636 -29.2573 -29.2485
   -11.1280 -11.1274 -11.1253 -11.1115 -11.1098 -11.1086 -10.9608 -10.9440
   -10.5309 -10.5242 -10.5189 -10.5106 -10.5052 -10.4982 -10.3983 -10.3961
   -10.3924 -10.3765 -10.3735 -10.3706 -10.2677 -10.2673 -10.2453 -10.2450
    -6.7992  -6.7828  -6.7294  -6.7274  -6.7235  -6.7121  -6.7087  -6.7067
     6.0386   6.0393   6.0426   6.0551   6.0586   6.0593   6.2918   6.3085
     6.7638   6.7669   6.7743   6.7765   6.7838   6.7870   7.0497   7.0511
     7.0546   7.0716   7.0750   7.0765   7.1847   7.1873   7.2112   7.2143
    13.2061  13.2093  13.2145  13.2365  13.2407  13.2454  14.1606  14.1812
    14.8405  14.8658  15.1501  15.1524  15.1752

     occupation numbers 
     1.0000   1.0000   1.0000   1.0000   1.0000   1.0000   1.0000   1.0000
     1.0000   1.0000   1.0000   1.0000   1.0000   1.0000   1.0000   1.0000
     1.0000   1.0000   1.0000   1.0000   1.0000   1.0000   1.0000   1.0000
     1.0000   1.0000   1.0000   1.0000   1.0000   1.0000   1.0000   1.0000
     1.0000   1.0000   1.0000   1.0000   1.0000   1.0000   1.0000   1.0000
     1.0000   1.0000   1.0000   1.0000   1.0000   1.0000   1.0000   1.0000
     1.0000   1.0000   1.0000   1.0000   1.0000   1.0000   1.0000   1.0000
     1.0000   1.0000   1.0000   1.0000   1.0000   1.0000   1.0000   1.0000
     0.0000   0.0000   0.0000   0.0000   0.0000   0.0000   0.0000   0.0000
     0.0000   0.0000   0.0000   0.0000   0.0000

          k =-0.3536 0.3536-0.3536 (  6266 PWs)   bands (ev):

   -29.3488 -29.3460 -29.2821 -29.2785 -29.2690 -29.2661 -29.2569 -29.2509
   -11.1247 -11.1241 -11.1216 -11.1153 -11.1135 -11.1121 -10.9538 -10.9511
   -10.5291 -10.5236 -10.5162 -10.5130 -10.5054 -10.5006 -10.3906 -10.3895
   -10.3878 -10.3830 -10.3794 -10.3786 -10.2572 -10.2569 -10.2551 -10.2540
    -6.7930  -6.7899  -6.7265  -6.7245  -6.7204  -6.7151  -6.7112  -6.7093
     6.0413   6.0454   6.0469   6.0500   6.0527   6.0569   6.2980   6.3019
     6.7644   6.7654   6.7713   6.7785   6.7863   6.7870   7.0558   7.0587
     7.0613   7.0649   7.0658   7.0706   7.1961   7.1974   7.2015   7.2043
    13.2148  13.2186  13.2215  13.2289  13.2312  13.2370  14.1698  14.1721
    14.8515  14.8542  15.1599  15.1637  15.1676

     occupation numbers 
     1.0000   1.0000   1.0000   1.0000   1.0000   1.0000   1.0000   1.0000
     1.0000   1.0000   1.0000   1.0000   1.0000   1.0000   1.0000   1.0000
     1.0000   1.0000   1.0000   1.0000   1.0000   1.0000   1.0000   1.0000
     1.0000   1.0000   1.0000   1.0000   1.0000   1.0000   1.0000   1.0000
     1.0000   1.0000   1.0000   1.0000   1.0000   1.0000   1.0000   1.0000
     1.0000   1.0000   1.0000   1.0000   1.0000   1.0000   1.0000   1.0000
     1.0000   1.0000   1.0000   1.0000   1.0000   1.0000   1.0000   1.0000
     1.0000   1.0000   1.0000   1.0000   1.0000   1.0000   1.0000   1.0000
     0.0000   0.0000   0.0000   0.0000   0.0000   0.0000   0.0000   0.0000
     0.0000   0.0000   0.0000   0.0000   0.0000

          k = 0.0000 0.3536 0.0000 (  6254 PWs)   bands (ev):

   -29.3830 -29.2960 -29.2911 -29.2866 -29.2857 -29.2645 -29.2491 -29.2418
   -11.3443 -11.3439 -11.3437 -11.3433 -10.9220 -10.8409 -10.8407 -10.6071
   -10.6063 -10.5447 -10.5444 -10.4819 -10.4453 -10.4446 -10.3821 -10.3813
   -10.3797 -10.3788 -10.2916 -10.2866 -10.2858 -10.2852 -10.2639 -10.2585
    -7.2483  -7.1148  -7.0772  -7.0772  -6.3784  -6.3782  -6.3781  -6.3781
     5.4581   5.4595   5.4598   5.4612   6.2762   6.6234   6.6238   6.6854
     6.6863   6.6869   6.6878   6.8060   6.8069   6.8084   6.8086   7.0150
     7.0153   7.0242   7.2192   7.2193   7.5202   7.5202   7.7682   7.7682
    11.7349  12.3159  12.3159  13.4386  13.5995  14.7149  14.7254  14.7316
    14.7362  14.7595  14.7675  15.5115  15.5164

     occupation numbers 
     1.0000   1.0000   1.0000   1.0000   1.0000   1.0000   1.0000   1.0000
     1.0000   1.0000   1.0000   1.0000   1.0000   1.0000   1.0000   1.0000
     1.0000   1.0000   1.0000   1.0000   1.0000   1.0000   1.0000   1.0000
     1.0000   1.0000   1.0000   1.0000   1.0000   1.0000   1.0000   1.0000
     1.0000   1.0000   1.0000   1.0000   1.0000   1.0000   1.0000   1.0000
     1.0000   1.0000   1.0000   1.0000   1.0000   1.0000   1.0000   1.0000
     1.0000   1.0000   1.0000   1.0000   1.0000   1.0000   1.0000   1.0000
     1.0000   1.0000   1.0000   1.0000   1.0000   1.0000   1.0000   1.0000
     0.0000   0.0000   0.0000   0.0000   0.0000   0.0000   0.0000   0.0000
     0.0000   0.0000   0.0000   0.0000   0.0000

          k = 0.0000 0.0000 0.3536 (  6254 PWs)   bands (ev):

   -29.3829 -29.2973 -29.2889 -29.2868 -29.2857 -29.2662 -29.2467 -29.2432
   -11.3441 -11.3439 -11.3437 -11.3435 -10.9219 -10.8409 -10.8408 -10.6069
   -10.6065 -10.5446 -10.5445 -10.4819 -10.4452 -10.4448 -10.3816 -10.3810
   -10.3804 -10.3789 -10.2908 -10.2880 -10.2859 -10.2851 -10.2621 -10.2598
    -7.2484  -7.1148  -7.0772  -7.0772  -6.3783  -6.3782  -6.3781  -6.3781
     5.4583   5.4591   5.4602   5.4610   6.2762   6.6234   6.6240   6.6858
     6.6862   6.6865   6.6878   6.8060   6.8071   6.8081   6.8087   7.0149
     7.0154   7.0242   7.2192   7.2193   7.5202   7.5203   7.7682   7.7683
    11.7348  12.3159  12.3160  13.4386  13.5994  14.7178  14.7263  14.7285
    14.7371  14.7607  14.7647  15.5131  15.5164

     occupation numbers 
     1.0000   1.0000   1.0000   1.0000   1.0000   1.0000   1.0000   1.0000
     1.0000   1.0000   1.0000   1.0000   1.0000   1.0000   1.0000   1.0000
     1.0000   1.0000   1.0000   1.0000   1.0000   1.0000   1.0000   1.0000
     1.0000   1.0000   1.0000   1.0000   1.0000   1.0000   1.0000   1.0000
     1.0000   1.0000   1.0000   1.0000   1.0000   1.0000   1.0000   1.0000
     1.0000   1.0000   1.0000   1.0000   1.0000   1.0000   1.0000   1.0000
     1.0000   1.0000   1.0000   1.0000   1.0000   1.0000   1.0000   1.0000
     1.0000   1.0000   1.0000   1.0000   1.0000   1.0000   1.0000   1.0000
     0.0000   0.0000   0.0000   0.0000   0.0000   0.0000   0.0000   0.0000
     0.0000   0.0000   0.0000   0.0000   0.0000

          k = 0.1768 0.5303 0.5303 (  6253 PWs)   bands (ev):

   -29.3504 -29.3246 -29.2937 -29.2851 -29.2816 -29.2661 -29.2512 -29.2460
   -11.1647 -11.1640 -11.1628 -11.0882 -10.9834 -10.9548 -10.9537 -10.8131
   -10.6432 -10.6420 -10.5880 -10.4844 -10.4802 -10.4763 -10.4719 -10.4117
   -10.3906 -10.3651 -10.3449 -10.3381 -10.3370 -10.2969 -10.2828 -10.2501
    -6.9219  -6.8691  -6.8221  -6.8218  -6.6243  -6.5919  -6.5914  -6.5771
     5.8217   5.8255   5.8568   5.9249   6.0595   6.3583   6.3598   6.3640
     6.7503   6.7549   6.7676   6.7803   6.7844   6.8051   6.8903   6.9901
     6.9935   7.0212   7.0293   7.2109   7.2509   7.3895   7.3925   7.5007
    12.4925  13.3903  13.4001  13.4045  13.7731  13.7865  14.1087  14.3805
    14.4303  15.1496  15.2205  15.3019  15.3422

     occupation numbers 
     1.0000   1.0000   1.0000   1.0000   1.0000   1.0000   1.0000   1.0000
     1.0000   1.0000   1.0000   1.0000   1.0000   1.0000   1.0000   1.0000
     1.0000   1.0000   1.0000   1.0000   1.0000   1.0000   1.0000   1.0000
     1.0000   1.0000   1.0000   1.0000   1.0000   1.0000   1.0000   1.0000
     1.0000   1.0000   1.0000   1.0000   1.0000   1.0000   1.0000   1.0000
     1.0000   1.0000   1.0000   1.0000   1.0000   1.0000   1.0000   1.0000
     1.0000   1.0000   1.0000   1.0000   1.0000   1.0000   1.0000   1.0000
     1.0000   1.0000   1.0000   1.0000   1.0000   1.0000   1.0000   1.0000
     0.0000   0.0000   0.0000   0.0000   0.0000   0.0000   0.0000   0.0000
     0.0000   0.0000   0.0000   0.0000   0.0000

          k = 0.1768-0.5303-0.5303 (  6253 PWs)   bands (ev):

   -29.3526 -29.3170 -29.3003 -29.2854 -29.2820 -29.2644 -29.2511 -29.2457
   -11.1647 -11.1642 -11.1630 -11.0882 -10.9833 -10.9545 -10.9535 -10.8127
   -10.6431 -10.6420 -10.5884 -10.4877 -10.4857 -10.4711 -10.4690 -10.4114
   -10.3920 -10.3661 -10.3404 -10.3377 -10.3369 -10.3017 -10.2820 -10.2487
    -6.9220  -6.8692  -6.8221  -6.8218  -6.6243  -6.5919  -6.5914  -6.5771
     5.8217   5.8254   5.8567   5.9249   6.0596   6.3581   6.3596   6.3646
     6.7507   6.7557   6.7675   6.7797   6.7837   6.8051   6.8903   6.9889
     6.9927   7.0223   7.0301   7.2109   7.2508   7.3895   7.3925   7.5008
    12.4924  13.3912  13.3996  13.4036  13.7735  13.7868  14.1085  14.3822
    14.4285  15.1501  15.2208  15.3016  15.3410

     occupation numbers 
     1.0000   1.0000   1.0000   1.0000   1.0000   1.0000   1.0000   1.0000
     1.0000   1.0000   1.0000   1.0000   1.0000   1.0000   1.0000   1.0000
     1.0000   1.0000   1.0000   1.0000   1.0000   1.0000   1.0000   1.0000
     1.0000   1.0000   1.0000   1.0000   1.0000   1.0000   1.0000   1.0000
     1.0000   1.0000   1.0000   1.0000   1.0000   1.0000   1.0000   1.0000
     1.0000   1.0000   1.0000   1.0000   1.0000   1.0000   1.0000   1.0000
     1.0000   1.0000   1.0000   1.0000   1.0000   1.0000   1.0000   1.0000
     1.0000   1.0000   1.0000   1.0000   1.0000   1.0000   1.0000   1.0000
     0.0000   0.0000   0.0000   0.0000   0.0000   0.0000   0.0000   0.0000
     0.0000   0.0000   0.0000   0.0000   0.0000

          k =-0.1768 0.5303-0.5303 (  6253 PWs)   bands (ev):

   -29.3505 -29.3237 -29.2989 -29.2814 -29.2759 -29.2712 -29.2518 -29.2451
   -11.1646 -11.1637 -11.1631 -11.0882 -10.9834 -10.9544 -10.9541 -10.8130
   -10.6431 -10.6420 -10.5877 -10.4819 -10.4803 -10.4767 -10.4751 -10.4121
   -10.3897 -10.3647 -10.3431 -10.3393 -10.3366 -10.2985 -10.2815 -10.2507
    -6.9219  -6.8691  -6.8221  -6.8217  -6.6242  -6.5919  -6.5916  -6.5771
     5.8231   5.8240   5.8568   5.9250   6.0595   6.3586   6.3591   6.3643
     6.7511   6.7545   6.7709   6.7793   6.7810   6.8054   6.8906   6.9920
     6.9930   7.0231   7.0260   7.2113   7.2512   7.3904   7.3914   7.5005
    12.4925  13.3907  13.4010  13.4033  13.7779  13.7815  14.1086  14.3819
    14.4285  15.1498  15.2206  15.3015  15.3443

     occupation numbers 
     1.0000   1.0000   1.0000   1.0000   1.0000   1.0000   1.0000   1.0000
     1.0000   1.0000   1.0000   1.0000   1.0000   1.0000   1.0000   1.0000
     1.0000   1.0000   1.0000   1.0000   1.0000   1.0000   1.0000   1.0000
     1.0000   1.0000   1.0000   1.0000   1.0000   1.0000   1.0000   1.0000
     1.0000   1.0000   1.0000   1.0000   1.0000   1.0000   1.0000   1.0000
     1.0000   1.0000   1.0000   1.0000   1.0000   1.0000   1.0000   1.0000
     1.0000   1.0000   1.0000   1.0000   1.0000   1.0000   1.0000   1.0000
     1.0000   1.0000   1.0000   1.0000   1.0000   1.0000   1.0000   1.0000
     0.0000   0.0000   0.0000   0.0000   0.0000   0.0000   0.0000   0.0000
     0.0000   0.0000   0.0000   0.0000   0.0000

          k =-0.5303-0.1768-0.5303 (  6253 PWs)   bands (ev):

   -29.3508 -29.3222 -29.3014 -29.2809 -29.2732 -29.2719 -29.2540 -29.2439
   -11.1644 -11.1637 -11.1633 -11.0883 -10.9834 -10.9547 -10.9538 -10.8130
   -10.6437 -10.6413 -10.5876 -10.4821 -10.4802 -10.4764 -10.4759 -10.4122
   -10.3895 -10.3646 -10.3419 -10.3391 -10.3373 -10.2994 -10.2809 -10.2508
    -6.9219  -6.8691  -6.8220  -6.8219  -6.6242  -6.5918  -6.5916  -6.5771
     5.8222   5.8249   5.8569   5.9249   6.0595   6.3588   6.3591   6.3642
     6.7518   6.7542   6.7699   6.7800   6.7811   6.8054   6.8902   6.9915
     6.9929   7.0232   7.0267   7.2112   7.2510   7.3893   7.3926   7.5005
    12.4924  13.3903  13.4002  13.4044  13.7751  13.7844  14.1089  14.3822
    14.4283  15.1497  15.2205  15.3008  15.3423

     occupation numbers 
     1.0000   1.0000   1.0000   1.0000   1.0000   1.0000   1.0000   1.0000
     1.0000   1.0000   1.0000   1.0000   1.0000   1.0000   1.0000   1.0000
     1.0000   1.0000   1.0000   1.0000   1.0000   1.0000   1.0000   1.0000
     1.0000   1.0000   1.0000   1.0000   1.0000   1.0000   1.0000   1.0000
     1.0000   1.0000   1.0000   1.0000   1.0000   1.0000   1.0000   1.0000
     1.0000   1.0000   1.0000   1.0000   1.0000   1.0000   1.0000   1.0000
     1.0000   1.0000   1.0000   1.0000   1.0000   1.0000   1.0000   1.0000
     1.0000   1.0000   1.0000   1.0000   1.0000   1.0000   1.0000   1.0000
     0.0000   0.0000   0.0000   0.0000   0.0000   0.0000   0.0000   0.0000
     0.0000   0.0000   0.0000   0.0000   0.0000

          k = 0.5303 0.1768-0.5303 (  6253 PWs)   bands (ev):

   -29.3511 -29.3227 -29.2929 -29.2884 -29.2819 -29.2628 -29.2537 -29.2449
   -11.1646 -11.1638 -11.1631 -11.0882 -10.9833 -10.9546 -10.9538 -10.8130
   -10.6439 -10.6413 -10.5882 -10.4869 -10.4796 -10.4767 -10.4691 -10.4115
   -10.3913 -10.3655 -10.3442 -10.3381 -10.3367 -10.2978 -10.2830 -10.2495
    -6.9219  -6.8691  -6.8219  -6.8219  -6.6243  -6.5918  -6.5915  -6.5771
     5.8231   5.8240   5.8568   5.9250   6.0595   6.3582   6.3592   6.3647
     6.7505   6.7521   6.7682   6.7829   6.7838   6.8053   6.8905   6.9916
     6.9924   7.0238   7.0261   7.2109   7.2510   7.3895   7.3922   7.5006
    12.4924  13.3905  13.4004  13.4039  13.7781  13.7817  14.1085  14.3805
    14.4299  15.1499  15.2205  15.3023  15.3419

     occupation numbers 
     1.0000   1.0000   1.0000   1.0000   1.0000   1.0000   1.0000   1.0000
     1.0000   1.0000   1.0000   1.0000   1.0000   1.0000   1.0000   1.0000
     1.0000   1.0000   1.0000   1.0000   1.0000   1.0000   1.0000   1.0000
     1.0000   1.0000   1.0000   1.0000   1.0000   1.0000   1.0000   1.0000
     1.0000   1.0000   1.0000   1.0000   1.0000   1.0000   1.0000   1.0000
     1.0000   1.0000   1.0000   1.0000   1.0000   1.0000   1.0000   1.0000
     1.0000   1.0000   1.0000   1.0000   1.0000   1.0000   1.0000   1.0000
     1.0000   1.0000   1.0000   1.0000   1.0000   1.0000   1.0000   1.0000
     0.0000   0.0000   0.0000   0.0000   0.0000   0.0000   0.0000   0.0000
     0.0000   0.0000   0.0000   0.0000   0.0000

          k =-0.5303 0.1768 0.5303 (  6253 PWs)   bands (ev):

   -29.3526 -29.3178 -29.2969 -29.2893 -29.2819 -29.2615 -29.2537 -29.2448
   -11.1648 -11.1638 -11.1633 -11.0882 -10.9832 -10.9543 -10.9536 -10.8128
   -10.6438 -10.6413 -10.5886 -10.4891 -10.4841 -10.4722 -10.4675 -10.4113
   -10.3923 -10.3662 -10.3412 -10.3378 -10.3366 -10.3009 -10.2825 -10.2486
    -6.9220  -6.8691  -6.8220  -6.8220  -6.6243  -6.5918  -6.5915  -6.5771
     5.8230   5.8240   5.8568   5.9250   6.0596   6.3584   6.3594   6.3646
     6.7527   6.7535   6.7681   6.7805   6.7820   6.8053   6.8904   6.9898
     6.9920   7.0256   7.0269   7.2108   7.2509   7.3895   7.3924   7.5006
    12.4924  13.3908  13.4001  13.4034  13.7786  13.7822  14.1084  14.3815
    14.4291  15.1499  15.2207  15.3019  15.3415

     occupation numbers 
     1.0000   1.0000   1.0000   1.0000   1.0000   1.0000   1.0000   1.0000
     1.0000   1.0000   1.0000   1.0000   1.0000   1.0000   1.0000   1.0000
     1.0000   1.0000   1.0000   1.0000   1.0000   1.0000   1.0000   1.0000
     1.0000   1.0000   1.0000   1.0000   1.0000   1.0000   1.0000   1.0000
     1.0000   1.0000   1.0000   1.0000   1.0000   1.0000   1.0000   1.0000
     1.0000   1.0000   1.0000   1.0000   1.0000   1.0000   1.0000   1.0000
     1.0000   1.0000   1.0000   1.0000   1.0000   1.0000   1.0000   1.0000
     1.0000   1.0000   1.0000   1.0000   1.0000   1.0000   1.0000   1.0000
     0.0000   0.0000   0.0000   0.0000   0.0000   0.0000   0.0000   0.0000
     0.0000   0.0000   0.0000   0.0000   0.0000

          k = 0.5303-0.1768 0.5303 (  6253 PWs)   bands (ev):

   -29.3506 -29.3228 -29.3009 -29.2809 -29.2738 -29.2715 -29.2540 -29.2440
   -11.1644 -11.1637 -11.1633 -11.0883 -10.9834 -10.9548 -10.9538 -10.8129
   -10.6437 -10.6414 -10.5876 -10.4808 -10.4799 -10.4773 -10.4766 -10.4122
   -10.3894 -10.3646 -10.3422 -10.3393 -10.3371 -10.2991 -10.2810 -10.2509
    -6.9219  -6.8691  -6.8220  -6.8219  -6.6243  -6.5918  -6.5917  -6.5771
     5.8222   5.8249   5.8569   5.9249   6.0595   6.3581   6.3590   6.3649
     6.7514   6.7540   6.7696   6.7804   6.7819   6.8055   6.8903   6.9917
     6.9935   7.0229   7.0260   7.2112   7.2510   7.3892   7.3926   7.5005
    12.4924  13.3911  13.4002  13.4037  13.7750  13.7844  14.1087  14.3821
    14.4283  15.1501  15.2204  15.2999  15.3421

     occupation numbers 
     1.0000   1.0000   1.0000   1.0000   1.0000   1.0000   1.0000   1.0000
     1.0000   1.0000   1.0000   1.0000   1.0000   1.0000   1.0000   1.0000
     1.0000   1.0000   1.0000   1.0000   1.0000   1.0000   1.0000   1.0000
     1.0000   1.0000   1.0000   1.0000   1.0000   1.0000   1.0000   1.0000
     1.0000   1.0000   1.0000   1.0000   1.0000   1.0000   1.0000   1.0000
     1.0000   1.0000   1.0000   1.0000   1.0000   1.0000   1.0000   1.0000
     1.0000   1.0000   1.0000   1.0000   1.0000   1.0000   1.0000   1.0000
     1.0000   1.0000   1.0000   1.0000   1.0000   1.0000   1.0000   1.0000
     0.0000   0.0000   0.0000   0.0000   0.0000   0.0000   0.0000   0.0000
     0.0000   0.0000   0.0000   0.0000   0.0000

          k = 0.5303 0.5303-0.1768 (  6253 PWs)   bands (ev):

   -29.3514 -29.3207 -29.3015 -29.2813 -29.2763 -29.2707 -29.2516 -29.2450
   -11.1643 -11.1638 -11.1635 -11.0883 -10.9833 -10.9548 -10.9537 -10.8129
   -10.6438 -10.6413 -10.5878 -10.4848 -10.4825 -10.4745 -10.4723 -10.4120
   -10.3905 -10.3651 -10.3413 -10.3395 -10.3365 -10.3001 -10.2814 -10.2500
    -6.9219  -6.8691  -6.8220  -6.8219  -6.6243  -6.5918  -6.5917  -6.5771
     5.8221   5.8250   5.8568   5.9249   6.0595   6.3585   6.3591   6.3646
     6.7507   6.7545   6.7700   6.7803   6.7816   6.8055   6.8903   6.9919
     6.9932   7.0234   7.0256   7.2112   7.2510   7.3891   7.3927   7.5005
    12.4923  13.3910  13.4000  13.4039  13.7750  13.7847  14.1085  14.3821
    14.4283  15.1500  15.2204  15.3003  15.3429

     occupation numbers 
     1.0000   1.0000   1.0000   1.0000   1.0000   1.0000   1.0000   1.0000
     1.0000   1.0000   1.0000   1.0000   1.0000   1.0000   1.0000   1.0000
     1.0000   1.0000   1.0000   1.0000   1.0000   1.0000   1.0000   1.0000
     1.0000   1.0000   1.0000   1.0000   1.0000   1.0000   1.0000   1.0000
     1.0000   1.0000   1.0000   1.0000   1.0000   1.0000   1.0000   1.0000
     1.0000   1.0000   1.0000   1.0000   1.0000   1.0000   1.0000   1.0000
     1.0000   1.0000   1.0000   1.0000   1.0000   1.0000   1.0000   1.0000
     1.0000   1.0000   1.0000   1.0000   1.0000   1.0000   1.0000   1.0000
     0.0000   0.0000   0.0000   0.0000   0.0000   0.0000   0.0000   0.0000
     0.0000   0.0000   0.0000   0.0000   0.0000

          k =-0.5303 0.5303 0.1768 (  6253 PWs)   bands (ev):

   -29.3526 -29.3168 -29.3008 -29.2846 -29.2821 -29.2648 -29.2509 -29.2458
   -11.1646 -11.1639 -11.1634 -11.0882 -10.9832 -10.9540 -10.9540 -10.8127
   -10.6431 -10.6421 -10.5883 -10.4875 -10.4858 -10.4705 -10.4695 -10.4115
   -10.3919 -10.3660 -10.3399 -10.3381 -10.3370 -10.3019 -10.2818 -10.2488
    -6.9220  -6.8691  -6.8220  -6.8219  -6.6243  -6.5918  -6.5915  -6.5771
     5.8234   5.8237   5.8567   5.9249   6.0596   6.3587   6.3594   6.3643
     6.7524   6.7541   6.7683   6.7802   6.7820   6.8052   6.8903   6.9907
     6.9911   7.0245   7.0279   7.2109   7.2509   7.3906   7.3914   7.5007
    12.4923  13.3906  13.4008  13.4030  13.7797  13.7810  14.1083  14.3822
    14.4284  15.1500  15.2209  15.3015  15.3423

     occupation numbers 
     1.0000   1.0000   1.0000   1.0000   1.0000   1.0000   1.0000   1.0000
     1.0000   1.0000   1.0000   1.0000   1.0000   1.0000   1.0000   1.0000
     1.0000   1.0000   1.0000   1.0000   1.0000   1.0000   1.0000   1.0000
     1.0000   1.0000   1.0000   1.0000   1.0000   1.0000   1.0000   1.0000
     1.0000   1.0000   1.0000   1.0000   1.0000   1.0000   1.0000   1.0000
     1.0000   1.0000   1.0000   1.0000   1.0000   1.0000   1.0000   1.0000
     1.0000   1.0000   1.0000   1.0000   1.0000   1.0000   1.0000   1.0000
     1.0000   1.0000   1.0000   1.0000   1.0000   1.0000   1.0000   1.0000
     0.0000   0.0000   0.0000   0.0000   0.0000   0.0000   0.0000   0.0000
     0.0000   0.0000   0.0000   0.0000   0.0000

          k = 0.5303-0.5303 0.1768 (  6253 PWs)   bands (ev):

   -29.3503 -29.3250 -29.2935 -29.2847 -29.2815 -29.2666 -29.2508 -29.2462
   -11.1642 -11.1639 -11.1634 -11.0882 -10.9834 -10.9543 -10.9542 -10.8131
   -10.6432 -10.6421 -10.5878 -10.4831 -10.4812 -10.4752 -10.4731 -10.4118
   -10.3904 -10.3650 -10.3449 -10.3382 -10.3372 -10.2968 -10.2826 -10.2503
    -6.9219  -6.8691  -6.8219  -6.8219  -6.6243  -6.5918  -6.5916  -6.5771
     5.8234   5.8237   5.8568   5.9250   6.0594   6.3585   6.3592   6.3644
     6.7514   6.7525   6.7679   6.7820   6.7837   6.8053   6.8904   6.9917
     6.9926   7.0234   7.0263   7.2110   7.2510   7.3905   7.3913   7.5006
    12.4924  13.3925  13.4011  13.4015  13.7793  13.7804  14.1084  14.3806
    14.4299  15.1497  15.2205  15.3021  15.3421

     occupation numbers 
     1.0000   1.0000   1.0000   1.0000   1.0000   1.0000   1.0000   1.0000
     1.0000   1.0000   1.0000   1.0000   1.0000   1.0000   1.0000   1.0000
     1.0000   1.0000   1.0000   1.0000   1.0000   1.0000   1.0000   1.0000
     1.0000   1.0000   1.0000   1.0000   1.0000   1.0000   1.0000   1.0000
     1.0000   1.0000   1.0000   1.0000   1.0000   1.0000   1.0000   1.0000
     1.0000   1.0000   1.0000   1.0000   1.0000   1.0000   1.0000   1.0000
     1.0000   1.0000   1.0000   1.0000   1.0000   1.0000   1.0000   1.0000
     1.0000   1.0000   1.0000   1.0000   1.0000   1.0000   1.0000   1.0000
     0.0000   0.0000   0.0000   0.0000   0.0000   0.0000   0.0000   0.0000
     0.0000   0.0000   0.0000   0.0000   0.0000

          k =-0.5303-0.5303-0.1768 (  6253 PWs)   bands (ev):

   -29.3506 -29.3233 -29.2991 -29.2815 -29.2763 -29.2710 -29.2515 -29.2452
   -11.1644 -11.1637 -11.1633 -11.0883 -10.9834 -10.9548 -10.9537 -10.8130
   -10.6438 -10.6414 -10.5876 -10.4832 -10.4798 -10.4771 -10.4738 -10.4120
   -10.3899 -10.3648 -10.3429 -10.3395 -10.3366 -10.2985 -10.2816 -10.2505
    -6.9220  -6.8691  -6.8220  -6.8219  -6.6242  -6.5918  -6.5916  -6.5771
     5.8222   5.8250   5.8569   5.9249   6.0595   6.3589   6.3591   6.3642
     6.7512   6.7544   6.7699   6.7800   6.7814   6.8054   6.8904   6.9911
     6.9930   7.0240   7.0259   7.2112   7.2510   7.3891   7.3927   7.5005
    12.4923  13.3917  13.3998  13.4035  13.7750  13.7847  14.1087  14.3811
    14.4293  15.1498  15.2206  15.3015  15.3413

     occupation numbers 
     1.0000   1.0000   1.0000   1.0000   1.0000   1.0000   1.0000   1.0000
     1.0000   1.0000   1.0000   1.0000   1.0000   1.0000   1.0000   1.0000
     1.0000   1.0000   1.0000   1.0000   1.0000   1.0000   1.0000   1.0000
     1.0000   1.0000   1.0000   1.0000   1.0000   1.0000   1.0000   1.0000
     1.0000   1.0000   1.0000   1.0000   1.0000   1.0000   1.0000   1.0000
     1.0000   1.0000   1.0000   1.0000   1.0000   1.0000   1.0000   1.0000
     1.0000   1.0000   1.0000   1.0000   1.0000   1.0000   1.0000   1.0000
     1.0000   1.0000   1.0000   1.0000   1.0000   1.0000   1.0000   1.0000
     0.0000   0.0000   0.0000   0.0000   0.0000   0.0000   0.0000   0.0000
     0.0000   0.0000   0.0000   0.0000   0.0000

          k = 0.0000 0.3536 0.3536 (  6259 PWs)   bands (ev):

   -29.3643 -29.3096 -29.3053 -29.2812 -29.2759 -29.2606 -29.2555 -29.2457
   -11.2320 -11.2320 -11.1797 -11.1792 -10.9864 -10.9843 -10.8664 -10.7839
   -10.7292 -10.5044 -10.5039 -10.4968 -10.4951 -10.4494 -10.4473 -10.4130
   -10.3664 -10.3655 -10.3214 -10.3200 -10.3187 -10.3154 -10.3009 -10.2289
    -7.0023  -6.9030  -6.9025  -6.8822  -6.5666  -6.5663  -6.5330  -6.5329
     5.7694   5.7699   5.7750   5.7756   6.2229   6.2247   6.5099   6.6662
     6.6674   6.7291   6.7295   6.7957   6.7959   6.8724   6.8737   7.0552
     7.0572   7.0656   7.0785   7.0957   7.2371   7.2467   7.2894   7.6084
    12.5622  12.5738  13.0063  13.7966  13.8029  13.9212  14.1351  14.6373
    14.7021  14.7046  14.7650  14.7659  15.2525

     occupation numbers 
     1.0000   1.0000   1.0000   1.0000   1.0000   1.0000   1.0000   1.0000
     1.0000   1.0000   1.0000   1.0000   1.0000   1.0000   1.0000   1.0000
     1.0000   1.0000   1.0000   1.0000   1.0000   1.0000   1.0000   1.0000
     1.0000   1.0000   1.0000   1.0000   1.0000   1.0000   1.0000   1.0000
     1.0000   1.0000   1.0000   1.0000   1.0000   1.0000   1.0000   1.0000
     1.0000   1.0000   1.0000   1.0000   1.0000   1.0000   1.0000   1.0000
     1.0000   1.0000   1.0000   1.0000   1.0000   1.0000   1.0000   1.0000
     1.0000   1.0000   1.0000   1.0000   1.0000   1.0000   1.0000   1.0000
     0.0000   0.0000   0.0000   0.0000   0.0000   0.0000   0.0000   0.0000
     0.0000   0.0000   0.0000   0.0000   0.0000

          k =-0.3536 0.0000-0.3536 (  6259 PWs)   bands (ev):

   -29.3635 -29.3134 -29.3066 -29.2745 -29.2694 -29.2658 -29.2611 -29.2439
   -11.2319 -11.2319 -11.1795 -11.1793 -10.9861 -10.9849 -10.8667 -10.7841
   -10.7294 -10.5046 -10.5033 -10.4938 -10.4934 -10.4515 -10.4502 -10.4124
   -10.3679 -10.3656 -10.3206 -10.3191 -10.3156 -10.3147 -10.3037 -10.2299
    -7.0022  -6.9028  -6.9027  -6.8821  -6.5666  -6.5663  -6.5331  -6.5330
     5.7688   5.7699   5.7744   5.7768   6.2230   6.2244   6.5096   6.6653
     6.6669   6.7295   6.7312   6.7956   6.7960   6.8713   6.8734   7.0542
     7.0565   7.0743   7.0802   7.0888   7.2400   7.2440   7.2886   7.6084
    12.5639  12.5722  13.0065  13.7942  13.8052  13.9209  14.1349  14.6354
    14.7024  14.7060  14.7649  14.7666  15.2524

     occupation numbers 
     1.0000   1.0000   1.0000   1.0000   1.0000   1.0000   1.0000   1.0000
     1.0000   1.0000   1.0000   1.0000   1.0000   1.0000   1.0000   1.0000
     1.0000   1.0000   1.0000   1.0000   1.0000   1.0000   1.0000   1.0000
     1.0000   1.0000   1.0000   1.0000   1.0000   1.0000   1.0000   1.0000
     1.0000   1.0000   1.0000   1.0000   1.0000   1.0000   1.0000   1.0000
     1.0000   1.0000   1.0000   1.0000   1.0000   1.0000   1.0000   1.0000
     1.0000   1.0000   1.0000   1.0000   1.0000   1.0000   1.0000   1.0000
     1.0000   1.0000   1.0000   1.0000   1.0000   1.0000   1.0000   1.0000
     0.0000   0.0000   0.0000   0.0000   0.0000   0.0000   0.0000   0.0000
     0.0000   0.0000   0.0000   0.0000   0.0000

          k = 0.3536 0.0000-0.3536 (  6259 PWs)   bands (ev):

   -29.3646 -29.3080 -29.3049 -29.2857 -29.2726 -29.2634 -29.2523 -29.2468
   -11.2321 -11.2319 -11.1795 -11.1793 -10.9854 -10.9852 -10.8663 -10.7840
   -10.7290 -10.5054 -10.5032 -10.4985 -10.4941 -10.4503 -10.4455 -10.4132
   -10.3660 -10.3652 -10.3213 -10.3212 -10.3189 -10.3155 -10.3002 -10.2286
    -7.0022  -6.9030  -6.9025  -6.8822  -6.5666  -6.5663  -6.5330  -6.5330
     5.7686   5.7698   5.7744   5.7770   6.2234   6.2241   6.5098   6.6660
     6.6674   6.7291   6.7298   6.7956   6.7959   6.8719   6.8738   7.0559
     7.0566   7.0700   7.0786   7.0921   7.2405   7.2434   7.2889   7.6084
    12.5665  12.5696  13.0063  13.7939  13.8053  13.9212  14.1352  14.6383
    14.7025  14.7032  14.7652  14.7656  15.2524

     occupation numbers 
     1.0000   1.0000   1.0000   1.0000   1.0000   1.0000   1.0000   1.0000
     1.0000   1.0000   1.0000   1.0000   1.0000   1.0000   1.0000   1.0000
     1.0000   1.0000   1.0000   1.0000   1.0000   1.0000   1.0000   1.0000
     1.0000   1.0000   1.0000   1.0000   1.0000   1.0000   1.0000   1.0000
     1.0000   1.0000   1.0000   1.0000   1.0000   1.0000   1.0000   1.0000
     1.0000   1.0000   1.0000   1.0000   1.0000   1.0000   1.0000   1.0000
     1.0000   1.0000   1.0000   1.0000   1.0000   1.0000   1.0000   1.0000
     1.0000   1.0000   1.0000   1.0000   1.0000   1.0000   1.0000   1.0000
     0.0000   0.0000   0.0000   0.0000   0.0000   0.0000   0.0000   0.0000
     0.0000   0.0000   0.0000   0.0000   0.0000

          k = 0.3536 0.3536 0.0000 (  6259 PWs)   bands (ev):

   -29.3638 -29.3105 -29.3082 -29.2767 -29.2712 -29.2648 -29.2587 -29.2443
   -11.2319 -11.2319 -11.1795 -11.1793 -10.9861 -10.9848 -10.8666 -10.7842
   -10.7291 -10.5046 -10.5033 -10.4951 -10.4938 -10.4509 -10.4491 -10.4127
   -10.3676 -10.3652 -10.3212 -10.3187 -10.3171 -10.3150 -10.3027 -10.2295
    -7.0022  -6.9028  -6.9027  -6.8821  -6.5666  -6.5663  -6.5331  -6.5330
     5.7689   5.7699   5.7737   5.7774   6.2230   6.2244   6.5096   6.6653
     6.6670   6.7295   6.7312   6.7956   6.7962   6.8707   6.8739   7.0550
     7.0562   7.0743   7.0792   7.0892   7.2405   7.2435   7.2885   7.6084
    12.5638  12.5724  13.0063  13.7909  13.8085  13.9209  14.1350  14.6361
    14.7024  14.7038  14.7658  14.7670  15.2524

     occupation numbers 
     1.0000   1.0000   1.0000   1.0000   1.0000   1.0000   1.0000   1.0000
     1.0000   1.0000   1.0000   1.0000   1.0000   1.0000   1.0000   1.0000
     1.0000   1.0000   1.0000   1.0000   1.0000   1.0000   1.0000   1.0000
     1.0000   1.0000   1.0000   1.0000   1.0000   1.0000   1.0000   1.0000
     1.0000   1.0000   1.0000   1.0000   1.0000   1.0000   1.0000   1.0000
     1.0000   1.0000   1.0000   1.0000   1.0000   1.0000   1.0000   1.0000
     1.0000   1.0000   1.0000   1.0000   1.0000   1.0000   1.0000   1.0000
     1.0000   1.0000   1.0000   1.0000   1.0000   1.0000   1.0000   1.0000
     0.0000   0.0000   0.0000   0.0000   0.0000   0.0000   0.0000   0.0000
     0.0000   0.0000   0.0000   0.0000   0.0000

          k =-0.3536 0.3536 0.0000 (  6259 PWs)   bands (ev):

   -29.3643 -29.3102 -29.3050 -29.2790 -29.2779 -29.2594 -29.2567 -29.2456
   -11.2320 -11.2320 -11.1795 -11.1793 -10.9856 -10.9851 -10.8664 -10.7842
   -10.7289 -10.5048 -10.5037 -10.4960 -10.4954 -10.4490 -10.4482 -10.4130
   -10.3663 -10.3655 -10.3218 -10.3199 -10.3183 -10.3154 -10.3010 -10.2290
    -7.0022  -6.9029  -6.9026  -6.8822  -6.5666  -6.5662  -6.5331  -6.5329
     5.7690   5.7698   5.7737   5.7773   6.2237   6.2238   6.5098   6.6658
     6.6675   6.7291   6.7299   6.7956   6.7959   6.8712   6.8745   7.0554
     7.0566   7.0689   7.0788   7.0933   7.2404   7.2436   7.2890   7.6084
    12.5677  12.5685  13.0063  13.7908  13.8085  13.9211  14.1352  14.6380
    14.7018  14.7027  14.7661  14.7662  15.2525

     occupation numbers 
     1.0000   1.0000   1.0000   1.0000   1.0000   1.0000   1.0000   1.0000
     1.0000   1.0000   1.0000   1.0000   1.0000   1.0000   1.0000   1.0000
     1.0000   1.0000   1.0000   1.0000   1.0000   1.0000   1.0000   1.0000
     1.0000   1.0000   1.0000   1.0000   1.0000   1.0000   1.0000   1.0000
     1.0000   1.0000   1.0000   1.0000   1.0000   1.0000   1.0000   1.0000
     1.0000   1.0000   1.0000   1.0000   1.0000   1.0000   1.0000   1.0000
     1.0000   1.0000   1.0000   1.0000   1.0000   1.0000   1.0000   1.0000
     1.0000   1.0000   1.0000   1.0000   1.0000   1.0000   1.0000   1.0000
     0.0000   0.0000   0.0000   0.0000   0.0000   0.0000   0.0000   0.0000
     0.0000   0.0000   0.0000   0.0000   0.0000

          k = 0.0000-0.7071 0.0000 (  6314 PWs)   bands (ev):

   -29.3340 -29.3271 -29.2937 -29.2872 -29.2863 -29.2803 -29.2485 -29.2415
   -11.1551 -11.1544 -11.1540 -11.1535 -10.8220 -10.8201 -10.7198 -10.7188
   -10.6955 -10.6952 -10.6924 -10.6919 -10.5279 -10.5269 -10.5235 -10.5219
   -10.3591 -10.3556 -10.3547 -10.3536 -10.2876 -10.2871 -10.2857 -10.2825
    -6.9502  -6.9493  -6.8571  -6.8571  -6.5345  -6.5340  -6.5338  -6.5336
     5.7444   5.7455   5.7490   5.7501   6.1468   6.1542   6.5552   6.5554
     6.7361   6.7376   6.7381   6.7392   6.8154   6.8155   6.8168   6.8175
     7.0223   7.0240   7.0274   7.0288   7.5863   7.5864   7.5874   7.5875
    12.5415  12.5543  14.2279  14.2281  14.2399  14.2432  14.4045  14.4171
    14.4264  14.4360  14.6007  14.6099  15.2454

     occupation numbers 
     1.0000   1.0000   1.0000   1.0000   1.0000   1.0000   1.0000   1.0000
     1.0000   1.0000   1.0000   1.0000   1.0000   1.0000   1.0000   1.0000
     1.0000   1.0000   1.0000   1.0000   1.0000   1.0000   1.0000   1.0000
     1.0000   1.0000   1.0000   1.0000   1.0000   1.0000   1.0000   1.0000
     1.0000   1.0000   1.0000   1.0000   1.0000   1.0000   1.0000   1.0000
     1.0000   1.0000   1.0000   1.0000   1.0000   1.0000   1.0000   1.0000
     1.0000   1.0000   1.0000   1.0000   1.0000   1.0000   1.0000   1.0000
     1.0000   1.0000   1.0000   1.0000   1.0000   1.0000   1.0000   1.0000
     0.0000   0.0000   0.0000   0.0000   0.0000   0.0000   0.0000   0.0000
     0.0000   0.0000   0.0000   0.0000   0.0000

          k = 0.0000 0.0000-0.7071 (  6314 PWs)   bands (ev):

   -29.3327 -29.3291 -29.2891 -29.2884 -29.2856 -29.2847 -29.2463 -29.2431
   -11.1548 -11.1544 -11.1539 -11.1538 -10.8225 -10.8196 -10.7195 -10.7189
   -10.6965 -10.6963 -10.6913 -10.6912 -10.5271 -10.5258 -10.5247 -10.5224
   -10.3580 -10.3572 -10.3548 -10.3535 -10.2869 -10.2860 -10.2852 -10.2844
    -6.9505  -6.9491  -6.8571  -6.8571  -6.5344  -6.5340  -6.5338  -6.5337
     5.7448   5.7469   5.7476   5.7497   6.1445   6.1565   6.5552   6.5554
     6.7367   6.7377   6.7382   6.7385   6.8145   6.8154   6.8174   6.8175
     7.0224   7.0251   7.0262   7.0288   7.5860   7.5860   7.5878   7.5880
    12.5376  12.5582  14.2214  14.2236  14.2466  14.2480  14.4079  14.4191
    14.4232  14.4335  14.5980  14.6122  15.2484

     occupation numbers 
     1.0000   1.0000   1.0000   1.0000   1.0000   1.0000   1.0000   1.0000
     1.0000   1.0000   1.0000   1.0000   1.0000   1.0000   1.0000   1.0000
     1.0000   1.0000   1.0000   1.0000   1.0000   1.0000   1.0000   1.0000
     1.0000   1.0000   1.0000   1.0000   1.0000   1.0000   1.0000   1.0000
     1.0000   1.0000   1.0000   1.0000   1.0000   1.0000   1.0000   1.0000
     1.0000   1.0000   1.0000   1.0000   1.0000   1.0000   1.0000   1.0000
     1.0000   1.0000   1.0000   1.0000   1.0000   1.0000   1.0000   1.0000
     1.0000   1.0000   1.0000   1.0000   1.0000   1.0000   1.0000   1.0000
     0.0000   0.0000   0.0000   0.0000   0.0000   0.0000   0.0000   0.0000
     0.0000   0.0000   0.0000   0.0000   0.0000

          k = 0.3536-0.7071 0.0000 (  6228 PWs)   bands (ev):

   -29.3296 -29.3185 -29.3143 -29.3030 -29.2718 -29.2604 -29.2562 -29.2451
   -11.0398 -11.0365 -11.0327 -11.0281 -10.9989 -10.9958 -10.9911 -10.9890
   -10.6480 -10.6464 -10.6434 -10.6417 -10.4216 -10.4204 -10.4192 -10.4097
   -10.4059 -10.4044 -10.3996 -10.3984 -10.3051 -10.2971 -10.2947 -10.2869
    -6.7536  -6.7507  -6.7436  -6.7394  -6.6985  -6.6941  -6.6872  -6.6842
     6.0036   6.0053   6.0104   6.0125   6.0877   6.0900   6.0946   6.0965
     6.8095   6.8107   6.8128   6.8139   6.8523   6.8541   6.8563   6.8579
     7.0702   7.0750   7.0861   7.0905   7.3597   7.3609   7.3626   7.3636
    13.2420  13.2474  13.2603  13.2656  14.3570  14.3679  14.3855  14.3977
    14.5909  14.5987  14.6097  14.6144  15.0920

     occupation numbers 
     1.0000   1.0000   1.0000   1.0000   1.0000   1.0000   1.0000   1.0000
     1.0000   1.0000   1.0000   1.0000   1.0000   1.0000   1.0000   1.0000
     1.0000   1.0000   1.0000   1.0000   1.0000   1.0000   1.0000   1.0000
     1.0000   1.0000   1.0000   1.0000   1.0000   1.0000   1.0000   1.0000
     1.0000   1.0000   1.0000   1.0000   1.0000   1.0000   1.0000   1.0000
     1.0000   1.0000   1.0000   1.0000   1.0000   1.0000   1.0000   1.0000
     1.0000   1.0000   1.0000   1.0000   1.0000   1.0000   1.0000   1.0000
     1.0000   1.0000   1.0000   1.0000   1.0000   1.0000   1.0000   1.0000
     0.0000   0.0000   0.0000   0.0000   0.0000   0.0000   0.0000   0.0000
     0.0000   0.0000   0.0000   0.0000   0.0000

          k = 0.7071 0.0000 0.3536 (  6228 PWs)   bands (ev):

   -29.3297 -29.3174 -29.3154 -29.3029 -29.2719 -29.2593 -29.2572 -29.2449
   -11.0409 -11.0359 -11.0329 -11.0276 -10.9992 -10.9945 -10.9921 -10.9888
   -10.6469 -10.6453 -10.6448 -10.6426 -10.4211 -10.4204 -10.4193 -10.4091
   -10.4059 -10.4047 -10.3995 -10.3992 -10.3050 -10.2964 -10.2954 -10.2870
    -6.7542  -6.7491  -6.7449  -6.7391  -6.6988  -6.6928  -6.6888  -6.6837
     6.0043   6.0077   6.0091   6.0109   6.0875   6.0911   6.0936   6.0967
     6.8093   6.8106   6.8129   6.8140   6.8514   6.8546   6.8559   6.8588
     7.0678   7.0778   7.0834   7.0929   7.3590   7.3612   7.3622   7.3642
    13.2451  13.2530  13.2546  13.2625  14.3615  14.3690  14.3786  14.3992
    14.5956  14.5973  14.6047  14.6160  15.0941

     occupation numbers 
     1.0000   1.0000   1.0000   1.0000   1.0000   1.0000   1.0000   1.0000
     1.0000   1.0000   1.0000   1.0000   1.0000   1.0000   1.0000   1.0000
     1.0000   1.0000   1.0000   1.0000   1.0000   1.0000   1.0000   1.0000
     1.0000   1.0000   1.0000   1.0000   1.0000   1.0000   1.0000   1.0000
     1.0000   1.0000   1.0000   1.0000   1.0000   1.0000   1.0000   1.0000
     1.0000   1.0000   1.0000   1.0000   1.0000   1.0000   1.0000   1.0000
     1.0000   1.0000   1.0000   1.0000   1.0000   1.0000   1.0000   1.0000
     1.0000   1.0000   1.0000   1.0000   1.0000   1.0000   1.0000   1.0000
     0.0000   0.0000   0.0000   0.0000   0.0000   0.0000   0.0000   0.0000
     0.0000   0.0000   0.0000   0.0000   0.0000

     the Fermi energy is    10.1983 ev

!    total energy              =    -858.98547669 Ry
     Harris-Foulkes estimate   =    -858.98547668 Ry
     estimated scf accuracy    <          4.4E-11 Ry

     The total energy is the sum of the following terms:

     one-electron contribution =    -199.81368213 Ry
     hartree contribution      =     163.78198526 Ry
     xc contribution           =    -153.32597835 Ry
     ewald contribution        =    -669.62780147 Ry
     smearing contrib. (-TS)   =      -0.00000000 Ry

     convergence has been achieved in  15 iterations

     Forces acting on atoms (Ry/au):

     atom    1 type  1   force =   0.71224651E-03 -0.24250072E-02 -0.44164669E-03
     atom    2 type  2   force =   0.89812326E-03 -0.34856848E-03 -0.45519534E-03
     atom    3 type  1   force =   0.12209384E-02  0.47055271E-03  0.15059682E-02
     atom    4 type  2   force =  -0.37963227E-03 -0.18228303E-03 -0.72755952E-03
     atom    5 type  1   force =   0.14361127E-03 -0.15793690E-02 -0.23238755E-02
     atom    6 type  2   force =   0.11037333E-02 -0.37079439E-03 -0.10345609E-02
     atom    7 type  1   force =   0.38719266E-03 -0.10604090E-02 -0.22090392E-02
     atom    8 type  2   force =   0.52773812E-03 -0.21164222E-02 -0.68683750E-03
     atom    9 type  1   force =   0.14910343E-02  0.20777506E-02 -0.32186223E-03
     atom   10 type  2   force =   0.74816692E-03  0.13182648E-02  0.11559612E-02
     atom   11 type  1   force =  -0.13233464E-02 -0.60068444E-03 -0.60083900E-03
     atom   12 type  2   force =  -0.17487720E-02  0.52098350E-03  0.61212773E-03
     atom   13 type  1   force =  -0.12176184E-02  0.19389123E-02  0.13981585E-02
     atom   14 type  2   force =  -0.24773968E-03  0.86787569E-03 -0.37235127E-03
     atom   15 type  1   force =  -0.79848093E-03  0.12022330E-02  0.30528496E-02
     atom   16 type  2   force =  -0.15171950E-02  0.28696513E-03  0.14487019E-02
     The non-local contrib.  to forces
     atom    1 type  1   force =  -0.75684010E-03 -0.80032439E-03  0.75088636E-03
     atom    2 type  2   force =   0.40048655E-02 -0.28110012E-02  0.18399631E-03
     atom    3 type  1   force =   0.18362645E-03  0.99329074E-03 -0.40768111E-04
     atom    4 type  2   force =  -0.13679789E-02 -0.37710782E-03  0.33356881E-03
     atom    5 type  1   force =  -0.57724222E-03 -0.92050770E-03 -0.89034499E-03
     atom    6 type  2   force =   0.34059034E-02 -0.17701131E-02 -0.48491762E-02
     atom    7 type  1   force =   0.20595757E-03 -0.41265650E-03  0.23475551E-03
     atom    8 type  2   force =   0.12814047E-02 -0.35446420E-02 -0.39162873E-02
     atom    9 type  1   force =   0.12848889E-02 -0.29805793E-04 -0.65647770E-03
     atom   10 type  2   force =   0.13275479E-02  0.56620344E-02  0.32044250E-03
     atom   11 type  1   force =   0.81692551E-03  0.20421284E-03 -0.74745058E-03
     atom   12 type  2   force =  -0.47349406E-02  0.22966784E-03 -0.14512345E-04
     atom   13 type  1   force =   0.49346953E-03  0.81443714E-03 -0.85597560E-04
     atom   14 type  2   force =  -0.19570736E-02  0.33789371E-02  0.13156704E-02
     atom   15 type  1   force =  -0.65566555E-03  0.15239819E-03  0.15095987E-02
     atom   16 type  2   force =  -0.22286297E-02 -0.81980235E-03  0.65693934E-02
     The ionic contribution  to forces
     atom    1 type  1   force =   0.15879960E-02 -0.10707939E+00  0.29409961E-01
     atom    2 type  2   force =  -0.19630107E-02  0.32375740E-01 -0.71342421E-01
     atom    3 type  1   force =   0.52950220E-01  0.43859104E-01  0.54643621E-01
     atom    4 type  2   force =   0.85353900E-02 -0.30420738E-01 -0.73151936E-01
     atom    5 type  1   force =   0.20469182E-01 -0.66830634E-01 -0.11533412E+00
     atom    6 type  2   force =   0.30816222E-01  0.18844771E-01  0.25499693E-01
     atom    7 type  1   force =   0.18714612E-01 -0.34801723E-01 -0.94811482E-01
     atom    8 type  2   force =   0.15771144E-01 -0.10152820E+00  0.40840920E-01
     atom    9 type  1   force =   0.56282693E-01  0.78100815E-01 -0.24802786E-01
     atom   10 type  2   force =   0.21513101E-01 -0.97266168E-02  0.89769823E-01
     atom   11 type  1   force =  -0.34425081E-01 -0.32474068E-01 -0.52284795E-01
     atom   12 type  2   force =  -0.46115009E-01  0.42505914E-01  0.69730063E-01
     atom   13 type  1   force =  -0.35695903E-01  0.96256019E-01  0.50448766E-01
     atom   14 type  2   force =   0.11043040E-01 -0.20162922E-02 -0.64114394E-01
     atom   15 type  1   force =  -0.53415928E-01  0.22720443E-01  0.15451442E+00
     atom   16 type  2   force =  -0.66068668E-01  0.50214851E-01 -0.19015336E-01
     The local contribution  to forces
     atom    1 type  1   force =  -0.84471859E-04  0.10543635E+00 -0.30642802E-01
     atom    2 type  2   force =  -0.11200607E-02 -0.29921625E-01  0.70692244E-01
     atom    3 type  1   force =  -0.51895521E-01 -0.44406059E-01 -0.53076363E-01
     atom    4 type  2   force =  -0.75589482E-02  0.30612105E-01  0.72069085E-01
     atom    5 type  1   force =  -0.19733683E-01  0.66170419E-01  0.11389271E+00
     atom    6 type  2   force =  -0.33089380E-01 -0.17455951E-01 -0.21712521E-01
     atom    7 type  1   force =  -0.18535860E-01  0.34141067E-01  0.92334151E-01
     atom    8 type  2   force =  -0.16509810E-01  0.10289629E+00 -0.37629819E-01
     atom    9 type  1   force =  -0.56081796E-01 -0.75959892E-01  0.25154662E-01
     atom   10 type  2   force =  -0.22069847E-01  0.54175219E-02 -0.88899703E-01
     atom   11 type  1   force =   0.32246403E-01  0.31662125E-01  0.52451268E-01
     atom   12 type  2   force =   0.49052790E-01 -0.42199059E-01 -0.69086396E-01
     atom   13 type  1   force =   0.33953251E-01 -0.95127058E-01 -0.48945385E-01
     atom   14 type  2   force =  -0.93390266E-02 -0.47172853E-03  0.62414039E-01
     atom   15 type  1   force =   0.53279107E-01 -0.21644535E-01 -0.15296649E+00
     atom   16 type  2   force =   0.66736343E-01 -0.49099845E-01  0.13932485E-01
     The core correction contribution to forces
     atom    1 type  1   force =  -0.34152144E-04  0.17705641E-04  0.40696865E-04
     atom    2 type  2   force =  -0.24364963E-04  0.87643396E-05  0.12095884E-04
     atom    3 type  1   force =  -0.16985191E-04  0.24070678E-04 -0.19981087E-04
     atom    4 type  2   force =   0.11478543E-04  0.39808323E-05  0.21713561E-04
     atom    5 type  1   force =  -0.14705672E-04  0.11733556E-05  0.73445847E-05
     atom    6 type  2   force =  -0.30219980E-04  0.10577563E-04  0.28315835E-04
     atom    7 type  1   force =   0.24813891E-05  0.13229272E-04  0.32783303E-04
     atom    8 type  2   force =  -0.15127298E-04  0.61188191E-04  0.18990245E-04
     atom    9 type  1   force =   0.51915258E-05 -0.33066090E-04 -0.17263887E-04
     atom   10 type  2   force =  -0.22562520E-04 -0.36025687E-04 -0.34832206E-04
     atom   11 type  1   force =   0.38289067E-04  0.66662610E-05 -0.19845836E-04
     atom   12 type  2   force =   0.49620376E-04 -0.15625490E-04 -0.17485391E-04
     atom   13 type  1   force =   0.31212362E-04 -0.43169814E-05 -0.19174908E-04
     atom   14 type  2   force =   0.57786245E-05 -0.23887886E-04  0.12100755E-04
     atom   15 type  1   force =  -0.61554948E-05 -0.25825474E-04 -0.43515089E-05
     atom   16 type  2   force =   0.44403806E-04 -0.86599495E-05 -0.39163076E-04
     The Hubbard contrib.    to forces
     atom    1 type  1   force =   0.00000000E+00  0.00000000E+00  0.00000000E+00
     atom    2 type  2   force =   0.00000000E+00  0.00000000E+00  0.00000000E+00
     atom    3 type  1   force =   0.00000000E+00  0.00000000E+00  0.00000000E+00
     atom    4 type  2   force =   0.00000000E+00  0.00000000E+00  0.00000000E+00
     atom    5 type  1   force =   0.00000000E+00  0.00000000E+00  0.00000000E+00
     atom    6 type  2   force =   0.00000000E+00  0.00000000E+00  0.00000000E+00
     atom    7 type  1   force =   0.00000000E+00  0.00000000E+00  0.00000000E+00
     atom    8 type  2   force =   0.00000000E+00  0.00000000E+00  0.00000000E+00
     atom    9 type  1   force =   0.00000000E+00  0.00000000E+00  0.00000000E+00
     atom   10 type  2   force =   0.00000000E+00  0.00000000E+00  0.00000000E+00
     atom   11 type  1   force =   0.00000000E+00  0.00000000E+00  0.00000000E+00
     atom   12 type  2   force =   0.00000000E+00  0.00000000E+00  0.00000000E+00
     atom   13 type  1   force =   0.00000000E+00  0.00000000E+00  0.00000000E+00
     atom   14 type  2   force =   0.00000000E+00  0.00000000E+00  0.00000000E+00
     atom   15 type  1   force =   0.00000000E+00  0.00000000E+00  0.00000000E+00
     atom   16 type  2   force =   0.00000000E+00  0.00000000E+00  0.00000000E+00
     The SCF correction term to forces
     atom    1 type  1   force =  -0.28743581E-06  0.57767802E-06 -0.34276265E-06
     atom    2 type  2   force =   0.69215599E-06 -0.52159839E-06 -0.10638455E-05
     atom    3 type  1   force =  -0.40465359E-06  0.71045933E-07 -0.49497343E-06
     atom    4 type  2   force =   0.42425024E-06 -0.59909086E-06  0.54960720E-07
     atom    5 type  1   force =   0.58392649E-07  0.10425833E-06  0.58067297E-06
     atom    6 type  2   force =   0.12063861E-05 -0.15513294E-06 -0.82699768E-06
     atom    7 type  1   force =   0.28737246E-09 -0.40134026E-06  0.79934209E-06
     atom    8 type  2   force =   0.12478401E-06 -0.11355674E-05 -0.59571147E-06
     atom    9 type  1   force =   0.55021324E-07 -0.37714416E-06  0.50403015E-07
     atom   10 type  2   force =  -0.73729593E-07  0.12752630E-05  0.27761837E-06
     atom   11 type  1   force =   0.11457438E-06  0.30377775E-06  0.30141040E-07
     atom   12 type  2   force =  -0.12348216E-05  0.10355231E-07  0.50531554E-06
     atom   13 type  1   force =   0.34945340E-06 -0.24459528E-06 -0.40352498E-06
     atom   14 type  2   force =  -0.46040999E-06  0.77147532E-06  0.27936776E-06
     atom   15 type  1   force =   0.15960135E-06 -0.32330385E-06 -0.28849570E-06
     atom   16 type  2   force =  -0.64606612E-06  0.34549213E-06  0.13688391E-05

     Total force =     0.008638     Total SCF correction =     0.000004


     entering subroutine stress ...

          total   stress  (Ry/bohr**3)                   (kbar)     P=    0.15
   0.0000009743   0.0000000193   0.0000000180          0.14      0.00      0.00
   0.0000000193   0.0000010740  -0.0000000002          0.00      0.16     -0.00
   0.0000000180  -0.0000000002   0.0000010339          0.00     -0.00      0.15

     kinetic stress (kbar)  19113.65      0.00      0.00
                                0.00  19113.67     -0.01
                                0.00     -0.01  19113.67

     local   stress (kbar)  -1917.02     -0.16     -0.21
                               -0.16  -1917.01      0.35
                               -0.21      0.35  -1916.48

     nonloc. stress (kbar)   4494.10      0.00      0.00
                                0.00   4494.10      0.00
                                0.00      0.00   4494.10

     hartree stress (kbar)   5487.12      0.07      0.10
                                0.07   5487.07     -0.14
                                0.10     -0.14   5486.85

     exc-cor stress (kbar)  -3162.93     -0.00      0.00
                               -0.00  -3162.93     -0.00
                                0.00     -0.00  -3162.93

     corecor stress (kbar)  -1581.03     -0.00     -0.00
                               -0.00  -1581.03      0.00
                               -0.00      0.00  -1581.03

     ewald   stress (kbar) -22433.75      0.09      0.11
                                0.09 -22433.72     -0.20
                                0.11     -0.20 -22434.04

     hubbard stress (kbar)      0.00      0.00      0.00
                                0.00      0.00      0.00
                                0.00      0.00      0.00

     london  stress (kbar)      0.00      0.00      0.00
                                0.00      0.00      0.00
                                0.00      0.00      0.00

     XDM     stress (kbar)      0.00      0.00      0.00
                                0.00      0.00      0.00
                                0.00      0.00      0.00

     dft-nl  stress (kbar)      0.00      0.00      0.00
                                0.00      0.00      0.00
                                0.00      0.00      0.00



     Writing output data file CaO_rocksalt.relax.in.up_1.00.super.222.022.save

     init_run     :     24.57s CPU     21.83s WALL (       1 calls)
     electrons    :    948.50s CPU    874.10s WALL (       1 calls)
     forces       :      7.41s CPU      6.01s WALL (       1 calls)
     stress       :     16.14s CPU     15.84s WALL (       1 calls)

     Called by init_run:
     wfcinit      :     23.68s CPU     20.92s WALL (       1 calls)
     potinit      :      0.11s CPU      0.12s WALL (       1 calls)

     Called by electrons:
     c_bands      :    844.80s CPU    774.96s WALL (      15 calls)
     sum_band     :     96.97s CPU     92.38s WALL (      15 calls)
     v_of_rho     :      0.94s CPU      0.94s WALL (      16 calls)
     v_h          :      0.04s CPU      0.05s WALL (      16 calls)
     v_xc         :      1.00s CPU      0.99s WALL (      18 calls)
     newd         :      5.00s CPU      5.01s WALL (      16 calls)
     mix_rho      :      1.05s CPU      1.06s WALL (      15 calls)

     Called by c_bands:
     init_us_2    :      4.61s CPU      4.63s WALL (    1188 calls)
     cegterg      :    824.36s CPU    753.81s WALL (     540 calls)

     Called by sum_band:
     sum_band:bec :      0.86s CPU      0.82s WALL (     540 calls)
     addusdens    :      4.84s CPU      4.86s WALL (      15 calls)

     Called by *egterg:
     h_psi        :    444.13s CPU    416.29s WALL (    2262 calls)
     s_psi        :     54.75s CPU     35.31s WALL (    2262 calls)
     g_psi        :      0.70s CPU      0.71s WALL (    1686 calls)
     cdiaghg      :    168.92s CPU    164.08s WALL (    2226 calls)
     cegterg:over :     79.68s CPU     71.14s WALL (    1686 calls)
     cegterg:upda :     33.09s CPU     23.22s WALL (    1686 calls)
     cegterg:last :     15.32s CPU      9.47s WALL (     540 calls)

     Called by h_psi:
     h_psi:vloc   :    314.94s CPU    316.31s WALL (    2262 calls)
     h_psi:vnl    :    128.58s CPU     99.31s WALL (    2262 calls)
     add_vuspsi   :     55.16s CPU     36.63s WALL (    2262 calls)

     General routines
     calbec       :    102.44s CPU     86.30s WALL (    2874 calls)
     fft          :      0.96s CPU      0.93s WALL (     277 calls)
     ffts         :      0.67s CPU      0.66s WALL (     333 calls)
     fftw         :    354.19s CPU    355.69s WALL (  257724 calls)
     interpolate  :      0.17s CPU      0.16s WALL (      31 calls)

     Parallel routines
     fft_scatter  :    100.79s CPU    101.40s WALL (  258334 calls)

     PWSCF        : 16m38.99s CPU    15m20.67s WALL


   This run was terminated on:  11:10:27  21Aug2017            

=------------------------------------------------------------------------------=
   JOB DONE.
=------------------------------------------------------------------------------=
