
     Program PWSCF v.5.1 starts on  6Sep2017 at 13:54: 6 

     This program is part of the open-source Quantum ESPRESSO suite
     for quantum simulation of materials; please cite
         "P. Giannozzi et al., J. Phys.:Condens. Matter 21 395502 (2009);
          URL http://www.quantum-espresso.org", 
     in publications or presentations arising from this work. More details at
     http://www.quantum-espresso.org/quote

     Parallel version (MPI), running on     2 processors
     R & G space division:  proc/nbgrp/npool/nimage =       2
     Reading input from /tmp/CaO_rocksalt.relax.in.up_1.00.x.29739/CaO_rocksalt.relax.in.up_1.00.x.t
Warning: card &IONS ignored
Warning: card   ION_DYNAMICS='BFGS', ignored
Warning: card / ignored
Warning: card &CELL ignored
Warning: card  CELL_DYNAMICS = 'BFGS' ignored
Warning: card / ignored
     Message from routine read_cards :
     DEPRECATED: no units specified in CELL_PARAMETERS card

     Current dimensions of program PWSCF are:
     Max number of different atomic species (ntypx) = 10
     Max number of k-points (npk) =  40000
     Max angular momentum in pseudopotentials (lmaxx) =  3
 kfg - two_fermi_energies  F

     Subspace diagonalization in iterative solution of the eigenvalue problem:
     a serial algorithm will be used


     Parallelization info
     --------------------
     sticks:   dense  smooth     PW     G-vecs:    dense   smooth      PW
     Min         279     219     75                 4399     3111     604
     Max         280     220     76                 4402     3120     607
     Sum         559     439    151                 8801     6231    1211



     bravais-lattice index     =            0
     lattice parameter (alat)  =     6.372166499  a.u.
     unit-cell volume          =     182.9559 (a.u.)^3
     number of atoms/cell      =            2
     number of atomic types    =            2
     number of electrons       =        16.00
     number of Kohn-Sham states=           12
     kinetic-energy cutoff     =      40.0000  Ry
     charge density cutoff     =     200.0000  Ry
     convergence threshold     =      1.0E-10
     mixing beta               =       0.3000
     number of iterations used =            8  local-TF  mixing
     Exchange-correlation      = SLA  PW   PSX  PSC ( 1  4 10  8 0)
     A smooth kinetic-energy cutoff is imposed at      39.5000 Ry
     height of the smooth step-function =             800.0000 Ry
     width of the smooth step-function  =               1.0000 Ry


     celldm(1)=   6.372166  celldm(2)=   0.000000  celldm(3)=   0.000000
     celldm(4)=   0.000000  celldm(5)=   0.000000  celldm(6)=   0.000000

     crystal axes: (cart. coord. in units of alat)
               a(1) = (   0.000000000000   0.707106781187   0.707106781187 )  
               a(2) = (   0.707106781187   0.000000000000   0.707106781187 )  
               a(3) = (   0.707106781187   0.707106781187   0.000000000000 )  

     reciprocal axes: (cart. coord. in units 2 pi/alat)
               b(1) = ( -0.707107  0.707107  0.707107 )  
               b(2) = (  0.707107 -0.707107  0.707107 )  
               b(3) = (  0.707107  0.707107 -0.707107 )  


     PseudoPot. # 1 for Ca read from file:
     /users/kfg/psuedo/gbrv_1.5/ca.pbesol.UPF
     MD5 check sum: 0533207b58cddeaa036efa5b63902087
     Pseudo is Ultrasoft + core correction, Zval = 10.0
     Generated by new atomic code, or converted to UPF format
     Using radial grid of  845 points,  6 beta functions with: 
                l(1) =   0
                l(2) =   0
                l(3) =   1
                l(4) =   1
                l(5) =   2
                l(6) =   2
     Q(r) pseudized with  8 coefficients,  rinner =    1.500   1.500   1.500
                                                       1.500   1.500

     PseudoPot. # 2 for O  read from file:
     /users/kfg/psuedo/gbrv_1.5/o.pbesol.UPF
     MD5 check sum: 501638753501ef6325af9037351f7734
     Pseudo is Ultrasoft + core correction, Zval =  6.0
     Generated by new atomic code, or converted to UPF format
     Using radial grid of  737 points,  5 beta functions with: 
                l(1) =   0
                l(2) =   0
                l(3) =   1
                l(4) =   1
                l(5) =   2
     Q(r) pseudized with  8 coefficients,  rinner =    0.900   0.900   0.900
                                                       0.900   0.900

     atomic species   valence    mass     pseudopotential
        Ca            10.00    40.07800     Ca( 1.00)
        O              6.00    15.99940     O ( 1.00)

      4 Sym. Ops. (no inversion) found


                                    s                        frac. trans.

      isym =  1     identity                                     

 cryst.   s( 1) = (     1          0          0      )
                  (     0          1          0      )
                  (     0          0          1      )

 cart.    s( 1) = (  1.0000000  0.0000000  0.0000000 )
                  (  0.0000000  1.0000000  0.0000000 )
                  (  0.0000000  0.0000000  1.0000000 )


      isym =  2     180 deg rotation - cart. axis [0,1,1]        

 cryst.   s( 2) = (     1          0          0      )
                  (     1         -1          0      )
                  (     1          0         -1      )

 cart.    s( 2) = ( -1.0000000  0.0000000  0.0000000 )
                  (  0.0000000  0.0000000  1.0000000 )
                  (  0.0000000  1.0000000  0.0000000 )


      isym =  3     inv. 180 deg rotation - cart. axis [1,0,0]   

 cryst.   s( 3) = (     1          0          0      )
                  (     1          0         -1      )
                  (     1         -1          0      )

 cart.    s( 3) = ( -1.0000000  0.0000000  0.0000000 )
                  (  0.0000000  1.0000000  0.0000000 )
                  (  0.0000000  0.0000000  1.0000000 )


      isym =  4     inv. 180 deg rotation - cart. axis [0,1,-1]  

 cryst.   s( 4) = (     1          0          0      )
                  (     0          0          1      )
                  (     0          1          0      )

 cart.    s( 4) = (  1.0000000  0.0000000  0.0000000 )
                  (  0.0000000  0.0000000  1.0000000 )
                  (  0.0000000  1.0000000  0.0000000 )


     point group C_2v (mm2) 
     there are  4 classes
     the character table:

       E     C2    s_xz  s_yz 
A_1    1.00  1.00  1.00  1.00
A_2    1.00  1.00 -1.00 -1.00
B_1    1.00 -1.00  1.00 -1.00
B_2    1.00 -1.00 -1.00  1.00

     the symmetry operations in each class:
     E        1
     C2       2
     s_xz     3
     s_yz     4

   Cartesian axes

     site n.     atom                  positions (alat units)
         1           Ca  tau(   1) = (    0.00000000000    0.00070710678    0.00070710678  )
         2           O   tau(   2) = (    0.70710678119    0.70710678119    0.70710678119  )

   Crystallographic axes

     site n.     atom                  positions (cryst. coord.)
         1           Ca  tau(   1) = (    0.00100000000    0.00000000000    0.00000000000  )
         2           O   tau(   2) = (    0.50000000000    0.50000000000    0.50000000000  )

     number of k points=    95  gaussian smearing, width (Ry)=  0.0050
                       cart. coord. in units 2pi/alat
        k(    1) = (   0.0000000   0.0000000   0.0000000), wk =   0.0039063
        k(    2) = (   0.0883883   0.0883883  -0.0883883), wk =   0.0156250
        k(    3) = (   0.1767767   0.1767767  -0.1767767), wk =   0.0156250
        k(    4) = (   0.2651650   0.2651650  -0.2651650), wk =   0.0156250
        k(    5) = (  -0.3535534  -0.3535534   0.3535534), wk =   0.0078125
        k(    6) = (   0.1767767   0.0000000   0.0000000), wk =   0.0078125
        k(    7) = (   0.2651650   0.0883883  -0.0883883), wk =   0.0156250
        k(    8) = (   0.3535534   0.1767767  -0.1767767), wk =   0.0156250
        k(    9) = (  -0.2651650  -0.4419417   0.4419417), wk =   0.0156250
        k(   10) = (  -0.1767767  -0.3535534   0.3535534), wk =   0.0156250
        k(   11) = (  -0.0883883  -0.2651650   0.2651650), wk =   0.0156250
        k(   12) = (   0.0000000  -0.1767767   0.1767767), wk =   0.0078125
        k(   13) = (   0.3535534   0.0000000   0.0000000), wk =   0.0078125
        k(   14) = (   0.4419417   0.0883883  -0.0883883), wk =   0.0156250
        k(   15) = (  -0.1767767  -0.5303301   0.5303301), wk =   0.0156250
        k(   16) = (  -0.0883883  -0.4419417   0.4419417), wk =   0.0156250
        k(   17) = (   0.0000000  -0.3535534   0.3535534), wk =   0.0078125
        k(   18) = (   0.5303301   0.0000000   0.0000000), wk =   0.0078125
        k(   19) = (  -0.0883883  -0.6187184   0.6187184), wk =   0.0156250
        k(   20) = (   0.0000000  -0.5303301   0.5303301), wk =   0.0078125
        k(   21) = (  -0.7071068   0.0000000   0.0000000), wk =   0.0039063
        k(   22) = (   0.3535534   0.1767767   0.0000000), wk =   0.0312500
        k(   23) = (  -0.2651650  -0.4419417   0.6187184), wk =   0.0312500
        k(   24) = (  -0.1767767  -0.3535534   0.5303301), wk =   0.0312500
        k(   25) = (  -0.1767767  -0.5303301   0.7071068), wk =   0.0312500
        k(   26) = (  -0.0883883  -0.4419417   0.6187184), wk =   0.0312500
        k(   27) = (   0.0000000  -0.3535534   0.5303301), wk =   0.0156250
        k(   28) = (  -0.7071068   0.1767767   0.0000000), wk =   0.0156250
        k(   29) = (  -0.7071068   0.3535534   0.0000000), wk =   0.0156250
        k(   30) = (   0.0883883   0.0883883   0.0883883), wk =   0.0156250
        k(   31) = (   0.1767767   0.1767767   0.1767767), wk =   0.0156250
        k(   32) = (   0.2651650   0.2651650   0.2651650), wk =   0.0156250
        k(   33) = (  -0.3535534  -0.3535534  -0.3535534), wk =   0.0078125
        k(   34) = (   0.0000000   0.1767767   0.0000000), wk =   0.0156250
        k(   35) = (   0.0883883   0.2651650   0.0883883), wk =   0.0312500
        k(   36) = (  -0.0883883  -0.2651650   0.0883883), wk =   0.0312500
        k(   37) = (  -0.2651650  -0.0883883  -0.0883883), wk =   0.0156250
        k(   38) = (   0.1767767   0.3535534   0.1767767), wk =   0.0312500
        k(   39) = (  -0.1767767  -0.3535534   0.1767767), wk =   0.0312500
        k(   40) = (  -0.3535534  -0.1767767  -0.1767767), wk =   0.0156250
        k(   41) = (  -0.4419417  -0.2651650  -0.4419417), wk =   0.0312500
        k(   42) = (   0.4419417   0.2651650  -0.4419417), wk =   0.0312500
        k(   43) = (   0.2651650   0.4419417   0.4419417), wk =   0.0156250
        k(   44) = (  -0.3535534  -0.1767767  -0.3535534), wk =   0.0312500
        k(   45) = (   0.3535534   0.1767767  -0.3535534), wk =   0.0312500
        k(   46) = (   0.1767767   0.3535534   0.3535534), wk =   0.0156250
        k(   47) = (  -0.2651650  -0.0883883  -0.2651650), wk =   0.0312500
        k(   48) = (   0.2651650   0.0883883  -0.2651650), wk =   0.0312500
        k(   49) = (   0.0883883   0.2651650   0.2651650), wk =   0.0156250
        k(   50) = (  -0.1767767   0.0000000  -0.1767767), wk =   0.0312500
        k(   51) = (   0.0000000   0.1767767   0.1767767), wk =   0.0078125
        k(   52) = (   0.0000000   0.3535534   0.0000000), wk =   0.0156250
        k(   53) = (   0.0883883   0.4419417   0.0883883), wk =   0.0312500
        k(   54) = (  -0.0883883  -0.4419417   0.0883883), wk =   0.0312500
        k(   55) = (  -0.4419417  -0.0883883  -0.0883883), wk =   0.0156250
        k(   56) = (  -0.5303301  -0.1767767  -0.5303301), wk =   0.0312500
        k(   57) = (   0.5303301   0.1767767  -0.5303301), wk =   0.0312500
        k(   58) = (   0.1767767   0.5303301   0.5303301), wk =   0.0156250
        k(   59) = (  -0.4419417  -0.0883883  -0.4419417), wk =   0.0312500
        k(   60) = (   0.4419417   0.0883883  -0.4419417), wk =   0.0312500
        k(   61) = (   0.0883883   0.4419417   0.4419417), wk =   0.0156250
        k(   62) = (  -0.3535534   0.0000000  -0.3535534), wk =   0.0312500
        k(   63) = (   0.0000000   0.3535534   0.3535534), wk =   0.0078125
        k(   64) = (   0.0000000   0.5303301   0.0000000), wk =   0.0156250
        k(   65) = (  -0.6187184  -0.0883883  -0.6187184), wk =   0.0312500
        k(   66) = (   0.6187184   0.0883883  -0.6187184), wk =   0.0312500
        k(   67) = (   0.0883883   0.6187184   0.6187184), wk =   0.0156250
        k(   68) = (  -0.5303301   0.0000000  -0.5303301), wk =   0.0312500
        k(   69) = (   0.0000000   0.5303301   0.5303301), wk =   0.0078125
        k(   70) = (   0.0000000  -0.7071068   0.0000000), wk =   0.0078125
        k(   71) = (   0.1767767   0.3535534  -0.0000000), wk =   0.0312500
        k(   72) = (   0.0000000  -0.1767767   0.3535534), wk =   0.0156250
        k(   73) = (   0.0000000  -0.1767767  -0.3535534), wk =   0.0156250
        k(   74) = (  -0.4419417  -0.2651650  -0.6187184), wk =   0.0312500
        k(   75) = (   0.4419417   0.2651650  -0.6187184), wk =   0.0312500
        k(   76) = (   0.6187184   0.4419417  -0.2651650), wk =   0.0312500
        k(   77) = (  -0.6187184   0.4419417   0.2651650), wk =   0.0312500
        k(   78) = (   0.2651650   0.4419417   0.6187184), wk =   0.0312500
        k(   79) = (  -0.3535534  -0.1767767  -0.5303301), wk =   0.0156250
        k(   80) = (   0.3535534   0.1767767  -0.5303301), wk =   0.0156250
        k(   81) = (  -0.5303301   0.3535534   0.1767767), wk =   0.0312500
        k(   82) = (  -0.5303301  -0.1767767  -0.7071068), wk =   0.0312500
        k(   83) = (   0.7071068   0.5303301  -0.1767767), wk =   0.0156250
        k(   84) = (  -0.7071068   0.5303301   0.1767767), wk =   0.0156250
        k(   85) = (  -0.4419417  -0.0883883  -0.6187184), wk =   0.0312500
        k(   86) = (   0.4419417   0.0883883  -0.6187184), wk =   0.0312500
        k(   87) = (   0.6187184   0.4419417  -0.0883883), wk =   0.0312500
        k(   88) = (  -0.6187184   0.4419417   0.0883883), wk =   0.0312500
        k(   89) = (   0.0883883   0.4419417   0.6187184), wk =   0.0312500
        k(   90) = (  -0.3535534  -0.0000000  -0.5303301), wk =   0.0312500
        k(   91) = (   0.5303301   0.3535534   0.0000000), wk =   0.0312500
        k(   92) = (   0.0000000   0.3535534   0.5303301), wk =   0.0156250
        k(   93) = (   0.1767767  -0.7071068   0.0000000), wk =   0.0156250
        k(   94) = (  -0.0000000  -0.1767767  -0.7071068), wk =   0.0156250
        k(   95) = (   0.3535534  -0.7071068   0.0000000), wk =   0.0078125

                       cryst. coord.
        k(    1) = (   0.0000000   0.0000000   0.0000000), wk =   0.0039063
        k(    2) = (   0.0000000   0.0000000   0.1250000), wk =   0.0156250
        k(    3) = (   0.0000000   0.0000000   0.2500000), wk =   0.0156250
        k(    4) = (   0.0000000   0.0000000   0.3750000), wk =   0.0156250
        k(    5) = (   0.0000000   0.0000000  -0.5000000), wk =   0.0078125
        k(    6) = (   0.0000000   0.1250000   0.1250000), wk =   0.0078125
        k(    7) = (   0.0000000   0.1250000   0.2500000), wk =   0.0156250
        k(    8) = (   0.0000000   0.1250000   0.3750000), wk =   0.0156250
        k(    9) = (   0.0000000   0.1250000  -0.5000000), wk =   0.0156250
        k(   10) = (   0.0000000   0.1250000  -0.3750000), wk =   0.0156250
        k(   11) = (   0.0000000   0.1250000  -0.2500000), wk =   0.0156250
        k(   12) = (   0.0000000   0.1250000  -0.1250000), wk =   0.0078125
        k(   13) = (   0.0000000   0.2500000   0.2500000), wk =   0.0078125
        k(   14) = (   0.0000000   0.2500000   0.3750000), wk =   0.0156250
        k(   15) = (   0.0000000   0.2500000  -0.5000000), wk =   0.0156250
        k(   16) = (   0.0000000   0.2500000  -0.3750000), wk =   0.0156250
        k(   17) = (   0.0000000   0.2500000  -0.2500000), wk =   0.0078125
        k(   18) = (   0.0000000   0.3750000   0.3750000), wk =   0.0078125
        k(   19) = (   0.0000000   0.3750000  -0.5000000), wk =   0.0156250
        k(   20) = (   0.0000000   0.3750000  -0.3750000), wk =   0.0078125
        k(   21) = (   0.0000000  -0.5000000  -0.5000000), wk =   0.0039063
        k(   22) = (   0.1250000   0.2500000   0.3750000), wk =   0.0312500
        k(   23) = (   0.1250000   0.2500000  -0.5000000), wk =   0.0312500
        k(   24) = (   0.1250000   0.2500000  -0.3750000), wk =   0.0312500
        k(   25) = (   0.1250000   0.3750000  -0.5000000), wk =   0.0312500
        k(   26) = (   0.1250000   0.3750000  -0.3750000), wk =   0.0312500
        k(   27) = (   0.1250000   0.3750000  -0.2500000), wk =   0.0156250
        k(   28) = (   0.1250000  -0.5000000  -0.3750000), wk =   0.0156250
        k(   29) = (   0.2500000  -0.5000000  -0.2500000), wk =   0.0156250
        k(   30) = (   0.1250000   0.1250000   0.1250000), wk =   0.0156250
        k(   31) = (   0.2500000   0.2500000   0.2500000), wk =   0.0156250
        k(   32) = (   0.3750000   0.3750000   0.3750000), wk =   0.0156250
        k(   33) = (  -0.5000000  -0.5000000  -0.5000000), wk =   0.0078125
        k(   34) = (   0.1250000   0.0000000   0.1250000), wk =   0.0156250
        k(   35) = (   0.2500000   0.1250000   0.2500000), wk =   0.0312500
        k(   36) = (  -0.1250000   0.0000000  -0.2500000), wk =   0.0312500
        k(   37) = (  -0.1250000  -0.2500000  -0.2500000), wk =   0.0156250
        k(   38) = (   0.3750000   0.2500000   0.3750000), wk =   0.0312500
        k(   39) = (  -0.1250000   0.0000000  -0.3750000), wk =   0.0312500
        k(   40) = (  -0.2500000  -0.3750000  -0.3750000), wk =   0.0156250
        k(   41) = (  -0.5000000  -0.6250000  -0.5000000), wk =   0.0312500
        k(   42) = (  -0.1250000   0.0000000   0.5000000), wk =   0.0312500
        k(   43) = (   0.6250000   0.5000000   0.5000000), wk =   0.0156250
        k(   44) = (  -0.3750000  -0.5000000  -0.3750000), wk =   0.0312500
        k(   45) = (  -0.1250000   0.0000000   0.3750000), wk =   0.0312500
        k(   46) = (   0.5000000   0.3750000   0.3750000), wk =   0.0156250
        k(   47) = (  -0.2500000  -0.3750000  -0.2500000), wk =   0.0312500
        k(   48) = (  -0.1250000   0.0000000   0.2500000), wk =   0.0312500
        k(   49) = (   0.3750000   0.2500000   0.2500000), wk =   0.0156250
        k(   50) = (  -0.1250000  -0.2500000  -0.1250000), wk =   0.0312500
        k(   51) = (   0.2500000   0.1250000   0.1250000), wk =   0.0078125
        k(   52) = (   0.2500000   0.0000000   0.2500000), wk =   0.0156250
        k(   53) = (   0.3750000   0.1250000   0.3750000), wk =   0.0312500
        k(   54) = (  -0.2500000   0.0000000  -0.3750000), wk =   0.0312500
        k(   55) = (  -0.1250000  -0.3750000  -0.3750000), wk =   0.0156250
        k(   56) = (  -0.5000000  -0.7500000  -0.5000000), wk =   0.0312500
        k(   57) = (  -0.2500000   0.0000000   0.5000000), wk =   0.0312500
        k(   58) = (   0.7500000   0.5000000   0.5000000), wk =   0.0156250
        k(   59) = (  -0.3750000  -0.6250000  -0.3750000), wk =   0.0312500
        k(   60) = (  -0.2500000   0.0000000   0.3750000), wk =   0.0312500
        k(   61) = (   0.6250000   0.3750000   0.3750000), wk =   0.0156250
        k(   62) = (  -0.2500000  -0.5000000  -0.2500000), wk =   0.0312500
        k(   63) = (   0.5000000   0.2500000   0.2500000), wk =   0.0078125
        k(   64) = (   0.3750000   0.0000000   0.3750000), wk =   0.0156250
        k(   65) = (  -0.5000000  -0.8750000  -0.5000000), wk =   0.0312500
        k(   66) = (  -0.3750000   0.0000000   0.5000000), wk =   0.0312500
        k(   67) = (   0.8750000   0.5000000   0.5000000), wk =   0.0156250
        k(   68) = (  -0.3750000  -0.7500000  -0.3750000), wk =   0.0312500
        k(   69) = (   0.7500000   0.3750000   0.3750000), wk =   0.0078125
        k(   70) = (  -0.5000000   0.0000000  -0.5000000), wk =   0.0078125
        k(   71) = (   0.2500000   0.1250000   0.3750000), wk =   0.0312500
        k(   72) = (   0.1250000   0.2500000  -0.1250000), wk =   0.0156250
        k(   73) = (  -0.3750000  -0.2500000  -0.1250000), wk =   0.0156250
        k(   74) = (  -0.6250000  -0.7500000  -0.5000000), wk =   0.0312500
        k(   75) = (  -0.2500000  -0.1250000   0.5000000), wk =   0.0312500
        k(   76) = (   0.1250000   0.2500000   0.7500000), wk =   0.0312500
        k(   77) = (   0.5000000  -0.2500000  -0.1250000), wk =   0.0312500
        k(   78) = (   0.7500000   0.6250000   0.5000000), wk =   0.0312500
        k(   79) = (  -0.5000000  -0.6250000  -0.3750000), wk =   0.0156250
        k(   80) = (  -0.2500000  -0.1250000   0.3750000), wk =   0.0156250
        k(   81) = (   0.3750000  -0.2500000  -0.1250000), wk =   0.0312500
        k(   82) = (  -0.6250000  -0.8750000  -0.5000000), wk =   0.0312500
        k(   83) = (   0.2500000   0.3750000   0.8750000), wk =   0.0156250
        k(   84) = (   0.5000000  -0.3750000  -0.1250000), wk =   0.0156250
        k(   85) = (  -0.5000000  -0.7500000  -0.3750000), wk =   0.0312500
        k(   86) = (  -0.3750000  -0.1250000   0.3750000), wk =   0.0312500
        k(   87) = (   0.2500000   0.3750000   0.7500000), wk =   0.0312500
        k(   88) = (   0.3750000  -0.3750000  -0.1250000), wk =   0.0312500
        k(   89) = (   0.7500000   0.5000000   0.3750000), wk =   0.0312500
        k(   90) = (  -0.3750000  -0.6250000  -0.2500000), wk =   0.0312500
        k(   91) = (   0.2500000   0.3750000   0.6250000), wk =   0.0312500
        k(   92) = (   0.6250000   0.3750000   0.2500000), wk =   0.0156250
        k(   93) = (  -0.5000000   0.1250000  -0.3750000), wk =   0.0156250
        k(   94) = (  -0.6250000  -0.5000000  -0.1250000), wk =   0.0156250
        k(   95) = (  -0.5000000   0.2500000  -0.2500000), wk =   0.0078125

     Dense  grid:     8801 G-vectors     FFT dimensions: (  30,  30,  30)

     Smooth grid:     6231 G-vectors     FFT dimensions: (  25,  25,  25)

     Largest allocated arrays     est. size (Mb)     dimensions
        Kohn-Sham Wavefunctions         0.08 Mb     (     414,   12)
        NL pseudopotentials             0.20 Mb     (     414,   31)
        Each V/rho on FFT grid          0.21 Mb     (   13500)
        Each G-vector array             0.03 Mb     (    4399)
        G-vector shells                 0.00 Mb     (     140)
     Largest temporary arrays     est. size (Mb)     dimensions
        Auxiliary wavefunctions         0.30 Mb     (     414,   48)
        Each subspace H/S matrix        0.04 Mb     (      48,   48)
        Each <psi_i|beta_j> matrix      0.01 Mb     (      31,   12)
        Arrays for rho mixing           1.65 Mb     (   13500,    8)

     Check: negative/imaginary core charge=   -0.000003    0.000000

     Initial potential from superposition of free atoms

     starting charge   15.99482, renormalised to   16.00000
     Starting wfc are   14 randomized atomic wfcs

     total cpu time spent up to now is        2.7 secs

     per-process dynamical memory:    15.3 Mb

     Self-consistent Calculation

     iteration #  1     ecut=    40.00 Ry     beta=0.30
     Davidson diagonalization with overlap
     ethr =  1.00E-02,  avg # of iterations =  2.2

     total cpu time spent up to now is        7.5 secs

     total energy              =    -107.39274894 Ry
     Harris-Foulkes estimate   =    -107.48100776 Ry
     estimated scf accuracy    <       0.44652234 Ry

     iteration #  2     ecut=    40.00 Ry     beta=0.30
     Davidson diagonalization with overlap
     ethr =  2.79E-03,  avg # of iterations =  1.0

     total cpu time spent up to now is       11.4 secs

     total energy              =    -107.34600156 Ry
     Harris-Foulkes estimate   =    -107.40799348 Ry
     estimated scf accuracy    <       0.16328165 Ry

     iteration #  3     ecut=    40.00 Ry     beta=0.30
     Davidson diagonalization with overlap
     ethr =  1.02E-03,  avg # of iterations =  2.0

     total cpu time spent up to now is       15.7 secs

     total energy              =    -107.37257601 Ry
     Harris-Foulkes estimate   =    -107.37487024 Ry
     estimated scf accuracy    <       0.01018203 Ry

     iteration #  4     ecut=    40.00 Ry     beta=0.30
     Davidson diagonalization with overlap
     ethr =  6.36E-05,  avg # of iterations =  2.5

     total cpu time spent up to now is       20.7 secs

     total energy              =    -107.37229031 Ry
     Harris-Foulkes estimate   =    -107.37461092 Ry
     estimated scf accuracy    <       0.00762269 Ry

     iteration #  5     ecut=    40.00 Ry     beta=0.30
     Davidson diagonalization with overlap
     ethr =  4.76E-05,  avg # of iterations =  2.0

     total cpu time spent up to now is       25.0 secs

     total energy              =    -107.37318381 Ry
     Harris-Foulkes estimate   =    -107.37318575 Ry
     estimated scf accuracy    <       0.00002020 Ry

     iteration #  6     ecut=    40.00 Ry     beta=0.30
     Davidson diagonalization with overlap
     ethr =  1.26E-07,  avg # of iterations =  3.8

     total cpu time spent up to now is       31.1 secs

     total energy              =    -107.37320080 Ry
     Harris-Foulkes estimate   =    -107.37320208 Ry
     estimated scf accuracy    <       0.00001508 Ry

     iteration #  7     ecut=    40.00 Ry     beta=0.30
     Davidson diagonalization with overlap
     ethr =  9.43E-08,  avg # of iterations =  1.7

     total cpu time spent up to now is       35.7 secs

     total energy              =    -107.37320153 Ry
     Harris-Foulkes estimate   =    -107.37320191 Ry
     estimated scf accuracy    <       0.00000191 Ry

     iteration #  8     ecut=    40.00 Ry     beta=0.30
     Davidson diagonalization with overlap
     ethr =  1.20E-08,  avg # of iterations =  2.0

     total cpu time spent up to now is       40.4 secs

     total energy              =    -107.37320176 Ry
     Harris-Foulkes estimate   =    -107.37320176 Ry
     estimated scf accuracy    <       0.00000013 Ry

     iteration #  9     ecut=    40.00 Ry     beta=0.30
     Davidson diagonalization with overlap
     ethr =  8.04E-10,  avg # of iterations =  2.0

     total cpu time spent up to now is       44.7 secs

     total energy              =    -107.37320178 Ry
     Harris-Foulkes estimate   =    -107.37320178 Ry
     estimated scf accuracy    <       0.00000006 Ry

     iteration # 10     ecut=    40.00 Ry     beta=0.30
     Davidson diagonalization with overlap
     ethr =  3.95E-10,  avg # of iterations =  2.0

     total cpu time spent up to now is       49.0 secs

     total energy              =    -107.37320180 Ry
     Harris-Foulkes estimate   =    -107.37320179 Ry
     estimated scf accuracy    <          2.0E-09 Ry

     iteration # 11     ecut=    40.00 Ry     beta=0.30
     Davidson diagonalization with overlap
     ethr =  1.22E-11,  avg # of iterations =  2.0

     total cpu time spent up to now is       53.2 secs

     total energy              =    -107.37320181 Ry
     Harris-Foulkes estimate   =    -107.37320180 Ry
     estimated scf accuracy    <          3.5E-09 Ry

     iteration # 12     ecut=    40.00 Ry     beta=0.30
     Davidson diagonalization with overlap
     ethr =  1.22E-11,  avg # of iterations =  2.2

     total cpu time spent up to now is       57.9 secs

     End of self-consistent calculation

          k = 0.0000 0.0000 0.0000 (   749 PWs)   bands (ev):

   -29.4037 -10.2274 -10.2274 -10.2274  -7.5479   7.8909   7.8909   7.8909
    12.6802  14.1615  14.1615  14.1615

     occupation numbers 
     1.0000   1.0000   1.0000   1.0000   1.0000   1.0000   1.0000   1.0000
     0.0000   0.0000   0.0000   0.0000

          k = 0.0884 0.0884-0.0884 (   785 PWs)   bands (ev):

   -29.3866 -10.4742 -10.2360 -10.2360  -7.2923   7.3370   7.6701   7.6702
    13.3746  14.1128  14.4374  14.4374

     occupation numbers 
     1.0000   1.0000   1.0000   1.0000   1.0000   1.0000   1.0000   1.0000
     0.0000   0.0000   0.0000   0.0000

          k = 0.1768 0.1768-0.1768 (   790 PWs)   bands (ev):

   -29.3450 -10.9522 -10.2565 -10.2565  -6.7907   6.3003   7.1990   7.1990
    14.1710  14.8531  15.1639  15.1640

     occupation numbers 
     1.0000   1.0000   1.0000   1.0000   1.0000   1.0000   1.0000   1.0000
     0.0000   0.0000   0.0000   0.0000

          k = 0.2652 0.2652-0.2652 (   775 PWs)   bands (ev):

   -29.3030 -11.3401 -10.2768 -10.2768  -6.3754   5.4652   6.7910   6.7910
    14.6571  16.0113  16.0117  16.0492

     occupation numbers 
     1.0000   1.0000   1.0000   1.0000   1.0000   1.0000   1.0000   1.0000
     0.0000   0.0000   0.0000   0.0000

          k =-0.3536-0.3536 0.3536 (   778 PWs)   bands (ev):

   -29.2855 -11.4843 -10.2851 -10.2851  -6.2184   5.1530   6.6359   6.6359
    15.0346  16.4015  16.4097  16.4191

     occupation numbers 
     1.0000   1.0000   1.0000   1.0000   1.0000   1.0000   1.0000   1.0000
     0.0000   0.0000   0.0000   0.0000

          k = 0.1768 0.0000 0.0000 (   789 PWs)   bands (ev):

   -29.3810 -10.4808 -10.2647 -10.2647  -7.2483   7.0233   7.7681   7.7681
    13.4389  13.5996  14.7584  14.7584

     occupation numbers 
     1.0000   1.0000   1.0000   1.0000   1.0000   1.0000   1.0000   1.0000
     0.0000   0.0000   0.0000   0.0000

          k = 0.2652 0.0884-0.0884 (   792 PWs)   bands (ev):

   -29.3478 -10.8126 -10.2996 -10.2836  -6.9218   6.3643   7.3909   7.5004
    13.3931  14.4283  15.3653  15.4709

     occupation numbers 
     1.0000   1.0000   1.0000   1.0000   1.0000   1.0000   1.0000   1.0000
     0.0000   0.0000   0.0000   0.0000

          k = 0.3536 0.1768-0.1768 (   783 PWs)   bands (ev):

   -29.3061 -11.1791 -10.3201 -10.3159  -6.5667   5.7751   6.8727   7.0784
    13.7999  15.5413  16.2001  16.2451

     occupation numbers 
     1.0000   1.0000   1.0000   1.0000   1.0000   1.0000   1.0000   1.0000
     0.0000   0.0000   0.0000   0.0000

          k =-0.2652-0.4419 0.4419 (   785 PWs)   bands (ev):

   -29.2804 -11.3805 -10.3576 -10.3145  -6.3590   5.4192   6.6571   6.7587
    14.6387  15.5520  16.5586  17.1284

     occupation numbers 
     1.0000   1.0000   1.0000   1.0000   1.0000   1.0000   1.0000   1.0000
     0.0000   0.0000   0.0000   0.0000

          k =-0.1768-0.3536 0.3536 (   784 PWs)   bands (ev):

   -29.2861 -11.3436 -10.3811 -10.2861  -6.3783   5.4597   6.6865   6.8079
    14.7297  15.5153  16.1280  16.9022

     occupation numbers 
     1.0000   1.0000   1.0000   1.0000   1.0000   1.0000   1.0000   1.0000
     0.0000   0.0000   0.0000   0.0000

          k =-0.0884-0.2652 0.2652 (   787 PWs)   bands (ev):

   -29.3199 -11.0878 -10.3654 -10.2513  -6.6246   5.9250   6.8909   7.2109
    14.1085  15.2210  15.3032  16.0926

     occupation numbers 
     1.0000   1.0000   1.0000   1.0000   1.0000   1.0000   1.0000   1.0000
     0.0000   0.0000   0.0000   0.0000

          k = 0.0000-0.1768 0.1768 (   799 PWs)   bands (ev):

   -29.3614 -10.7290 -10.3059 -10.2305  -7.0021   6.6681   7.2880   7.6082
    13.9210  14.1353  14.6390  15.2524

     occupation numbers 
     1.0000   1.0000   1.0000   1.0000   1.0000   1.0000   1.0000   1.0000
     0.0000   0.0000   0.0000   0.0000

          k = 0.3536 0.0000 0.0000 (   817 PWs)   bands (ev):

   -29.3265 -10.8205 -10.3546 -10.3546  -6.9497   6.1506   7.5868   7.5868
    12.5480  14.6050  16.0946  16.0949

     occupation numbers 
     1.0000   1.0000   1.0000   1.0000   1.0000   1.0000   1.0000   1.0000
     0.0000   0.0000   0.0000   0.0000

          k = 0.4419 0.0884-0.0884 (   784 PWs)   bands (ev):

   -29.2935 -10.9832 -10.4116 -10.3895  -6.8690   6.0595   7.2506   7.3905
    12.4926  15.4680  16.6520  16.6963

     occupation numbers 
     1.0000   1.0000   1.0000   1.0000   1.0000   1.0000   1.0000   1.0000
     0.0000   0.0000   0.0000   0.0000

          k =-0.1768-0.5303 0.5303 (   781 PWs)   bands (ev):

   -29.2680 -11.1183 -10.5147 -10.3845  -6.7182   6.0489   6.7753   7.0633
    13.2255  15.8579  16.9332  16.9512

     occupation numbers 
     1.0000   1.0000   1.0000   1.0000   1.0000   1.0000   1.0000   1.0000
     0.0000   0.0000   0.0000   0.0000

          k =-0.0884-0.4419 0.4419 (   780 PWs)   bands (ev):

   -29.2652 -11.1637 -10.5884 -10.3423  -6.5774   5.8569   6.7672   6.8055
    14.3822  15.1509  16.5711  16.8621

     occupation numbers 
     1.0000   1.0000   1.0000   1.0000   1.0000   1.0000   1.0000   1.0000
     0.0000   0.0000   0.0000   0.0000

          k = 0.0000-0.3536 0.3536 (   784 PWs)   bands (ev):

   -29.2868 -11.1539 -10.5255 -10.2871  -6.5342   5.7474   6.7385   7.0253
    14.4203  15.2485  15.8577  16.4509

     occupation numbers 
     1.0000   1.0000   1.0000   1.0000   1.0000   1.0000   1.0000   1.0000
     0.0000   0.0000   0.0000   0.0000

          k = 0.5303 0.0000 0.0000 (   785 PWs)   bands (ev):

   -29.2726 -10.9217 -10.4442 -10.4442  -7.1148   6.2762   7.5200   7.5201
    11.7350  15.7131  16.7659  17.2597

     occupation numbers 
     1.0000   1.0000   1.0000   1.0000   1.0000   1.0000   1.0000   1.0000
     0.0000   0.0000   0.0000   0.0000

          k =-0.0884-0.6187 0.6187 (   773 PWs)   bands (ev):

   -29.2556 -10.9072 -10.5649 -10.4532  -7.1198   6.4885   7.1969   7.3818
    11.9666  16.2221  17.0214  17.1730

     occupation numbers 
     1.0000   1.0000   1.0000   1.0000   1.0000   1.0000   1.0000   1.0000
     0.0000   0.0000   0.0000   0.0000

          k = 0.0000-0.5303 0.5303 (   786 PWs)   bands (ev):

   -29.2525 -10.8663 -10.7838 -10.4114  -6.8820   6.5100   6.6665   7.0839
    13.0066  15.9923  16.6663  17.1364

     occupation numbers 
     1.0000   1.0000   1.0000   1.0000   1.0000   1.0000   1.0000   1.0000
     0.0000   0.0000   0.0000   0.0000

          k =-0.7071 0.0000 0.0000 (   790 PWs)   bands (ev):

   -29.2504 -10.9006 -10.4813 -10.4813  -7.3061   6.5817   7.5185   7.5186
    11.4419  16.1367  16.9697  17.6587

     occupation numbers 
     1.0000   1.0000   1.0000   1.0000   1.0000   1.0000   1.0000   1.0000
     0.0000   0.0000   0.0000   0.0000

          k = 0.3536 0.1768 0.0000 (   784 PWs)   bands (ev):

   -29.3147 -10.9938 -10.4049 -10.2965  -6.7463   6.0083   7.0803   7.3615
    13.2540  15.1039  15.8892  16.2376

     occupation numbers 
     1.0000   1.0000   1.0000   1.0000   1.0000   1.0000   1.0000   1.0000
     0.0000   0.0000   0.0000   0.0000

          k =-0.2652-0.4419 0.6187 (   783 PWs)   bands (ev):

   -29.2813 -11.1633 -10.4772 -10.3379  -6.5920   5.8237   6.7802   7.0242
    13.7799  15.4837  16.5158  16.6402

     occupation numbers 
     1.0000   1.0000   1.0000   1.0000   1.0000   1.0000   1.0000   1.0000
     0.0000   0.0000   0.0000   0.0000

          k =-0.1768-0.3536 0.5303 (   782 PWs)   bands (ev):

   -29.2674 -11.2316 -10.4938 -10.3664  -6.5333   5.7700   6.7292   6.7960
    14.7031  14.7649  16.8284  17.0343

     occupation numbers 
     1.0000   1.0000   1.0000   1.0000   1.0000   1.0000   1.0000   1.0000
     0.0000   0.0000   0.0000   0.0000

          k =-0.1768-0.5303 0.7071 (   772 PWs)   bands (ev):

   -29.2686 -10.9853 -10.5035 -10.4504  -6.9027   6.2237   7.0562   7.2418
    12.5683  15.8562  16.6585  17.1914

     occupation numbers 
     1.0000   1.0000   1.0000   1.0000   1.0000   1.0000   1.0000   1.0000
     0.0000   0.0000   0.0000   0.0000

          k =-0.0884-0.4419 0.6187 (   772 PWs)   bands (ev):

   -29.2547 -10.9542 -10.6420 -10.4791  -6.8217   6.3591   6.7549   6.9925
    13.4014  15.3433  16.6327  17.3723

     occupation numbers 
     1.0000   1.0000   1.0000   1.0000   1.0000   1.0000   1.0000   1.0000
     0.0000   0.0000   0.0000   0.0000

          k = 0.0000-0.3536 0.5303 (   773 PWs)   bands (ev):

   -29.2600 -11.0335 -10.6448 -10.4146  -6.6917   6.0921   6.8125   6.8545
    14.3774  14.6032  16.6474  17.0442

     occupation numbers 
     1.0000   1.0000   1.0000   1.0000   1.0000   1.0000   1.0000   1.0000
     0.0000   0.0000   0.0000   0.0000

          k =-0.7071 0.1768 0.0000 (   772 PWs)   bands (ev):

   -29.2498 -10.8406 -10.6061 -10.5441  -7.0772   6.6242   7.0146   7.2191
    12.3161  16.3240  16.3696  17.5180

     occupation numbers 
     1.0000   1.0000   1.0000   1.0000   1.0000   1.0000   1.0000   1.0000
     0.0000   0.0000   0.0000   0.0000

          k =-0.7071 0.3536 0.0000 (   772 PWs)   bands (ev):

   -29.2492 -10.7184 -10.6938 -10.6937  -6.8570   6.5556   6.8156   6.8156
    14.2361  14.2361  16.4818  17.6650

     occupation numbers 
     1.0000   1.0000   1.0000   1.0000   1.0000   1.0000   1.0000   1.0000
     0.0000   0.0000   0.0000   0.0000

          k = 0.0884 0.0884 0.0884 (   785 PWs)   bands (ev):

   -29.3866 -10.4742 -10.2360 -10.2360  -7.2923   7.3370   7.6701   7.6701
    13.3746  14.1129  14.4374  14.4374

     occupation numbers 
     1.0000   1.0000   1.0000   1.0000   1.0000   1.0000   1.0000   1.0000
     0.0000   0.0000   0.0000   0.0000

          k = 0.1768 0.1768 0.1768 (   790 PWs)   bands (ev):

   -29.3450 -10.9522 -10.2565 -10.2565  -6.7907   6.3003   7.1990   7.1990
    14.1710  14.8531  15.1639  15.1640

     occupation numbers 
     1.0000   1.0000   1.0000   1.0000   1.0000   1.0000   1.0000   1.0000
     0.0000   0.0000   0.0000   0.0000

          k = 0.2652 0.2652 0.2652 (   775 PWs)   bands (ev):

   -29.3030 -11.3401 -10.2768 -10.2768  -6.3754   5.4652   6.7910   6.7910
    14.6572  16.0116  16.0118  16.0490

     occupation numbers 
     1.0000   1.0000   1.0000   1.0000   1.0000   1.0000   1.0000   1.0000
     0.0000   0.0000   0.0000   0.0000

          k =-0.3536-0.3536-0.3536 (   778 PWs)   bands (ev):

   -29.2855 -11.4843 -10.2851 -10.2851  -6.2184   5.1530   6.6359   6.6359
    15.0346  16.4053  16.4098  16.4155

     occupation numbers 
     1.0000   1.0000   1.0000   1.0000   1.0000   1.0000   1.0000   1.0000
     0.0000   0.0000   0.0000   0.0000

          k = 0.0000 0.1768 0.0000 (   789 PWs)   bands (ev):

   -29.3810 -10.4808 -10.2647 -10.2647  -7.2483   7.0233   7.7681   7.7681
    13.4389  13.5996  14.7584  14.7584

     occupation numbers 
     1.0000   1.0000   1.0000   1.0000   1.0000   1.0000   1.0000   1.0000
     0.0000   0.0000   0.0000   0.0000

          k = 0.0884 0.2652 0.0884 (   792 PWs)   bands (ev):

   -29.3478 -10.8126 -10.2996 -10.2836  -6.9218   6.3643   7.3909   7.5003
    13.3931  14.4283  15.3654  15.4709

     occupation numbers 
     1.0000   1.0000   1.0000   1.0000   1.0000   1.0000   1.0000   1.0000
     0.0000   0.0000   0.0000   0.0000

          k =-0.0884-0.2652 0.0884 (   792 PWs)   bands (ev):

   -29.3478 -10.8126 -10.2996 -10.2836  -6.9218   6.3643   7.3909   7.5004
    13.3931  14.4283  15.3653  15.4709

     occupation numbers 
     1.0000   1.0000   1.0000   1.0000   1.0000   1.0000   1.0000   1.0000
     0.0000   0.0000   0.0000   0.0000

          k =-0.2652-0.0884-0.0884 (   792 PWs)   bands (ev):

   -29.3478 -10.8126 -10.2996 -10.2836  -6.9218   6.3643   7.3909   7.5003
    13.3931  14.4284  15.3653  15.4709

     occupation numbers 
     1.0000   1.0000   1.0000   1.0000   1.0000   1.0000   1.0000   1.0000
     0.0000   0.0000   0.0000   0.0000

          k = 0.1768 0.3536 0.1768 (   783 PWs)   bands (ev):

   -29.3061 -11.1791 -10.3201 -10.3159  -6.5667   5.7751   6.8727   7.0783
    13.7999  15.5413  16.2004  16.2448

     occupation numbers 
     1.0000   1.0000   1.0000   1.0000   1.0000   1.0000   1.0000   1.0000
     0.0000   0.0000   0.0000   0.0000

          k =-0.1768-0.3536 0.1768 (   783 PWs)   bands (ev):

   -29.3061 -11.1791 -10.3201 -10.3159  -6.5667   5.7751   6.8727   7.0784
    13.7999  15.5413  16.2003  16.2447

     occupation numbers 
     1.0000   1.0000   1.0000   1.0000   1.0000   1.0000   1.0000   1.0000
     0.0000   0.0000   0.0000   0.0000

          k =-0.3536-0.1768-0.1768 (   783 PWs)   bands (ev):

   -29.3061 -11.1790 -10.3201 -10.3159  -6.5667   5.7751   6.8727   7.0783
    13.8000  15.5413  16.2005  16.2446

     occupation numbers 
     1.0000   1.0000   1.0000   1.0000   1.0000   1.0000   1.0000   1.0000
     0.0000   0.0000   0.0000   0.0000

          k =-0.4419-0.2652-0.4419 (   785 PWs)   bands (ev):

   -29.2804 -11.3805 -10.3576 -10.3145  -6.3590   5.4192   6.6571   6.7587
    14.6387  15.5520  16.5586  17.1284

     occupation numbers 
     1.0000   1.0000   1.0000   1.0000   1.0000   1.0000   1.0000   1.0000
     0.0000   0.0000   0.0000   0.0000

          k = 0.4419 0.2652-0.4419 (   785 PWs)   bands (ev):

   -29.2804 -11.3805 -10.3576 -10.3145  -6.3590   5.4192   6.6572   6.7587
    14.6387  15.5519  16.5586  17.1283

     occupation numbers 
     1.0000   1.0000   1.0000   1.0000   1.0000   1.0000   1.0000   1.0000
     0.0000   0.0000   0.0000   0.0000

          k = 0.2652 0.4419 0.4419 (   785 PWs)   bands (ev):

   -29.2804 -11.3805 -10.3576 -10.3145  -6.3590   5.4192   6.6572   6.7586
    14.6388  15.5520  16.5586  17.1284

     occupation numbers 
     1.0000   1.0000   1.0000   1.0000   1.0000   1.0000   1.0000   1.0000
     0.0000   0.0000   0.0000   0.0000

          k =-0.3536-0.1768-0.3536 (   784 PWs)   bands (ev):

   -29.2861 -11.3436 -10.3811 -10.2861  -6.3784   5.4597   6.6865   6.8079
    14.7297  15.5154  16.1280  16.9023

     occupation numbers 
     1.0000   1.0000   1.0000   1.0000   1.0000   1.0000   1.0000   1.0000
     0.0000   0.0000   0.0000   0.0000

          k = 0.3536 0.1768-0.3536 (   784 PWs)   bands (ev):

   -29.2861 -11.3436 -10.3811 -10.2861  -6.3783   5.4597   6.6865   6.8080
    14.7297  15.5154  16.1280  16.9023

     occupation numbers 
     1.0000   1.0000   1.0000   1.0000   1.0000   1.0000   1.0000   1.0000
     0.0000   0.0000   0.0000   0.0000

          k = 0.1768 0.3536 0.3536 (   784 PWs)   bands (ev):

   -29.2861 -11.3436 -10.3811 -10.2861  -6.3784   5.4597   6.6865   6.8079
    14.7297  15.5155  16.1280  16.9023

     occupation numbers 
     1.0000   1.0000   1.0000   1.0000   1.0000   1.0000   1.0000   1.0000
     0.0000   0.0000   0.0000   0.0000

          k =-0.2652-0.0884-0.2652 (   787 PWs)   bands (ev):

   -29.3199 -11.0878 -10.3654 -10.2513  -6.6246   5.9250   6.8908   7.2109
    14.1085  15.2211  15.3032  16.0927

     occupation numbers 
     1.0000   1.0000   1.0000   1.0000   1.0000   1.0000   1.0000   1.0000
     0.0000   0.0000   0.0000   0.0000

          k = 0.2652 0.0884-0.2652 (   787 PWs)   bands (ev):

   -29.3199 -11.0878 -10.3654 -10.2513  -6.6246   5.9250   6.8908   7.2109
    14.1084  15.2211  15.3032  16.0927

     occupation numbers 
     1.0000   1.0000   1.0000   1.0000   1.0000   1.0000   1.0000   1.0000
     0.0000   0.0000   0.0000   0.0000

          k = 0.0884 0.2652 0.2652 (   787 PWs)   bands (ev):

   -29.3199 -11.0878 -10.3654 -10.2513  -6.6246   5.9250   6.8908   7.2109
    14.1085  15.2211  15.3032  16.0927

     occupation numbers 
     1.0000   1.0000   1.0000   1.0000   1.0000   1.0000   1.0000   1.0000
     0.0000   0.0000   0.0000   0.0000

          k =-0.1768 0.0000-0.1768 (   799 PWs)   bands (ev):

   -29.3614 -10.7290 -10.3059 -10.2305  -7.0021   6.6681   7.2880   7.6083
    13.9210  14.1353  14.6390  15.2525

     occupation numbers 
     1.0000   1.0000   1.0000   1.0000   1.0000   1.0000   1.0000   1.0000
     0.0000   0.0000   0.0000   0.0000

          k = 0.0000 0.1768 0.1768 (   799 PWs)   bands (ev):

   -29.3614 -10.7290 -10.3059 -10.2305  -7.0021   6.6681   7.2880   7.6082
    13.9211  14.1353  14.6390  15.2525

     occupation numbers 
     1.0000   1.0000   1.0000   1.0000   1.0000   1.0000   1.0000   1.0000
     0.0000   0.0000   0.0000   0.0000

          k = 0.0000 0.3536 0.0000 (   817 PWs)   bands (ev):

   -29.3265 -10.8205 -10.3546 -10.3546  -6.9497   6.1506   7.5868   7.5868
    12.5480  14.6050  16.0947  16.0949

     occupation numbers 
     1.0000   1.0000   1.0000   1.0000   1.0000   1.0000   1.0000   1.0000
     0.0000   0.0000   0.0000   0.0000

          k = 0.0884 0.4419 0.0884 (   784 PWs)   bands (ev):

   -29.2935 -10.9832 -10.4116 -10.3895  -6.8689   6.0595   7.2507   7.3904
    12.4926  15.4680  16.6524  16.6959

     occupation numbers 
     1.0000   1.0000   1.0000   1.0000   1.0000   1.0000   1.0000   1.0000
     0.0000   0.0000   0.0000   0.0000

          k =-0.0884-0.4419 0.0884 (   784 PWs)   bands (ev):

   -29.2935 -10.9832 -10.4116 -10.3895  -6.8689   6.0595   7.2507   7.3904
    12.4926  15.4680  16.6524  16.6958

     occupation numbers 
     1.0000   1.0000   1.0000   1.0000   1.0000   1.0000   1.0000   1.0000
     0.0000   0.0000   0.0000   0.0000

          k =-0.4419-0.0884-0.0884 (   784 PWs)   bands (ev):

   -29.2935 -10.9832 -10.4116 -10.3895  -6.8690   6.0595   7.2507   7.3904
    12.4926  15.4680  16.6525  16.6956

     occupation numbers 
     1.0000   1.0000   1.0000   1.0000   1.0000   1.0000   1.0000   1.0000
     0.0000   0.0000   0.0000   0.0000

          k =-0.5303-0.1768-0.5303 (   781 PWs)   bands (ev):

   -29.2680 -11.1183 -10.5147 -10.3845  -6.7182   6.0489   6.7754   7.0633
    13.2255  15.8579  16.9336  16.9508

     occupation numbers 
     1.0000   1.0000   1.0000   1.0000   1.0000   1.0000   1.0000   1.0000
     0.0000   0.0000   0.0000   0.0000

          k = 0.5303 0.1768-0.5303 (   781 PWs)   bands (ev):

   -29.2680 -11.1183 -10.5147 -10.3845  -6.7182   6.0490   6.7754   7.0633
    13.2255  15.8578  16.9335  16.9508

     occupation numbers 
     1.0000   1.0000   1.0000   1.0000   1.0000   1.0000   1.0000   1.0000
     0.0000   0.0000   0.0000   0.0000

          k = 0.1768 0.5303 0.5303 (   781 PWs)   bands (ev):

   -29.2680 -11.1183 -10.5147 -10.3845  -6.7182   6.0489   6.7754   7.0633
    13.2255  15.8579  16.9336  16.9507

     occupation numbers 
     1.0000   1.0000   1.0000   1.0000   1.0000   1.0000   1.0000   1.0000
     0.0000   0.0000   0.0000   0.0000

          k =-0.4419-0.0884-0.4419 (   780 PWs)   bands (ev):

   -29.2652 -11.1637 -10.5884 -10.3423  -6.5774   5.8569   6.7672   6.8054
    14.3823  15.1508  16.5711  16.8621

     occupation numbers 
     1.0000   1.0000   1.0000   1.0000   1.0000   1.0000   1.0000   1.0000
     0.0000   0.0000   0.0000   0.0000

          k = 0.4419 0.0884-0.4419 (   780 PWs)   bands (ev):

   -29.2652 -11.1637 -10.5884 -10.3423  -6.5774   5.8569   6.7673   6.8054
    14.3823  15.1508  16.5710  16.8621

     occupation numbers 
     1.0000   1.0000   1.0000   1.0000   1.0000   1.0000   1.0000   1.0000
     0.0000   0.0000   0.0000   0.0000

          k = 0.0884 0.4419 0.4419 (   780 PWs)   bands (ev):

   -29.2652 -11.1637 -10.5884 -10.3423  -6.5774   5.8569   6.7673   6.8054
    14.3823  15.1509  16.5710  16.8621

     occupation numbers 
     1.0000   1.0000   1.0000   1.0000   1.0000   1.0000   1.0000   1.0000
     0.0000   0.0000   0.0000   0.0000

          k =-0.3536 0.0000-0.3536 (   784 PWs)   bands (ev):

   -29.2868 -11.1539 -10.5255 -10.2871  -6.5342   5.7474   6.7385   7.0254
    14.4202  15.2486  15.8577  16.4510

     occupation numbers 
     1.0000   1.0000   1.0000   1.0000   1.0000   1.0000   1.0000   1.0000
     0.0000   0.0000   0.0000   0.0000

          k = 0.0000 0.3536 0.3536 (   784 PWs)   bands (ev):

   -29.2868 -11.1539 -10.5255 -10.2871  -6.5343   5.7473   6.7384   7.0254
    14.4203  15.2486  15.8577  16.4510

     occupation numbers 
     1.0000   1.0000   1.0000   1.0000   1.0000   1.0000   1.0000   1.0000
     0.0000   0.0000   0.0000   0.0000

          k = 0.0000 0.5303 0.0000 (   785 PWs)   bands (ev):

   -29.2726 -10.9217 -10.4442 -10.4442  -7.1148   6.2762   7.5201   7.5201
    11.7349  15.7131  16.7660  17.2597

     occupation numbers 
     1.0000   1.0000   1.0000   1.0000   1.0000   1.0000   1.0000   1.0000
     0.0000   0.0000   0.0000   0.0000

          k =-0.6187-0.0884-0.6187 (   773 PWs)   bands (ev):

   -29.2556 -10.9072 -10.5649 -10.4532  -7.1198   6.4885   7.1970   7.3818
    11.9666  16.2221  17.0214  17.1715

     occupation numbers 
     1.0000   1.0000   1.0000   1.0000   1.0000   1.0000   1.0000   1.0000
     0.0000   0.0000   0.0000   0.0000

          k = 0.6187 0.0884-0.6187 (   773 PWs)   bands (ev):

   -29.2556 -10.9072 -10.5649 -10.4532  -7.1198   6.4885   7.1970   7.3818
    11.9666  16.2221  17.0214  17.1726

     occupation numbers 
     1.0000   1.0000   1.0000   1.0000   1.0000   1.0000   1.0000   1.0000
     0.0000   0.0000   0.0000   0.0000

          k = 0.0884 0.6187 0.6187 (   773 PWs)   bands (ev):

   -29.2556 -10.9072 -10.5649 -10.4532  -7.1198   6.4885   7.1969   7.3818
    11.9666  16.2221  17.0214  17.1714

     occupation numbers 
     1.0000   1.0000   1.0000   1.0000   1.0000   1.0000   1.0000   1.0000
     0.0000   0.0000   0.0000   0.0000

          k =-0.5303 0.0000-0.5303 (   786 PWs)   bands (ev):

   -29.2525 -10.8663 -10.7837 -10.4113  -6.8820   6.5100   6.6665   7.0839
    13.0066  15.9922  16.6664  17.1364

     occupation numbers 
     1.0000   1.0000   1.0000   1.0000   1.0000   1.0000   1.0000   1.0000
     0.0000   0.0000   0.0000   0.0000

          k = 0.0000 0.5303 0.5303 (   786 PWs)   bands (ev):

   -29.2525 -10.8663 -10.7838 -10.4113  -6.8820   6.5100   6.6665   7.0838
    13.0067  15.9923  16.6663  17.1364

     occupation numbers 
     1.0000   1.0000   1.0000   1.0000   1.0000   1.0000   1.0000   1.0000
     0.0000   0.0000   0.0000   0.0000

          k = 0.0000-0.7071 0.0000 (   790 PWs)   bands (ev):

   -29.2504 -10.9006 -10.4813 -10.4813  -7.3061   6.5817   7.5185   7.5186
    11.4419  16.1367  16.9695  17.6587

     occupation numbers 
     1.0000   1.0000   1.0000   1.0000   1.0000   1.0000   1.0000   1.0000
     0.0000   0.0000   0.0000   0.0000

          k = 0.1768 0.3536-0.0000 (   784 PWs)   bands (ev):

   -29.3147 -10.9938 -10.4049 -10.2965  -6.7463   6.0083   7.0803   7.3615
    13.2540  15.1039  15.8892  16.2376

     occupation numbers 
     1.0000   1.0000   1.0000   1.0000   1.0000   1.0000   1.0000   1.0000
     0.0000   0.0000   0.0000   0.0000

          k = 0.0000-0.1768 0.3536 (   784 PWs)   bands (ev):

   -29.3147 -10.9938 -10.4049 -10.2965  -6.7463   6.0083   7.0803   7.3614
    13.2540  15.1039  15.8892  16.2375

     occupation numbers 
     1.0000   1.0000   1.0000   1.0000   1.0000   1.0000   1.0000   1.0000
     0.0000   0.0000   0.0000   0.0000

          k = 0.0000-0.1768-0.3536 (   784 PWs)   bands (ev):

   -29.3147 -10.9938 -10.4049 -10.2965  -6.7463   6.0082   7.0803   7.3614
    13.2540  15.1040  15.8892  16.2376

     occupation numbers 
     1.0000   1.0000   1.0000   1.0000   1.0000   1.0000   1.0000   1.0000
     0.0000   0.0000   0.0000   0.0000

          k =-0.4419-0.2652-0.6187 (   783 PWs)   bands (ev):

   -29.2813 -11.1633 -10.4772 -10.3379  -6.5920   5.8237   6.7802   7.0242
    13.7799  15.4837  16.5159  16.6401

     occupation numbers 
     1.0000   1.0000   1.0000   1.0000   1.0000   1.0000   1.0000   1.0000
     0.0000   0.0000   0.0000   0.0000

          k = 0.4419 0.2652-0.6187 (   783 PWs)   bands (ev):

   -29.2813 -11.1633 -10.4772 -10.3379  -6.5920   5.8237   6.7802   7.0242
    13.7799  15.4837  16.5157  16.6402

     occupation numbers 
     1.0000   1.0000   1.0000   1.0000   1.0000   1.0000   1.0000   1.0000
     0.0000   0.0000   0.0000   0.0000

          k = 0.6187 0.4419-0.2652 (   783 PWs)   bands (ev):

   -29.2813 -11.1633 -10.4772 -10.3379  -6.5920   5.8237   6.7802   7.0242
    13.7800  15.4837  16.5160  16.6400

     occupation numbers 
     1.0000   1.0000   1.0000   1.0000   1.0000   1.0000   1.0000   1.0000
     0.0000   0.0000   0.0000   0.0000

          k =-0.6187 0.4419 0.2652 (   783 PWs)   bands (ev):

   -29.2813 -11.1633 -10.4772 -10.3379  -6.5920   5.8237   6.7802   7.0242
    13.7800  15.4838  16.5160  16.6400

     occupation numbers 
     1.0000   1.0000   1.0000   1.0000   1.0000   1.0000   1.0000   1.0000
     0.0000   0.0000   0.0000   0.0000

          k = 0.2652 0.4419 0.6187 (   783 PWs)   bands (ev):

   -29.2813 -11.1633 -10.4772 -10.3379  -6.5920   5.8237   6.7802   7.0242
    13.7800  15.4837  16.5158  16.6401

     occupation numbers 
     1.0000   1.0000   1.0000   1.0000   1.0000   1.0000   1.0000   1.0000
     0.0000   0.0000   0.0000   0.0000

          k =-0.3536-0.1768-0.5303 (   782 PWs)   bands (ev):

   -29.2674 -11.2316 -10.4938 -10.3663  -6.5333   5.7700   6.7292   6.7960
    14.7029  14.7651  16.8284  17.0344

     occupation numbers 
     1.0000   1.0000   1.0000   1.0000   1.0000   1.0000   1.0000   1.0000
     0.0000   0.0000   0.0000   0.0000

          k = 0.3536 0.1768-0.5303 (   782 PWs)   bands (ev):

   -29.2674 -11.2316 -10.4938 -10.3663  -6.5333   5.7700   6.7293   6.7960
    14.7031  14.7649  16.8284  17.0343

     occupation numbers 
     1.0000   1.0000   1.0000   1.0000   1.0000   1.0000   1.0000   1.0000
     0.0000   0.0000   0.0000   0.0000

          k =-0.5303 0.3536 0.1768 (   782 PWs)   bands (ev):

   -29.2674 -11.2316 -10.4938 -10.3664  -6.5333   5.7700   6.7293   6.7959
    14.7030  14.7651  16.8284  17.0343

     occupation numbers 
     1.0000   1.0000   1.0000   1.0000   1.0000   1.0000   1.0000   1.0000
     0.0000   0.0000   0.0000   0.0000

          k =-0.5303-0.1768-0.7071 (   772 PWs)   bands (ev):

   -29.2686 -10.9853 -10.5035 -10.4504  -6.9027   6.2237   7.0562   7.2418
    12.5682  15.8561  16.6585  17.1914

     occupation numbers 
     1.0000   1.0000   1.0000   1.0000   1.0000   1.0000   1.0000   1.0000
     0.0000   0.0000   0.0000   0.0000

          k = 0.7071 0.5303-0.1768 (   772 PWs)   bands (ev):

   -29.2686 -10.9853 -10.5035 -10.4504  -6.9026   6.2237   7.0562   7.2417
    12.5682  15.8561  16.6585  17.1914

     occupation numbers 
     1.0000   1.0000   1.0000   1.0000   1.0000   1.0000   1.0000   1.0000
     0.0000   0.0000   0.0000   0.0000

          k =-0.7071 0.5303 0.1768 (   772 PWs)   bands (ev):

   -29.2686 -10.9853 -10.5035 -10.4505  -6.9027   6.2237   7.0562   7.2417
    12.5682  15.8562  16.6586  17.1914

     occupation numbers 
     1.0000   1.0000   1.0000   1.0000   1.0000   1.0000   1.0000   1.0000
     0.0000   0.0000   0.0000   0.0000

          k =-0.4419-0.0884-0.6187 (   772 PWs)   bands (ev):

   -29.2547 -10.9542 -10.6420 -10.4791  -6.8217   6.3591   6.7549   6.9925
    13.4014  15.3432  16.6327  17.3723

     occupation numbers 
     1.0000   1.0000   1.0000   1.0000   1.0000   1.0000   1.0000   1.0000
     0.0000   0.0000   0.0000   0.0000

          k = 0.4419 0.0884-0.6187 (   772 PWs)   bands (ev):

   -29.2547 -10.9542 -10.6420 -10.4791  -6.8217   6.3591   6.7549   6.9925
    13.4014  15.3432  16.6327  17.3723

     occupation numbers 
     1.0000   1.0000   1.0000   1.0000   1.0000   1.0000   1.0000   1.0000
     0.0000   0.0000   0.0000   0.0000

          k = 0.6187 0.4419-0.0884 (   772 PWs)   bands (ev):

   -29.2547 -10.9542 -10.6420 -10.4791  -6.8217   6.3592   6.7549   6.9925
    13.4014  15.3432  16.6327  17.3723

     occupation numbers 
     1.0000   1.0000   1.0000   1.0000   1.0000   1.0000   1.0000   1.0000
     0.0000   0.0000   0.0000   0.0000

          k =-0.6187 0.4419 0.0884 (   772 PWs)   bands (ev):

   -29.2547 -10.9542 -10.6420 -10.4791  -6.8218   6.3591   6.7549   6.9925
    13.4014  15.3433  16.6327  17.3723

     occupation numbers 
     1.0000   1.0000   1.0000   1.0000   1.0000   1.0000   1.0000   1.0000
     0.0000   0.0000   0.0000   0.0000

          k = 0.0884 0.4419 0.6187 (   772 PWs)   bands (ev):

   -29.2547 -10.9542 -10.6420 -10.4791  -6.8218   6.3591   6.7549   6.9925
    13.4015  15.3433  16.6327  17.3723

     occupation numbers 
     1.0000   1.0000   1.0000   1.0000   1.0000   1.0000   1.0000   1.0000
     0.0000   0.0000   0.0000   0.0000

          k =-0.3536-0.0000-0.5303 (   773 PWs)   bands (ev):

   -29.2600 -11.0335 -10.6448 -10.4146  -6.6917   6.0921   6.8124   6.8546
    14.3773  14.6033  16.6474  17.0442

     occupation numbers 
     1.0000   1.0000   1.0000   1.0000   1.0000   1.0000   1.0000   1.0000
     0.0000   0.0000   0.0000   0.0000

          k = 0.5303 0.3536 0.0000 (   773 PWs)   bands (ev):

   -29.2600 -11.0335 -10.6448 -10.4146  -6.6917   6.0921   6.8124   6.8546
    14.3774  14.6033  16.6474  17.0442

     occupation numbers 
     1.0000   1.0000   1.0000   1.0000   1.0000   1.0000   1.0000   1.0000
     0.0000   0.0000   0.0000   0.0000

          k = 0.0000 0.3536 0.5303 (   773 PWs)   bands (ev):

   -29.2600 -11.0335 -10.6448 -10.4146  -6.6917   6.0921   6.8125   6.8545
    14.3774  14.6033  16.6474  17.0442

     occupation numbers 
     1.0000   1.0000   1.0000   1.0000   1.0000   1.0000   1.0000   1.0000
     0.0000   0.0000   0.0000   0.0000

          k = 0.1768-0.7071 0.0000 (   772 PWs)   bands (ev):

   -29.2498 -10.8407 -10.6061 -10.5441  -7.0772   6.6242   7.0146   7.2191
    12.3160  16.3232  16.3703  17.5180

     occupation numbers 
     1.0000   1.0000   1.0000   1.0000   1.0000   1.0000   1.0000   1.0000
     0.0000   0.0000   0.0000   0.0000

          k =-0.0000-0.1768-0.7071 (   772 PWs)   bands (ev):

   -29.2498 -10.8407 -10.6061 -10.5441  -7.0772   6.6242   7.0146   7.2190
    12.3160  16.3232  16.3703  17.5180

     occupation numbers 
     1.0000   1.0000   1.0000   1.0000   1.0000   1.0000   1.0000   1.0000
     0.0000   0.0000   0.0000   0.0000

          k = 0.3536-0.7071 0.0000 (   772 PWs)   bands (ev):

   -29.2492 -10.7186 -10.6938 -10.6936  -6.8570   6.5556   6.8156   6.8157
    14.2361  14.2361  16.4818  17.6650

     occupation numbers 
     1.0000   1.0000   1.0000   1.0000   1.0000   1.0000   1.0000   1.0000
     0.0000   0.0000   0.0000   0.0000

     the Fermi energy is     8.9246 ev

!    total energy              =    -107.37320181 Ry
     Harris-Foulkes estimate   =    -107.37320181 Ry
     estimated scf accuracy    <          9.5E-13 Ry

     The total energy is the sum of the following terms:

     one-electron contribution =     -24.97542425 Ry
     hartree contribution      =      20.47210422 Ry
     xc contribution           =     -19.16573077 Ry
     ewald contribution        =     -83.70415101 Ry
     smearing contrib. (-TS)   =      -0.00000000 Ry

     convergence has been achieved in  12 iterations

     Forces acting on atoms (Ry/au):

     atom    1 type  1   force =   0.00000000E+00 -0.29203964E-03 -0.29203964E-03
     atom    2 type  2   force =   0.00000000E+00  0.29203964E-03  0.29203964E-03
     The non-local contrib.  to forces
     atom    1 type  1   force =   0.00000000E+00 -0.47035988E-03 -0.47035988E-03
     atom    2 type  2   force =   0.13552527E-19  0.14481593E-03  0.14481593E-03
     The ionic contribution  to forces
     atom    1 type  1   force =  -0.90726038E-15 -0.12379247E-01 -0.12379247E-01
     atom    2 type  2   force =   0.93675068E-15  0.12379247E-01  0.12379247E-01
     The local contribution  to forces
     atom    1 type  1   force =   0.10026702E-14  0.12560011E-01  0.12560011E-01
     atom    2 type  2   force =   0.68157285E-14 -0.12222833E-01 -0.12222833E-01
     The core correction contribution to forces
     atom    1 type  1   force =   0.10069528E-16 -0.24051997E-05 -0.24051997E-05
     atom    2 type  2   force =  -0.11318054E-16 -0.91023490E-05 -0.91023490E-05
     The Hubbard contrib.    to forces
     atom    1 type  1   force =   0.00000000E+00  0.00000000E+00  0.00000000E+00
     atom    2 type  2   force =   0.00000000E+00  0.00000000E+00  0.00000000E+00
     The SCF correction term to forces
     atom    1 type  1   force =  -0.36810751E-16  0.22504941E-07  0.22504941E-07
     atom    2 type  2   force =  -0.47600304E-16 -0.27696321E-07 -0.27696321E-07

     Total force =     0.000584     Total SCF correction =     0.000000


     entering subroutine stress ...

          total   stress  (Ry/bohr**3)                   (kbar)     P=    0.12
   0.0000008018   0.0000000000  -0.0000000000          0.12      0.00     -0.00
  -0.0000000000   0.0000008643  -0.0000000096         -0.00      0.13     -0.00
   0.0000000000  -0.0000000096   0.0000008643          0.00     -0.00      0.13

     kinetic stress (kbar)  19113.63      0.00      0.00
                                0.00  19113.64     -0.01
                                0.00     -0.01  19113.64

     local   stress (kbar)  -1916.33      0.00     -0.00
                                0.00  -1916.56      0.21
                               -0.00      0.21  -1916.56

     nonloc. stress (kbar)   4494.10      0.00      0.00
                                0.00   4494.10      0.00
                                0.00      0.00   4494.10

     hartree stress (kbar)   5486.79      0.00      0.00
                                0.00   5486.87     -0.07
                                0.00     -0.07   5486.87

     exc-cor stress (kbar)  -3162.93      0.00      0.00
                                0.00  -3162.93     -0.00
                                0.00     -0.00  -3162.93

     corecor stress (kbar)  -1581.03     -0.00     -0.00
                               -0.00  -1581.03      0.00
                               -0.00      0.00  -1581.03

     ewald   stress (kbar) -22434.12      0.00      0.00
                                0.00 -22433.96     -0.13
                                0.00     -0.13 -22433.96

     hubbard stress (kbar)      0.00      0.00      0.00
                                0.00      0.00      0.00
                                0.00      0.00      0.00

     london  stress (kbar)      0.00      0.00      0.00
                                0.00      0.00      0.00
                                0.00      0.00      0.00

     XDM     stress (kbar)      0.00      0.00      0.00
                                0.00      0.00      0.00
                                0.00      0.00      0.00

     dft-nl  stress (kbar)      0.00      0.00      0.00
                                0.00      0.00      0.00
                                0.00      0.00      0.00



     Writing output data file CaO_rocksalt.relax.in.up_1.00.x.save

     init_run     :      2.53s CPU      2.36s WALL (       1 calls)
     electrons    :     60.81s CPU     55.24s WALL (       1 calls)
     forces       :      0.92s CPU      0.74s WALL (       1 calls)
     stress       :      1.40s CPU      1.36s WALL (       1 calls)

     Called by init_run:
     wfcinit      :      1.88s CPU      1.69s WALL (       1 calls)
     potinit      :      0.03s CPU      0.03s WALL (       1 calls)

     Called by electrons:
     c_bands      :     51.42s CPU     46.19s WALL (      12 calls)
     sum_band     :      8.56s CPU      8.20s WALL (      12 calls)
     v_of_rho     :      0.25s CPU      0.24s WALL (      13 calls)
     v_h          :      0.02s CPU      0.01s WALL (      13 calls)
     v_xc         :      0.27s CPU      0.27s WALL (      15 calls)
     newd         :      0.46s CPU      0.45s WALL (      13 calls)
     mix_rho      :      0.16s CPU      0.17s WALL (      12 calls)

     Called by c_bands:
     init_us_2    :      2.04s CPU      2.27s WALL (    2565 calls)
     cegterg      :     47.94s CPU     42.26s WALL (    1140 calls)

     Called by sum_band:
     sum_band:bec :      0.04s CPU      0.05s WALL (    1140 calls)
     addusdens    :      0.51s CPU      0.52s WALL (      12 calls)

     Called by *egterg:
     h_psi        :     32.54s CPU     30.54s WALL (    3656 calls)
     s_psi        :      3.31s CPU      2.08s WALL (    3656 calls)
     g_psi        :      0.20s CPU      0.22s WALL (    2421 calls)
     cdiaghg      :      2.55s CPU      3.05s WALL (    3561 calls)
     cegterg:over :      4.08s CPU      3.00s WALL (    2421 calls)
     cegterg:upda :      2.57s CPU      1.65s WALL (    2421 calls)
     cegterg:last :      1.37s CPU      0.85s WALL (    1140 calls)

     Called by h_psi:
     h_psi:vloc   :     24.26s CPU     25.22s WALL (    3656 calls)
     h_psi:vnl    :      8.20s CPU      5.22s WALL (    3656 calls)
     add_vuspsi   :      3.63s CPU      2.22s WALL (    3656 calls)

     General routines
     calbec       :      6.72s CPU      4.36s WALL (    4986 calls)
     fft          :      0.16s CPU      0.17s WALL (     229 calls)
     ffts         :      0.07s CPU      0.08s WALL (     252 calls)
     fftw         :     25.79s CPU     26.85s WALL (   78728 calls)
     interpolate  :      0.02s CPU      0.03s WALL (      25 calls)

     Parallel routines
     fft_scatter  :      8.05s CPU      8.39s WALL (   79209 calls)

     PWSCF        :  1m 6.52s CPU     1m 0.74s WALL


   This run was terminated on:  13:55: 7   6Sep2017            

=------------------------------------------------------------------------------=
   JOB DONE.
=------------------------------------------------------------------------------=
