
     Program PWSCF v.5.1 starts on 18Aug2017 at 20: 3: 8 

     This program is part of the open-source Quantum ESPRESSO suite
     for quantum simulation of materials; please cite
         "P. Giannozzi et al., J. Phys.:Condens. Matter 21 395502 (2009);
          URL http://www.quantum-espresso.org", 
     in publications or presentations arising from this work. More details at
     http://www.quantum-espresso.org/quote

     Parallel version (MPI), running on     8 processors
     R & G space division:  proc/nbgrp/npool/nimage =       8
     Reading input from /tmp/CaO_rocksalt.relax.in.up_1.00.super.444.01.20903/CaO_rocksalt.relax.in.up_1.00.super.444.01.t
Warning: card &IONS ignored
Warning: card   ION_DYNAMICS='BFGS', ignored
Warning: card / ignored
Warning: card &CELL ignored
Warning: card  CELL_DYNAMICS = 'BFGS' ignored
Warning: card / ignored
     Message from routine read_cards :
     DEPRECATED: no units specified in CELL_PARAMETERS card

     Current dimensions of program PWSCF are:
     Max number of different atomic species (ntypx) = 10
     Max number of k-points (npk) =  40000
     Max angular momentum in pseudopotentials (lmaxx) =  3
 kfg - two_fermi_energies  F

     Subspace diagonalization in iterative solution of the eigenvalue problem:
     a serial algorithm will be used


     Parallelization info
     --------------------
     sticks:   dense  smooth     PW     G-vecs:    dense   smooth      PW
     Min        1119     894    236                69921    50015    6787
     Max        1121     895    237                69923    50039    6792
     Sum        8959    7159   1891               559377   400181   54313



     bravais-lattice index     =            0
     lattice parameter (alat)  =    25.488665994  a.u.
     unit-cell volume          =   11709.1757 (a.u.)^3
     number of atoms/cell      =          128
     number of atomic types    =            2
     number of electrons       =      1024.00
     number of Kohn-Sham states=          614
     kinetic-energy cutoff     =      40.0000  Ry
     charge density cutoff     =     200.0000  Ry
     convergence threshold     =      1.0E-10
     mixing beta               =       0.3000
     number of iterations used =            8  local-TF  mixing
     Exchange-correlation      = SLA  PW   PSX  PSC ( 1  4 10  8 0)
     A smooth kinetic-energy cutoff is imposed at      39.5000 Ry
     height of the smooth step-function =             800.0000 Ry
     width of the smooth step-function  =               1.0000 Ry


     celldm(1)=  25.488666  celldm(2)=   0.000000  celldm(3)=   0.000000
     celldm(4)=   0.000000  celldm(5)=   0.000000  celldm(6)=   0.000000

     crystal axes: (cart. coord. in units of alat)
               a(1) = (   0.000000000000   0.707106781187   0.707106781187 )  
               a(2) = (   0.707106781187   0.000000000000   0.707106781187 )  
               a(3) = (   0.707106781187   0.707106781187   0.000000000000 )  

     reciprocal axes: (cart. coord. in units 2 pi/alat)
               b(1) = ( -0.707107  0.707107  0.707107 )  
               b(2) = (  0.707107 -0.707107  0.707107 )  
               b(3) = (  0.707107  0.707107 -0.707107 )  


     PseudoPot. # 1 for Ca read from file:
     /users/kfg/psuedo/gbrv_1.5/ca.pbesol.UPF
     MD5 check sum: 0533207b58cddeaa036efa5b63902087
     Pseudo is Ultrasoft + core correction, Zval = 10.0
     Generated by new atomic code, or converted to UPF format
     Using radial grid of  845 points,  6 beta functions with: 
                l(1) =   0
                l(2) =   0
                l(3) =   1
                l(4) =   1
                l(5) =   2
                l(6) =   2
     Q(r) pseudized with  8 coefficients,  rinner =    1.500   1.500   1.500
                                                       1.500   1.500

     PseudoPot. # 2 for O  read from file:
     /users/kfg/psuedo/gbrv_1.5/o.pbesol.UPF
     MD5 check sum: 501638753501ef6325af9037351f7734
     Pseudo is Ultrasoft + core correction, Zval =  6.0
     Generated by new atomic code, or converted to UPF format
     Using radial grid of  737 points,  5 beta functions with: 
                l(1) =   0
                l(2) =   0
                l(3) =   1
                l(4) =   1
                l(5) =   2
     Q(r) pseudized with  8 coefficients,  rinner =    0.900   0.900   0.900
                                                       0.900   0.900

     atomic species   valence    mass     pseudopotential
        Ca            10.00    40.07800     Ca( 1.00)
        O              6.00    15.99940     O ( 1.00)

     No symmetry found


                                    s                        frac. trans.

      isym =  1     identity                                     

 cryst.   s( 1) = (     1          0          0      )
                  (     0          1          0      )
                  (     0          0          1      )

 cart.    s( 1) = (  1.0000000  0.0000000  0.0000000 )
                  (  0.0000000  1.0000000  0.0000000 )
                  (  0.0000000  0.0000000  1.0000000 )


     point group C_1 (1)    
     there are  1 classes
     the character table:

       E    
A      1.00

     the symmetry operations in each class:
     E        1

   Cartesian axes

     site n.     atom                  positions (alat units)
         1           Ca  tau(   1) = (    0.00153626566    0.00054401324   -0.00021994002  )
         2           O   tau(   2) = (    0.17642390374    0.17833363596    0.17695248341  )
         3           Ca  tau(   3) = (    0.17494976321    0.17622578412   -0.00114847861  )
         4           O   tau(   4) = (    0.35465133248    0.35273595544    0.17702602924  )
         5           Ca  tau(   5) = (    0.35275357010    0.35526994404    0.00170746115  )
         6           O   tau(   6) = (    0.53209632711    0.53152884718    0.17703672525  )
         7           Ca  tau(   7) = (    0.52926311209    0.53135403707    0.00111075352  )
         8           O   tau(   8) = (    0.70597482791    0.70653602894    0.17722184888  )
         9           Ca  tau(   9) = (    0.17574968156   -0.00045415992    0.17605368481  )
        10           O   tau(  10) = (    0.35437762415    0.17507044591    0.35303678769  )
        11           Ca  tau(  11) = (    0.35228653314    0.17591994513    0.17604340745  )
        12           O   tau(  12) = (    0.53196479509    0.35256900237    0.35226233935  )
        13           Ca  tau(  13) = (    0.53000530518    0.35363926919    0.17762424401  )
        14           O   tau(  14) = (    0.70791284273    0.52899257403    0.35246010888  )
        15           Ca  tau(  15) = (    0.70698086653    0.53059215733    0.17835080375  )
        16           O   tau(  16) = (    0.88284429840    0.70565452637    0.35424333544  )
        17           Ca  tau(  17) = (    0.35359511342   -0.00170432126    0.35446051047  )
        18           O   tau(  18) = (    0.53066890671    0.17728276310    0.52931972780  )
        19           Ca  tau(  19) = (    0.52860487219    0.17852078547    0.35194482177  )
        20           O   tau(  20) = (    0.70546561864    0.35386759384    0.53145104763  )
        21           Ca  tau(  21) = (    0.70589472433    0.35538813399    0.35283113129  )
        22           O   tau(  22) = (    0.88398872439    0.52846729659    0.52898449231  )
        23           Ca  tau(  23) = (    0.88485957701    0.52946703602    0.35480414296  )
        24           O   tau(  24) = (    1.05957143594    0.70659218331    0.53091182492  )
        25           Ca  tau(  25) = (    0.53153696751    0.00059760650    0.53026351067  )
        26           O   tau(  26) = (    0.70760332945    0.17861386894    0.70547349783  )
        27           Ca  tau(  27) = (    0.70757582155    0.17485760939    0.52846033768  )
        28           O   tau(  28) = (    0.88509176978    0.35418221127    0.70879882225  )
        29           Ca  tau(  29) = (    0.88555972250    0.35439586194    0.53078358612  )
        30           O   tau(  30) = (    1.06052216798    0.53019204370    0.70729145559  )
        31           Ca  tau(  31) = (    1.05958662763    0.53100804451    0.52984026376  )
        32           O   tau(  32) = (    1.23730709801    0.70705060509    0.70897548282  )
        33           Ca  tau(  33) = (   -0.00094706936    0.17691327208    0.17533322694  )
        34           O   tau(  34) = (    0.17773400162    0.35439508950    0.35331388953  )
        35           Ca  tau(  35) = (    0.17775566214    0.35469787302    0.17733789899  )
        36           O   tau(  36) = (    0.35515268468    0.53180707993    0.35292225272  )
        37           Ca  tau(  37) = (    0.35345771900    0.53131385728    0.17525061113  )
        38           O   tau(  38) = (    0.53078936708    0.70534329878    0.35309764575  )
        39           Ca  tau(  39) = (    0.53084374828    0.70718392586    0.17610902328  )
        40           O   tau(  40) = (    0.70687188982    0.88465483124    0.35380898039  )
        41           Ca  tau(  41) = (    0.17838042135    0.17747151304    0.35420666679  )
        42           O   tau(  42) = (    0.35525469203    0.35289462277    0.53169659507  )
        43           Ca  tau(  43) = (    0.35260711044    0.35286121566    0.35480485309  )
        44           O   tau(  44) = (    0.53189403565    0.53060600048    0.53001673175  )
        45           Ca  tau(  45) = (    0.53154163057    0.53175092170    0.35364936273  )
        46           O   tau(  46) = (    0.70677318979    0.70785042177    0.52870039127  )
        47           Ca  tau(  47) = (    0.70692392064    0.70703781401    0.35316203454  )
        48           O   tau(  48) = (    0.88581261698    0.88533143093    0.53051632115  )
        49           Ca  tau(  49) = (    0.35228085386    0.17658311398    0.53058303192  )
        50           O   tau(  50) = (    0.52885020594    0.35236799286    0.70827620474  )
        51           Ca  tau(  51) = (    0.53208350282    0.35453291085    0.53016530968  )
        52           O   tau(  52) = (    0.70556738268    0.53040923892    0.70630665154  )
        53           Ca  tau(  53) = (    0.70733352264    0.52951515408    0.53050673436  )
        54           O   tau(  54) = (    0.88427989825    0.70718645636    0.70670178616  )
        55           Ca  tau(  55) = (    0.88344870527    0.70543211540    0.52977817590  )
        56           O   tau(  56) = (    1.06163574674    0.88556961826    0.70702380506  )
        57           Ca  tau(  57) = (    0.52986616402    0.17506941671    0.70630821517  )
        58           O   tau(  58) = (    0.70624152081    0.35251699442    0.88338086692  )
        59           Ca  tau(  59) = (    0.70727690223    0.35487647408    0.70764978941  )
        60           O   tau(  60) = (    0.88388541334    0.53013626042    0.88482544034  )
        61           Ca  tau(  61) = (    0.88201881467    0.53110629018    0.70589970916  )
        62           O   tau(  62) = (    1.06011549259    0.70558301774    0.88507731304  )
        63           Ca  tau(  63) = (    1.06228755809    0.70601968433    0.70581910581  )
        64           O   tau(  64) = (    1.23878396200    0.88446438243    0.88506452168  )
        65           Ca  tau(  65) = (    0.00041227282    0.35409912198    0.35465542024  )
        66           O   tau(  66) = (    0.17559529221    0.53095786420    0.53157813100  )
        67           Ca  tau(  67) = (    0.17858772944    0.53172651308    0.35417844868  )
        68           O   tau(  68) = (    0.35421490577    0.70789147702    0.53155115583  )
        69           Ca  tau(  69) = (    0.35354627448    0.70693936424    0.35201608620  )
        70           O   tau(  70) = (    0.53180154311    0.88486964367    0.52950859938  )
        71           Ca  tau(  71) = (    0.53214295014    0.88359924096    0.35396659515  )
        72           O   tau(  72) = (    0.70640171907    1.05875224134    0.53018466973  )
        73           Ca  tau(  73) = (    0.17591447596    0.35266033389    0.53107276900  )
        74           O   tau(  74) = (    0.35517382822    0.53112782938    0.70756313507  )
        75           Ca  tau(  75) = (    0.35295292945    0.53191899222    0.52974665011  )
        76           O   tau(  76) = (    0.53186003323    0.70717468269    0.70656409628  )
        77           Ca  tau(  77) = (    0.53051812840    0.70557653984    0.52867207290  )
        78           O   tau(  78) = (    0.70578611934    0.88293160367    0.70826266207  )
        79           Ca  tau(  79) = (    0.70638058065    0.88263121204    0.52963115156  )
        80           O   tau(  80) = (    0.88269559076    1.06152455915    0.70614045517  )
        81           Ca  tau(  81) = (    0.35251891288    0.35460817814    0.70750198823  )
        82           O   tau(  82) = (    0.53224805983    0.52997488364    0.88307462071  )
        83           Ca  tau(  83) = (    0.53156687883    0.53177744062    0.70755570990  )
        84           O   tau(  84) = (    0.70746889676    0.70859998947    0.88195765562  )
        85           Ca  tau(  85) = (    0.70823664569    0.70889452261    0.70663323417  )
        86           O   tau(  86) = (    0.88292119276    0.88505108089    0.88219809927  )
        87           Ca  tau(  87) = (    0.88476985794    0.88401988974    0.70756126311  )
        88           O   tau(  88) = (    1.05900865649    1.05997339345    0.88565075785  )
        89           Ca  tau(  89) = (    0.53095558612    0.35451686166    0.88421848575  )
        90           O   tau(  90) = (    0.70899127807    0.53061094505    1.06195722791  )
        91           Ca  tau(  91) = (    0.70733647670    0.53021174379    0.88483374853  )
        92           O   tau(  92) = (    0.88303713179    0.70559236111    1.05893746454  )
        93           Ca  tau(  93) = (    0.88476167160    0.70687093038    0.88311543505  )
        94           O   tau(  94) = (    1.06035682731    0.88239221917    1.05903446689  )
        95           Ca  tau(  95) = (    1.06081431142    0.88234114266    0.88535193096  )
        96           O   tau(  96) = (    1.23614810114    1.05905342046    1.06165510978  )
        97           Ca  tau(  97) = (    0.00099727135    0.53154434544    0.53092985522  )
        98           O   tau(  98) = (    0.17865567098    0.70853657179    0.70616366842  )
        99           Ca  tau(  99) = (    0.17759587344    0.70827524431    0.53105621635  )
       100           O   tau( 100) = (    0.35161943814    0.88298123790    0.70853535793  )
       101           Ca  tau( 101) = (    0.35461340830    0.88375938028    0.52956370924  )
       102           O   tau( 102) = (    0.53103161728    1.06201057349    0.70615938922  )
       103           Ca  tau( 103) = (    0.53149687254    1.06214414763    0.52924365992  )
       104           O   tau( 104) = (    0.70681767819    1.23577458859    0.70820547258  )
       105           Ca  tau( 105) = (    0.17842448241    0.53170809335    0.70599843316  )
       106           O   tau( 106) = (    0.35518701831    0.70813259410    0.88237068295  )
       107           Ca  tau( 107) = (    0.35281284235    0.70761482277    0.70674995113  )
       108           O   tau( 108) = (    0.52874792894    0.88508495088    0.88481575509  )
       109           Ca  tau( 109) = (    0.52950554875    0.88244855147    0.70886906175  )
       110           O   tau( 110) = (    0.70775965899    1.05892569390    0.88414219368  )
       111           Ca  tau( 111) = (    0.70559232869    1.06108422067    0.70871448852  )
       112           O   tau( 112) = (    0.88436115168    1.23566534658    0.88579369118  )
       113           Ca  tau( 113) = (    0.35391988561    0.53022655353    0.88550254779  )
       114           O   tau( 114) = (    0.52959986518    0.70551311199    1.06165240870  )
       115           Ca  tau( 115) = (    0.52960110307    0.70662361635    0.88541289404  )
       116           O   tau( 116) = (    0.70780595496    0.88358384100    1.05939584403  )
       117           Ca  tau( 117) = (    0.70547531360    0.88325773473    0.88321311657  )
       118           O   tau( 118) = (    0.88573676846    1.06075559466    1.06244088521  )
       119           Ca  tau( 119) = (    0.88322577490    1.06180683686    0.88483864389  )
       120           O   tau( 120) = (    1.06244671818    1.23903609614    1.06056027506  )
       121           Ca  tau( 121) = (    0.53183563335    0.53172158087    1.05957376114  )
       122           O   tau( 122) = (    0.70902063906    0.70748822205    1.23758895488  )
       123           Ca  tau( 123) = (    0.70534316837    0.70830409068    1.06042535144  )
       124           O   tau( 124) = (    0.88306759775    0.88403308108    1.23592007871  )
       125           Ca  tau( 125) = (    0.88401614738    0.88356414588    1.06142923149  )
       126           O   tau( 126) = (    1.06117474654    1.06050491018    1.23874275209  )
       127           Ca  tau( 127) = (    1.06043913004    1.06221265594    1.06038430710  )
       128           O   tau( 128) = (    1.23758845361    1.23937454158    1.23735863276  )

   Crystallographic axes

     site n.     atom                  positions (cryst. coord.)
         1           Ca  tau(   1) = (   -0.00085714949    0.00054610733    0.00162650039  )
         2           O   tau(   2) = (    0.12647468557    0.12377391636    0.12572716103  )
         3           Ca  tau(   3) = (    0.00009018602   -0.00171438005    0.24913070791  )
         4           O   tau(   4) = (    0.12382192963    0.12653068181    0.37502204250  )
         5           Ca  tau(   5) = (    0.00298670244   -0.00057198773    0.49944087073  )
         6           O   tau(   6) = (    0.12478260003    0.12558513785    0.62691270444  )
         7           Ca  tau(   7) = (    0.00226392858   -0.00069308589    0.74918415707  )
         8           O   tau(   8) = (    0.12571160017    0.12491794207    0.87348123426  )
         9           Ca  tau(   9) = (   -0.00010617680    0.24908368556   -0.00053610232  )
        10           O   tau(  10) = (    0.12284538493    0.37642402823    0.12474161404  )
        11           Ca  tau(  11) = (   -0.00022852317    0.24919149754    0.24901689546  )
        12           O   tau(  12) = (    0.12223510736    0.37593907047    0.37637275746  )
        13           Ca  tau(  13) = (    0.00088968743    0.25030892746    0.49923176325  )
        14           O   tau(  14) = (    0.12271119780    0.37574266837    0.62539727479  )
        15           Ca  tau(  15) = (    0.00138741036    0.25083871516    0.74898321463  )
        16           O   tau(  16) = (    0.12519577532    0.37577995404    0.87275042623  )
        17           Ca  tau(  17) = (   -0.00059320900    0.50187607023   -0.00181706524  )
        18           O   tau(  18) = (    0.12440383042    0.62416730747    0.12631185753  )
        19           Ca  tau(  19) = (    0.00131573838    0.49640940178    0.25115077760  )
        20           O   tau(  20) = (    0.12717529206    0.62440998723    0.37326905843  )
        21           Ca  tau(  21) = (    0.00164369867    0.49733487243    0.50095102033  )
        22           O   tau(  22) = (    0.12265690920    0.62544013410    0.62470870891  )
        23           Ca  tau(  23) = (   -0.00041606024    0.50218489120    0.74919552341  )
        24           O   tau(  24) = (    0.12581732846    0.62500537477    0.87345492024  )
        25           Ca  tau(  25) = (   -0.00047789836    0.75038374678    0.00132304157  )
        26           O   tau(  26) = (    0.12479305955    0.87289712897    0.12780509633  )
        27           Ca  tau(  27) = (   -0.00301077192    0.75036654864    0.25029677460  )
        28           O   tau(  28) = (    0.12578670469    0.87660620273    0.37510258204  )
        29           Ca  tau(  29) = (   -0.00026889464    0.75091024081    0.50146032904  )
        30           O   tau(  30) = (    0.12513055738    0.87513061166    0.62467422149  )
        31           Ca  tau(  31) = (    0.00089214293    0.74841514397    0.75006663534  )
        32           O   tau(  32) = (    0.12637340968    0.87626933352    0.87354714532  )
        33           Ca  tau(  33) = (    0.24974556728   -0.00178693980    0.00044758146  )
        34           O   tau(  34) = (    0.37474890039    0.12491239396    0.12644144162  )
        35           Ca  tau(  35) = (    0.25051386813    0.00027979375    0.25110467444  )
        36           O   tau(  36) = (    0.37446723893    0.12464019732    0.37762154607  )
        37           Ca  tau(  37) = (    0.24968417699   -0.00184238591    0.50170708586  )
        38           O   tau(  38) = (    0.37310600852    0.12624947094    0.62440005075  )
        39           Ca  tau(  39) = (    0.24921921995   -0.00016345078    0.75088987910  )
        40           O   tau(  40) = (    0.37589225273    0.12446920582    0.87519860763  )
        41           Ca  tau(  41) = (    0.24981924080    0.25110463126    0.00116337987  )
        42           O   tau(  42) = (    0.37429744693    0.37763508889    0.12477091468  )
        43           Ca  tau(  43) = (    0.25106459714    0.25070523809    0.24795651968  )
        44           O   tau(  44) = (    0.37386764676    0.37568920357    0.37652255540  )
        45           Ca  tau(  45) = (    0.25021585372    0.24991987137    0.50179351155  )
        46           O   tau(  46) = (    0.37460934991    0.37308591385    0.62644231668  )
        47           Ca  tau(  47) = (    0.24980380426    0.24964273470    0.75009866143  )
        48           O   tau(  48) = (    0.37479143829    0.37547193813    0.87725627852  )
        49           Ca  tau(  49) = (    0.25094179655    0.49941592317   -0.00121556187  )
        50           O   tau(  50) = (    0.37603513770    0.62561867695    0.12228845675  )
        51           Ca  tau(  51) = (    0.24933625804    0.50043071322    0.25204899279  )
        52           O   tau(  52) = (    0.37557871167    0.62328973414    0.37453322763  )
        53           Ca  tau(  53) = (    0.24938833511    0.50086148355    0.49945917728  )
        54           O   tau(  54) = (    0.37448965161    0.62493759893    0.62562302611  )
        55           Ca  tau(  55) = (    0.24873300284    0.50048647856    0.74889866209  )
        56           O   tau(  56) = (    0.37544377363    0.62443888040    0.87694079094  )
        57           Ca  tau(  57) = (    0.24855614259    0.75031451452   -0.00097059912  )
        58           O   tau(  58) = (    0.37452359008    0.87476561266    0.12401072439  )
        59           Ca  tau(  59) = (    0.25119923236    0.74956869724    0.25067189025  )
        60           O   tau(  60) = (    0.37552764417    0.87580449390    0.37419824523  )
        61           Ca  tau(  61) = (    0.25101384552    0.74727909685    0.50008387312  )
        62           O   tau(  62) = (    0.37515185280    0.87653648704    0.62269322026  )
        63           Ca  tau(  63) = (    0.24717004655    0.75100890546    0.75129256633  )
        64           O   tau(  64) = (    0.37529334764    0.87637690249    0.87552817742  )
        65           Ca  tau(  65) = (    0.50087362209    0.00068488318   -0.00010184137  )
        66           O   tau(  66) = (    0.62716178559    0.12460321673    0.12372602701  )
        67           Ca  tau(  67) = (    0.50014881142    0.00073515420    0.25182603485  )
        68           O   tau(  68) = (    0.62595052871    0.12577632496    0.37515919878  )
        69           Ca  tau(  69) = (    0.49879961183   -0.00097368855    0.50096362485  )
        70           O   tau(  70) = (    0.62407596944    0.12476227319    0.62731868157  )
        71           Ca  tau(  71) = (    0.49880930627    0.00177505322    0.75078872399  )
        72           O   tau(  72) = (    0.62404661890    0.12574773159    0.87325516000  )
        73           Ca  tau(  73) = (    0.50050335095    0.25054696158   -0.00176632386  )
        74           O   tau(  74) = (    0.62474095832    0.37590442353    0.12638722133  )
        75           Ca  tau(  75) = (    0.50113556519    0.24803933202    0.25111148769  )
        76           O   tau(  76) = (    0.62358244130    0.37565008635    0.37651358593  )
        77           Ca  tau(  77) = (    0.49761259760    0.25004261794    0.50022331433  )
        78           O   tau(  78) = (    0.62607810443    0.37555655798    0.62257574412  )
        79           Ca  tau(  79) = (    0.49913379544    0.24987776215    0.74909523520  )
        80           O   tau(  80) = (    0.62576788054    0.37286552810    0.87545454780  )
        81           Ca  tau(  81) = (    0.50175678722    0.49880211995   -0.00026509236  )
        82           O   tau(  82) = (    0.62282067430    0.62603543089    0.12667699386  )
        83           Ca  tau(  83) = (    0.50046633022    0.50016855087    0.25158053848  )
        84           O   tau(  84) = (    0.62443804234    0.62283843569    0.37767367308  )
        85           Ca  tau(  85) = (    0.50013034092    0.49919996247    0.50239790724  )
        86           O   tau(  86) = (    0.62531431669    0.62230220000    0.62633692530  )
        87           Ca  tau(  87) = (    0.49979105965    0.50085167485    0.75040185783  )
        88           O   tau(  88) = (    0.62693182869    0.62556748459    0.87209692009  )
        89           Ca  tau(  89) = (    0.50047586879    0.74999790586    0.00088668506  )
        90           O   tau(  90) = (    0.62478321407    0.87705110029    0.12561398076  )
        91           Ca  tau(  91) = (    0.50042584405    0.75091804357    0.24940679495  )
        92           O   tau(  92) = (    0.62330946140    0.87425426266    0.37454882519  )
        93           Ca  tau(  93) = (    0.49866916326    0.75024466212    0.50099729332  )
        94           O   tau(  94) = (    0.62301047182    0.87469043427    0.62488057186  )
        95           Ca  tau(  95) = (    0.49983876623    0.75223794201    0.74798004436  )
        96           O   tau(  96) = (    0.62547867778    0.87592837703    0.87224903271  )
        97           Ca  tau(  97) = (    0.75057753478    0.00027066714    0.00113968754  )
        98           O   tau(  98) = (    0.87401549675    0.12465074038    0.12800653251  )
        99           Ca  tau(  99) = (    0.75076043355    0.00026646999    0.25089202284  )
       100           O   tau( 100) = (    0.87673968818    0.12528062443    0.37198435379  )
       101           Ca  tau( 101) = (    0.74862079490    0.00029538485    0.50120370656  )
       102           O   tau( 102) = (    0.87478891332    0.12387127211    0.62712084310  )
       103           Ca  tau( 103) = (    0.74945606747   -0.00099250580    0.75264259131  )
       104           O   tau( 104) = (    0.87480591043    0.12674787383    0.87284327279  )
       105           Ca  tau( 105) = (    0.74902551657    0.24940704262    0.00292328026  )
       106           O   tau( 106) = (    0.87350050347    0.37436008340    0.12795021507  )
       107           Ca  tau( 107) = (    0.75063056938    0.24886479672    0.25008790991  )
       108           O   tau( 108) = (    0.87762754513    0.37369089592    0.37407159626  )
       109           Ca  tau( 109) = (    0.75081451113    0.25167772994    0.49715619845  )
       110           O   tau( 110) = (    0.87349482529    0.37687105608    0.62405225257  )
       111           Ca  tau( 111) = (    0.75250754823    0.24976609329    0.74809214745  )
       112           O   tau( 112) = (    0.87476030423    0.37794114729    0.87273438745  )
       113           Ca  tau( 113) = (    0.75081249675    0.50147721585   -0.00095891362  )
       114           O   tau( 114) = (    0.87509106718    0.62631216774    0.12265514423  )
       115           Ca  tau( 115) = (    0.75125528109    0.50090764196    0.24806142065  )
       116           O   tau( 116) = (    0.87339972048    0.62481225007    0.37617653096  )
       117           Ca  tau( 117) = (    0.75023713952    0.49881482840    0.49887792801  )
       118           O   tau( 118) = (    0.87501615338    0.62750215571    0.62511879494  )
       119           Ca  tau( 119) = (    0.75195128525    0.49939952544    0.74967034405  )
       120           O   tau( 120) = (    0.87479690899    0.62506181571    0.87746474243  )
       121           Ca  tau( 121) = (    0.74915114439    0.74931243895    0.00281672669  )
       122           O   tau( 122) = (    0.87402395986    0.87619112478    0.12651547898  )
       123           Ca  tau( 123) = (    0.75192764519    0.74774026871    0.24976560613  )
       124           O   tau( 124) = (    0.87461016847    0.87324476886    0.37560140438  )
       125           Ca  tau( 125) = (    0.75022419402    0.75086342066    0.49932420432  )
       126           O   tau( 126) = (    0.87544975432    0.87639704598    0.62433067262  )
       127           Ca  tau( 127) = (    0.75105900641    0.74855086202    0.75113653775  )
       128           O   tau( 128) = (    0.87620763490    0.87368172506    0.87653265067  )

     number of k points=     8  gaussian smearing, width (Ry)=  0.0050
                       cart. coord. in units 2pi/alat
        k(    1) = (   0.0000000   0.0000000   0.0000000), wk =   0.2500000
        k(    2) = (  -0.3535534  -0.3535534   0.3535534), wk =   0.2500000
        k(    3) = (  -0.7071068   0.0000000   0.0000000), wk =   0.2500000
        k(    4) = (   0.3535534   0.3535534   0.3535534), wk =   0.2500000
        k(    5) = (   0.3535534  -0.3535534  -0.3535534), wk =   0.2500000
        k(    6) = (  -0.3535534   0.3535534  -0.3535534), wk =   0.2500000
        k(    7) = (   0.0000000  -0.7071068   0.0000000), wk =   0.2500000
        k(    8) = (   0.0000000   0.0000000  -0.7071068), wk =   0.2500000

                       cryst. coord.
        k(    1) = (   0.0000000   0.0000000   0.0000000), wk =   0.2500000
        k(    2) = (   0.0000000   0.0000000  -0.5000000), wk =   0.2500000
        k(    3) = (   0.0000000  -0.5000000  -0.5000000), wk =   0.2500000
        k(    4) = (   0.5000000   0.5000000   0.5000000), wk =   0.2500000
        k(    5) = (  -0.5000000   0.0000000   0.0000000), wk =   0.2500000
        k(    6) = (   0.0000000  -0.5000000   0.0000000), wk =   0.2500000
        k(    7) = (  -0.5000000   0.0000000  -0.5000000), wk =   0.2500000
        k(    8) = (  -0.5000000  -0.5000000   0.0000000), wk =   0.2500000

     Dense  grid:   559377 G-vectors     FFT dimensions: ( 120, 120, 120)

     Smooth grid:   400181 G-vectors     FFT dimensions: ( 108, 108, 108)

     Largest allocated arrays     est. size (Mb)     dimensions
        Kohn-Sham Wavefunctions        58.96 Mb     (    6293,  614)
        NL pseudopotentials           190.51 Mb     (    6293, 1984)
        Each V/rho on FFT grid          3.30 Mb     (  216000)
        Each G-vector array             0.53 Mb     (   69923)
        G-vector shells                 0.02 Mb     (    2196)
     Largest temporary arrays     est. size (Mb)     dimensions
        Auxiliary wavefunctions       235.83 Mb     (    6293, 2456)
        Each subspace H/S matrix       92.04 Mb     (    2456, 2456)
        Each <psi_i|beta_j> matrix     18.59 Mb     (    1984,  614)
        Arrays for rho mixing          26.37 Mb     (  216000,    8)

     Check: negative/imaginary core charge=   -0.000003    0.000000

     Initial potential from superposition of free atoms

     starting charge 1023.66864, renormalised to 1024.00000
     Starting wfc are  896 randomized atomic wfcs

     total cpu time spent up to now is      701.8 secs

     per-process dynamical memory:   812.6 Mb

     Self-consistent Calculation

     iteration #  1     ecut=    40.00 Ry     beta=0.30
     Davidson diagonalization with overlap
     ethr =  1.00E-02,  avg # of iterations =  2.4

     total cpu time spent up to now is     2109.1 secs

     total energy              =   -6873.02688212 Ry
     Harris-Foulkes estimate   =   -6878.74817021 Ry
     estimated scf accuracy    <      28.93587604 Ry

     iteration #  2     ecut=    40.00 Ry     beta=0.30
     Davidson diagonalization with overlap
     ethr =  2.83E-03,  avg # of iterations =  2.0

     total cpu time spent up to now is     3402.3 secs

     total energy              =   -6869.86334517 Ry
     Harris-Foulkes estimate   =   -6874.03838578 Ry
     estimated scf accuracy    <      10.84471338 Ry

     iteration #  3     ecut=    40.00 Ry     beta=0.30
     Davidson diagonalization with overlap
     ethr =  1.06E-03,  avg # of iterations =  2.1

     total cpu time spent up to now is     5011.5 secs

     total energy              =   -6871.78101720 Ry
     Harris-Foulkes estimate   =   -6871.97185579 Ry
     estimated scf accuracy    <       0.70921477 Ry

     iteration #  4     ecut=    40.00 Ry     beta=0.30
     Davidson diagonalization with overlap
     ethr =  6.93E-05,  avg # of iterations =  4.8

     total cpu time spent up to now is     7101.2 secs

     total energy              =   -6871.78585810 Ry
     Harris-Foulkes estimate   =   -6871.97814301 Ry
     estimated scf accuracy    <       0.62213835 Ry

     iteration #  5     ecut=    40.00 Ry     beta=0.30
     Davidson diagonalization with overlap
     ethr =  6.08E-05,  avg # of iterations =  2.0

     total cpu time spent up to now is     8520.6 secs

     total energy              =   -6871.85946895 Ry
     Harris-Foulkes estimate   =   -6871.85953084 Ry
     estimated scf accuracy    <       0.00209576 Ry

     iteration #  6     ecut=    40.00 Ry     beta=0.30
     Davidson diagonalization with overlap
     ethr =  2.05E-07,  avg # of iterations = 11.4

     total cpu time spent up to now is    13127.2 secs

     total energy              =   -6871.86069384 Ry
     Harris-Foulkes estimate   =   -6871.86058901 Ry
     estimated scf accuracy    <       0.00111996 Ry

     iteration #  7     ecut=    40.00 Ry     beta=0.30
     Davidson diagonalization with overlap
     ethr =  1.09E-07,  avg # of iterations =  3.0

     total cpu time spent up to now is    14993.5 secs

     total energy              =   -6871.85931632 Ry
     Harris-Foulkes estimate   =   -6871.86137148 Ry
     estimated scf accuracy    <       0.00324108 Ry

     iteration #  8     ecut=    40.00 Ry     beta=0.30
     Davidson diagonalization with overlap
     ethr =  1.09E-07,  avg # of iterations =  4.0

     total cpu time spent up to now is    17053.2 secs

     total energy              =   -6871.86040704 Ry
     Harris-Foulkes estimate   =   -6871.86134974 Ry
     estimated scf accuracy    <       0.00375572 Ry

     iteration #  9     ecut=    40.00 Ry     beta=0.30
     Davidson diagonalization with overlap
     ethr =  1.09E-07,  avg # of iterations =  2.9

     total cpu time spent up to now is    18694.4 secs

     total energy              =   -6871.86071405 Ry
     Harris-Foulkes estimate   =   -6871.86067289 Ry
     estimated scf accuracy    <       0.00051456 Ry

     iteration # 10     ecut=    40.00 Ry     beta=0.30
     Davidson diagonalization with overlap
     ethr =  5.02E-08,  avg # of iterations =  1.0

     total cpu time spent up to now is    19903.6 secs

     total energy              =   -6871.86058957 Ry
     Harris-Foulkes estimate   =   -6871.86072221 Ry
     estimated scf accuracy    <       0.00050592 Ry

     iteration # 11     ecut=    40.00 Ry     beta=0.30
     Davidson diagonalization with overlap
     ethr =  4.94E-08,  avg # of iterations =  2.0

     total cpu time spent up to now is    21398.0 secs

     total energy              =   -6871.86060869 Ry
     Harris-Foulkes estimate   =   -6871.86063218 Ry
     estimated scf accuracy    <       0.00005615 Ry

     iteration # 12     ecut=    40.00 Ry     beta=0.30
     Davidson diagonalization with overlap
     ethr =  5.48E-09,  avg # of iterations =  2.8

     total cpu time spent up to now is    23076.7 secs

     total energy              =   -6871.86061611 Ry
     Harris-Foulkes estimate   =   -6871.86061895 Ry
     estimated scf accuracy    <       0.00000696 Ry

     iteration # 13     ecut=    40.00 Ry     beta=0.30
     Davidson diagonalization with overlap
     ethr =  6.80E-10,  avg # of iterations =  2.0

     total cpu time spent up to now is    24529.9 secs

     total energy              =   -6871.86061735 Ry
     Harris-Foulkes estimate   =   -6871.86061743 Ry
     estimated scf accuracy    <       0.00000149 Ry

     iteration # 14     ecut=    40.00 Ry     beta=0.30
     Davidson diagonalization with overlap
     ethr =  1.45E-10,  avg # of iterations =  1.5

     total cpu time spent up to now is    25753.0 secs

     total energy              =   -6871.86061715 Ry
     Harris-Foulkes estimate   =   -6871.86061744 Ry
     estimated scf accuracy    <       0.00000108 Ry

     iteration # 15     ecut=    40.00 Ry     beta=0.30
     Davidson diagonalization with overlap
     ethr =  1.05E-10,  avg # of iterations =  2.0

     total cpu time spent up to now is    27220.3 secs

     total energy              =   -6871.86061720 Ry
     Harris-Foulkes estimate   =   -6871.86061727 Ry
     estimated scf accuracy    <       0.00000029 Ry

     iteration # 16     ecut=    40.00 Ry     beta=0.30
     Davidson diagonalization with overlap
     ethr =  2.84E-11,  avg # of iterations =  2.0

     total cpu time spent up to now is    28703.8 secs

     total energy              =   -6871.86061723 Ry
     Harris-Foulkes estimate   =   -6871.86061725 Ry
     estimated scf accuracy    <       0.00000011 Ry

     iteration # 17     ecut=    40.00 Ry     beta=0.30
     Davidson diagonalization with overlap
     ethr =  1.07E-11,  avg # of iterations =  2.0

     total cpu time spent up to now is    30115.7 secs

     total energy              =   -6871.86061724 Ry
     Harris-Foulkes estimate   =   -6871.86061724 Ry
     estimated scf accuracy    <       0.00000003 Ry

     iteration # 18     ecut=    40.00 Ry     beta=0.30
     Davidson diagonalization with overlap
     ethr =  3.14E-12,  avg # of iterations =  1.8

     total cpu time spent up to now is    31365.1 secs

     total energy              =   -6871.86061724 Ry
     Harris-Foulkes estimate   =   -6871.86061724 Ry
     estimated scf accuracy    <       0.00000002 Ry

     iteration # 19     ecut=    40.00 Ry     beta=0.30
     Davidson diagonalization with overlap
     ethr =  1.89E-12,  avg # of iterations =  2.0

     total cpu time spent up to now is    32814.7 secs

     total energy              =   -6871.86061724 Ry
     Harris-Foulkes estimate   =   -6871.86061724 Ry
     estimated scf accuracy    <          8.3E-09 Ry

     iteration # 20     ecut=    40.00 Ry     beta=0.30
     Davidson diagonalization with overlap
     ethr =  8.15E-13,  avg # of iterations =  2.0

     total cpu time spent up to now is    34273.7 secs

     total energy              =   -6871.86061724 Ry
     Harris-Foulkes estimate   =   -6871.86061724 Ry
     estimated scf accuracy    <          4.5E-09 Ry

     iteration # 21     ecut=    40.00 Ry     beta=0.30
     Davidson diagonalization with overlap
     ethr =  4.39E-13,  avg # of iterations =  2.0

     total cpu time spent up to now is    35772.4 secs

     total energy              =   -6871.86061724 Ry
     Harris-Foulkes estimate   =   -6871.86061724 Ry
     estimated scf accuracy    <          1.8E-09 Ry

     iteration # 22     ecut=    40.00 Ry     beta=0.30
     Davidson diagonalization with overlap
     ethr =  1.77E-13,  avg # of iterations =  2.0

     total cpu time spent up to now is    37217.9 secs

     total energy              =   -6871.86061724 Ry
     Harris-Foulkes estimate   =   -6871.86061724 Ry
     estimated scf accuracy    <          2.5E-10 Ry

     iteration # 23     ecut=    40.00 Ry     beta=0.30
     Davidson diagonalization with overlap
     ethr =  1.00E-13,  avg # of iterations =  1.0

     total cpu time spent up to now is    38388.0 secs

     total energy              =   -6871.86061724 Ry
     Harris-Foulkes estimate   =   -6871.86061724 Ry
     estimated scf accuracy    <          1.1E-10 Ry

     iteration # 24     ecut=    40.00 Ry     beta=0.30
     Davidson diagonalization with overlap
     ethr =  1.00E-13,  avg # of iterations =  1.0

     total cpu time spent up to now is    39554.2 secs

     End of self-consistent calculation

          k = 0.0000 0.0000 0.0000 ( 50237 PWs)   bands (ev):

   -29.5113 -29.4844 -29.4478 -29.4259 -29.4181 -29.4034 -29.3981 -29.3904
   -29.3852 -29.3776 -29.3748 -29.3680 -29.3621 -29.3547 -29.3534 -29.3502
   -29.3460 -29.3413 -29.3377 -29.3344 -29.3296 -29.3168 -29.3130 -29.3069
   -29.3022 -29.2994 -29.2932 -29.2905 -29.2860 -29.2824 -29.2789 -29.2740
   -29.2732 -29.2716 -29.2647 -29.2625 -29.2585 -29.2557 -29.2540 -29.2532
   -29.2524 -29.2468 -29.2429 -29.2421 -29.2416 -29.2378 -29.2344 -29.2326
   -29.2302 -29.2261 -29.2207 -29.2172 -29.2151 -29.2111 -29.2080 -29.2003
   -29.1937 -29.1853 -29.1737 -29.1674 -29.1617 -29.1532 -29.1358 -29.1183
   -11.5036 -11.4994 -11.4971 -11.4952 -11.2271 -11.2122 -11.2072 -11.1990
   -11.1939 -11.1875 -11.1832 -11.1830 -11.1794 -11.1690 -11.1629 -11.1601
   -11.1598 -11.1565 -11.1534 -11.1510 -11.1482 -11.1435 -11.1417 -11.1367
   -11.1341 -11.1286 -11.1235 -11.1190 -11.1180 -11.1154 -11.1128 -11.1004
   -11.0957 -11.0910 -11.0869 -11.0782 -11.0755 -11.0705 -11.0678 -11.0513
   -10.9766 -10.9639 -10.9583 -10.9547 -10.9411 -10.9398 -10.9329 -10.9212
   -10.9181 -10.9130 -10.9096 -10.8317 -10.8262 -10.8218 -10.8193 -10.8113
   -10.8056 -10.7447 -10.7412 -10.7336 -10.7295 -10.7274 -10.7258 -10.7212
   -10.7153 -10.7122 -10.7103 -10.7069 -10.7045 -10.7017 -10.6967 -10.6953
   -10.6850 -10.6814 -10.6799 -10.5892 -10.5815 -10.5766 -10.5716 -10.5673
   -10.5656 -10.5630 -10.5552 -10.5524 -10.5495 -10.5468 -10.5432 -10.5392
   -10.5373 -10.5332 -10.5309 -10.5303 -10.5278 -10.5262 -10.5234 -10.5220
   -10.5182 -10.5163 -10.5123 -10.5093 -10.5082 -10.5057 -10.5043 -10.5020
   -10.4997 -10.4965 -10.4942 -10.4912 -10.4887 -10.4880 -10.4796 -10.4773
   -10.4759 -10.4736 -10.4700 -10.4694 -10.4634 -10.4396 -10.4320 -10.4223
   -10.4154 -10.4101 -10.4070 -10.4042 -10.4013 -10.3994 -10.3931 -10.3902
   -10.3861 -10.3839 -10.3837 -10.3773 -10.3740 -10.3713 -10.3695 -10.3678
   -10.3652 -10.3633 -10.3601 -10.3578 -10.3557 -10.3525 -10.3500 -10.3487
   -10.3448 -10.3436 -10.3410 -10.3396 -10.3372 -10.3346 -10.3322 -10.3316
   -10.3270 -10.3180 -10.3163 -10.3121 -10.3086 -10.3027 -10.2969 -10.2946
   -10.2909 -10.2893 -10.2851 -10.2814 -10.2764 -10.2717 -10.2690 -10.2662
   -10.2645 -10.2601 -10.2585 -10.2563 -10.2544 -10.2523 -10.2504 -10.2434
   -10.2421 -10.2409 -10.2354 -10.2310 -10.2293 -10.2248 -10.2215 -10.2176
   -10.2155 -10.2119 -10.2102 -10.2042 -10.1998 -10.1933 -10.1860 -10.1715
    -7.5519  -7.3130  -7.3108  -7.3095  -6.9801  -6.9707  -6.9592  -6.9570
    -6.9504  -6.9356  -6.8935  -6.8802  -6.8727  -6.8624  -6.8556  -6.8525
    -6.8504  -6.8358  -6.8249  -6.8147  -6.8129  -6.7954  -6.7876  -6.7798
    -6.7753  -6.7668  -6.7632  -6.7610  -6.7521  -6.7457  -6.7404  -6.7362
    -6.7316  -6.7240  -6.7183  -6.7060  -6.7044  -6.6993  -6.6903  -6.6822
    -6.6813  -6.6749  -6.6720  -6.6675  -6.6557  -6.6541  -6.6498  -6.6012
    -6.5528  -6.5444  -6.5382  -6.5335  -6.5332  -6.5266  -6.5254  -6.5224
    -6.5158  -6.5155  -6.4930  -6.4912  -6.2087  -6.2079  -6.2059  -6.2012
     5.1460   5.1470   5.1483   5.1489   5.7162   5.7229   5.7234   5.7365
     5.7399   5.7405   5.7429   5.7452   5.7508   5.7593   5.7628   5.7656
     5.9784   5.9898   5.9951   5.9973   6.0081   6.0126   6.0144   6.0193
     6.0244   6.0332   6.0362   6.0413   6.0445   6.0512   6.0533   6.0552
     6.0608   6.0704   6.0795   6.0869   6.0875   6.0969   6.0976   6.1030
     6.1413   6.1426   6.1520   6.1544   6.1556   6.1641   6.2696   6.2827
     6.2841   6.2917   6.3134   6.3221   6.3265   6.3369   6.5330   6.5391
     6.5415   6.5433   6.5472   6.5524   6.5685   6.5707   6.5814   6.5971
     6.6007   6.6096   6.6122   6.6245   6.6274   6.6296   6.6363   6.7012
     6.7083   6.7105   6.7124   6.7185   6.7231   6.7244   6.7275   6.7331
     6.7358   6.7398   6.7428   6.7459   6.7474   6.7502   6.7543   6.7553
     6.7562   6.7594   6.7623   6.7639   6.7668   6.7682   6.7738   6.7752
     6.7779   6.7799   6.7850   6.7861   6.7867   6.7912   6.7930   6.7991
     6.8016   6.8064   6.8097   6.8119   6.8135   6.8173   6.8204   6.8246
     6.8250   6.8291   6.8311   6.8347   6.8382   6.8421   6.8499   6.9863
     6.9891   6.9995   7.0114   7.0125   7.0177   7.0182   7.0218   7.0245
     7.0257   7.0270   7.0333   7.0345   7.0376   7.0398   7.0454   7.0487
     7.0496   7.0532   7.0582   7.0591   7.0651   7.0680   7.0712   7.0757
     7.0794   7.0816   7.0835   7.0892   7.0917   7.0954   7.1006   7.1046
     7.1090   7.1124   7.1138   7.1611   7.1657   7.1742   7.1819   7.1880
     7.1972   7.2007   7.2026   7.2096   7.2235   7.2375   7.2399   7.2458
     7.2558   7.2704   7.2759   7.4981   7.4993   7.5204   7.5228   7.5238
     7.5252   7.5669   7.5831   7.5855   7.5888   7.5920   7.5940   7.5955
     7.5969   7.5983   7.6162   7.6246   7.6266   7.8968   7.9045   7.9055
    11.4379  11.4403  11.4409  12.5215  12.5294  12.5418  12.5452  12.5530
    12.5711  12.6736  13.1129  13.1280  13.1324  13.1518  13.1578  13.1708
    13.1818  13.1892  13.1912  13.2001  13.2028  13.2137  13.2170  13.2308
    13.2328  13.2551  13.2622  13.2718  13.2796  13.2897  13.2951  13.3132
    13.3183  13.3250  14.1004  14.1187  14.1296  14.1384  14.1416  14.1476
    14.1557  14.1680  14.1721  14.1798  14.1900  14.2019  14.2056  14.2108
    14.2146  14.2220  14.2284  14.2400  14.2451  14.2578  14.2607  14.2769
    14.2811  14.3808  14.3866  14.3957  14.4050  14.4086  14.4132  14.4174
    14.4284  14.4543  14.4582  14.4697  14.4896  14.5785  14.5887  14.5934
    14.6016  14.6088  14.6175  14.7854  14.8149  14.8311  14.8347  14.8459
    14.8817  14.8849  14.9058  15.0194  15.0233  15.0259  15.0366  15.0963
    15.0998  15.1201  15.1266  15.1327  15.1426  15.1459  15.1567  15.1666
    15.1701  15.1741  15.1915  15.2000  15.2028  15.2174

     occupation numbers 
     1.0000   1.0000   1.0000   1.0000   1.0000   1.0000   1.0000   1.0000
     1.0000   1.0000   1.0000   1.0000   1.0000   1.0000   1.0000   1.0000
     1.0000   1.0000   1.0000   1.0000   1.0000   1.0000   1.0000   1.0000
     1.0000   1.0000   1.0000   1.0000   1.0000   1.0000   1.0000   1.0000
     1.0000   1.0000   1.0000   1.0000   1.0000   1.0000   1.0000   1.0000
     1.0000   1.0000   1.0000   1.0000   1.0000   1.0000   1.0000   1.0000
     1.0000   1.0000   1.0000   1.0000   1.0000   1.0000   1.0000   1.0000
     1.0000   1.0000   1.0000   1.0000   1.0000   1.0000   1.0000   1.0000
     1.0000   1.0000   1.0000   1.0000   1.0000   1.0000   1.0000   1.0000
     1.0000   1.0000   1.0000   1.0000   1.0000   1.0000   1.0000   1.0000
     1.0000   1.0000   1.0000   1.0000   1.0000   1.0000   1.0000   1.0000
     1.0000   1.0000   1.0000   1.0000   1.0000   1.0000   1.0000   1.0000
     1.0000   1.0000   1.0000   1.0000   1.0000   1.0000   1.0000   1.0000
     1.0000   1.0000   1.0000   1.0000   1.0000   1.0000   1.0000   1.0000
     1.0000   1.0000   1.0000   1.0000   1.0000   1.0000   1.0000   1.0000
     1.0000   1.0000   1.0000   1.0000   1.0000   1.0000   1.0000   1.0000
     1.0000   1.0000   1.0000   1.0000   1.0000   1.0000   1.0000   1.0000
     1.0000   1.0000   1.0000   1.0000   1.0000   1.0000   1.0000   1.0000
     1.0000   1.0000   1.0000   1.0000   1.0000   1.0000   1.0000   1.0000
     1.0000   1.0000   1.0000   1.0000   1.0000   1.0000   1.0000   1.0000
     1.0000   1.0000   1.0000   1.0000   1.0000   1.0000   1.0000   1.0000
     1.0000   1.0000   1.0000   1.0000   1.0000   1.0000   1.0000   1.0000
     1.0000   1.0000   1.0000   1.0000   1.0000   1.0000   1.0000   1.0000
     1.0000   1.0000   1.0000   1.0000   1.0000   1.0000   1.0000   1.0000
     1.0000   1.0000   1.0000   1.0000   1.0000   1.0000   1.0000   1.0000
     1.0000   1.0000   1.0000   1.0000   1.0000   1.0000   1.0000   1.0000
     1.0000   1.0000   1.0000   1.0000   1.0000   1.0000   1.0000   1.0000
     1.0000   1.0000   1.0000   1.0000   1.0000   1.0000   1.0000   1.0000
     1.0000   1.0000   1.0000   1.0000   1.0000   1.0000   1.0000   1.0000
     1.0000   1.0000   1.0000   1.0000   1.0000   1.0000   1.0000   1.0000
     1.0000   1.0000   1.0000   1.0000   1.0000   1.0000   1.0000   1.0000
     1.0000   1.0000   1.0000   1.0000   1.0000   1.0000   1.0000   1.0000
     1.0000   1.0000   1.0000   1.0000   1.0000   1.0000   1.0000   1.0000
     1.0000   1.0000   1.0000   1.0000   1.0000   1.0000   1.0000   1.0000
     1.0000   1.0000   1.0000   1.0000   1.0000   1.0000   1.0000   1.0000
     1.0000   1.0000   1.0000   1.0000   1.0000   1.0000   1.0000   1.0000
     1.0000   1.0000   1.0000   1.0000   1.0000   1.0000   1.0000   1.0000
     1.0000   1.0000   1.0000   1.0000   1.0000   1.0000   1.0000   1.0000
     1.0000   1.0000   1.0000   1.0000   1.0000   1.0000   1.0000   1.0000
     1.0000   1.0000   1.0000   1.0000   1.0000   1.0000   1.0000   1.0000
     1.0000   1.0000   1.0000   1.0000   1.0000   1.0000   1.0000   1.0000
     1.0000   1.0000   1.0000   1.0000   1.0000   1.0000   1.0000   1.0000
     1.0000   1.0000   1.0000   1.0000   1.0000   1.0000   1.0000   1.0000
     1.0000   1.0000   1.0000   1.0000   1.0000   1.0000   1.0000   1.0000
     1.0000   1.0000   1.0000   1.0000   1.0000   1.0000   1.0000   1.0000
     1.0000   1.0000   1.0000   1.0000   1.0000   1.0000   1.0000   1.0000
     1.0000   1.0000   1.0000   1.0000   1.0000   1.0000   1.0000   1.0000
     1.0000   1.0000   1.0000   1.0000   1.0000   1.0000   1.0000   1.0000
     1.0000   1.0000   1.0000   1.0000   1.0000   1.0000   1.0000   1.0000
     1.0000   1.0000   1.0000   1.0000   1.0000   1.0000   1.0000   1.0000
     1.0000   1.0000   1.0000   1.0000   1.0000   1.0000   1.0000   1.0000
     1.0000   1.0000   1.0000   1.0000   1.0000   1.0000   1.0000   1.0000
     1.0000   1.0000   1.0000   1.0000   1.0000   1.0000   1.0000   1.0000
     1.0000   1.0000   1.0000   1.0000   1.0000   1.0000   1.0000   1.0000
     1.0000   1.0000   1.0000   1.0000   1.0000   1.0000   1.0000   1.0000
     1.0000   1.0000   1.0000   1.0000   1.0000   1.0000   1.0000   1.0000
     1.0000   1.0000   1.0000   1.0000   1.0000   1.0000   1.0000   1.0000
     1.0000   1.0000   1.0000   1.0000   1.0000   1.0000   1.0000   1.0000
     1.0000   1.0000   1.0000   1.0000   1.0000   1.0000   1.0000   1.0000
     1.0000   1.0000   1.0000   1.0000   1.0000   1.0000   1.0000   1.0000
     1.0000   1.0000   1.0000   1.0000   1.0000   1.0000   1.0000   1.0000
     1.0000   1.0000   1.0000   1.0000   1.0000   1.0000   1.0000   1.0000
     1.0000   1.0000   1.0000   1.0000   1.0000   1.0000   1.0000   1.0000
     1.0000   1.0000   1.0000   1.0000   1.0000   1.0000   1.0000   1.0000
     0.0000   0.0000   0.0000   0.0000   0.0000   0.0000   0.0000   0.0000
     0.0000   0.0000   0.0000   0.0000   0.0000   0.0000   0.0000   0.0000
     0.0000   0.0000   0.0000   0.0000   0.0000   0.0000   0.0000   0.0000
     0.0000   0.0000   0.0000   0.0000   0.0000   0.0000   0.0000   0.0000
     0.0000   0.0000   0.0000   0.0000   0.0000   0.0000   0.0000   0.0000
     0.0000   0.0000   0.0000   0.0000   0.0000   0.0000   0.0000   0.0000
     0.0000   0.0000   0.0000   0.0000   0.0000   0.0000   0.0000   0.0000
     0.0000   0.0000   0.0000   0.0000   0.0000   0.0000   0.0000   0.0000
     0.0000   0.0000   0.0000   0.0000   0.0000   0.0000   0.0000   0.0000
     0.0000   0.0000   0.0000   0.0000   0.0000   0.0000   0.0000   0.0000
     0.0000   0.0000   0.0000   0.0000   0.0000   0.0000   0.0000   0.0000
     0.0000   0.0000   0.0000   0.0000   0.0000   0.0000   0.0000   0.0000
     0.0000   0.0000   0.0000   0.0000   0.0000   0.0000

          k =-0.3536-0.3536 0.3536 ( 49986 PWs)   bands (ev):

   -29.5111 -29.4844 -29.4453 -29.4292 -29.4203 -29.3999 -29.3991 -29.3910
   -29.3839 -29.3791 -29.3755 -29.3662 -29.3642 -29.3549 -29.3521 -29.3500
   -29.3469 -29.3407 -29.3368 -29.3329 -29.3304 -29.3171 -29.3161 -29.3062
   -29.3017 -29.2964 -29.2917 -29.2883 -29.2871 -29.2842 -29.2786 -29.2762
   -29.2737 -29.2685 -29.2651 -29.2637 -29.2604 -29.2582 -29.2538 -29.2520
   -29.2507 -29.2476 -29.2449 -29.2397 -29.2389 -29.2378 -29.2353 -29.2327
   -29.2320 -29.2260 -29.2203 -29.2185 -29.2139 -29.2097 -29.2091 -29.2005
   -29.1935 -29.1854 -29.1734 -29.1673 -29.1620 -29.1532 -29.1358 -29.1183
   -11.4229 -11.4089 -11.4001 -11.3925 -11.3864 -11.3816 -11.3684 -11.3475
   -11.2261 -11.2050 -11.2015 -11.1991 -11.1944 -11.1857 -11.1844 -11.1770
   -11.1720 -11.1701 -11.1637 -11.1625 -11.1595 -11.1590 -11.1523 -11.1505
   -11.1417 -11.1405 -11.1103 -11.1031 -11.0960 -11.0897 -11.0815 -11.0778
   -11.0133 -10.9983 -10.9942 -10.9903 -10.9888 -10.9815 -10.9773 -10.9734
   -10.9676 -10.9668 -10.9643 -10.9585 -10.9542 -10.9490 -10.9443 -10.9441
   -10.9420 -10.9323 -10.9234 -10.9110 -10.9007 -10.8969 -10.8910 -10.8789
   -10.8247 -10.8174 -10.8116 -10.8040 -10.8003 -10.7949 -10.6935 -10.6847
   -10.6783 -10.6708 -10.6681 -10.6592 -10.6524 -10.6473 -10.6459 -10.6404
   -10.6374 -10.6348 -10.6079 -10.6054 -10.6017 -10.5991 -10.5966 -10.5881
   -10.5853 -10.5799 -10.5745 -10.5672 -10.5649 -10.5572 -10.5400 -10.5379
   -10.5321 -10.5274 -10.5143 -10.5127 -10.5099 -10.5054 -10.5011 -10.4963
   -10.4947 -10.4935 -10.4889 -10.4873 -10.4833 -10.4803 -10.4790 -10.4788
   -10.4738 -10.4707 -10.4701 -10.4656 -10.4590 -10.4572 -10.4561 -10.4529
   -10.4488 -10.4464 -10.4432 -10.4392 -10.4364 -10.4344 -10.4247 -10.4203
   -10.4163 -10.4116 -10.4113 -10.4092 -10.4078 -10.4037 -10.4002 -10.3938
   -10.3907 -10.3878 -10.3868 -10.3852 -10.3814 -10.3777 -10.3758 -10.3716
   -10.3697 -10.3665 -10.3624 -10.3564 -10.3554 -10.3535 -10.3526 -10.3498
   -10.3464 -10.3445 -10.3422 -10.3391 -10.3349 -10.3321 -10.3295 -10.3287
   -10.3282 -10.3226 -10.3195 -10.3171 -10.3122 -10.3107 -10.3089 -10.3060
   -10.3044 -10.3000 -10.2990 -10.2976 -10.2915 -10.2902 -10.2890 -10.2855
   -10.2816 -10.2796 -10.2781 -10.2759 -10.2711 -10.2697 -10.2629 -10.2609
   -10.2584 -10.2529 -10.2521 -10.2445 -10.2392 -10.2337 -10.2304 -10.2285
   -10.2240 -10.2212 -10.2163 -10.2154 -10.2101 -10.1996 -10.1987 -10.1720
    -7.3034  -7.2955  -7.1429  -7.1312  -7.1302  -7.1285  -7.1252  -7.1204
    -6.9590  -6.9414  -6.9322  -6.9244  -6.9194  -6.9104  -6.8904  -6.8878
    -6.8821  -6.8773  -6.8633  -6.8569  -6.8525  -6.8471  -6.8340  -6.8323
    -6.8290  -6.8257  -6.8155  -6.8100  -6.8065  -6.8040  -6.8007  -6.7814
    -6.6522  -6.6453  -6.6369  -6.6350  -6.6252  -6.6182  -6.6152  -6.6102
    -6.6001  -6.5960  -6.5927  -6.5902  -6.5863  -6.5816  -6.5745  -6.5714
    -6.5704  -6.5692  -6.5602  -6.5591  -6.5554  -6.5543  -6.5376  -6.5294
    -6.3711  -6.3601  -6.3566  -6.3495  -6.3451  -6.3351  -6.3320  -6.3262
     5.4019   5.4054   5.4107   5.4151   5.4185   5.4193   5.4498   5.4641
     5.7881   5.8001   5.8018   5.8089   5.8121   5.8130   5.8149   5.8197
     5.8258   5.8296   5.8321   5.8388   5.8411   5.8455   5.8485   5.8571
     5.8643   5.8743   5.9129   5.9172   5.9235   5.9278   5.9303   5.9412
     6.0475   6.0549   6.0590   6.0632   6.0720   6.0771   6.3282   6.3325
     6.3340   6.3408   6.3432   6.3453   6.3484   6.3495   6.3543   6.3568
     6.3601   6.3624   6.3635   6.3664   6.3697   6.3726   6.3843   6.3856
     6.4764   6.4819   6.4878   6.4955   6.4984   6.5013   6.6110   6.6312
     6.6397   6.6440   6.6556   6.6602   6.6820   6.6898   6.6968   6.7072
     6.7142   6.7169   6.7193   6.7247   6.7284   6.7321   6.7336   6.7359
     6.7401   6.7433   6.7452   6.7502   6.7539   6.7543   6.7560   6.7601
     6.7634   6.7682   6.7715   6.7721   6.7739   6.7770   6.7806   6.7837
     6.7840   6.7879   6.7892   6.7914   6.7925   6.7952   6.7970   6.8033
     6.8068   6.8108   6.8164   6.8221   6.8249   6.8287   6.8334   6.8392
     6.8461   6.8615   6.8878   6.8958   6.9038   6.9076   6.9140   6.9218
     6.9436   6.9573   6.9660   6.9714   6.9751   6.9838   6.9844   6.9865
     6.9959   6.9984   7.0014   7.0092   7.0145   7.0243   7.0266   7.0297
     7.0314   7.0340   7.0397   7.0452   7.0477   7.0542   7.0584   7.0609
     7.1489   7.1801   7.1847   7.1909   7.1972   7.2009   7.2105   7.2126
     7.2181   7.2218   7.2321   7.2421   7.2580   7.2645   7.2651   7.2675
     7.2725   7.2777   7.3208   7.3223   7.3419   7.3650   7.3693   7.3727
     7.3754   7.3849   7.3901   7.3907   7.3965   7.4031   7.4086   7.4094
     7.4127   7.4155   7.4192   7.4354   7.4392   7.4531   7.4857   7.5013
     7.5103   7.5144   7.5226   7.5309   7.6722   7.6792   7.6874   7.7025
    11.9407  11.9492  11.9525  11.9724  11.9747  11.9806  12.4626  12.4794
    12.4860  12.4956  12.5000  12.5150  13.3290  13.3417  13.3481  13.3508
    13.3560  13.3638  13.3690  13.3766  13.3778  13.3814  13.3861  13.3981
    13.3984  13.4054  13.4145  13.4217  13.4260  13.4294  13.4446  13.4521
    13.7327  13.7433  13.7621  13.7648  13.7712  13.7718  13.7799  13.7832
    13.7943  13.8071  13.8171  13.8264  14.0552  14.0888  14.0988  14.1071
    14.1131  14.1148  14.1379  14.1462  14.3343  14.3640  14.3670  14.3720
    14.3753  14.3902  14.4039  14.4066  14.4204  14.4281  14.4312  14.4367
    14.4391  14.4461  14.4506  14.4603  14.6178  14.6233  14.6270  14.6413
    14.6548  14.6580  14.6685  14.6917  15.1130  15.1207  15.1272  15.1361
    15.1507  15.1559  15.1799  15.1963  15.1977  15.2095  15.2233  15.2351
    15.2614  15.2780  15.2843  15.2909  15.2986  15.3029  15.3059  15.3164
    15.3207  15.3299  15.3310  15.3336  15.3383  15.3421

     occupation numbers 
     1.0000   1.0000   1.0000   1.0000   1.0000   1.0000   1.0000   1.0000
     1.0000   1.0000   1.0000   1.0000   1.0000   1.0000   1.0000   1.0000
     1.0000   1.0000   1.0000   1.0000   1.0000   1.0000   1.0000   1.0000
     1.0000   1.0000   1.0000   1.0000   1.0000   1.0000   1.0000   1.0000
     1.0000   1.0000   1.0000   1.0000   1.0000   1.0000   1.0000   1.0000
     1.0000   1.0000   1.0000   1.0000   1.0000   1.0000   1.0000   1.0000
     1.0000   1.0000   1.0000   1.0000   1.0000   1.0000   1.0000   1.0000
     1.0000   1.0000   1.0000   1.0000   1.0000   1.0000   1.0000   1.0000
     1.0000   1.0000   1.0000   1.0000   1.0000   1.0000   1.0000   1.0000
     1.0000   1.0000   1.0000   1.0000   1.0000   1.0000   1.0000   1.0000
     1.0000   1.0000   1.0000   1.0000   1.0000   1.0000   1.0000   1.0000
     1.0000   1.0000   1.0000   1.0000   1.0000   1.0000   1.0000   1.0000
     1.0000   1.0000   1.0000   1.0000   1.0000   1.0000   1.0000   1.0000
     1.0000   1.0000   1.0000   1.0000   1.0000   1.0000   1.0000   1.0000
     1.0000   1.0000   1.0000   1.0000   1.0000   1.0000   1.0000   1.0000
     1.0000   1.0000   1.0000   1.0000   1.0000   1.0000   1.0000   1.0000
     1.0000   1.0000   1.0000   1.0000   1.0000   1.0000   1.0000   1.0000
     1.0000   1.0000   1.0000   1.0000   1.0000   1.0000   1.0000   1.0000
     1.0000   1.0000   1.0000   1.0000   1.0000   1.0000   1.0000   1.0000
     1.0000   1.0000   1.0000   1.0000   1.0000   1.0000   1.0000   1.0000
     1.0000   1.0000   1.0000   1.0000   1.0000   1.0000   1.0000   1.0000
     1.0000   1.0000   1.0000   1.0000   1.0000   1.0000   1.0000   1.0000
     1.0000   1.0000   1.0000   1.0000   1.0000   1.0000   1.0000   1.0000
     1.0000   1.0000   1.0000   1.0000   1.0000   1.0000   1.0000   1.0000
     1.0000   1.0000   1.0000   1.0000   1.0000   1.0000   1.0000   1.0000
     1.0000   1.0000   1.0000   1.0000   1.0000   1.0000   1.0000   1.0000
     1.0000   1.0000   1.0000   1.0000   1.0000   1.0000   1.0000   1.0000
     1.0000   1.0000   1.0000   1.0000   1.0000   1.0000   1.0000   1.0000
     1.0000   1.0000   1.0000   1.0000   1.0000   1.0000   1.0000   1.0000
     1.0000   1.0000   1.0000   1.0000   1.0000   1.0000   1.0000   1.0000
     1.0000   1.0000   1.0000   1.0000   1.0000   1.0000   1.0000   1.0000
     1.0000   1.0000   1.0000   1.0000   1.0000   1.0000   1.0000   1.0000
     1.0000   1.0000   1.0000   1.0000   1.0000   1.0000   1.0000   1.0000
     1.0000   1.0000   1.0000   1.0000   1.0000   1.0000   1.0000   1.0000
     1.0000   1.0000   1.0000   1.0000   1.0000   1.0000   1.0000   1.0000
     1.0000   1.0000   1.0000   1.0000   1.0000   1.0000   1.0000   1.0000
     1.0000   1.0000   1.0000   1.0000   1.0000   1.0000   1.0000   1.0000
     1.0000   1.0000   1.0000   1.0000   1.0000   1.0000   1.0000   1.0000
     1.0000   1.0000   1.0000   1.0000   1.0000   1.0000   1.0000   1.0000
     1.0000   1.0000   1.0000   1.0000   1.0000   1.0000   1.0000   1.0000
     1.0000   1.0000   1.0000   1.0000   1.0000   1.0000   1.0000   1.0000
     1.0000   1.0000   1.0000   1.0000   1.0000   1.0000   1.0000   1.0000
     1.0000   1.0000   1.0000   1.0000   1.0000   1.0000   1.0000   1.0000
     1.0000   1.0000   1.0000   1.0000   1.0000   1.0000   1.0000   1.0000
     1.0000   1.0000   1.0000   1.0000   1.0000   1.0000   1.0000   1.0000
     1.0000   1.0000   1.0000   1.0000   1.0000   1.0000   1.0000   1.0000
     1.0000   1.0000   1.0000   1.0000   1.0000   1.0000   1.0000   1.0000
     1.0000   1.0000   1.0000   1.0000   1.0000   1.0000   1.0000   1.0000
     1.0000   1.0000   1.0000   1.0000   1.0000   1.0000   1.0000   1.0000
     1.0000   1.0000   1.0000   1.0000   1.0000   1.0000   1.0000   1.0000
     1.0000   1.0000   1.0000   1.0000   1.0000   1.0000   1.0000   1.0000
     1.0000   1.0000   1.0000   1.0000   1.0000   1.0000   1.0000   1.0000
     1.0000   1.0000   1.0000   1.0000   1.0000   1.0000   1.0000   1.0000
     1.0000   1.0000   1.0000   1.0000   1.0000   1.0000   1.0000   1.0000
     1.0000   1.0000   1.0000   1.0000   1.0000   1.0000   1.0000   1.0000
     1.0000   1.0000   1.0000   1.0000   1.0000   1.0000   1.0000   1.0000
     1.0000   1.0000   1.0000   1.0000   1.0000   1.0000   1.0000   1.0000
     1.0000   1.0000   1.0000   1.0000   1.0000   1.0000   1.0000   1.0000
     1.0000   1.0000   1.0000   1.0000   1.0000   1.0000   1.0000   1.0000
     1.0000   1.0000   1.0000   1.0000   1.0000   1.0000   1.0000   1.0000
     1.0000   1.0000   1.0000   1.0000   1.0000   1.0000   1.0000   1.0000
     1.0000   1.0000   1.0000   1.0000   1.0000   1.0000   1.0000   1.0000
     1.0000   1.0000   1.0000   1.0000   1.0000   1.0000   1.0000   1.0000
     1.0000   1.0000   1.0000   1.0000   1.0000   1.0000   1.0000   1.0000
     0.0000   0.0000   0.0000   0.0000   0.0000   0.0000   0.0000   0.0000
     0.0000   0.0000   0.0000   0.0000   0.0000   0.0000   0.0000   0.0000
     0.0000   0.0000   0.0000   0.0000   0.0000   0.0000   0.0000   0.0000
     0.0000   0.0000   0.0000   0.0000   0.0000   0.0000   0.0000   0.0000
     0.0000   0.0000   0.0000   0.0000   0.0000   0.0000   0.0000   0.0000
     0.0000   0.0000   0.0000   0.0000   0.0000   0.0000   0.0000   0.0000
     0.0000   0.0000   0.0000   0.0000   0.0000   0.0000   0.0000   0.0000
     0.0000   0.0000   0.0000   0.0000   0.0000   0.0000   0.0000   0.0000
     0.0000   0.0000   0.0000   0.0000   0.0000   0.0000   0.0000   0.0000
     0.0000   0.0000   0.0000   0.0000   0.0000   0.0000   0.0000   0.0000
     0.0000   0.0000   0.0000   0.0000   0.0000   0.0000   0.0000   0.0000
     0.0000   0.0000   0.0000   0.0000   0.0000   0.0000   0.0000   0.0000
     0.0000   0.0000   0.0000   0.0000   0.0000   0.0000

          k =-0.7071 0.0000 0.0000 ( 50000 PWs)   bands (ev):

   -29.5108 -29.4850 -29.4451 -29.4258 -29.4233 -29.3999 -29.3990 -29.3916
   -29.3860 -29.3813 -29.3715 -29.3673 -29.3617 -29.3558 -29.3512 -29.3474
   -29.3467 -29.3435 -29.3370 -29.3342 -29.3303 -29.3182 -29.3131 -29.3073
   -29.3025 -29.2967 -29.2917 -29.2891 -29.2880 -29.2813 -29.2779 -29.2743
   -29.2735 -29.2714 -29.2666 -29.2632 -29.2598 -29.2572 -29.2542 -29.2529
   -29.2494 -29.2475 -29.2460 -29.2407 -29.2402 -29.2369 -29.2342 -29.2327
   -29.2315 -29.2264 -29.2207 -29.2169 -29.2143 -29.2112 -29.2077 -29.2004
   -29.1942 -29.1855 -29.1734 -29.1671 -29.1625 -29.1525 -29.1361 -29.1183
   -11.3832 -11.3787 -11.3685 -11.3661 -11.3598 -11.3574 -11.3459 -11.3356
   -11.2791 -11.2782 -11.2668 -11.2614 -11.2544 -11.2511 -11.2453 -11.2410
   -11.1917 -11.1863 -11.1856 -11.1728 -11.1540 -11.1522 -11.1407 -11.1281
   -11.0694 -11.0609 -11.0520 -11.0515 -11.0490 -11.0407 -11.0348 -11.0282
   -11.0253 -11.0207 -11.0181 -11.0128 -11.0082 -11.0072 -10.9997 -10.9940
   -10.9908 -10.9867 -10.9817 -10.9812 -10.9740 -10.9713 -10.9669 -10.9652
   -10.9188 -10.9096 -10.8732 -10.8729 -10.8632 -10.8589 -10.8532 -10.8474
   -10.8377 -10.8315 -10.8227 -10.8212 -10.7728 -10.7452 -10.7441 -10.7333
   -10.7229 -10.7186 -10.6780 -10.6705 -10.6639 -10.6540 -10.6445 -10.6422
   -10.6389 -10.6369 -10.6231 -10.6207 -10.6134 -10.5985 -10.5902 -10.5771
   -10.5644 -10.5579 -10.5527 -10.5478 -10.5434 -10.5384 -10.5335 -10.5261
   -10.5248 -10.5152 -10.5111 -10.5065 -10.5026 -10.5014 -10.4996 -10.4967
   -10.4938 -10.4912 -10.4862 -10.4790 -10.4768 -10.4762 -10.4691 -10.4658
   -10.4648 -10.4600 -10.4548 -10.4537 -10.4517 -10.4475 -10.4430 -10.4414
   -10.4390 -10.4360 -10.4325 -10.4311 -10.4285 -10.4238 -10.4207 -10.4176
   -10.4159 -10.4139 -10.4120 -10.4096 -10.4074 -10.4051 -10.4033 -10.3998
   -10.3984 -10.3950 -10.3931 -10.3879 -10.3854 -10.3853 -10.3830 -10.3792
   -10.3764 -10.3717 -10.3708 -10.3664 -10.3652 -10.3623 -10.3567 -10.3555
   -10.3537 -10.3490 -10.3455 -10.3421 -10.3386 -10.3342 -10.3336 -10.3284
   -10.3263 -10.3239 -10.3192 -10.3150 -10.3124 -10.3105 -10.3082 -10.3055
   -10.3022 -10.3004 -10.2981 -10.2922 -10.2916 -10.2890 -10.2867 -10.2837
   -10.2830 -10.2809 -10.2774 -10.2761 -10.2704 -10.2688 -10.2651 -10.2619
   -10.2592 -10.2589 -10.2527 -10.2509 -10.2466 -10.2430 -10.2411 -10.2367
   -10.2335 -10.2270 -10.2268 -10.2230 -10.2132 -10.1996 -10.1946 -10.1900
    -7.2625  -7.2490  -7.1283  -7.1170  -7.1058  -7.0916  -7.0789  -7.0727
    -7.0435  -7.0305  -6.9994  -6.9883  -6.9561  -6.9425  -6.9333  -6.9306
    -6.9171  -6.9058  -6.8845  -6.8689  -6.8601  -6.8487  -6.8459  -6.8219
    -6.7827  -6.7627  -6.7546  -6.7491  -6.7438  -6.7391  -6.7349  -6.7326
    -6.7142  -6.7073  -6.6954  -6.6851  -6.6839  -6.6789  -6.6769  -6.6709
    -6.6154  -6.6003  -6.5974  -6.5903  -6.5760  -6.5758  -6.5704  -6.5656
    -6.5358  -6.5244  -6.5124  -6.5053  -6.4928  -6.4896  -6.4837  -6.4522
    -6.3821  -6.3785  -6.3754  -6.3725  -6.3580  -6.3570  -6.3520  -6.3387
     5.4355   5.4371   5.4481   5.4496   5.4559   5.4616   5.4678   5.4703
     5.7056   5.7145   5.7193   5.7213   5.7284   5.7353   5.7430   5.7458
     5.7874   5.7927   5.7957   5.8058   5.8160   5.8186   5.8284   5.8494
     5.9900   5.9956   5.9987   6.0021   6.0060   6.0103   6.0156   6.0236
     6.0743   6.0775   6.0861   6.0885   6.0926   6.0952   6.0972   6.1025
     6.1851   6.1960   6.2003   6.2066   6.2272   6.2414   6.2504   6.2536
     6.2693   6.2886   6.4858   6.4993   6.5123   6.5210   6.5995   6.6093
     6.6141   6.6179   6.6257   6.6288   6.6357   6.6418   6.6509   6.6532
     6.6619   6.6649   6.6697   6.6750   6.6765   6.6822   6.6851   6.6868
     6.6944   6.6971   6.7049   6.7075   6.7119   6.7203   6.7229   6.7292
     6.7324   6.7357   6.7460   6.7471   6.7504   6.7521   6.7584   6.7679
     6.7754   6.7795   6.7862   6.7892   6.7931   6.7975   6.8011   6.8035
     6.8075   6.8091   6.8118   6.8179   6.8207   6.8284   6.8384   6.8432
     6.8462   6.8471   6.8504   6.8525   6.8588   6.8605   6.8632   6.8674
     6.8717   6.8745   6.8779   6.8803   6.8840   6.8891   6.8933   6.9053
     6.9103   6.9181   6.9749   6.9849   6.9876   7.0059   7.0101   7.0136
     7.0202   7.0214   7.0280   7.0315   7.0450   7.0495   7.0616   7.0666
     7.0676   7.0697   7.0738   7.0790   7.0825   7.0866   7.0889   7.0949
     7.0972   7.0984   7.1026   7.1053   7.1089   7.1142   7.1156   7.1204
     7.1248   7.1351   7.1417   7.1555   7.1952   7.1972   7.2073   7.2100
     7.2187   7.2221   7.2315   7.2389   7.2646   7.2740   7.2798   7.2865
     7.2937   7.3087   7.3142   7.3186   7.3495   7.3559   7.3606   7.3697
     7.3814   7.3864   7.3897   7.3918   7.5191   7.5214   7.5362   7.5380
     7.5679   7.5838   7.6410   7.6772   7.7631   7.7675   7.7873   7.7919
    11.7201  11.7449  12.2895  12.2914  12.3222  12.3270  12.4976  12.5078
    12.5193  12.5325  12.5883  12.5999  12.6349  12.6497  12.9397  12.9590
    13.0312  13.0757  13.2144  13.2312  13.2335  13.2404  13.2620  13.2657
    13.2741  13.2879  13.4198  13.4448  13.5838  13.6060  13.7175  13.7308
    13.7573  13.7698  13.8052  13.8527  13.8546  13.8718  13.8835  13.9073
    13.9406  13.9452  14.0868  14.0998  14.1462  14.1765  14.3285  14.3357
    14.3498  14.3579  14.3786  14.3982  14.4040  14.4247  14.5417  14.5522
    14.5651  14.5680  14.5823  14.5862  14.5944  14.6012  14.6167  14.6248
    14.6314  14.6412  14.6472  14.6513  14.6611  14.6669  14.6744  14.6894
    14.6994  14.7023  14.7110  14.7207  14.7288  14.7390  14.7401  14.7456
    14.7510  14.7527  14.7575  14.7633  14.7733  14.7802  14.7829  14.7949
    14.7984  14.8043  14.8115  14.8223  14.8330  14.8350  15.0671  15.0744
    15.0883  15.0934  15.1051  15.1133  15.1232  15.1336

     occupation numbers 
     1.0000   1.0000   1.0000   1.0000   1.0000   1.0000   1.0000   1.0000
     1.0000   1.0000   1.0000   1.0000   1.0000   1.0000   1.0000   1.0000
     1.0000   1.0000   1.0000   1.0000   1.0000   1.0000   1.0000   1.0000
     1.0000   1.0000   1.0000   1.0000   1.0000   1.0000   1.0000   1.0000
     1.0000   1.0000   1.0000   1.0000   1.0000   1.0000   1.0000   1.0000
     1.0000   1.0000   1.0000   1.0000   1.0000   1.0000   1.0000   1.0000
     1.0000   1.0000   1.0000   1.0000   1.0000   1.0000   1.0000   1.0000
     1.0000   1.0000   1.0000   1.0000   1.0000   1.0000   1.0000   1.0000
     1.0000   1.0000   1.0000   1.0000   1.0000   1.0000   1.0000   1.0000
     1.0000   1.0000   1.0000   1.0000   1.0000   1.0000   1.0000   1.0000
     1.0000   1.0000   1.0000   1.0000   1.0000   1.0000   1.0000   1.0000
     1.0000   1.0000   1.0000   1.0000   1.0000   1.0000   1.0000   1.0000
     1.0000   1.0000   1.0000   1.0000   1.0000   1.0000   1.0000   1.0000
     1.0000   1.0000   1.0000   1.0000   1.0000   1.0000   1.0000   1.0000
     1.0000   1.0000   1.0000   1.0000   1.0000   1.0000   1.0000   1.0000
     1.0000   1.0000   1.0000   1.0000   1.0000   1.0000   1.0000   1.0000
     1.0000   1.0000   1.0000   1.0000   1.0000   1.0000   1.0000   1.0000
     1.0000   1.0000   1.0000   1.0000   1.0000   1.0000   1.0000   1.0000
     1.0000   1.0000   1.0000   1.0000   1.0000   1.0000   1.0000   1.0000
     1.0000   1.0000   1.0000   1.0000   1.0000   1.0000   1.0000   1.0000
     1.0000   1.0000   1.0000   1.0000   1.0000   1.0000   1.0000   1.0000
     1.0000   1.0000   1.0000   1.0000   1.0000   1.0000   1.0000   1.0000
     1.0000   1.0000   1.0000   1.0000   1.0000   1.0000   1.0000   1.0000
     1.0000   1.0000   1.0000   1.0000   1.0000   1.0000   1.0000   1.0000
     1.0000   1.0000   1.0000   1.0000   1.0000   1.0000   1.0000   1.0000
     1.0000   1.0000   1.0000   1.0000   1.0000   1.0000   1.0000   1.0000
     1.0000   1.0000   1.0000   1.0000   1.0000   1.0000   1.0000   1.0000
     1.0000   1.0000   1.0000   1.0000   1.0000   1.0000   1.0000   1.0000
     1.0000   1.0000   1.0000   1.0000   1.0000   1.0000   1.0000   1.0000
     1.0000   1.0000   1.0000   1.0000   1.0000   1.0000   1.0000   1.0000
     1.0000   1.0000   1.0000   1.0000   1.0000   1.0000   1.0000   1.0000
     1.0000   1.0000   1.0000   1.0000   1.0000   1.0000   1.0000   1.0000
     1.0000   1.0000   1.0000   1.0000   1.0000   1.0000   1.0000   1.0000
     1.0000   1.0000   1.0000   1.0000   1.0000   1.0000   1.0000   1.0000
     1.0000   1.0000   1.0000   1.0000   1.0000   1.0000   1.0000   1.0000
     1.0000   1.0000   1.0000   1.0000   1.0000   1.0000   1.0000   1.0000
     1.0000   1.0000   1.0000   1.0000   1.0000   1.0000   1.0000   1.0000
     1.0000   1.0000   1.0000   1.0000   1.0000   1.0000   1.0000   1.0000
     1.0000   1.0000   1.0000   1.0000   1.0000   1.0000   1.0000   1.0000
     1.0000   1.0000   1.0000   1.0000   1.0000   1.0000   1.0000   1.0000
     1.0000   1.0000   1.0000   1.0000   1.0000   1.0000   1.0000   1.0000
     1.0000   1.0000   1.0000   1.0000   1.0000   1.0000   1.0000   1.0000
     1.0000   1.0000   1.0000   1.0000   1.0000   1.0000   1.0000   1.0000
     1.0000   1.0000   1.0000   1.0000   1.0000   1.0000   1.0000   1.0000
     1.0000   1.0000   1.0000   1.0000   1.0000   1.0000   1.0000   1.0000
     1.0000   1.0000   1.0000   1.0000   1.0000   1.0000   1.0000   1.0000
     1.0000   1.0000   1.0000   1.0000   1.0000   1.0000   1.0000   1.0000
     1.0000   1.0000   1.0000   1.0000   1.0000   1.0000   1.0000   1.0000
     1.0000   1.0000   1.0000   1.0000   1.0000   1.0000   1.0000   1.0000
     1.0000   1.0000   1.0000   1.0000   1.0000   1.0000   1.0000   1.0000
     1.0000   1.0000   1.0000   1.0000   1.0000   1.0000   1.0000   1.0000
     1.0000   1.0000   1.0000   1.0000   1.0000   1.0000   1.0000   1.0000
     1.0000   1.0000   1.0000   1.0000   1.0000   1.0000   1.0000   1.0000
     1.0000   1.0000   1.0000   1.0000   1.0000   1.0000   1.0000   1.0000
     1.0000   1.0000   1.0000   1.0000   1.0000   1.0000   1.0000   1.0000
     1.0000   1.0000   1.0000   1.0000   1.0000   1.0000   1.0000   1.0000
     1.0000   1.0000   1.0000   1.0000   1.0000   1.0000   1.0000   1.0000
     1.0000   1.0000   1.0000   1.0000   1.0000   1.0000   1.0000   1.0000
     1.0000   1.0000   1.0000   1.0000   1.0000   1.0000   1.0000   1.0000
     1.0000   1.0000   1.0000   1.0000   1.0000   1.0000   1.0000   1.0000
     1.0000   1.0000   1.0000   1.0000   1.0000   1.0000   1.0000   1.0000
     1.0000   1.0000   1.0000   1.0000   1.0000   1.0000   1.0000   1.0000
     1.0000   1.0000   1.0000   1.0000   1.0000   1.0000   1.0000   1.0000
     1.0000   1.0000   1.0000   1.0000   1.0000   1.0000   1.0000   1.0000
     0.0000   0.0000   0.0000   0.0000   0.0000   0.0000   0.0000   0.0000
     0.0000   0.0000   0.0000   0.0000   0.0000   0.0000   0.0000   0.0000
     0.0000   0.0000   0.0000   0.0000   0.0000   0.0000   0.0000   0.0000
     0.0000   0.0000   0.0000   0.0000   0.0000   0.0000   0.0000   0.0000
     0.0000   0.0000   0.0000   0.0000   0.0000   0.0000   0.0000   0.0000
     0.0000   0.0000   0.0000   0.0000   0.0000   0.0000   0.0000   0.0000
     0.0000   0.0000   0.0000   0.0000   0.0000   0.0000   0.0000   0.0000
     0.0000   0.0000   0.0000   0.0000   0.0000   0.0000   0.0000   0.0000
     0.0000   0.0000   0.0000   0.0000   0.0000   0.0000   0.0000   0.0000
     0.0000   0.0000   0.0000   0.0000   0.0000   0.0000   0.0000   0.0000
     0.0000   0.0000   0.0000   0.0000   0.0000   0.0000   0.0000   0.0000
     0.0000   0.0000   0.0000   0.0000   0.0000   0.0000   0.0000   0.0000
     0.0000   0.0000   0.0000   0.0000   0.0000   0.0000

          k = 0.3536 0.3536 0.3536 ( 49986 PWs)   bands (ev):

   -29.5108 -29.4851 -29.4464 -29.4262 -29.4184 -29.4036 -29.3994 -29.3897
   -29.3856 -29.3825 -29.3705 -29.3681 -29.3615 -29.3559 -29.3518 -29.3496
   -29.3465 -29.3414 -29.3372 -29.3338 -29.3302 -29.3165 -29.3136 -29.3081
   -29.3006 -29.2985 -29.2947 -29.2896 -29.2863 -29.2801 -29.2791 -29.2743
   -29.2721 -29.2690 -29.2684 -29.2639 -29.2594 -29.2578 -29.2537 -29.2530
   -29.2513 -29.2467 -29.2435 -29.2420 -29.2405 -29.2369 -29.2346 -29.2319
   -29.2309 -29.2274 -29.2203 -29.2169 -29.2154 -29.2108 -29.2074 -29.1999
   -29.1942 -29.1856 -29.1736 -29.1674 -29.1622 -29.1525 -29.1361 -29.1183
   -11.4089 -11.4082 -11.4017 -11.3993 -11.3948 -11.3841 -11.3620 -11.3541
   -11.2150 -11.2082 -11.2025 -11.1984 -11.1942 -11.1871 -11.1843 -11.1755
   -11.1714 -11.1702 -11.1676 -11.1630 -11.1615 -11.1540 -11.1494 -11.1482
   -11.1453 -11.1412 -11.1075 -11.1023 -11.0973 -11.0911 -11.0857 -11.0775
   -11.0067 -11.0001 -10.9997 -10.9921 -10.9864 -10.9786 -10.9775 -10.9737
   -10.9708 -10.9683 -10.9654 -10.9597 -10.9556 -10.9496 -10.9458 -10.9421
   -10.9369 -10.9320 -10.9176 -10.9106 -10.9014 -10.8957 -10.8901 -10.8863
   -10.8227 -10.8196 -10.8168 -10.8054 -10.7975 -10.7925 -10.6846 -10.6768
   -10.6705 -10.6677 -10.6625 -10.6613 -10.6565 -10.6551 -10.6521 -10.6476
   -10.6417 -10.6386 -10.6106 -10.6043 -10.6041 -10.5962 -10.5930 -10.5900
   -10.5839 -10.5776 -10.5739 -10.5717 -10.5642 -10.5600 -10.5413 -10.5373
   -10.5270 -10.5202 -10.5197 -10.5124 -10.5056 -10.5037 -10.5003 -10.4976
   -10.4955 -10.4932 -10.4887 -10.4882 -10.4824 -10.4810 -10.4797 -10.4780
   -10.4740 -10.4716 -10.4702 -10.4659 -10.4618 -10.4611 -10.4566 -10.4541
   -10.4521 -10.4479 -10.4462 -10.4442 -10.4363 -10.4315 -10.4251 -10.4219
   -10.4187 -10.4146 -10.4126 -10.4082 -10.4012 -10.3982 -10.3947 -10.3935
   -10.3891 -10.3870 -10.3844 -10.3831 -10.3810 -10.3777 -10.3763 -10.3706
   -10.3687 -10.3660 -10.3639 -10.3609 -10.3549 -10.3536 -10.3500 -10.3480
   -10.3449 -10.3434 -10.3419 -10.3415 -10.3386 -10.3347 -10.3282 -10.3253
   -10.3245 -10.3217 -10.3186 -10.3175 -10.3166 -10.3151 -10.3103 -10.3050
   -10.3026 -10.3016 -10.2986 -10.2973 -10.2948 -10.2914 -10.2896 -10.2863
   -10.2816 -10.2800 -10.2754 -10.2713 -10.2705 -10.2689 -10.2638 -10.2615
   -10.2549 -10.2533 -10.2512 -10.2463 -10.2391 -10.2363 -10.2275 -10.2256
   -10.2213 -10.2209 -10.2164 -10.2122 -10.2089 -10.2058 -10.1909 -10.1863
    -7.3025  -7.2966  -7.1395  -7.1369  -7.1326  -7.1294  -7.1223  -7.1158
    -6.9508  -6.9492  -6.9376  -6.9260  -6.9100  -6.9071  -6.9001  -6.8907
    -6.8810  -6.8732  -6.8651  -6.8582  -6.8521  -6.8463  -6.8386  -6.8328
    -6.8250  -6.8202  -6.8178  -6.8125  -6.8074  -6.8013  -6.7966  -6.7884
    -6.6568  -6.6443  -6.6338  -6.6268  -6.6225  -6.6199  -6.6131  -6.6035
    -6.6012  -6.5972  -6.5941  -6.5918  -6.5837  -6.5829  -6.5812  -6.5754
    -6.5717  -6.5667  -6.5653  -6.5591  -6.5557  -6.5512  -6.5376  -6.5306
    -6.3672  -6.3553  -6.3545  -6.3450  -6.3427  -6.3407  -6.3349  -6.3328
     5.4025   5.4080   5.4081   5.4123   5.4152   5.4224   5.4537   5.4616
     5.7946   5.7989   5.8033   5.8054   5.8093   5.8158   5.8174   5.8195
     5.8262   5.8290   5.8336   5.8360   5.8382   5.8413   5.8492   5.8582
     5.8709   5.8773   5.9152   5.9182   5.9195   5.9260   5.9283   5.9407
     6.0489   6.0571   6.0585   6.0636   6.0687   6.0761   6.3169   6.3255
     6.3333   6.3380   6.3399   6.3431   6.3491   6.3547   6.3548   6.3581
     6.3608   6.3648   6.3668   6.3706   6.3732   6.3774   6.3818   6.3858
     6.4838   6.4856   6.4894   6.4913   6.4920   6.4996   6.6207   6.6256
     6.6407   6.6470   6.6523   6.6598   6.6668   6.6842   6.6941   6.7033
     6.7110   6.7181   6.7194   6.7272   6.7317   6.7334   6.7359   6.7383
     6.7429   6.7456   6.7474   6.7496   6.7504   6.7543   6.7558   6.7577
     6.7641   6.7685   6.7704   6.7733   6.7740   6.7760   6.7785   6.7806
     6.7819   6.7844   6.7867   6.7892   6.7926   6.8006   6.8035   6.8068
     6.8076   6.8104   6.8165   6.8202   6.8274   6.8298   6.8423   6.8488
     6.8524   6.8570   6.8828   6.8958   6.9001   6.9096   6.9148   6.9269
     6.9508   6.9597   6.9649   6.9686   6.9749   6.9807   6.9869   6.9894
     6.9945   6.9974   7.0016   7.0096   7.0163   7.0206   7.0248   7.0289
     7.0311   7.0358   7.0401   7.0412   7.0457   7.0491   7.0570   7.0597
     7.1682   7.1817   7.1826   7.1895   7.1945   7.2010   7.2044   7.2122
     7.2161   7.2208   7.2295   7.2342   7.2600   7.2631   7.2655   7.2690
[...]
     atom   77 type  1   force =   0.00000000E+00  0.00000000E+00  0.00000000E+00
     atom   78 type  2   force =   0.00000000E+00  0.00000000E+00  0.00000000E+00
     atom   79 type  1   force =   0.00000000E+00  0.00000000E+00  0.00000000E+00
     atom   80 type  2   force =   0.00000000E+00  0.00000000E+00  0.00000000E+00
     atom   81 type  1   force =   0.00000000E+00  0.00000000E+00  0.00000000E+00
     atom   82 type  2   force =   0.00000000E+00  0.00000000E+00  0.00000000E+00
     atom   83 type  1   force =   0.00000000E+00  0.00000000E+00  0.00000000E+00
     atom   84 type  2   force =   0.00000000E+00  0.00000000E+00  0.00000000E+00
     atom   85 type  1   force =   0.00000000E+00  0.00000000E+00  0.00000000E+00
     atom   86 type  2   force =   0.00000000E+00  0.00000000E+00  0.00000000E+00
     atom   87 type  1   force =   0.00000000E+00  0.00000000E+00  0.00000000E+00
     atom   88 type  2   force =   0.00000000E+00  0.00000000E+00  0.00000000E+00
     atom   89 type  1   force =   0.00000000E+00  0.00000000E+00  0.00000000E+00
     atom   90 type  2   force =   0.00000000E+00  0.00000000E+00  0.00000000E+00
     atom   91 type  1   force =   0.00000000E+00  0.00000000E+00  0.00000000E+00
     atom   92 type  2   force =   0.00000000E+00  0.00000000E+00  0.00000000E+00
     atom   93 type  1   force =   0.00000000E+00  0.00000000E+00  0.00000000E+00
     atom   94 type  2   force =   0.00000000E+00  0.00000000E+00  0.00000000E+00
     atom   95 type  1   force =   0.00000000E+00  0.00000000E+00  0.00000000E+00
     atom   96 type  2   force =   0.00000000E+00  0.00000000E+00  0.00000000E+00
     atom   97 type  1   force =   0.00000000E+00  0.00000000E+00  0.00000000E+00
     atom   98 type  2   force =   0.00000000E+00  0.00000000E+00  0.00000000E+00
     atom   99 type  1   force =   0.00000000E+00  0.00000000E+00  0.00000000E+00
     atom  100 type  2   force =   0.00000000E+00  0.00000000E+00  0.00000000E+00
     atom  101 type  1   force =   0.00000000E+00  0.00000000E+00  0.00000000E+00
     atom  102 type  2   force =   0.00000000E+00  0.00000000E+00  0.00000000E+00
     atom  103 type  1   force =   0.00000000E+00  0.00000000E+00  0.00000000E+00
     atom  104 type  2   force =   0.00000000E+00  0.00000000E+00  0.00000000E+00
     atom  105 type  1   force =   0.00000000E+00  0.00000000E+00  0.00000000E+00
     atom  106 type  2   force =   0.00000000E+00  0.00000000E+00  0.00000000E+00
     atom  107 type  1   force =   0.00000000E+00  0.00000000E+00  0.00000000E+00
     atom  108 type  2   force =   0.00000000E+00  0.00000000E+00  0.00000000E+00
     atom  109 type  1   force =   0.00000000E+00  0.00000000E+00  0.00000000E+00
     atom  110 type  2   force =   0.00000000E+00  0.00000000E+00  0.00000000E+00
     atom  111 type  1   force =   0.00000000E+00  0.00000000E+00  0.00000000E+00
     atom  112 type  2   force =   0.00000000E+00  0.00000000E+00  0.00000000E+00
     atom  113 type  1   force =   0.00000000E+00  0.00000000E+00  0.00000000E+00
     atom  114 type  2   force =   0.00000000E+00  0.00000000E+00  0.00000000E+00
     atom  115 type  1   force =   0.00000000E+00  0.00000000E+00  0.00000000E+00
     atom  116 type  2   force =   0.00000000E+00  0.00000000E+00  0.00000000E+00
     atom  117 type  1   force =   0.00000000E+00  0.00000000E+00  0.00000000E+00
     atom  118 type  2   force =   0.00000000E+00  0.00000000E+00  0.00000000E+00
     atom  119 type  1   force =   0.00000000E+00  0.00000000E+00  0.00000000E+00
     atom  120 type  2   force =   0.00000000E+00  0.00000000E+00  0.00000000E+00
     atom  121 type  1   force =   0.00000000E+00  0.00000000E+00  0.00000000E+00
     atom  122 type  2   force =   0.00000000E+00  0.00000000E+00  0.00000000E+00
     atom  123 type  1   force =   0.00000000E+00  0.00000000E+00  0.00000000E+00
     atom  124 type  2   force =   0.00000000E+00  0.00000000E+00  0.00000000E+00
     atom  125 type  1   force =   0.00000000E+00  0.00000000E+00  0.00000000E+00
     atom  126 type  2   force =   0.00000000E+00  0.00000000E+00  0.00000000E+00
     atom  127 type  1   force =   0.00000000E+00  0.00000000E+00  0.00000000E+00
     atom  128 type  2   force =   0.00000000E+00  0.00000000E+00  0.00000000E+00
     The SCF correction term to forces
     atom    1 type  1   force =   0.41357802E-06  0.30193214E-06  0.67893913E-06
     atom    2 type  2   force =  -0.58083538E-06  0.53482699E-06 -0.17679508E-06
     atom    3 type  1   force =  -0.15048284E-05 -0.93142607E-06  0.93278576E-07
     atom    4 type  2   force =  -0.25157937E-06 -0.60884920E-06  0.75989620E-06
     atom    5 type  1   force =   0.10894599E-06 -0.19657726E-06 -0.54876794E-06
     atom    6 type  2   force =   0.76264124E-06 -0.55535575E-07 -0.71457902E-06
     atom    7 type  1   force =   0.51711492E-06  0.14632838E-05 -0.24430520E-06
     atom    8 type  2   force =  -0.36702290E-06  0.48608701E-06 -0.11785867E-05
     atom    9 type  1   force =  -0.15818752E-05  0.28234081E-06 -0.20097997E-05
     atom   10 type  2   force =   0.94279338E-06  0.93413208E-06  0.40056403E-06
     atom   11 type  1   force =  -0.45652587E-06  0.96720464E-06  0.17977419E-05
     atom   12 type  2   force =  -0.12707180E-05 -0.85607091E-06  0.59493524E-06
     atom   13 type  1   force =  -0.47919083E-06  0.59403809E-06  0.11255723E-05
     atom   14 type  2   force =   0.51326823E-06  0.46056637E-07 -0.11530402E-05
     atom   15 type  1   force =   0.32789359E-06  0.13207676E-05 -0.16098660E-05
     atom   16 type  2   force =   0.60417799E-07 -0.19668140E-07 -0.13196997E-06
     atom   17 type  1   force =   0.18517478E-06  0.14402972E-05  0.23839181E-06
     atom   18 type  2   force =  -0.28435613E-06  0.61044249E-06 -0.73599814E-06
     atom   19 type  1   force =  -0.87330200E-06  0.26083256E-06  0.15354936E-05
     atom   20 type  2   force =  -0.36152479E-06 -0.14811616E-05  0.10605600E-06
     atom   21 type  1   force =   0.13709904E-06 -0.12686217E-05  0.59500861E-07
     atom   22 type  2   force =   0.52158216E-06 -0.14900309E-06 -0.39678946E-06
     atom   23 type  1   force =   0.95753242E-06 -0.63621544E-06 -0.58912651E-06
     atom   24 type  2   force =   0.33907958E-06  0.10978601E-05  0.19066455E-06
     atom   25 type  1   force =   0.59213511E-06  0.14068266E-05  0.12829327E-05
     atom   26 type  2   force =   0.16856778E-06 -0.10518232E-05  0.28753791E-06
     atom   27 type  1   force =  -0.10227939E-05 -0.38041167E-06  0.10423104E-05
     atom   28 type  2   force =  -0.78956305E-08 -0.62000929E-06  0.42252751E-06
     atom   29 type  1   force =   0.29986562E-06 -0.12588957E-05  0.19807870E-06
     atom   30 type  2   force =   0.68395983E-06 -0.86873941E-07 -0.20372425E-06
     atom   31 type  1   force =   0.83134229E-06 -0.10444655E-05 -0.34286239E-06
     atom   32 type  2   force =   0.97651815E-06 -0.35588817E-06  0.23265822E-06
     atom   33 type  1   force =   0.41742889E-06 -0.11321823E-05 -0.34207572E-06
     atom   34 type  2   force =   0.34921746E-06  0.21145440E-06 -0.20078020E-06
     atom   35 type  1   force =  -0.56464854E-06 -0.23639266E-06  0.10373264E-05
     atom   36 type  2   force =  -0.43090959E-06 -0.17248593E-05 -0.24459019E-06
     atom   37 type  1   force =   0.38290622E-06 -0.18425957E-05 -0.60471344E-06
     atom   38 type  2   force =   0.40227963E-06  0.13206791E-05 -0.11217540E-05
     atom   39 type  1   force =   0.15626436E-05  0.97381501E-06 -0.13557436E-05
     atom   40 type  2   force =  -0.45961787E-06  0.37947260E-06 -0.87603545E-06
     atom   41 type  1   force =   0.14232274E-06  0.95306069E-06 -0.51393748E-06
     atom   42 type  2   force =   0.56435125E-06 -0.10918829E-05 -0.74094327E-06
     atom   43 type  1   force =   0.86063124E-06 -0.12511905E-05  0.72045453E-06
     atom   44 type  2   force =  -0.25975285E-06 -0.14929652E-05  0.59457158E-06
     atom   45 type  1   force =  -0.49296548E-07 -0.27443495E-05 -0.12739780E-05
     atom   46 type  2   force =   0.48069793E-06  0.78705583E-06  0.11372168E-05
     atom   47 type  1   force =   0.26568671E-06  0.13167972E-05 -0.22813804E-05
     atom   48 type  2   force =   0.30051114E-06  0.35134329E-06 -0.32944784E-06
     atom   49 type  1   force =   0.16221282E-05  0.30583092E-06 -0.17892111E-05
     atom   50 type  2   force =  -0.20594866E-06  0.60305141E-07 -0.19106186E-06
     atom   51 type  1   force =  -0.20119758E-05 -0.19877540E-05 -0.83674721E-06
     atom   52 type  2   force =  -0.29779390E-06  0.84443716E-06  0.10930039E-05
     atom   53 type  1   force =   0.98074345E-06  0.48699698E-06  0.58262812E-06
     atom   54 type  2   force =  -0.69024213E-06 -0.11696801E-06 -0.75978288E-08
     atom   55 type  1   force =   0.35371668E-06  0.73329156E-06  0.10248799E-05
     atom   56 type  2   force =   0.49068774E-06  0.17608513E-07 -0.93799840E-06
     atom   57 type  1   force =   0.14700416E-05 -0.64464292E-06 -0.50072038E-06
     atom   58 type  2   force =   0.16763452E-06 -0.55710885E-06  0.35616710E-06
     atom   59 type  1   force =  -0.47339357E-08 -0.98683825E-06  0.10196212E-05
     atom   60 type  2   force =  -0.73615393E-06 -0.82038580E-06  0.25999711E-06
     atom   61 type  1   force =  -0.26832432E-06  0.55308738E-06  0.67605069E-06
     atom   62 type  2   force =   0.68962503E-06  0.18237008E-06 -0.91172141E-06
     atom   63 type  1   force =   0.65591063E-06  0.97850592E-07 -0.41587966E-06
     atom   64 type  2   force =   0.10328267E-05  0.11790696E-06  0.53525521E-06
     atom   65 type  1   force =  -0.55155377E-06 -0.36196527E-06 -0.12240493E-05
     atom   66 type  2   force =  -0.57267851E-06 -0.28886051E-06 -0.20393131E-06
     atom   67 type  1   force =  -0.46153028E-06 -0.22448878E-05  0.16864149E-06
     atom   68 type  2   force =  -0.66942303E-06  0.60912372E-06  0.10194711E-05
     atom   69 type  1   force =   0.18678767E-06  0.10921443E-05  0.66966517E-06
     atom   70 type  2   force =   0.14469163E-07  0.12288983E-05 -0.10949534E-05
     atom   71 type  1   force =  -0.13297650E-06  0.16555416E-05 -0.78873699E-06
     atom   72 type  2   force =  -0.42195152E-06 -0.14187594E-06 -0.34185453E-06
     atom   73 type  1   force =   0.93570137E-06  0.38529783E-06 -0.18076695E-05
     atom   74 type  2   force =   0.21307008E-06  0.21265629E-06  0.47578324E-06
     atom   75 type  1   force =  -0.65525497E-06 -0.24096955E-05  0.41804855E-06
     atom   76 type  2   force =   0.14827903E-06 -0.85824735E-06  0.50106829E-06
     atom   77 type  1   force =   0.49895509E-07  0.13965910E-05  0.11018049E-05
     atom   78 type  2   force =   0.53886580E-06 -0.67575788E-06 -0.18163234E-07
     atom   79 type  1   force =   0.11613944E-05  0.49261327E-06  0.59005243E-07
     atom   80 type  2   force =   0.26916733E-06  0.36411312E-06 -0.64541542E-07
     atom   81 type  1   force =   0.60167732E-06  0.38223306E-06 -0.26137974E-06
     atom   82 type  2   force =   0.24307997E-06 -0.74959365E-06  0.58493530E-07
     atom   83 type  1   force =  -0.20718672E-06 -0.41577268E-06  0.90196161E-06
     atom   84 type  2   force =  -0.16560034E-06  0.72737886E-08 -0.88580947E-06
     atom   85 type  1   force =   0.49021652E-06 -0.13479951E-05  0.52259432E-06
     atom   86 type  2   force =  -0.75201942E-06  0.31253105E-06  0.11663775E-06
     atom   87 type  1   force =  -0.48240160E-06 -0.68803908E-06 -0.13492601E-05
     atom   88 type  2   force =   0.68736404E-06  0.19643400E-06  0.59618644E-06
     atom   89 type  1   force =  -0.31451788E-06 -0.14340207E-06  0.16428447E-05
     atom   90 type  2   force =  -0.17307128E-08 -0.58574984E-06 -0.36273985E-06
     atom   91 type  1   force =   0.27751382E-06  0.10187497E-07 -0.41418024E-06
     atom   92 type  2   force =  -0.44456879E-06 -0.49055186E-06  0.44655625E-06
     atom   93 type  1   force =  -0.14866507E-05 -0.79018089E-06 -0.11056448E-05
     atom   94 type  2   force =   0.11475050E-05  0.15393961E-05  0.40565396E-06
     atom   95 type  1   force =   0.16983549E-05  0.90673920E-06 -0.38506944E-06
     atom   96 type  2   force =  -0.78852065E-06 -0.14577424E-06  0.26017167E-06
     atom   97 type  1   force =  -0.47138718E-06  0.38660806E-06  0.89237956E-06
     atom   98 type  2   force =  -0.73584847E-06  0.72097914E-07 -0.11071911E-06
     atom   99 type  1   force =  -0.14059193E-05  0.28892814E-07  0.16214209E-05
     atom  100 type  2   force =  -0.80354467E-06 -0.18459566E-06  0.29454265E-06
     atom  101 type  1   force =   0.72179667E-07  0.19294569E-05 -0.28134221E-06
     atom  102 type  2   force =  -0.48778375E-06  0.98553153E-06 -0.63144061E-06
     atom  103 type  1   force =  -0.12698504E-05  0.76042277E-06 -0.18922643E-05
     atom  104 type  2   force =  -0.13542046E-06  0.13297426E-05  0.56279128E-06
     atom  105 type  1   force =  -0.10981002E-05  0.23056542E-05  0.11603298E-05
     atom  106 type  2   force =  -0.17395406E-07  0.55992727E-06 -0.66017738E-06
     atom  107 type  1   force =  -0.65594068E-06 -0.55999324E-06  0.62126114E-06
     atom  108 type  2   force =   0.50657352E-07  0.11742078E-06  0.14665013E-05
     atom  109 type  1   force =  -0.46411605E-06  0.18400976E-06 -0.35286536E-06
     atom  110 type  2   force =   0.43278265E-10  0.12132940E-06  0.45464055E-07
     atom  111 type  1   force =   0.47943549E-06  0.38916429E-06 -0.39065264E-06
     atom  112 type  2   force =  -0.83045118E-06 -0.16805117E-06 -0.16654567E-06
     atom  113 type  1   force =   0.47242924E-06 -0.43013473E-06  0.15819267E-06
     atom  114 type  2   force =  -0.66960684E-07  0.92353560E-06  0.95948817E-07
     atom  115 type  1   force =   0.10621368E-05  0.33961869E-07 -0.73837911E-07
     atom  116 type  2   force =  -0.10944410E-05  0.15700844E-06  0.13776249E-06
     atom  117 type  1   force =  -0.84617853E-06 -0.35510745E-06  0.70022722E-06
     atom  118 type  2   force =   0.85371295E-06  0.41381947E-06 -0.15974326E-06
     atom  119 type  1   force =  -0.31389654E-07  0.57266757E-06  0.58784964E-06
     atom  120 type  2   force =   0.96949472E-07 -0.14007088E-05  0.16051709E-06
     atom  121 type  1   force =  -0.46828612E-06 -0.28238949E-05 -0.16410247E-06
     atom  122 type  2   force =   0.13010705E-06  0.66564164E-06  0.13203514E-05
     atom  123 type  1   force =  -0.82485154E-06 -0.20994199E-07  0.15006640E-06
     atom  124 type  2   force =  -0.73046609E-06  0.67015875E-07  0.83705694E-06
     atom  125 type  1   force =  -0.18246228E-06  0.12560295E-05  0.40117874E-06
     atom  126 type  2   force =   0.97354391E-06  0.19096451E-07 -0.92670646E-06
     atom  127 type  1   force =   0.17859546E-05  0.33927331E-06  0.10908802E-05
     atom  128 type  2   force =   0.38436204E-08 -0.10766897E-05  0.25009928E-06

     Total force =     0.103739     Total SCF correction =     0.000016


     entering subroutine stress ...

          total   stress  (Ry/bohr**3)                   (kbar)     P=    0.82
   0.0000052124  -0.0000000644   0.0000000359          0.77     -0.01      0.01
  -0.0000000644   0.0000062435   0.0000000499         -0.01      0.92      0.01
   0.0000000359   0.0000000499   0.0000052141          0.01      0.01      0.77

     kinetic stress (kbar)  19114.33     -0.09      0.07
                               -0.09  19114.46      0.02
                                0.07      0.02  19114.29

     local   stress (kbar)  -1923.47      2.49     -4.24
                                2.49  -1922.84     -3.21
                               -4.24     -3.21  -1923.63

     nonloc. stress (kbar)   4494.14      0.01     -0.00
                                0.01   4494.13     -0.01
                               -0.00     -0.01   4494.14

     hartree stress (kbar)   5490.34     -0.92      1.75
                               -0.92   5489.87      1.34
                                1.75      1.34   5490.47

     exc-cor stress (kbar)  -3163.02     -0.00      0.00
                               -0.00  -3163.02      0.00
                                0.00      0.00  -3163.02

     corecor stress (kbar)  -1581.03      0.00     -0.00
                                0.00  -1581.03     -0.00
                               -0.00     -0.00  -1581.03

     ewald   stress (kbar) -22430.52     -1.49      2.43
                               -1.49 -22430.64      1.87
                                2.43      1.87 -22430.46

     hubbard stress (kbar)      0.00      0.00      0.00
                                0.00      0.00      0.00
                                0.00      0.00      0.00

     london  stress (kbar)      0.00      0.00      0.00
                                0.00      0.00      0.00
                                0.00      0.00      0.00

     XDM     stress (kbar)      0.00      0.00      0.00
                                0.00      0.00      0.00
                                0.00      0.00      0.00

     dft-nl  stress (kbar)      0.00      0.00      0.00
                                0.00      0.00      0.00
                                0.00      0.00      0.00



     Writing output data file CaO_rocksalt.relax.in.up_1.00.super.444.011.save

     init_run     :    865.17s CPU    700.72s WALL (       1 calls)
     electrons    :  48013.98s CPU  38852.80s WALL (       1 calls)
     forces       :    503.18s CPU    371.99s WALL (       1 calls)
     stress       :   3821.27s CPU   3828.00s WALL (       1 calls)

     Called by init_run:
     wfcinit      :    791.78s CPU    626.83s WALL (       1 calls)
     potinit      :      0.76s CPU      0.78s WALL (       1 calls)

     Called by electrons:
     c_bands      :  41536.80s CPU  33115.29s WALL (      24 calls)
     sum_band     :   5427.94s CPU   4665.11s WALL (      24 calls)
     v_of_rho     :     16.15s CPU     16.69s WALL (      25 calls)
     v_h          :      1.15s CPU      1.15s WALL (      25 calls)
     v_xc         :     16.04s CPU     16.61s WALL (      27 calls)
     newd         :   1074.71s CPU   1097.06s WALL (      25 calls)
     mix_rho      :     26.69s CPU     27.13s WALL (      24 calls)

     Called by c_bands:
     init_us_2    :     78.38s CPU     81.32s WALL (     408 calls)
     cegterg      :  41106.70s CPU  32668.27s WALL (     192 calls)

     Called by sum_band:
     sum_band:bec :     15.57s CPU     16.16s WALL (     192 calls)
     addusdens    :    670.86s CPU    685.19s WALL (      24 calls)

     Called by *egterg:
     h_psi        :  18836.23s CPU  15391.03s WALL (     692 calls)
     s_psi        :   4196.25s CPU   2515.24s WALL (     692 calls)
     g_psi        :     19.58s CPU     22.68s WALL (     492 calls)
     cdiaghg      :   9906.94s CPU   9438.17s WALL (     684 calls)
     cegterg:over :   4006.03s CPU   2572.89s WALL (     492 calls)
     cegterg:upda :   1761.58s CPU   1090.13s WALL (     492 calls)
     cegterg:last :   1200.34s CPU    707.41s WALL (     192 calls)

     Called by h_psi:
     h_psi:vloc   :   9511.40s CPU   9753.04s WALL (     692 calls)
     h_psi:vnl    :   9296.40s CPU   5608.27s WALL (     692 calls)
     add_vuspsi   :   4094.09s CPU   2446.49s WALL (     692 calls)

     General routines
     calbec       :   8298.15s CPU   5351.48s WALL (     900 calls)
     fft          :    195.93s CPU    199.30s WALL (     421 calls)
     ffts         :     14.83s CPU     15.08s WALL (     556 calls)
     fftw         :  10424.24s CPU  10687.60s WALL (  678778 calls)
     interpolate  :      4.04s CPU      4.13s WALL (      49 calls)

     Parallel routines
     fft_scatter  :   6313.20s CPU   6483.18s WALL (  679755 calls)

     PWSCF        :    14h47m CPU       12h 9m WALL


   This run was terminated on:   8:13: 0  19Aug2017            

=------------------------------------------------------------------------------=
   JOB DONE.
=------------------------------------------------------------------------------=
