
     Program PWSCF v.5.1 starts on 18Aug2017 at 20: 1: 5 

     This program is part of the open-source Quantum ESPRESSO suite
     for quantum simulation of materials; please cite
         "P. Giannozzi et al., J. Phys.:Condens. Matter 21 395502 (2009);
          URL http://www.quantum-espresso.org", 
     in publications or presentations arising from this work. More details at
     http://www.quantum-espresso.org/quote

     Parallel version (MPI), running on     8 processors
     R & G space division:  proc/nbgrp/npool/nimage =       8
     Reading input from /tmp/CaO_mix444.01.8724/CaO_mix444.01.t
Warning: card &IONS ignored
Warning: card   ION_DYNAMICS='BFGS', ignored
Warning: card / ignored
Warning: card &CELL ignored
Warning: card  CELL_DYNAMICS = 'BFGS' ignored
Warning: card / ignored
     Message from routine read_cards :
     DEPRECATED: no units specified in CELL_PARAMETERS card

     Current dimensions of program PWSCF are:
     Max number of different atomic species (ntypx) = 10
     Max number of k-points (npk) =  40000
     Max angular momentum in pseudopotentials (lmaxx) =  3
 kfg - two_fermi_energies  F

     Subspace diagonalization in iterative solution of the eigenvalue problem:
     a serial algorithm will be used


     Parallelization info
     --------------------
     sticks:   dense  smooth     PW     G-vecs:    dense   smooth      PW
     Min         993     795    209                58507    41894    5708
     Max         994     796    210                58509    41918    5710
     Sum        7951    6367   1675               468065   335221   45671



     bravais-lattice index     =            0
     lattice parameter (alat)  =    24.019460229  a.u.
     unit-cell volume          =    9798.8415 (a.u.)^3
     number of atoms/cell      =          128
     number of atomic types    =            3
     number of electrons       =      1024.00
     number of Kohn-Sham states=          614
     kinetic-energy cutoff     =      40.0000  Ry
     charge density cutoff     =     200.0000  Ry
     convergence threshold     =      1.0E-10
     mixing beta               =       0.3000
     number of iterations used =            8  local-TF  mixing
     Exchange-correlation      = SLA  PW   PSX  PSC ( 1  4 10  8 0)
     A smooth kinetic-energy cutoff is imposed at      39.5000 Ry
     height of the smooth step-function =             800.0000 Ry
     width of the smooth step-function  =               1.0000 Ry


     celldm(1)=  24.019460  celldm(2)=   0.000000  celldm(3)=   0.000000
     celldm(4)=   0.000000  celldm(5)=   0.000000  celldm(6)=   0.000000

     crystal axes: (cart. coord. in units of alat)
               a(1) = (   0.000000000000   0.707106781187   0.707106781187 )  
               a(2) = (   0.707106781187   0.000000000000   0.707106781187 )  
               a(3) = (   0.707106781187   0.707106781187   0.000000000000 )  

     reciprocal axes: (cart. coord. in units 2 pi/alat)
               b(1) = ( -0.707107  0.707107  0.707107 )  
               b(2) = (  0.707107 -0.707107  0.707107 )  
               b(3) = (  0.707107  0.707107 -0.707107 )  


     PseudoPot. # 1 for Ca read from file:
     /users/kfg/psuedo/gbrv_1.5/ca.pbesol.UPF
     MD5 check sum: 0533207b58cddeaa036efa5b63902087
     Pseudo is Ultrasoft + core correction, Zval = 10.0
     Generated by new atomic code, or converted to UPF format
     Using radial grid of  845 points,  6 beta functions with: 
                l(1) =   0
                l(2) =   0
                l(3) =   1
                l(4) =   1
                l(5) =   2
                l(6) =   2
     Q(r) pseudized with  8 coefficients,  rinner =    1.500   1.500   1.500
                                                       1.500   1.500

     PseudoPot. # 2 for Mg read from file:
     /users/kfg/psuedo/gbrv_1.5/mg.pbesol.UPF
     MD5 check sum: 4059f37963cf5867752dbf5ab2400678
     Pseudo is Ultrasoft, Zval = 10.0
     Generated by new atomic code, or converted to UPF format
     Using radial grid of  821 points,  7 beta functions with: 
                l(1) =   0
                l(2) =   0
                l(3) =   0
                l(4) =   1
                l(5) =   1
                l(6) =   2
                l(7) =   2
     Q(r) pseudized with  8 coefficients,  rinner =    1.200   1.200   1.200
                                                       1.200   1.200

     PseudoPot. # 3 for O  read from file:
     /users/kfg/psuedo/gbrv_1.5/o.pbesol.UPF
     MD5 check sum: 501638753501ef6325af9037351f7734
     Pseudo is Ultrasoft + core correction, Zval =  6.0
     Generated by new atomic code, or converted to UPF format
     Using radial grid of  737 points,  5 beta functions with: 
                l(1) =   0
                l(2) =   0
                l(3) =   1
                l(4) =   1
                l(5) =   2
     Q(r) pseudized with  8 coefficients,  rinner =    0.900   0.900   0.900
                                                       0.900   0.900

     atomic species   valence    mass     pseudopotential
        Ca            10.00    40.07800     Ca( 1.00)
        Mg            10.00    40.07800     Mg( 1.00)
        O              6.00    15.99940     O ( 1.00)

     No symmetry found


                                    s                        frac. trans.

      isym =  1     identity                                     

 cryst.   s( 1) = (     1          0          0      )
                  (     0          1          0      )
                  (     0          0          1      )

 cart.    s( 1) = (  1.0000000  0.0000000  0.0000000 )
                  (  0.0000000  1.0000000  0.0000000 )
                  (  0.0000000  0.0000000  1.0000000 )


     point group C_1 (1)    
     there are  1 classes
     the character table:

       E    
A      1.00

     the symmetry operations in each class:
     E        1

   Cartesian axes

     site n.     atom                  positions (alat units)
         1           Ca  tau(   1) = (    0.00000000000    0.00000000000    0.00000000000  )
         2           O   tau(   2) = (    0.17677669530    0.17677669530    0.17677669530  )
         3           Mg  tau(   3) = (    0.17677669530    0.17677669530    0.00000000000  )
         4           O   tau(   4) = (    0.35355339059    0.35355339059    0.17677669530  )
         5           Mg  tau(   5) = (    0.35355339059    0.35355339059    0.00000000000  )
         6           O   tau(   6) = (    0.53033008589    0.53033008589    0.17677669530  )
         7           Ca  tau(   7) = (    0.53033008589    0.53033008589    0.00000000000  )
         8           O   tau(   8) = (    0.70710678119    0.70710678119    0.17677669530  )
         9           Ca  tau(   9) = (    0.17677669530    0.00000000000    0.17677669530  )
        10           O   tau(  10) = (    0.35355339059    0.17677669530    0.35355339059  )
        11           Ca  tau(  11) = (    0.35355339059    0.17677669530    0.17677669530  )
        12           O   tau(  12) = (    0.53033008589    0.35355339059    0.35355339059  )
        13           Mg  tau(  13) = (    0.53033008589    0.35355339059    0.17677669530  )
        14           O   tau(  14) = (    0.70710678119    0.53033008589    0.35355339059  )
        15           Ca  tau(  15) = (    0.70710678119    0.53033008589    0.17677669530  )
        16           O   tau(  16) = (    0.88388347648    0.70710678119    0.35355339059  )
        17           Mg  tau(  17) = (    0.35355339059    0.00000000000    0.35355339059  )
        18           O   tau(  18) = (    0.53033008589    0.17677669530    0.53033008589  )
        19           Mg  tau(  19) = (    0.53033008589    0.17677669530    0.35355339059  )
        20           O   tau(  20) = (    0.70710678119    0.35355339059    0.53033008589  )
        21           Ca  tau(  21) = (    0.70710678119    0.35355339059    0.35355339059  )
        22           O   tau(  22) = (    0.88388347648    0.53033008589    0.53033008589  )
        23           Ca  tau(  23) = (    0.88388347648    0.53033008589    0.35355339059  )
        24           O   tau(  24) = (    1.06066017178    0.70710678119    0.53033008589  )
        25           Ca  tau(  25) = (    0.53033008589    0.00000000000    0.53033008589  )
        26           O   tau(  26) = (    0.70710678119    0.17677669530    0.70710678119  )
        27           Mg  tau(  27) = (    0.70710678119    0.17677669530    0.53033008589  )
        28           O   tau(  28) = (    0.88388347648    0.35355339059    0.70710678119  )
        29           Mg  tau(  29) = (    0.88388347648    0.35355339059    0.53033008589  )
        30           O   tau(  30) = (    1.06066017178    0.53033008589    0.70710678119  )
        31           Ca  tau(  31) = (    1.06066017178    0.53033008589    0.53033008589  )
        32           O   tau(  32) = (    1.23743686708    0.70710678119    0.70710678119  )
        33           Mg  tau(  33) = (    0.00000000000    0.17677669530    0.17677669530  )
        34           O   tau(  34) = (    0.17677669530    0.35355339059    0.35355339059  )
        35           Ca  tau(  35) = (    0.17677669530    0.35355339059    0.17677669530  )
        36           O   tau(  36) = (    0.35355339059    0.53033008589    0.35355339059  )
        37           Mg  tau(  37) = (    0.35355339059    0.53033008589    0.17677669530  )
        38           O   tau(  38) = (    0.53033008589    0.70710678119    0.35355339059  )
        39           Mg  tau(  39) = (    0.53033008589    0.70710678119    0.17677669530  )
        40           O   tau(  40) = (    0.70710678119    0.88388347648    0.35355339059  )
        41           Mg  tau(  41) = (    0.17677669530    0.17677669530    0.35355339059  )
        42           O   tau(  42) = (    0.35355339059    0.35355339059    0.53033008589  )
        43           Mg  tau(  43) = (    0.35355339059    0.35355339059    0.35355339059  )
        44           O   tau(  44) = (    0.53033008589    0.53033008589    0.53033008589  )
        45           Mg  tau(  45) = (    0.53033008589    0.53033008589    0.35355339059  )
        46           O   tau(  46) = (    0.70710678119    0.70710678119    0.53033008589  )
        47           Ca  tau(  47) = (    0.70710678119    0.70710678119    0.35355339059  )
        48           O   tau(  48) = (    0.88388347648    0.88388347648    0.53033008589  )
        49           Ca  tau(  49) = (    0.35355339059    0.17677669530    0.53033008589  )
        50           O   tau(  50) = (    0.53033008589    0.35355339059    0.70710678119  )
        51           Mg  tau(  51) = (    0.53033008589    0.35355339059    0.53033008589  )
        52           O   tau(  52) = (    0.70710678119    0.53033008589    0.70710678119  )
        53           Mg  tau(  53) = (    0.70710678119    0.53033008589    0.53033008589  )
        54           O   tau(  54) = (    0.88388347648    0.70710678119    0.70710678119  )
        55           Mg  tau(  55) = (    0.88388347648    0.70710678119    0.53033008589  )
        56           O   tau(  56) = (    1.06066017178    0.88388347648    0.70710678119  )
        57           Mg  tau(  57) = (    0.53033008589    0.17677669530    0.70710678119  )
        58           O   tau(  58) = (    0.70710678119    0.35355339059    0.88388347648  )
        59           Ca  tau(  59) = (    0.70710678119    0.35355339059    0.70710678119  )
        60           O   tau(  60) = (    0.88388347648    0.53033008589    0.88388347648  )
        61           Mg  tau(  61) = (    0.88388347648    0.53033008589    0.70710678119  )
        62           O   tau(  62) = (    1.06066017178    0.70710678119    0.88388347648  )
        63           Ca  tau(  63) = (    1.06066017178    0.70710678119    0.70710678119  )
        64           O   tau(  64) = (    1.23743686708    0.88388347648    0.88388347648  )
        65           Ca  tau(  65) = (    0.00000000000    0.35355339059    0.35355339059  )
        66           O   tau(  66) = (    0.17677669530    0.53033008589    0.53033008589  )
        67           Ca  tau(  67) = (    0.17677669530    0.53033008589    0.35355339059  )
        68           O   tau(  68) = (    0.35355339059    0.70710678119    0.53033008589  )
        69           Ca  tau(  69) = (    0.35355339059    0.70710678119    0.35355339059  )
        70           O   tau(  70) = (    0.53033008589    0.88388347648    0.53033008589  )
        71           Mg  tau(  71) = (    0.53033008589    0.88388347648    0.35355339059  )
        72           O   tau(  72) = (    0.70710678119    1.06066017178    0.53033008589  )
        73           Ca  tau(  73) = (    0.17677669530    0.35355339059    0.53033008589  )
        74           O   tau(  74) = (    0.35355339059    0.53033008589    0.70710678119  )
        75           Ca  tau(  75) = (    0.35355339059    0.53033008589    0.53033008589  )
        76           O   tau(  76) = (    0.53033008589    0.70710678119    0.70710678119  )
        77           Mg  tau(  77) = (    0.53033008589    0.70710678119    0.53033008589  )
        78           O   tau(  78) = (    0.70710678119    0.88388347648    0.70710678119  )
        79           Ca  tau(  79) = (    0.70710678119    0.88388347648    0.53033008589  )
        80           O   tau(  80) = (    0.88388347648    1.06066017178    0.70710678119  )
        81           Mg  tau(  81) = (    0.35355339059    0.35355339059    0.70710678119  )
        82           O   tau(  82) = (    0.53033008589    0.53033008589    0.88388347648  )
        83           Ca  tau(  83) = (    0.53033008589    0.53033008589    0.70710678119  )
        84           O   tau(  84) = (    0.70710678119    0.70710678119    0.88388347648  )
        85           Ca  tau(  85) = (    0.70710678119    0.70710678119    0.70710678119  )
        86           O   tau(  86) = (    0.88388347648    0.88388347648    0.88388347648  )
        87           Ca  tau(  87) = (    0.88388347648    0.88388347648    0.70710678119  )
        88           O   tau(  88) = (    1.06066017178    1.06066017178    0.88388347648  )
        89           Ca  tau(  89) = (    0.53033008589    0.35355339059    0.88388347648  )
        90           O   tau(  90) = (    0.70710678119    0.53033008589    1.06066017178  )
        91           Mg  tau(  91) = (    0.70710678119    0.53033008589    0.88388347648  )
        92           O   tau(  92) = (    0.88388347648    0.70710678119    1.06066017178  )
        93           Mg  tau(  93) = (    0.88388347648    0.70710678119    0.88388347648  )
        94           O   tau(  94) = (    1.06066017178    0.88388347648    1.06066017178  )
        95           Ca  tau(  95) = (    1.06066017178    0.88388347648    0.88388347648  )
        96           O   tau(  96) = (    1.23743686708    1.06066017178    1.06066017178  )
        97           Ca  tau(  97) = (    0.00000000000    0.53033008589    0.53033008589  )
        98           O   tau(  98) = (    0.17677669530    0.70710678119    0.70710678119  )
        99           Mg  tau(  99) = (    0.17677669530    0.70710678119    0.53033008589  )
       100           O   tau( 100) = (    0.35355339059    0.88388347648    0.70710678119  )
       101           Mg  tau( 101) = (    0.35355339059    0.88388347648    0.53033008589  )
       102           O   tau( 102) = (    0.53033008589    1.06066017178    0.70710678119  )
       103           Ca  tau( 103) = (    0.53033008589    1.06066017178    0.53033008589  )
       104           O   tau( 104) = (    0.70710678119    1.23743686708    0.70710678119  )
       105           Mg  tau( 105) = (    0.17677669530    0.53033008589    0.70710678119  )
       106           O   tau( 106) = (    0.35355339059    0.70710678119    0.88388347648  )
       107           Mg  tau( 107) = (    0.35355339059    0.70710678119    0.70710678119  )
       108           O   tau( 108) = (    0.53033008589    0.88388347648    0.88388347648  )
       109           Mg  tau( 109) = (    0.53033008589    0.88388347648    0.70710678119  )
       110           O   tau( 110) = (    0.70710678119    1.06066017178    0.88388347648  )
       111           Ca  tau( 111) = (    0.70710678119    1.06066017178    0.70710678119  )
       112           O   tau( 112) = (    0.88388347648    1.23743686708    0.88388347648  )
       113           Ca  tau( 113) = (    0.35355339059    0.53033008589    0.88388347648  )
       114           O   tau( 114) = (    0.53033008589    0.70710678119    1.06066017178  )
       115           Ca  tau( 115) = (    0.53033008589    0.70710678119    0.88388347648  )
       116           O   tau( 116) = (    0.70710678119    0.88388347648    1.06066017178  )
       117           Ca  tau( 117) = (    0.70710678119    0.88388347648    0.88388347648  )
       118           O   tau( 118) = (    0.88388347648    1.06066017178    1.06066017178  )
       119           Ca  tau( 119) = (    0.88388347648    1.06066017178    0.88388347648  )
       120           O   tau( 120) = (    1.06066017178    1.23743686708    1.06066017178  )
       121           Ca  tau( 121) = (    0.53033008589    0.53033008589    1.06066017178  )
       122           O   tau( 122) = (    0.70710678119    0.70710678119    1.23743686708  )
       123           Mg  tau( 123) = (    0.70710678119    0.70710678119    1.06066017178  )
       124           O   tau( 124) = (    0.88388347648    0.88388347648    1.23743686708  )
       125           Ca  tau( 125) = (    0.88388347648    0.88388347648    1.06066017178  )
       126           O   tau( 126) = (    1.06066017178    1.06066017178    1.23743686708  )
       127           Ca  tau( 127) = (    1.06066017178    1.06066017178    1.06066017178  )
       128           O   tau( 128) = (    1.23743686708    1.23743686708    1.23743686708  )

   Crystallographic axes

     site n.     atom                  positions (cryst. coord.)
         1           Ca  tau(   1) = (    0.00000000000    0.00000000000    0.00000000000  )
         2           O   tau(   2) = (    0.12500000000    0.12500000000    0.12500000000  )
         3           Mg  tau(   3) = (    0.00000000000    0.00000000000    0.25000000000  )
         4           O   tau(   4) = (    0.12500000000    0.12500000000    0.37500000000  )
         5           Mg  tau(   5) = (    0.00000000000    0.00000000000    0.50000000000  )
         6           O   tau(   6) = (    0.12500000000    0.12500000000    0.62500000000  )
         7           Ca  tau(   7) = (    0.00000000000    0.00000000000    0.75000000000  )
         8           O   tau(   8) = (    0.12500000000    0.12500000000    0.87500000000  )
         9           Ca  tau(   9) = (    0.00000000000    0.25000000000    0.00000000000  )
        10           O   tau(  10) = (    0.12500000000    0.37500000000    0.12500000000  )
        11           Ca  tau(  11) = (    0.00000000000    0.25000000000    0.25000000000  )
        12           O   tau(  12) = (    0.12500000000    0.37500000000    0.37500000000  )
        13           Mg  tau(  13) = (    0.00000000000    0.25000000000    0.50000000000  )
        14           O   tau(  14) = (    0.12500000000    0.37500000000    0.62500000000  )
        15           Ca  tau(  15) = (    0.00000000000    0.25000000000    0.75000000000  )
        16           O   tau(  16) = (    0.12500000000    0.37500000000    0.87500000000  )
        17           Mg  tau(  17) = (    0.00000000000    0.50000000000    0.00000000000  )
        18           O   tau(  18) = (    0.12500000000    0.62500000000    0.12500000000  )
        19           Mg  tau(  19) = (    0.00000000000    0.50000000000    0.25000000000  )
        20           O   tau(  20) = (    0.12500000000    0.62500000000    0.37500000000  )
        21           Ca  tau(  21) = (    0.00000000000    0.50000000000    0.50000000000  )
        22           O   tau(  22) = (    0.12500000000    0.62500000000    0.62500000000  )
        23           Ca  tau(  23) = (    0.00000000000    0.50000000000    0.75000000000  )
        24           O   tau(  24) = (    0.12500000000    0.62500000000    0.87500000000  )
        25           Ca  tau(  25) = (    0.00000000000    0.75000000000    0.00000000000  )
        26           O   tau(  26) = (    0.12500000000    0.87500000000    0.12500000000  )
        27           Mg  tau(  27) = (    0.00000000000    0.75000000000    0.25000000000  )
        28           O   tau(  28) = (    0.12500000000    0.87500000000    0.37500000000  )
        29           Mg  tau(  29) = (    0.00000000000    0.75000000000    0.50000000000  )
        30           O   tau(  30) = (    0.12500000000    0.87500000000    0.62500000000  )
        31           Ca  tau(  31) = (    0.00000000000    0.75000000000    0.75000000000  )
        32           O   tau(  32) = (    0.12500000000    0.87500000000    0.87500000000  )
        33           Mg  tau(  33) = (    0.25000000000    0.00000000000    0.00000000000  )
        34           O   tau(  34) = (    0.37500000000    0.12500000000    0.12500000000  )
        35           Ca  tau(  35) = (    0.25000000000    0.00000000000    0.25000000000  )
        36           O   tau(  36) = (    0.37500000000    0.12500000000    0.37500000000  )
        37           Mg  tau(  37) = (    0.25000000000    0.00000000000    0.50000000000  )
        38           O   tau(  38) = (    0.37500000000    0.12500000000    0.62500000000  )
        39           Mg  tau(  39) = (    0.25000000000    0.00000000000    0.75000000000  )
        40           O   tau(  40) = (    0.37500000000    0.12500000000    0.87500000000  )
        41           Mg  tau(  41) = (    0.25000000000    0.25000000000    0.00000000000  )
        42           O   tau(  42) = (    0.37500000000    0.37500000000    0.12500000000  )
        43           Mg  tau(  43) = (    0.25000000000    0.25000000000    0.25000000000  )
        44           O   tau(  44) = (    0.37500000000    0.37500000000    0.37500000000  )
        45           Mg  tau(  45) = (    0.25000000000    0.25000000000    0.50000000000  )
        46           O   tau(  46) = (    0.37500000000    0.37500000000    0.62500000000  )
        47           Ca  tau(  47) = (    0.25000000000    0.25000000000    0.75000000000  )
        48           O   tau(  48) = (    0.37500000000    0.37500000000    0.87500000000  )
        49           Ca  tau(  49) = (    0.25000000000    0.50000000000    0.00000000000  )
        50           O   tau(  50) = (    0.37500000000    0.62500000000    0.12500000000  )
        51           Mg  tau(  51) = (    0.25000000000    0.50000000000    0.25000000000  )
        52           O   tau(  52) = (    0.37500000000    0.62500000000    0.37500000000  )
        53           Mg  tau(  53) = (    0.25000000000    0.50000000000    0.50000000000  )
        54           O   tau(  54) = (    0.37500000000    0.62500000000    0.62500000000  )
        55           Mg  tau(  55) = (    0.25000000000    0.50000000000    0.75000000000  )
        56           O   tau(  56) = (    0.37500000000    0.62500000000    0.87500000000  )
        57           Mg  tau(  57) = (    0.25000000000    0.75000000000    0.00000000000  )
        58           O   tau(  58) = (    0.37500000000    0.87500000000    0.12500000000  )
        59           Ca  tau(  59) = (    0.25000000000    0.75000000000    0.25000000000  )
        60           O   tau(  60) = (    0.37500000000    0.87500000000    0.37500000000  )
        61           Mg  tau(  61) = (    0.25000000000    0.75000000000    0.50000000000  )
        62           O   tau(  62) = (    0.37500000000    0.87500000000    0.62500000000  )
        63           Ca  tau(  63) = (    0.25000000000    0.75000000000    0.75000000000  )
        64           O   tau(  64) = (    0.37500000000    0.87500000000    0.87500000000  )
        65           Ca  tau(  65) = (    0.50000000000    0.00000000000    0.00000000000  )
        66           O   tau(  66) = (    0.62500000000    0.12500000000    0.12500000000  )
        67           Ca  tau(  67) = (    0.50000000000    0.00000000000    0.25000000000  )
        68           O   tau(  68) = (    0.62500000000    0.12500000000    0.37500000000  )
        69           Ca  tau(  69) = (    0.50000000000    0.00000000000    0.50000000000  )
        70           O   tau(  70) = (    0.62500000000    0.12500000000    0.62500000000  )
        71           Mg  tau(  71) = (    0.50000000000    0.00000000000    0.75000000000  )
        72           O   tau(  72) = (    0.62500000000    0.12500000000    0.87500000000  )
        73           Ca  tau(  73) = (    0.50000000000    0.25000000000    0.00000000000  )
        74           O   tau(  74) = (    0.62500000000    0.37500000000    0.12500000000  )
        75           Ca  tau(  75) = (    0.50000000000    0.25000000000    0.25000000000  )
        76           O   tau(  76) = (    0.62500000000    0.37500000000    0.37500000000  )
        77           Mg  tau(  77) = (    0.50000000000    0.25000000000    0.50000000000  )
        78           O   tau(  78) = (    0.62500000000    0.37500000000    0.62500000000  )
        79           Ca  tau(  79) = (    0.50000000000    0.25000000000    0.75000000000  )
        80           O   tau(  80) = (    0.62500000000    0.37500000000    0.87500000000  )
        81           Mg  tau(  81) = (    0.50000000000    0.50000000000    0.00000000000  )
        82           O   tau(  82) = (    0.62500000000    0.62500000000    0.12500000000  )
        83           Ca  tau(  83) = (    0.50000000000    0.50000000000    0.25000000000  )
        84           O   tau(  84) = (    0.62500000000    0.62500000000    0.37500000000  )
        85           Ca  tau(  85) = (    0.50000000000    0.50000000000    0.50000000000  )
        86           O   tau(  86) = (    0.62500000000    0.62500000000    0.62500000000  )
        87           Ca  tau(  87) = (    0.50000000000    0.50000000000    0.75000000000  )
        88           O   tau(  88) = (    0.62500000000    0.62500000000    0.87500000000  )
        89           Ca  tau(  89) = (    0.50000000000    0.75000000000    0.00000000000  )
        90           O   tau(  90) = (    0.62500000000    0.87500000000    0.12500000000  )
        91           Mg  tau(  91) = (    0.50000000000    0.75000000000    0.25000000000  )
        92           O   tau(  92) = (    0.62500000000    0.87500000000    0.37500000000  )
        93           Mg  tau(  93) = (    0.50000000000    0.75000000000    0.50000000000  )
        94           O   tau(  94) = (    0.62500000000    0.87500000000    0.62500000000  )
        95           Ca  tau(  95) = (    0.50000000000    0.75000000000    0.75000000000  )
        96           O   tau(  96) = (    0.62500000000    0.87500000000    0.87500000000  )
        97           Ca  tau(  97) = (    0.75000000000    0.00000000000    0.00000000000  )
        98           O   tau(  98) = (    0.87500000000    0.12500000000    0.12500000000  )
        99           Mg  tau(  99) = (    0.75000000000    0.00000000000    0.25000000000  )
       100           O   tau( 100) = (    0.87500000000    0.12500000000    0.37500000000  )
       101           Mg  tau( 101) = (    0.75000000000    0.00000000000    0.50000000000  )
       102           O   tau( 102) = (    0.87500000000    0.12500000000    0.62500000000  )
       103           Ca  tau( 103) = (    0.75000000000    0.00000000000    0.75000000000  )
       104           O   tau( 104) = (    0.87500000000    0.12500000000    0.87500000000  )
       105           Mg  tau( 105) = (    0.75000000000    0.25000000000    0.00000000000  )
       106           O   tau( 106) = (    0.87500000000    0.37500000000    0.12500000000  )
       107           Mg  tau( 107) = (    0.75000000000    0.25000000000    0.25000000000  )
       108           O   tau( 108) = (    0.87500000000    0.37500000000    0.37500000000  )
       109           Mg  tau( 109) = (    0.75000000000    0.25000000000    0.50000000000  )
       110           O   tau( 110) = (    0.87500000000    0.37500000000    0.62500000000  )
       111           Ca  tau( 111) = (    0.75000000000    0.25000000000    0.75000000000  )
       112           O   tau( 112) = (    0.87500000000    0.37500000000    0.87500000000  )
       113           Ca  tau( 113) = (    0.75000000000    0.50000000000    0.00000000000  )
       114           O   tau( 114) = (    0.87500000000    0.62500000000    0.12500000000  )
       115           Ca  tau( 115) = (    0.75000000000    0.50000000000    0.25000000000  )
       116           O   tau( 116) = (    0.87500000000    0.62500000000    0.37500000000  )
       117           Ca  tau( 117) = (    0.75000000000    0.50000000000    0.50000000000  )
       118           O   tau( 118) = (    0.87500000000    0.62500000000    0.62500000000  )
       119           Ca  tau( 119) = (    0.75000000000    0.50000000000    0.75000000000  )
       120           O   tau( 120) = (    0.87500000000    0.62500000000    0.87500000000  )
       121           Ca  tau( 121) = (    0.75000000000    0.75000000000    0.00000000000  )
       122           O   tau( 122) = (    0.87500000000    0.87500000000    0.12500000000  )
       123           Mg  tau( 123) = (    0.75000000000    0.75000000000    0.25000000000  )
       124           O   tau( 124) = (    0.87500000000    0.87500000000    0.37500000000  )
       125           Ca  tau( 125) = (    0.75000000000    0.75000000000    0.50000000000  )
       126           O   tau( 126) = (    0.87500000000    0.87500000000    0.62500000000  )
       127           Ca  tau( 127) = (    0.75000000000    0.75000000000    0.75000000000  )
       128           O   tau( 128) = (    0.87500000000    0.87500000000    0.87500000000  )

     number of k points=     8  gaussian smearing, width (Ry)=  0.0050
                       cart. coord. in units 2pi/alat
        k(    1) = (   0.0000000   0.0000000   0.0000000), wk =   0.2500000
        k(    2) = (  -0.3535534  -0.3535534   0.3535534), wk =   0.2500000
        k(    3) = (  -0.7071068   0.0000000   0.0000000), wk =   0.2500000
        k(    4) = (   0.3535534   0.3535534   0.3535534), wk =   0.2500000
        k(    5) = (   0.3535534  -0.3535534  -0.3535534), wk =   0.2500000
        k(    6) = (  -0.3535534   0.3535534  -0.3535534), wk =   0.2500000
        k(    7) = (   0.0000000  -0.7071068   0.0000000), wk =   0.2500000
        k(    8) = (   0.0000000   0.0000000  -0.7071068), wk =   0.2500000

                       cryst. coord.
        k(    1) = (   0.0000000   0.0000000   0.0000000), wk =   0.2500000
        k(    2) = (   0.0000000   0.0000000  -0.5000000), wk =   0.2500000
        k(    3) = (   0.0000000  -0.5000000  -0.5000000), wk =   0.2500000
        k(    4) = (   0.5000000   0.5000000   0.5000000), wk =   0.2500000
        k(    5) = (  -0.5000000   0.0000000   0.0000000), wk =   0.2500000
        k(    6) = (   0.0000000  -0.5000000   0.0000000), wk =   0.2500000
        k(    7) = (  -0.5000000   0.0000000  -0.5000000), wk =   0.2500000
        k(    8) = (  -0.5000000  -0.5000000   0.0000000), wk =   0.2500000

     Dense  grid:   468065 G-vectors     FFT dimensions: ( 120, 120, 120)

     Smooth grid:   335221 G-vectors     FFT dimensions: ( 100, 100, 100)

     Largest allocated arrays     est. size (Mb)     dimensions
        Kohn-Sham Wavefunctions        49.43 Mb     (    5276,  614)
        NL pseudopotentials           162.06 Mb     (    5276, 2013)
        Each V/rho on FFT grid          3.30 Mb     (  216000)
        Each G-vector array             0.45 Mb     (   58509)
        G-vector shells                 0.01 Mb     (    1948)
     Largest temporary arrays     est. size (Mb)     dimensions
        Auxiliary wavefunctions       197.72 Mb     (    5276, 2456)
        Each subspace H/S matrix       92.04 Mb     (    2456, 2456)
        Each <psi_i|beta_j> matrix     18.86 Mb     (    2013,  614)
        Arrays for rho mixing          26.37 Mb     (  216000,    8)

     Check: negative/imaginary core charge=   -0.000003    0.000000

     Initial potential from superposition of free atoms

     starting charge 1015.11215, renormalised to 1024.00000
     Starting wfc are  751 randomized atomic wfcs

     total cpu time spent up to now is      915.8 secs

     Self-consistent Calculation

     iteration #  1     ecut=    40.00 Ry     beta=0.30
     Davidson diagonalization with overlap
     ethr =  1.00E-02,  avg # of iterations =  3.0

     total cpu time spent up to now is     3148.7 secs

     total energy              =   -8329.28464995 Ry
     Harris-Foulkes estimate   =   -8334.17016499 Ry
     estimated scf accuracy    <      25.04171413 Ry

     iteration #  2     ecut=    40.00 Ry     beta=0.30
     Davidson diagonalization with overlap
     ethr =  2.45E-03,  avg # of iterations =  1.0

     total cpu time spent up to now is     5026.5 secs

     total energy              =   -8326.17035689 Ry
     Harris-Foulkes estimate   =   -8330.14520415 Ry
     estimated scf accuracy    <      10.19449671 Ry

     iteration #  3     ecut=    40.00 Ry     beta=0.30
     Davidson diagonalization with overlap
     ethr =  9.96E-04,  avg # of iterations =  2.0

     total cpu time spent up to now is     7354.2 secs

     total energy              =   -8327.41916111 Ry
     Harris-Foulkes estimate   =   -8327.80447704 Ry
     estimated scf accuracy    <       1.31615553 Ry

     iteration #  4     ecut=    40.00 Ry     beta=0.30
     Davidson diagonalization with overlap
     ethr =  1.29E-04,  avg # of iterations =  7.1

     total cpu time spent up to now is    10662.7 secs

     total energy              =   -8327.18738790 Ry
     Harris-Foulkes estimate   =   -8327.50243569 Ry
     estimated scf accuracy    <       0.60113936 Ry

     iteration #  5     ecut=    40.00 Ry     beta=0.30
     Davidson diagonalization with overlap
     ethr =  5.87E-05,  avg # of iterations =  4.4

     total cpu time spent up to now is    13235.7 secs

     total energy              =   -8327.25214922 Ry
     Harris-Foulkes estimate   =   -8327.27043554 Ry
     estimated scf accuracy    <       0.10584822 Ry

     iteration #  6     ecut=    40.00 Ry     beta=0.30
     Davidson diagonalization with overlap
     ethr =  1.03E-05,  avg # of iterations =  8.6

     total cpu time spent up to now is    16910.6 secs

     total energy              =   -8327.24153131 Ry
     Harris-Foulkes estimate   =   -8327.25861248 Ry
     estimated scf accuracy    <       0.05793771 Ry

     iteration #  7     ecut=    40.00 Ry     beta=0.30
     Davidson diagonalization with overlap
     ethr =  5.66E-06,  avg # of iterations =  5.0

     total cpu time spent up to now is    19768.4 secs

     total energy              =   -8327.24314219 Ry
     Harris-Foulkes estimate   =   -8327.24709653 Ry
     estimated scf accuracy    <       0.01249343 Ry

     iteration #  8     ecut=    40.00 Ry     beta=0.30
     Davidson diagonalization with overlap
     ethr =  1.22E-06,  avg # of iterations =  7.1

     total cpu time spent up to now is    23549.0 secs

     total energy              =   -8327.24340466 Ry
     Harris-Foulkes estimate   =   -8327.24545888 Ry
     estimated scf accuracy    <       0.00863547 Ry

     iteration #  9     ecut=    40.00 Ry     beta=0.30
     Davidson diagonalization with overlap
     ethr =  8.43E-07,  avg # of iterations =  2.0

     total cpu time spent up to now is    25681.7 secs

     total energy              =   -8327.24336359 Ry
     Harris-Foulkes estimate   =   -8327.24408168 Ry
     estimated scf accuracy    <       0.00269601 Ry

     iteration # 10     ecut=    40.00 Ry     beta=0.30
     Davidson diagonalization with overlap
     ethr =  2.63E-07,  avg # of iterations =  6.0

     total cpu time spent up to now is    28580.9 secs

     total energy              =   -8327.24323017 Ry
     Harris-Foulkes estimate   =   -8327.24356634 Ry
     estimated scf accuracy    <       0.00101309 Ry

     iteration # 11     ecut=    40.00 Ry     beta=0.30
     Davidson diagonalization with overlap
     ethr =  9.89E-08,  avg # of iterations =  6.0

     total cpu time spent up to now is    31783.6 secs

     total energy              =   -8327.24328844 Ry
     Harris-Foulkes estimate   =   -8327.24337419 Ry
     estimated scf accuracy    <       0.00023573 Ry

     iteration # 12     ecut=    40.00 Ry     beta=0.30
     Davidson diagonalization with overlap
     ethr =  2.30E-08,  avg # of iterations =  2.0

     total cpu time spent up to now is    34067.8 secs

     total energy              =   -8327.24326036 Ry
     Harris-Foulkes estimate   =   -8327.24332130 Ry
     estimated scf accuracy    <       0.00012170 Ry

     iteration # 13     ecut=    40.00 Ry     beta=0.30
     Davidson diagonalization with overlap
     ethr =  1.19E-08,  avg # of iterations =  2.0

     total cpu time spent up to now is    36415.2 secs

     total energy              =   -8327.24327946 Ry
     Harris-Foulkes estimate   =   -8327.24328128 Ry
     estimated scf accuracy    <       0.00000677 Ry

     iteration # 14     ecut=    40.00 Ry     beta=0.30
     Davidson diagonalization with overlap
     ethr =  6.61E-10,  avg # of iterations =  2.0

     total cpu time spent up to now is    38722.4 secs

     total energy              =   -8327.24327985 Ry
     Harris-Foulkes estimate   =   -8327.24328016 Ry
     estimated scf accuracy    <       0.00000240 Ry

     iteration # 15     ecut=    40.00 Ry     beta=0.30
     Davidson diagonalization with overlap
     ethr =  2.35E-10,  avg # of iterations =  2.0

     total cpu time spent up to now is    40789.5 secs

     total energy              =   -8327.24327984 Ry
     Harris-Foulkes estimate   =   -8327.24328001 Ry
     estimated scf accuracy    <       0.00000069 Ry

     iteration # 16     ecut=    40.00 Ry     beta=0.30
     Davidson diagonalization with overlap
     ethr =  6.78E-11,  avg # of iterations =  2.0

     total cpu time spent up to now is    42840.3 secs

     total energy              =   -8327.24327980 Ry
     Harris-Foulkes estimate   =   -8327.24327989 Ry
     estimated scf accuracy    <       0.00000026 Ry

     iteration # 17     ecut=    40.00 Ry     beta=0.30
     Davidson diagonalization with overlap
     ethr =  2.58E-11,  avg # of iterations =  2.0

     total cpu time spent up to now is    45163.0 secs

     total energy              =   -8327.24327981 Ry
     Harris-Foulkes estimate   =   -8327.24327983 Ry
     estimated scf accuracy    <       0.00000010 Ry

     iteration # 18     ecut=    40.00 Ry     beta=0.30
     Davidson diagonalization with overlap
     ethr =  9.56E-12,  avg # of iterations =  1.0

     total cpu time spent up to now is    47005.7 secs

     total energy              =   -8327.24327982 Ry
     Harris-Foulkes estimate   =   -8327.24327982 Ry
     estimated scf accuracy    <       0.00000005 Ry

     iteration # 19     ecut=    40.00 Ry     beta=0.30
     Davidson diagonalization with overlap
     ethr =  5.04E-12,  avg # of iterations =  1.0

     total cpu time spent up to now is    48869.5 secs

     total energy              =   -8327.24327981 Ry
     Harris-Foulkes estimate   =   -8327.24327982 Ry
     estimated scf accuracy    <       0.00000003 Ry

     iteration # 20     ecut=    40.00 Ry     beta=0.30
     Davidson diagonalization with overlap
     ethr =  3.27E-12,  avg # of iterations =  2.0

     total cpu time spent up to now is    51046.3 secs

     total energy              =   -8327.24327981 Ry
     Harris-Foulkes estimate   =   -8327.24327981 Ry
     estimated scf accuracy    <          9.4E-09 Ry

     iteration # 21     ecut=    40.00 Ry     beta=0.30
     Davidson diagonalization with overlap
     ethr =  9.18E-13,  avg # of iterations =  2.0

     total cpu time spent up to now is    53237.6 secs

     total energy              =   -8327.24327981 Ry
     Harris-Foulkes estimate   =   -8327.24327981 Ry
     estimated scf accuracy    <          4.9E-09 Ry

     iteration # 22     ecut=    40.00 Ry     beta=0.30
     Davidson diagonalization with overlap
     ethr =  4.81E-13,  avg # of iterations =  2.0

     total cpu time spent up to now is    55063.6 secs

     total energy              =   -8327.24327981 Ry
     Harris-Foulkes estimate   =   -8327.24327981 Ry
     estimated scf accuracy    <          2.4E-09 Ry

     iteration # 23     ecut=    40.00 Ry     beta=0.30
     Davidson diagonalization with overlap
     ethr =  2.39E-13,  avg # of iterations =  2.0

     total cpu time spent up to now is    56833.3 secs

     total energy              =   -8327.24327981 Ry
     Harris-Foulkes estimate   =   -8327.24327981 Ry
     estimated scf accuracy    <          9.7E-10 Ry

     iteration # 24     ecut=    40.00 Ry     beta=0.30
     Davidson diagonalization with overlap
     ethr =  1.00E-13,  avg # of iterations =  2.0

     total cpu time spent up to now is    58593.4 secs

     total energy              =   -8327.24327981 Ry
     Harris-Foulkes estimate   =   -8327.24327981 Ry
     estimated scf accuracy    <          3.2E-10 Ry

     iteration # 25     ecut=    40.00 Ry     beta=0.30
     Davidson diagonalization with overlap
     ethr =  1.00E-13,  avg # of iterations =  1.0

     total cpu time spent up to now is    59617.6 secs

     total energy              =   -8327.24327981 Ry
     Harris-Foulkes estimate   =   -8327.24327981 Ry
     estimated scf accuracy    <          1.9E-10 Ry

     iteration # 26     ecut=    40.00 Ry     beta=0.30
     Davidson diagonalization with overlap
     ethr =  1.00E-13,  avg # of iterations =  1.0

     total cpu time spent up to now is    60565.7 secs

     End of self-consistent calculation

          k = 0.0000 0.0000 0.0000 ( 41703 PWs)   bands (ev):

   -64.8128 -64.7976 -64.7802 -64.7790 -64.7690 -64.7671 -64.7612 -64.7601
   -64.7584 -64.7570 -64.7558 -64.7528 -64.7454 -64.7321 -64.7179 -64.7158
   -64.7079 -64.6963 -64.6904 -64.6861 -64.6805 -64.6735 -64.6724 -64.6587
   -64.6464 -64.6464 -64.6147 -64.6033 -64.5998 -31.7815 -31.7765 -31.7736
   -31.7645 -31.7631 -31.7619 -31.7491 -31.7467 -31.7455 -31.7443 -31.7407
   -31.7379 -31.7371 -31.7356 -31.7343 -31.7320 -31.7301 -31.7299 -31.7291
   -31.7285 -31.7277 -31.7274 -31.7246 -31.7244 -31.7242 -31.7225 -31.7223
   -31.7216 -31.7213 -31.7210 -31.7205 -31.7162 -31.7156 -31.7154 -31.7133
   -31.7132 -31.7125 -31.7092 -31.7039 -31.7003 -31.6973 -31.6951 -31.6854
   -31.6836 -31.6825 -31.6808 -31.6766 -31.6759 -31.6721 -31.6714 -31.6681
   -31.6669 -31.6604 -31.6590 -31.6566 -31.6543 -31.6524 -31.6499 -31.6490
   -31.6474 -31.6472 -31.6437 -31.6418 -31.6394 -31.6385 -31.6382 -31.6371
   -31.6329 -31.6299 -31.6282 -31.6224 -31.6176 -31.6168 -31.6147 -31.6100
   -31.6094 -31.6044 -31.6019 -31.5835 -31.5768 -31.5758 -31.5721 -31.5670
   -31.5640 -31.5618 -31.5612 -31.5601 -28.4206 -28.3763 -28.3604 -28.3316
   -28.3135 -28.2994 -28.2955 -28.2880 -28.2754 -28.2536 -28.2449 -28.2432
   -28.2379 -28.2359 -28.2278 -28.2249 -28.2186 -28.2131 -28.2047 -28.2030
   -28.1996 -28.1923 -28.1786 -28.1734 -28.1596 -28.1542 -28.1447 -28.1399
   -28.1379 -28.1235 -28.1180 -28.1048 -28.1029 -28.0824 -28.0686 -11.0383
   -11.0273 -10.9989 -10.9518 -10.8315 -10.7704 -10.7542 -10.7248 -10.7081
   -10.6929 -10.6651 -10.6578 -10.6249 -10.5916 -10.5782 -10.5350 -10.5275
   -10.5141 -10.4985 -10.4829 -10.4546 -10.4230 -10.4120 -10.3878 -10.3691
   -10.3231 -10.3043 -10.2834 -10.2803 -10.2634 -10.2360 -10.2098 -10.1804
   -10.1567 -10.1229 -10.1141 -10.1002 -10.0834 -10.0748 -10.0520 -10.0324
   -10.0020  -9.9770  -9.9497  -9.9334  -9.9320  -9.9018  -9.8810  -9.8494
    -9.8345  -9.8227  -9.7993  -9.7704  -9.7562  -9.7450  -9.7229  -9.7155
    -9.6889  -9.6709  -9.6637  -9.6388  -9.6307  -9.6089  -9.6048  -9.5856
    -9.5735  -9.5602  -9.5576  -9.5331  -9.5226  -9.5163  -9.4999  -9.4932
    -9.4758  -9.4672  -9.4588  -9.4445  -9.4363  -9.4296  -9.4205  -9.4166
    -9.3971  -9.3936  -9.3816  -9.3796  -9.3674  -9.3546  -9.3510  -9.3438
    -9.3399  -9.3271  -9.3210  -9.3057  -9.2949  -9.2890  -9.2772  -9.2681
    -9.2662  -9.2541  -9.2422  -9.2334  -9.2101  -9.2052  -9.1971  -9.1930
    -7.9652  -7.4354  -7.3810  -7.3742  -7.3651  -7.3251  -7.3025  -7.2781
    -7.2365  -7.1967  -7.1611  -7.1488  -7.1360  -7.1001  -7.0831  -7.0599
    -7.0293  -7.0087  -6.9810  -6.9673  -6.9619  -6.9345  -6.9217  -6.8843
    -6.8745  -6.8456  -6.8316  -6.7994  -6.7903  -6.7588  -6.7144  -6.7006
    -6.6835  -6.6559  -6.6357  -6.5932  -6.5727  -6.5632  -6.5302  -6.4970
    -6.4833  -6.4607  -6.4505  -6.4351  -6.4113  -6.3949  -6.3610  -6.3285
    -6.3156  -6.3105  -6.3042  -6.2734  -6.2069  -6.2007  -6.1896  -6.1855
    -6.1507  -6.0932  -6.0646  -6.0423  -5.9200  -5.8431  -5.8320  -5.7678
     4.1470   4.1917   4.2957   4.3775   4.7349   4.7784   4.8061   4.8303
     4.8554   4.8812   4.9065   4.9343   4.9738   4.9759   5.0047   5.0139
     5.0698   5.0829   5.1303   5.1502   5.1860   5.2260   5.2307   5.2550
     5.2878   5.3448   5.4023   5.4315   5.4598   5.5325   5.5350   5.5710
     5.6066   5.6276   5.6388   5.6554   5.6909   5.7069   5.7299   5.7494
     5.7990   5.8219   5.8302   5.8458   5.8585   5.9136   5.9265   5.9629
     5.9762   6.0013   6.0253   6.0376   6.0400   6.0887   6.0982   6.1186
     6.1543   6.1588   6.1943   6.2045   6.2271   6.2521   6.2696   6.2785
     6.3156   6.3224   6.3329   6.3694   6.3772   6.3926   6.4162   6.4295
     6.4442   6.4574   6.4747   6.4900   6.5164   6.5276   6.5392   6.5527
     6.5663   6.5811   6.6003   6.6069   6.6176   6.6233   6.6437   6.6559
     6.6644   6.6926   6.6948   6.7052   6.7206   6.7330   6.7388   6.7590
     6.7750   6.7810   6.7965   6.8034   6.8098   6.8285   6.8392   6.8441
     6.8520   6.8673   6.8761   6.8818   6.8980   6.9031   6.9148   6.9335
     6.9378   6.9389   6.9525   6.9754   6.9833   6.9951   7.0123   7.0248
     7.0347   7.0437   7.0558   7.0612   7.0714   7.0810   7.0970   7.1157
     7.1249   7.1328   7.1411   7.1563   7.1617   7.1769   7.1955   7.2044
     7.2199   7.2363   7.2478   7.2559   7.2755   7.2924   7.3078   7.3173
     7.3295   7.3308   7.3458   7.3511   7.3699   7.3813   7.3871   7.3952
     7.4244   7.4300   7.4419   7.4469   7.4560   7.4664   7.4777   7.4869
     7.5153   7.5225   7.5299   7.5468   7.5543   7.5627   7.5661   7.5927
     7.6032   7.6049   7.6151   7.6307   7.6346   7.6385   7.6397   7.6569
     7.6616   7.6669   7.6802   7.7068   7.7317   7.7525   7.7639   7.7719
     7.7800   7.7869   7.7997   7.8740   7.8846   8.1019   8.1190   8.1228
    12.3160  12.7038  12.7221  12.7300  13.5697  13.6919  13.7483  13.8433
    13.9149  13.9241  13.9724  14.0451  14.0908  14.1426  14.1934  14.2088
    14.2424  14.2583  14.3066  14.3316  14.3399  14.3558  14.3620  14.4607
    14.5176  14.5207  14.5767  14.6303  14.6519  14.6711  14.6964  14.7388
    14.7572  14.8019  14.8220  14.8702  14.9253  14.9409  14.9614  14.9978
    15.0255  15.0643  15.0851  15.1325  15.1869  15.2215  15.3122  15.3831
    15.4030  15.4380  15.4622  15.4997  15.5361  15.5582  15.6148  15.6345
    15.6519  15.6678  15.6936  15.7209  15.7427  15.7667  15.8107  15.8223
    15.8312  15.8897  15.9034  15.9365  15.9471  15.9606  15.9966  16.0211
    16.0373  16.0662  16.0837  16.0985  16.1423  16.1601  16.1856  16.2009
    16.2340  16.2542  16.2835  16.3518  16.3607  16.3725  16.4171  16.4372
    16.4543  16.4815  16.4936  16.5313  16.5904  16.5945  16.6130  16.6312
    16.6510  16.6972  16.7255  16.7347  16.7487  16.7949

     occupation numbers 
     1.0000   1.0000   1.0000   1.0000   1.0000   1.0000   1.0000   1.0000
     1.0000   1.0000   1.0000   1.0000   1.0000   1.0000   1.0000   1.0000
     1.0000   1.0000   1.0000   1.0000   1.0000   1.0000   1.0000   1.0000
     1.0000   1.0000   1.0000   1.0000   1.0000   1.0000   1.0000   1.0000
     1.0000   1.0000   1.0000   1.0000   1.0000   1.0000   1.0000   1.0000
     1.0000   1.0000   1.0000   1.0000   1.0000   1.0000   1.0000   1.0000
     1.0000   1.0000   1.0000   1.0000   1.0000   1.0000   1.0000   1.0000
     1.0000   1.0000   1.0000   1.0000   1.0000   1.0000   1.0000   1.0000
     1.0000   1.0000   1.0000   1.0000   1.0000   1.0000   1.0000   1.0000
     1.0000   1.0000   1.0000   1.0000   1.0000   1.0000   1.0000   1.0000
     1.0000   1.0000   1.0000   1.0000   1.0000   1.0000   1.0000   1.0000
     1.0000   1.0000   1.0000   1.0000   1.0000   1.0000   1.0000   1.0000
     1.0000   1.0000   1.0000   1.0000   1.0000   1.0000   1.0000   1.0000
     1.0000   1.0000   1.0000   1.0000   1.0000   1.0000   1.0000   1.0000
     1.0000   1.0000   1.0000   1.0000   1.0000   1.0000   1.0000   1.0000
     1.0000   1.0000   1.0000   1.0000   1.0000   1.0000   1.0000   1.0000
     1.0000   1.0000   1.0000   1.0000   1.0000   1.0000   1.0000   1.0000
     1.0000   1.0000   1.0000   1.0000   1.0000   1.0000   1.0000   1.0000
     1.0000   1.0000   1.0000   1.0000   1.0000   1.0000   1.0000   1.0000
     1.0000   1.0000   1.0000   1.0000   1.0000   1.0000   1.0000   1.0000
     1.0000   1.0000   1.0000   1.0000   1.0000   1.0000   1.0000   1.0000
     1.0000   1.0000   1.0000   1.0000   1.0000   1.0000   1.0000   1.0000
     1.0000   1.0000   1.0000   1.0000   1.0000   1.0000   1.0000   1.0000
     1.0000   1.0000   1.0000   1.0000   1.0000   1.0000   1.0000   1.0000
     1.0000   1.0000   1.0000   1.0000   1.0000   1.0000   1.0000   1.0000
     1.0000   1.0000   1.0000   1.0000   1.0000   1.0000   1.0000   1.0000
     1.0000   1.0000   1.0000   1.0000   1.0000   1.0000   1.0000   1.0000
     1.0000   1.0000   1.0000   1.0000   1.0000   1.0000   1.0000   1.0000
     1.0000   1.0000   1.0000   1.0000   1.0000   1.0000   1.0000   1.0000
     1.0000   1.0000   1.0000   1.0000   1.0000   1.0000   1.0000   1.0000
     1.0000   1.0000   1.0000   1.0000   1.0000   1.0000   1.0000   1.0000
     1.0000   1.0000   1.0000   1.0000   1.0000   1.0000   1.0000   1.0000
     1.0000   1.0000   1.0000   1.0000   1.0000   1.0000   1.0000   1.0000
     1.0000   1.0000   1.0000   1.0000   1.0000   1.0000   1.0000   1.0000
     1.0000   1.0000   1.0000   1.0000   1.0000   1.0000   1.0000   1.0000
     1.0000   1.0000   1.0000   1.0000   1.0000   1.0000   1.0000   1.0000
     1.0000   1.0000   1.0000   1.0000   1.0000   1.0000   1.0000   1.0000
     1.0000   1.0000   1.0000   1.0000   1.0000   1.0000   1.0000   1.0000
     1.0000   1.0000   1.0000   1.0000   1.0000   1.0000   1.0000   1.0000
     1.0000   1.0000   1.0000   1.0000   1.0000   1.0000   1.0000   1.0000
     1.0000   1.0000   1.0000   1.0000   1.0000   1.0000   1.0000   1.0000
     1.0000   1.0000   1.0000   1.0000   1.0000   1.0000   1.0000   1.0000
     1.0000   1.0000   1.0000   1.0000   1.0000   1.0000   1.0000   1.0000
     1.0000   1.0000   1.0000   1.0000   1.0000   1.0000   1.0000   1.0000
     1.0000   1.0000   1.0000   1.0000   1.0000   1.0000   1.0000   1.0000
     1.0000   1.0000   1.0000   1.0000   1.0000   1.0000   1.0000   1.0000
     1.0000   1.0000   1.0000   1.0000   1.0000   1.0000   1.0000   1.0000
     1.0000   1.0000   1.0000   1.0000   1.0000   1.0000   1.0000   1.0000
     1.0000   1.0000   1.0000   1.0000   1.0000   1.0000   1.0000   1.0000
     1.0000   1.0000   1.0000   1.0000   1.0000   1.0000   1.0000   1.0000
     1.0000   1.0000   1.0000   1.0000   1.0000   1.0000   1.0000   1.0000
     1.0000   1.0000   1.0000   1.0000   1.0000   1.0000   1.0000   1.0000
     1.0000   1.0000   1.0000   1.0000   1.0000   1.0000   1.0000   1.0000
     1.0000   1.0000   1.0000   1.0000   1.0000   1.0000   1.0000   1.0000
     1.0000   1.0000   1.0000   1.0000   1.0000   1.0000   1.0000   1.0000
     1.0000   1.0000   1.0000   1.0000   1.0000   1.0000   1.0000   1.0000
     1.0000   1.0000   1.0000   1.0000   1.0000   1.0000   1.0000   1.0000
     1.0000   1.0000   1.0000   1.0000   1.0000   1.0000   1.0000   1.0000
     1.0000   1.0000   1.0000   1.0000   1.0000   1.0000   1.0000   1.0000
     1.0000   1.0000   1.0000   1.0000   1.0000   1.0000   1.0000   1.0000
     1.0000   1.0000   1.0000   1.0000   1.0000   1.0000   1.0000   1.0000
     1.0000   1.0000   1.0000   1.0000   1.0000   1.0000   1.0000   1.0000
     1.0000   1.0000   1.0000   1.0000   1.0000   1.0000   1.0000   1.0000
     1.0000   1.0000   1.0000   1.0000   1.0000   1.0000   1.0000   1.0000
     0.0000   0.0000   0.0000   0.0000   0.0000   0.0000   0.0000   0.0000
     0.0000   0.0000   0.0000   0.0000   0.0000   0.0000   0.0000   0.0000
     0.0000   0.0000   0.0000   0.0000   0.0000   0.0000   0.0000   0.0000
     0.0000   0.0000   0.0000   0.0000   0.0000   0.0000   0.0000   0.0000
     0.0000   0.0000   0.0000   0.0000   0.0000   0.0000   0.0000   0.0000
     0.0000   0.0000   0.0000   0.0000   0.0000   0.0000   0.0000   0.0000
     0.0000   0.0000   0.0000   0.0000   0.0000   0.0000   0.0000   0.0000
     0.0000   0.0000   0.0000   0.0000   0.0000   0.0000   0.0000   0.0000
     0.0000   0.0000   0.0000   0.0000   0.0000   0.0000   0.0000   0.0000
     0.0000   0.0000   0.0000   0.0000   0.0000   0.0000   0.0000   0.0000
     0.0000   0.0000   0.0000   0.0000   0.0000   0.0000   0.0000   0.0000
     0.0000   0.0000   0.0000   0.0000   0.0000   0.0000   0.0000   0.0000
     0.0000   0.0000   0.0000   0.0000   0.0000   0.0000

          k =-0.3536-0.3536 0.3536 ( 41890 PWs)   bands (ev):

   -64.8128 -64.7976 -64.7802 -64.7790 -64.7690 -64.7671 -64.7612 -64.7601
   -64.7584 -64.7570 -64.7558 -64.7528 -64.7454 -64.7321 -64.7179 -64.7158
   -64.7079 -64.6963 -64.6904 -64.6861 -64.6805 -64.6735 -64.6724 -64.6587
   -64.6464 -64.6464 -64.6147 -64.6033 -64.5998 -31.7815 -31.7765 -31.7736
   -31.7645 -31.7631 -31.7619 -31.7491 -31.7467 -31.7455 -31.7443 -31.7407
   -31.7379 -31.7371 -31.7356 -31.7343 -31.7320 -31.7301 -31.7299 -31.7291
   -31.7285 -31.7277 -31.7274 -31.7246 -31.7244 -31.7242 -31.7225 -31.7223
   -31.7216 -31.7213 -31.7210 -31.7205 -31.7162 -31.7156 -31.7154 -31.7133
   -31.7132 -31.7125 -31.7093 -31.7039 -31.7003 -31.6973 -31.6951 -31.6854
   -31.6836 -31.6825 -31.6808 -31.6766 -31.6759 -31.6721 -31.6714 -31.6681
   -31.6669 -31.6604 -31.6590 -31.6566 -31.6543 -31.6524 -31.6499 -31.6490
   -31.6474 -31.6472 -31.6437 -31.6418 -31.6394 -31.6385 -31.6382 -31.6371
   -31.6329 -31.6299 -31.6282 -31.6224 -31.6176 -31.6168 -31.6147 -31.6100
   -31.6094 -31.6044 -31.6019 -31.5835 -31.5768 -31.5758 -31.5721 -31.5670
   -31.5640 -31.5618 -31.5612 -31.5601 -28.4196 -28.3772 -28.3611 -28.3321
   -28.3145 -28.3006 -28.2956 -28.2865 -28.2699 -28.2539 -28.2492 -28.2416
   -28.2380 -28.2323 -28.2296 -28.2254 -28.2195 -28.2139 -28.2064 -28.2034
   -28.1970 -28.1938 -28.1782 -28.1704 -28.1624 -28.1542 -28.1460 -28.1401
   -28.1365 -28.1231 -28.1178 -28.1049 -28.1029 -28.0824 -28.0686 -11.0273
   -11.0167 -10.9893 -10.9385 -10.8245 -10.7752 -10.7693 -10.7501 -10.7255
   -10.7172 -10.6945 -10.6717 -10.6321 -10.6077 -10.5871 -10.5770 -10.5279
   -10.5210 -10.5003 -10.4439 -10.4305 -10.4080 -10.3717 -10.3513 -10.3417
   -10.3078 -10.2966 -10.2783 -10.2599 -10.2485 -10.2295 -10.2099 -10.1986
   -10.1788 -10.1584 -10.1343 -10.1029 -10.0763 -10.0529 -10.0385 -10.0239
    -9.9849  -9.9799  -9.9719  -9.9296  -9.9131  -9.8887  -9.8767  -9.8549
    -9.8490  -9.8148  -9.8067  -9.7856  -9.7667  -9.7499  -9.7363  -9.7011
    -9.6856  -9.6679  -9.6513  -9.6301  -9.6175  -9.6018  -9.5981  -9.5891
    -9.5651  -9.5623  -9.5456  -9.5386  -9.5302  -9.5140  -9.5118  -9.4962
    -9.4812  -9.4629  -9.4549  -9.4455  -9.4425  -9.4310  -9.4140  -9.4107
    -9.3962  -9.3937  -9.3899  -9.3844  -9.3777  -9.3654  -9.3562  -9.3471
    -9.3364  -9.3284  -9.3195  -9.3140  -9.3066  -9.2933  -9.2845  -9.2789
    -9.2675  -9.2649  -9.2463  -9.2395  -9.2288  -9.2081  -9.2050  -9.1939
    -7.6576  -7.6030  -7.4395  -7.3624  -7.3289  -7.3101  -7.2870  -7.2697
    -7.2408  -7.2263  -7.1787  -7.1607  -7.1380  -7.1311  -7.1135  -7.0834
    -7.0436  -7.0353  -6.9929  -6.9841  -6.9662  -6.9523  -6.9112  -6.8893
    -6.8819  -6.8654  -6.8159  -6.8004  -6.7741  -6.7327  -6.7184  -6.6666
    -6.6647  -6.6489  -6.6278  -6.5926  -6.5884  -6.5596  -6.5433  -6.5215
    -6.5040  -6.4937  -6.4735  -6.4678  -6.4051  -6.3690  -6.3372  -6.3265
    -6.2957  -6.2795  -6.2519  -6.2382  -6.2362  -6.1667  -6.1532  -6.1241
    -6.1138  -6.0865  -6.0730  -6.0626  -5.9613  -5.8758  -5.8493  -5.7998
     4.3080   4.3384   4.4021   4.4686   4.5037   4.6866   4.7644   4.8000
     4.8189   4.8513   4.8663   4.8839   4.9040   4.9182   4.9748   4.9946
     5.0248   5.0448   5.0799   5.1452   5.1562   5.1963   5.2801   5.3133
     5.3317   5.3615   5.3822   5.4144   5.4657   5.4787   5.5186   5.5472
     5.5912   5.6083   5.6364   5.6713   5.6907   5.7113   5.7336   5.7479
     5.7847   5.8089   5.8272   5.8332   5.8446   5.8879   5.8927   5.9384
     5.9502   5.9633   5.9981   6.0136   6.0582   6.0784   6.0864   6.1132
     6.1412   6.1650   6.1685   6.2139   6.2262   6.2682   6.2730   6.3221
     6.3276   6.3347   6.3596   6.3800   6.4039   6.4220   6.4331   6.4432
     6.4607   6.4780   6.5121   6.5234   6.5302   6.5433   6.5719   6.5829
     6.6007   6.6071   6.6262   6.6418   6.6616   6.6679   6.6866   6.6904
     6.7088   6.7269   6.7319   6.7387   6.7473   6.7636   6.7776   6.7844
     6.7914   6.8087   6.8144   6.8172   6.8253   6.8424   6.8567   6.8755
     6.8881   6.9036   6.9068   6.9277   6.9349   6.9400   6.9540   6.9673
     6.9760   6.9886   7.0003   7.0079   7.0303   7.0390   7.0496   7.0603
     7.0672   7.0706   7.0847   7.0976   7.1077   7.1149   7.1227   7.1230
     7.1436   7.1531   7.1598   7.1767   7.1828   7.1952   7.2054   7.2173
     7.2320   7.2432   7.2478   7.2557   7.2656   7.2737   7.2852   7.2896
     7.3031   7.3080   7.3205   7.3373   7.3504   7.3602   7.3625   7.3759
     7.3820   7.3972   7.3977   7.4087   7.4172   7.4304   7.4376   7.4496
     7.4575   7.4729   7.4861   7.4983   7.5070   7.5152   7.5291   7.5367
     7.5601   7.5650   7.5832   7.5874   7.6023   7.6236   7.6370   7.6502
     7.6552   7.6837   7.7072   7.7100   7.7191   7.7206   7.7474   7.7667
     7.7724   7.7965   7.8166   7.8321   7.9145   7.9249   7.9736   7.9762
    12.8459  12.9012  12.9625  12.9763  13.2878  13.5060  13.5249  13.6046
    13.6239  13.7345  13.8323  13.9318  13.9736  14.0597  14.0957  14.1541
    14.1718  14.2647  14.3642  14.3814  14.3988  14.4619  14.5072  14.5486
    14.5979  14.6147  14.6229  14.6785  14.7678  14.8025  14.8342  14.8682
    14.9089  14.9168  14.9589  14.9928  14.9972  15.0278  15.0651  15.1053
    15.1411  15.1548  15.1698  15.1945  15.2375  15.2652  15.2670  15.2964
    15.3284  15.3572  15.3859  15.4132  15.4467  15.4754  15.4987  15.5401
    15.5718  15.5933  15.6029  15.6507  15.6854  15.7173  15.7231  15.7553
    15.7944  15.8176  15.8507  15.8740  15.9100  15.9313  15.9715  15.9932
    16.0288  16.0362  16.0584  16.0931  16.1272  16.1612  16.1830  16.2132
    16.2531  16.2634  16.2951  16.3166  16.3733  16.3803  16.4112  16.4357
    16.4615  16.4675  16.5158  16.5269  16.5350  16.5720  16.5918  16.5972
    16.6144  16.6545  16.6693  16.6771  16.6999  16.7250

     occupation numbers 
     1.0000   1.0000   1.0000   1.0000   1.0000   1.0000   1.0000   1.0000
     1.0000   1.0000   1.0000   1.0000   1.0000   1.0000   1.0000   1.0000
     1.0000   1.0000   1.0000   1.0000   1.0000   1.0000   1.0000   1.0000
     1.0000   1.0000   1.0000   1.0000   1.0000   1.0000   1.0000   1.0000
     1.0000   1.0000   1.0000   1.0000   1.0000   1.0000   1.0000   1.0000
     1.0000   1.0000   1.0000   1.0000   1.0000   1.0000   1.0000   1.0000
     1.0000   1.0000   1.0000   1.0000   1.0000   1.0000   1.0000   1.0000
     1.0000   1.0000   1.0000   1.0000   1.0000   1.0000   1.0000   1.0000
     1.0000   1.0000   1.0000   1.0000   1.0000   1.0000   1.0000   1.0000
     1.0000   1.0000   1.0000   1.0000   1.0000   1.0000   1.0000   1.0000
     1.0000   1.0000   1.0000   1.0000   1.0000   1.0000   1.0000   1.0000
     1.0000   1.0000   1.0000   1.0000   1.0000   1.0000   1.0000   1.0000
     1.0000   1.0000   1.0000   1.0000   1.0000   1.0000   1.0000   1.0000
     1.0000   1.0000   1.0000   1.0000   1.0000   1.0000   1.0000   1.0000
     1.0000   1.0000   1.0000   1.0000   1.0000   1.0000   1.0000   1.0000
     1.0000   1.0000   1.0000   1.0000   1.0000   1.0000   1.0000   1.0000
     1.0000   1.0000   1.0000   1.0000   1.0000   1.0000   1.0000   1.0000
     1.0000   1.0000   1.0000   1.0000   1.0000   1.0000   1.0000   1.0000
     1.0000   1.0000   1.0000   1.0000   1.0000   1.0000   1.0000   1.0000
     1.0000   1.0000   1.0000   1.0000   1.0000   1.0000   1.0000   1.0000
     1.0000   1.0000   1.0000   1.0000   1.0000   1.0000   1.0000   1.0000
     1.0000   1.0000   1.0000   1.0000   1.0000   1.0000   1.0000   1.0000
     1.0000   1.0000   1.0000   1.0000   1.0000   1.0000   1.0000   1.0000
     1.0000   1.0000   1.0000   1.0000   1.0000   1.0000   1.0000   1.0000
     1.0000   1.0000   1.0000   1.0000   1.0000   1.0000   1.0000   1.0000
     1.0000   1.0000   1.0000   1.0000   1.0000   1.0000   1.0000   1.0000
     1.0000   1.0000   1.0000   1.0000   1.0000   1.0000   1.0000   1.0000
     1.0000   1.0000   1.0000   1.0000   1.0000   1.0000   1.0000   1.0000
     1.0000   1.0000   1.0000   1.0000   1.0000   1.0000   1.0000   1.0000
     1.0000   1.0000   1.0000   1.0000   1.0000   1.0000   1.0000   1.0000
     1.0000   1.0000   1.0000   1.0000   1.0000   1.0000   1.0000   1.0000
     1.0000   1.0000   1.0000   1.0000   1.0000   1.0000   1.0000   1.0000
     1.0000   1.0000   1.0000   1.0000   1.0000   1.0000   1.0000   1.0000
     1.0000   1.0000   1.0000   1.0000   1.0000   1.0000   1.0000   1.0000
     1.0000   1.0000   1.0000   1.0000   1.0000   1.0000   1.0000   1.0000
     1.0000   1.0000   1.0000   1.0000   1.0000   1.0000   1.0000   1.0000
     1.0000   1.0000   1.0000   1.0000   1.0000   1.0000   1.0000   1.0000
     1.0000   1.0000   1.0000   1.0000   1.0000   1.0000   1.0000   1.0000
     1.0000   1.0000   1.0000   1.0000   1.0000   1.0000   1.0000   1.0000
     1.0000   1.0000   1.0000   1.0000   1.0000   1.0000   1.0000   1.0000
     1.0000   1.0000   1.0000   1.0000   1.0000   1.0000   1.0000   1.0000
     1.0000   1.0000   1.0000   1.0000   1.0000   1.0000   1.0000   1.0000
     1.0000   1.0000   1.0000   1.0000   1.0000   1.0000   1.0000   1.0000
     1.0000   1.0000   1.0000   1.0000   1.0000   1.0000   1.0000   1.0000
     1.0000   1.0000   1.0000   1.0000   1.0000   1.0000   1.0000   1.0000
     1.0000   1.0000   1.0000   1.0000   1.0000   1.0000   1.0000   1.0000
     1.0000   1.0000   1.0000   1.0000   1.0000   1.0000   1.0000   1.0000
     1.0000   1.0000   1.0000   1.0000   1.0000   1.0000   1.0000   1.0000
     1.0000   1.0000   1.0000   1.0000   1.0000   1.0000   1.0000   1.0000
     1.0000   1.0000   1.0000   1.0000   1.0000   1.0000   1.0000   1.0000
     1.0000   1.0000   1.0000   1.0000   1.0000   1.0000   1.0000   1.0000
     1.0000   1.0000   1.0000   1.0000   1.0000   1.0000   1.0000   1.0000
     1.0000   1.0000   1.0000   1.0000   1.0000   1.0000   1.0000   1.0000
     1.0000   1.0000   1.0000   1.0000   1.0000   1.0000   1.0000   1.0000
     1.0000   1.0000   1.0000   1.0000   1.0000   1.0000   1.0000   1.0000
     1.0000   1.0000   1.0000   1.0000   1.0000   1.0000   1.0000   1.0000
     1.0000   1.0000   1.0000   1.0000   1.0000   1.0000   1.0000   1.0000
     1.0000   1.0000   1.0000   1.0000   1.0000   1.0000   1.0000   1.0000
     1.0000   1.0000   1.0000   1.0000   1.0000   1.0000   1.0000   1.0000
     1.0000   1.0000   1.0000   1.0000   1.0000   1.0000   1.0000   1.0000
     1.0000   1.0000   1.0000   1.0000   1.0000   1.0000   1.0000   1.0000
     1.0000   1.0000   1.0000   1.0000   1.0000   1.0000   1.0000   1.0000
     1.0000   1.0000   1.0000   1.0000   1.0000   1.0000   1.0000   1.0000
     1.0000   1.0000   1.0000   1.0000   1.0000   1.0000   1.0000   1.0000
     0.0000   0.0000   0.0000   0.0000   0.0000   0.0000   0.0000   0.0000
     0.0000   0.0000   0.0000   0.0000   0.0000   0.0000   0.0000   0.0000
     0.0000   0.0000   0.0000   0.0000   0.0000   0.0000   0.0000   0.0000
     0.0000   0.0000   0.0000   0.0000   0.0000   0.0000   0.0000   0.0000
     0.0000   0.0000   0.0000   0.0000   0.0000   0.0000   0.0000   0.0000
     0.0000   0.0000   0.0000   0.0000   0.0000   0.0000   0.0000   0.0000
     0.0000   0.0000   0.0000   0.0000   0.0000   0.0000   0.0000   0.0000
     0.0000   0.0000   0.0000   0.0000   0.0000   0.0000   0.0000   0.0000
     0.0000   0.0000   0.0000   0.0000   0.0000   0.0000   0.0000   0.0000
     0.0000   0.0000   0.0000   0.0000   0.0000   0.0000   0.0000   0.0000
     0.0000   0.0000   0.0000   0.0000   0.0000   0.0000   0.0000   0.0000
     0.0000   0.0000   0.0000   0.0000   0.0000   0.0000   0.0000   0.0000
     0.0000   0.0000   0.0000   0.0000   0.0000   0.0000

          k =-0.7071 0.0000 0.0000 ( 41986 PWs)   bands (ev):

   -64.8128 -64.7976 -64.7802 -64.7790 -64.7690 -64.7671 -64.7612 -64.7601
   -64.7584 -64.7570 -64.7558 -64.7528 -64.7454 -64.7321 -64.7179 -64.7158
   -64.7079 -64.6963 -64.6904 -64.6861 -64.6805 -64.6735 -64.6724 -64.6587
   -64.6464 -64.6464 -64.6147 -64.6033 -64.5998 -31.7815 -31.7765 -31.7736
   -31.7645 -31.7631 -31.7619 -31.7491 -31.7467 -31.7455 -31.7443 -31.7407
   -31.7379 -31.7370 -31.7356 -31.7343 -31.7320 -31.7301 -31.7299 -31.7291
   -31.7285 -31.7277 -31.7274 -31.7246 -31.7244 -31.7242 -31.7225 -31.7223
   -31.7216 -31.7214 -31.7210 -31.7204 -31.7162 -31.7156 -31.7154 -31.7133
   -31.7132 -31.7125 -31.7092 -31.7039 -31.7003 -31.6973 -31.6951 -31.6854
   -31.6836 -31.6825 -31.6808 -31.6766 -31.6759 -31.6721 -31.6714 -31.6681
   -31.6669 -31.6604 -31.6590 -31.6566 -31.6543 -31.6524 -31.6499 -31.6490
   -31.6474 -31.6472 -31.6437 -31.6418 -31.6394 -31.6385 -31.6382 -31.6371
   -31.6329 -31.6299 -31.6282 -31.6224 -31.6175 -31.6168 -31.6147 -31.6100
   -31.6094 -31.6044 -31.6019 -31.5835 -31.5767 -31.5757 -31.5721 -31.5670
   -31.5641 -31.5618 -31.5612 -31.5601 -28.4090 -28.3957 -28.3640 -28.3183
   -28.3128 -28.2991 -28.2927 -28.2891 -28.2693 -28.2609 -28.2479 -28.2439
   -28.2411 -28.2325 -28.2312 -28.2243 -28.2166 -28.2146 -28.2062 -28.2009
   -28.1939 -28.1932 -28.1824 -28.1691 -28.1650 -28.1512 -28.1468 -28.1398
   -28.1364 -28.1240 -28.1177 -28.1049 -28.1028 -28.0823 -28.0685 -10.9727
   -10.9557 -10.9261 -10.8990 -10.8943 -10.8830 -10.8593 -10.8335 -10.7246
   -10.7088 -10.6677 -10.6641 -10.6543 -10.6126 -10.5915 -10.5318 -10.5171
   -10.5142 -10.4803 -10.4555 -10.4331 -10.3909 -10.3806 -10.3650 -10.3506
   -10.3429 -10.3103 -10.2774 -10.2617 -10.2572 -10.2421 -10.2188 -10.1717
   -10.1690 -10.1356 -10.1019 -10.0848 -10.0546 -10.0356 -10.0213  -9.9930
    -9.9858  -9.9538  -9.9442  -9.9251  -9.9086  -9.8910  -9.8744  -9.8663
    -9.8473  -9.8136  -9.7975  -9.7851  -9.7780  -9.7557  -9.7166  -9.6967
    -9.6791  -9.6683  -9.6663  -9.6332  -9.6237  -9.6075  -9.5985  -9.5862
    -9.5771  -9.5635  -9.5568  -9.5331  -9.5279  -9.5154  -9.5036  -9.4929
    -9.4829  -9.4664  -9.4587  -9.4411  -9.4354  -9.4235  -9.4180  -9.4084
    -9.4070  -9.3971  -9.3913  -9.3778  -9.3730  -9.3664  -9.3536  -9.3517
    -9.3432  -9.3323  -9.3165  -9.3142  -9.3097  -9.3040  -9.2962  -9.2904
    -9.2823  -9.2705  -9.2541  -9.2521  -9.2404  -9.2314  -9.2174  -9.1971
    -7.6009  -7.5456  -7.3850  -7.3698  -7.3402  -7.2981  -7.2882  -7.2705
    -7.2461  -7.2214  -7.2024  -7.1825  -7.1559  -7.1134  -7.0735  -7.0580
    -7.0320  -7.0104  -6.9972  -6.9898  -6.9791  -6.9704  -6.9448  -6.9180
    -6.9049  -6.8935  -6.8602  -6.8257  -6.7862  -6.7586  -6.7359  -6.7195
    -6.6628  -6.6370  -6.6098  -6.5916  -6.5729  -6.5605  -6.5253  -6.5185
    -6.4947  -6.4850  -6.4649  -6.4391  -6.3978  -6.3877  -6.3646  -6.3432
    -6.3029  -6.2799  -6.2580  -6.2225  -6.2014  -6.1821  -6.1719  -6.1321
    -6.0754  -6.0123  -6.0044  -6.0026  -5.9762  -5.9153  -5.9039  -5.8368
     4.4005   4.4329   4.4558   4.4629   4.4833   4.4876   4.6967   4.7711
     4.8139   4.8654   4.8902   4.9076   4.9209   4.9670   4.9864   4.9924
     5.0342   5.0596   5.1029   5.1163   5.2019   5.2356   5.2440   5.2698
     5.2976   5.3615   5.4114   5.4253   5.4637   5.4954   5.5014   5.5391
     5.5613   5.5707   5.6096   5.6245   5.6495   5.6705   5.6927   5.7202
     5.7373   5.7566   5.7990   5.8083   5.8417   5.8605   5.8945   5.9173
     5.9389   5.9497   5.9616   6.0087   6.0223   6.0425   6.0508   6.1025
     6.1249   6.1580   6.1760   6.2094   6.2215   6.2554   6.2801   6.3294
     6.3630   6.3718   6.3838   6.4203   6.4566   6.4854   6.5049   6.5223
     6.5296   6.5510   6.5623   6.5746   6.5897   6.6020   6.6103   6.6169
     6.6294   6.6356   6.6579   6.6616   6.6679   6.7004   6.7064   6.7172
     6.7194   6.7345   6.7351   6.7582   6.7616   6.7728   6.7761   6.7859
     6.8021   6.8107   6.8145   6.8273   6.8357   6.8574   6.8636   6.8796
     6.8887   6.9037   6.9104   6.9164   6.9392   6.9568   6.9605   6.9692
     6.9811   6.9906   6.9981   7.0149   7.0209   7.0316   7.0483   7.0544
     7.0686   7.0830   7.0905   7.0985   7.1031   7.1165   7.1261   7.1361
     7.1392   7.1564   7.1661   7.1740   7.1841   7.1900   7.2060   7.2169
     7.2319   7.2366   7.2518   7.2609   7.2709   7.2736   7.2747   7.2923
     7.3060   7.3160   7.3236   7.3325   7.3390   7.3442   7.3571   7.3671
     7.3817   7.3952   7.4019   7.4063   7.4195   7.4262   7.4367   7.4549
     7.4565   7.4605   7.4705   7.4763   7.4798   7.4854   7.5054   7.5138
     7.5230   7.5290   7.5428   7.5641   7.5733   7.5854   7.5984   7.6173
     7.6323   7.6517   7.6613   7.6652   7.6711   7.6892   7.7073   7.7336
     7.7397   7.7779   7.8169   7.8386   7.9568   7.9686   8.0209   8.0227
    12.9263  13.0794  13.1264  13.1726  13.2860  13.3132  13.3812  13.3894
    13.7503  13.8296  13.8307  13.8707  14.0073  14.0479  14.1009  14.1451
    14.1567  14.1943  14.2169  14.2387  14.2514  14.4124  14.4697  14.4888
    14.5224  14.6167  14.6583  14.6661  14.7575  14.7779  14.8114  14.8723
    14.9267  14.9353  14.9468  14.9610  14.9897  15.0365  15.1090  15.1319
    15.2025  15.2344  15.2673  15.3015  15.3179  15.3474  15.3592  15.3870
    15.4105  15.4437  15.4808  15.4991  15.5109  15.5280  15.5368  15.5728
    15.6316  15.6640  15.6705  15.7026  15.7197  15.7379  15.7468  15.7882
    15.8014  15.8234  15.8241  15.8502  15.9078  15.9251  15.9258  15.9460
    15.9714  15.9872  16.0024  16.0263  16.0488  16.0732  16.1086  16.1229
    16.1462  16.1873  16.2080  16.2535  16.2621  16.2906  16.3107  16.3429
    16.3648  16.3990  16.4325  16.4752  16.5050  16.5419  16.5537  16.5711
    16.6272  16.6345  16.6689  16.7027  16.7216  16.7356

     occupation numbers 
     1.0000   1.0000   1.0000   1.0000   1.0000   1.0000   1.0000   1.0000
     1.0000   1.0000   1.0000   1.0000   1.0000   1.0000   1.0000   1.0000
     1.0000   1.0000   1.0000   1.0000   1.0000   1.0000   1.0000   1.0000
     1.0000   1.0000   1.0000   1.0000   1.0000   1.0000   1.0000   1.0000
     1.0000   1.0000   1.0000   1.0000   1.0000   1.0000   1.0000   1.0000
     1.0000   1.0000   1.0000   1.0000   1.0000   1.0000   1.0000   1.0000
     1.0000   1.0000   1.0000   1.0000   1.0000   1.0000   1.0000   1.0000
     1.0000   1.0000   1.0000   1.0000   1.0000   1.0000   1.0000   1.0000
     1.0000   1.0000   1.0000   1.0000   1.0000   1.0000   1.0000   1.0000
     1.0000   1.0000   1.0000   1.0000   1.0000   1.0000   1.0000   1.0000
     1.0000   1.0000   1.0000   1.0000   1.0000   1.0000   1.0000   1.0000
     1.0000   1.0000   1.0000   1.0000   1.0000   1.0000   1.0000   1.0000
     1.0000   1.0000   1.0000   1.0000   1.0000   1.0000   1.0000   1.0000
     1.0000   1.0000   1.0000   1.0000   1.0000   1.0000   1.0000   1.0000
     1.0000   1.0000   1.0000   1.0000   1.0000   1.0000   1.0000   1.0000
     1.0000   1.0000   1.0000   1.0000   1.0000   1.0000   1.0000   1.0000
     1.0000   1.0000   1.0000   1.0000   1.0000   1.0000   1.0000   1.0000
     1.0000   1.0000   1.0000   1.0000   1.0000   1.0000   1.0000   1.0000
     1.0000   1.0000   1.0000   1.0000   1.0000   1.0000   1.0000   1.0000
     1.0000   1.0000   1.0000   1.0000   1.0000   1.0000   1.0000   1.0000
     1.0000   1.0000   1.0000   1.0000   1.0000   1.0000   1.0000   1.0000
     1.0000   1.0000   1.0000   1.0000   1.0000   1.0000   1.0000   1.0000
     1.0000   1.0000   1.0000   1.0000   1.0000   1.0000   1.0000   1.0000
     1.0000   1.0000   1.0000   1.0000   1.0000   1.0000   1.0000   1.0000
     1.0000   1.0000   1.0000   1.0000   1.0000   1.0000   1.0000   1.0000
     1.0000   1.0000   1.0000   1.0000   1.0000   1.0000   1.0000   1.0000
     1.0000   1.0000   1.0000   1.0000   1.0000   1.0000   1.0000   1.0000
     1.0000   1.0000   1.0000   1.0000   1.0000   1.0000   1.0000   1.0000
     1.0000   1.0000   1.0000   1.0000   1.0000   1.0000   1.0000   1.0000
     1.0000   1.0000   1.0000   1.0000   1.0000   1.0000   1.0000   1.0000
     1.0000   1.0000   1.0000   1.0000   1.0000   1.0000   1.0000   1.0000
     1.0000   1.0000   1.0000   1.0000   1.0000   1.0000   1.0000   1.0000
     1.0000   1.0000   1.0000   1.0000   1.0000   1.0000   1.0000   1.0000
     1.0000   1.0000   1.0000   1.0000   1.0000   1.0000   1.0000   1.0000
     1.0000   1.0000   1.0000   1.0000   1.0000   1.0000   1.0000   1.0000
     1.0000   1.0000   1.0000   1.0000   1.0000   1.0000   1.0000   1.0000
     1.0000   1.0000   1.0000   1.0000   1.0000   1.0000   1.0000   1.0000
     1.0000   1.0000   1.0000   1.0000   1.0000   1.0000   1.0000   1.0000
     1.0000   1.0000   1.0000   1.0000   1.0000   1.0000   1.0000   1.0000
     1.0000   1.0000   1.0000   1.0000   1.0000   1.0000   1.0000   1.0000
     1.0000   1.0000   1.0000   1.0000   1.0000   1.0000   1.0000   1.0000
     1.0000   1.0000   1.0000   1.0000   1.0000   1.0000   1.0000   1.0000
     1.0000   1.0000   1.0000   1.0000   1.0000   1.0000   1.0000   1.0000
     1.0000   1.0000   1.0000   1.0000   1.0000   1.0000   1.0000   1.0000
     1.0000   1.0000   1.0000   1.0000   1.0000   1.0000   1.0000   1.0000
     1.0000   1.0000   1.0000   1.0000   1.0000   1.0000   1.0000   1.0000
     1.0000   1.0000   1.0000   1.0000   1.0000   1.0000   1.0000   1.0000
     1.0000   1.0000   1.0000   1.0000   1.0000   1.0000   1.0000   1.0000
     1.0000   1.0000   1.0000   1.0000   1.0000   1.0000   1.0000   1.0000
     1.0000   1.0000   1.0000   1.0000   1.0000   1.0000   1.0000   1.0000
     1.0000   1.0000   1.0000   1.0000   1.0000   1.0000   1.0000   1.0000
     1.0000   1.0000   1.0000   1.0000   1.0000   1.0000   1.0000   1.0000
     1.0000   1.0000   1.0000   1.0000   1.0000   1.0000   1.0000   1.0000
     1.0000   1.0000   1.0000   1.0000   1.0000   1.0000   1.0000   1.0000
     1.0000   1.0000   1.0000   1.0000   1.0000   1.0000   1.0000   1.0000
     1.0000   1.0000   1.0000   1.0000   1.0000   1.0000   1.0000   1.0000
     1.0000   1.0000   1.0000   1.0000   1.0000   1.0000   1.0000   1.0000
     1.0000   1.0000   1.0000   1.0000   1.0000   1.0000   1.0000   1.0000
     1.0000   1.0000   1.0000   1.0000   1.0000   1.0000   1.0000   1.0000
     1.0000   1.0000   1.0000   1.0000   1.0000   1.0000   1.0000   1.0000
     1.0000   1.0000   1.0000   1.0000   1.0000   1.0000   1.0000   1.0000
     1.0000   1.0000   1.0000   1.0000   1.0000   1.0000   1.0000   1.0000
     1.0000   1.0000   1.0000   1.0000   1.0000   1.0000   1.0000   1.0000
     1.0000   1.0000   1.0000   1.0000   1.0000   1.0000   1.0000   1.0000
     0.0000   0.0000   0.0000   0.0000   0.0000   0.0000   0.0000   0.0000
     0.0000   0.0000   0.0000   0.0000   0.0000   0.0000   0.0000   0.0000
     0.0000   0.0000   0.0000   0.0000   0.0000   0.0000   0.0000   0.0000
     0.0000   0.0000   0.0000   0.0000   0.0000   0.0000   0.0000   0.0000
     0.0000   0.0000   0.0000   0.0000   0.0000   0.0000   0.0000   0.0000
     0.0000   0.0000   0.0000   0.0000   0.0000   0.0000   0.0000   0.0000
     0.0000   0.0000   0.0000   0.0000   0.0000   0.0000   0.0000   0.0000
     0.0000   0.0000   0.0000   0.0000   0.0000   0.0000   0.0000   0.0000
     0.0000   0.0000   0.0000   0.0000   0.0000   0.0000   0.0000   0.0000
     0.0000   0.0000   0.0000   0.0000   0.0000   0.0000   0.0000   0.0000
     0.0000   0.0000   0.0000   0.0000   0.0000   0.0000   0.0000   0.0000
     0.0000   0.0000   0.0000   0.0000   0.0000   0.0000   0.0000   0.0000
     0.0000   0.0000   0.0000   0.0000   0.0000   0.0000

          k = 0.3536 0.3536 0.3536 ( 41890 PWs)   bands (ev):

   -64.8128 -64.7976 -64.7802 -64.7790 -64.7690 -64.7671 -64.7612 -64.7601
   -64.7584 -64.7570 -64.7558 -64.7528 -64.7454 -64.7321 -64.7179 -64.7158
   -64.7079 -64.6963 -64.6904 -64.6861 -64.6805 -64.6735 -64.6724 -64.6587
   -64.6464 -64.6464 -64.6147 -64.6033 -64.5998 -31.7815 -31.7765 -31.7736
   -31.7645 -31.7631 -31.7619 -31.7491 -31.7467 -31.7455 -31.7443 -31.7407
   -31.7379 -31.7370 -31.7356 -31.7343 -31.7320 -31.7301 -31.7299 -31.7291
   -31.7285 -31.7277 -31.7274 -31.7246 -31.7244 -31.7242 -31.7225 -31.7223
   -31.7216 -31.7214 -31.7209 -31.7204 -31.7162 -31.7156 -31.7154 -31.7133
   -31.7132 -31.7125 -31.7092 -31.7039 -31.7003 -31.6973 -31.6951 -31.6854
   -31.6836 -31.6825 -31.6808 -31.6766 -31.6759 -31.6721 -31.6714 -31.6681
   -31.6669 -31.6604 -31.6590 -31.6566 -31.6543 -31.6524 -31.6499 -31.6490
   -31.6474 -31.6472 -31.6437 -31.6418 -31.6394 -31.6385 -31.6382 -31.6371
   -31.6329 -31.6299 -31.6282 -31.6224 -31.6175 -31.6168 -31.6147 -31.6100
   -31.6094 -31.6044 -31.6019 -31.5835 -31.5767 -31.5757 -31.5722 -31.5670
   -31.5640 -31.5618 -31.5612 -31.5601 -28.4120 -28.3930 -28.3597 -28.3233
   -28.3125 -28.2993 -28.2940 -28.2918 -28.2673 -28.2589 -28.2494 -28.2430
   -28.2394 -28.2310 -28.2289 -28.2229 -28.2170 -28.2160 -28.2077 -28.2037
   -28.1993 -28.1891 -28.1808 -28.1702 -28.1634 -28.1533 -28.1458 -28.1383
   -28.1369 -28.1241 -28.1173 -28.1049 -28.1031 -28.0825 -28.0685 -10.9773
   -10.9543 -10.9370 -10.9063 -10.8890 -10.8746 -10.8551 -10.8475 -10.7059
   -10.7044 -10.6674 -10.6580 -10.6275 -10.6042 -10.5814 -10.5501 -10.5389
   -10.5130 -10.4994 -10.4621 -10.4376 -10.4077 -10.3998 -10.3426 -10.3229
   -10.3130 -10.2913 -10.2753 -10.2667 -10.2610 -10.2231 -10.1986 -10.1797
   -10.1674 -10.1360 -10.1224 -10.1061 -10.0788 -10.0509 -10.0248  -9.9930
    -9.9838  -9.9810  -9.9489  -9.9385  -9.9264  -9.9054  -9.8834  -9.8715
    -9.8635  -9.8277  -9.8094  -9.7903  -9.7565  -9.7394  -9.7252  -9.7037
    -9.6808  -9.6479  -9.6417  -9.6212  -9.6120  -9.6049  -9.5903  -9.5746
    -9.5584  -9.5499  -9.5420  -9.5357  -9.5186  -9.5108  -9.4941  -9.4805
    -9.4681  -9.4603  -9.4506  -9.4463  -9.4459  -9.4314  -9.4183  -9.4054
    -9.3956  -9.3905  -9.3840  -9.3806  -9.3772  -9.3745  -9.3683  -9.3496
    -9.3361  -9.3310  -9.3270  -9.3162  -9.3067  -9.3027  -9.2958  -9.2905
    -9.2775  -9.2728  -9.2636  -9.2600  -9.2516  -9.2394  -9.2182  -9.2010
    -7.6533  -7.6253  -7.4011  -7.3655  -7.3417  -7.2847  -7.2648  -7.2259
    -7.1974  -7.1847  -7.1741  -7.1362  -7.1250  -7.1140  -7.1008  -7.0887
    -7.0625  -7.0473  -7.0246  -7.0127  -6.9935  -6.9788  -6.9479  -6.9156
    -6.8829  -6.8513  -6.8421  -6.7896  -6.7713  -6.7267  -6.7209  -6.6821
    -6.6470  -6.6380  -6.6332  -6.6089  -6.6082  -6.5852  -6.5780  -6.5461
    -6.5042  -6.4874  -6.4652  -6.4544  -6.4365  -6.4067  -6.3682  -6.3201
    -6.2856  -6.2594  -6.2477  -6.2247  -6.2009  -6.1806  -6.1578  -6.1448
    -6.0510  -6.0117  -6.0038  -5.9952  -5.9516  -5.9324  -5.8934  -5.8637
     4.3394   4.3686   4.4583   4.4770   4.5085   4.5372   4.6160   4.7594
     4.7750   4.8263   4.8628   4.9253   4.9329   4.9598   5.0043   5.0421
[...]
     atom   76 type  3   force =   0.00000000E+00  0.00000000E+00  0.00000000E+00
     atom   77 type  2   force =   0.00000000E+00  0.00000000E+00  0.00000000E+00
     atom   78 type  3   force =   0.00000000E+00  0.00000000E+00  0.00000000E+00
     atom   79 type  1   force =   0.00000000E+00  0.00000000E+00  0.00000000E+00
     atom   80 type  3   force =   0.00000000E+00  0.00000000E+00  0.00000000E+00
     atom   81 type  2   force =   0.00000000E+00  0.00000000E+00  0.00000000E+00
     atom   82 type  3   force =   0.00000000E+00  0.00000000E+00  0.00000000E+00
     atom   83 type  1   force =   0.00000000E+00  0.00000000E+00  0.00000000E+00
     atom   84 type  3   force =   0.00000000E+00  0.00000000E+00  0.00000000E+00
     atom   85 type  1   force =   0.00000000E+00  0.00000000E+00  0.00000000E+00
     atom   86 type  3   force =   0.00000000E+00  0.00000000E+00  0.00000000E+00
     atom   87 type  1   force =   0.00000000E+00  0.00000000E+00  0.00000000E+00
     atom   88 type  3   force =   0.00000000E+00  0.00000000E+00  0.00000000E+00
     atom   89 type  1   force =   0.00000000E+00  0.00000000E+00  0.00000000E+00
     atom   90 type  3   force =   0.00000000E+00  0.00000000E+00  0.00000000E+00
     atom   91 type  2   force =   0.00000000E+00  0.00000000E+00  0.00000000E+00
     atom   92 type  3   force =   0.00000000E+00  0.00000000E+00  0.00000000E+00
     atom   93 type  2   force =   0.00000000E+00  0.00000000E+00  0.00000000E+00
     atom   94 type  3   force =   0.00000000E+00  0.00000000E+00  0.00000000E+00
     atom   95 type  1   force =   0.00000000E+00  0.00000000E+00  0.00000000E+00
     atom   96 type  3   force =   0.00000000E+00  0.00000000E+00  0.00000000E+00
     atom   97 type  1   force =   0.00000000E+00  0.00000000E+00  0.00000000E+00
     atom   98 type  3   force =   0.00000000E+00  0.00000000E+00  0.00000000E+00
     atom   99 type  2   force =   0.00000000E+00  0.00000000E+00  0.00000000E+00
     atom  100 type  3   force =   0.00000000E+00  0.00000000E+00  0.00000000E+00
     atom  101 type  2   force =   0.00000000E+00  0.00000000E+00  0.00000000E+00
     atom  102 type  3   force =   0.00000000E+00  0.00000000E+00  0.00000000E+00
     atom  103 type  1   force =   0.00000000E+00  0.00000000E+00  0.00000000E+00
     atom  104 type  3   force =   0.00000000E+00  0.00000000E+00  0.00000000E+00
     atom  105 type  2   force =   0.00000000E+00  0.00000000E+00  0.00000000E+00
     atom  106 type  3   force =   0.00000000E+00  0.00000000E+00  0.00000000E+00
     atom  107 type  2   force =   0.00000000E+00  0.00000000E+00  0.00000000E+00
     atom  108 type  3   force =   0.00000000E+00  0.00000000E+00  0.00000000E+00
     atom  109 type  2   force =   0.00000000E+00  0.00000000E+00  0.00000000E+00
     atom  110 type  3   force =   0.00000000E+00  0.00000000E+00  0.00000000E+00
     atom  111 type  1   force =   0.00000000E+00  0.00000000E+00  0.00000000E+00
     atom  112 type  3   force =   0.00000000E+00  0.00000000E+00  0.00000000E+00
     atom  113 type  1   force =   0.00000000E+00  0.00000000E+00  0.00000000E+00
     atom  114 type  3   force =   0.00000000E+00  0.00000000E+00  0.00000000E+00
     atom  115 type  1   force =   0.00000000E+00  0.00000000E+00  0.00000000E+00
     atom  116 type  3   force =   0.00000000E+00  0.00000000E+00  0.00000000E+00
     atom  117 type  1   force =   0.00000000E+00  0.00000000E+00  0.00000000E+00
     atom  118 type  3   force =   0.00000000E+00  0.00000000E+00  0.00000000E+00
     atom  119 type  1   force =   0.00000000E+00  0.00000000E+00  0.00000000E+00
     atom  120 type  3   force =   0.00000000E+00  0.00000000E+00  0.00000000E+00
     atom  121 type  1   force =   0.00000000E+00  0.00000000E+00  0.00000000E+00
     atom  122 type  3   force =   0.00000000E+00  0.00000000E+00  0.00000000E+00
     atom  123 type  2   force =   0.00000000E+00  0.00000000E+00  0.00000000E+00
     atom  124 type  3   force =   0.00000000E+00  0.00000000E+00  0.00000000E+00
     atom  125 type  1   force =   0.00000000E+00  0.00000000E+00  0.00000000E+00
     atom  126 type  3   force =   0.00000000E+00  0.00000000E+00  0.00000000E+00
     atom  127 type  1   force =   0.00000000E+00  0.00000000E+00  0.00000000E+00
     atom  128 type  3   force =   0.00000000E+00  0.00000000E+00  0.00000000E+00
     The SCF correction term to forces
     atom    1 type  1   force =  -0.19833448E-05  0.10306651E-05  0.20125632E-05
     atom    2 type  3   force =  -0.49553957E-06  0.17006828E-05 -0.12429231E-05
     atom    3 type  2   force =  -0.36355936E-06  0.47293641E-05  0.25537443E-05
     atom    4 type  3   force =  -0.14768663E-05  0.11817251E-05 -0.10816173E-06
     atom    5 type  2   force =  -0.56784195E-05  0.53424210E-06  0.31985923E-05
     atom    6 type  3   force =  -0.17286282E-05  0.80344330E-06  0.20459972E-05
     atom    7 type  1   force =  -0.19327322E-05  0.25068219E-05  0.41753750E-06
     atom    8 type  3   force =  -0.28778015E-06  0.34432969E-06 -0.93281365E-07
     atom    9 type  1   force =  -0.14602891E-05  0.32029204E-05  0.79237740E-07
     atom   10 type  3   force =  -0.87425183E-06  0.20185307E-05 -0.12280214E-05
     atom   11 type  1   force =  -0.23473047E-05  0.22601458E-05 -0.83416157E-06
     atom   12 type  3   force =  -0.92561369E-06  0.14911648E-05  0.43138536E-06
     atom   13 type  2   force =  -0.25306255E-05 -0.17678763E-06  0.19395782E-05
     atom   14 type  3   force =  -0.23157597E-05 -0.74571557E-06  0.12984995E-05
     atom   15 type  1   force =  -0.13197473E-05  0.77471240E-06  0.24704262E-05
     atom   16 type  3   force =  -0.96612606E-07  0.13766670E-05 -0.39751384E-06
     atom   17 type  2   force =  -0.15072515E-05  0.19562880E-05 -0.46299409E-07
     atom   18 type  3   force =   0.11410979E-05  0.14991209E-05  0.13944568E-05
     atom   19 type  2   force =   0.57157044E-06  0.40803626E-05 -0.29305963E-06
     atom   20 type  3   force =   0.30503234E-06  0.84865200E-06  0.59050411E-06
     atom   21 type  1   force =   0.11317792E-05  0.77068870E-06  0.75721295E-06
     atom   22 type  3   force =  -0.23224676E-05 -0.13741365E-05  0.26065876E-05
     atom   23 type  1   force =  -0.29158613E-05 -0.19379869E-05  0.15515413E-06
     atom   24 type  3   force =  -0.24604707E-06  0.20774083E-06  0.18336113E-05
     atom   25 type  1   force =  -0.14542884E-05 -0.93585615E-07  0.46010259E-05
     atom   26 type  3   force =   0.11140254E-05  0.14342065E-05  0.21298964E-06
     atom   27 type  2   force =   0.67342265E-06  0.36420849E-05  0.10800744E-05
     atom   28 type  3   force =   0.68652247E-06 -0.18684307E-06  0.48697526E-06
     atom   29 type  2   force =  -0.24507494E-05 -0.13667713E-05  0.32997160E-05
     atom   30 type  3   force =  -0.17413049E-05 -0.82159421E-06  0.21422320E-05
     atom   31 type  1   force =  -0.85148489E-09  0.15130222E-06  0.31647252E-05
     atom   32 type  3   force =  -0.11034324E-05  0.71075547E-06  0.59434423E-06
     atom   33 type  2   force =   0.56543860E-05 -0.90088488E-06 -0.33524844E-05
     atom   34 type  3   force =   0.31793378E-05 -0.11365304E-05 -0.22158892E-05
     atom   35 type  1   force =   0.20671188E-05 -0.19378283E-05 -0.24075380E-05
     atom   36 type  3   force =   0.17833143E-05 -0.28623405E-06 -0.14171503E-05
     atom   37 type  2   force =   0.14910454E-07 -0.75617396E-06  0.76549486E-06
     atom   38 type  3   force =  -0.18991718E-05 -0.29984989E-05  0.35174142E-06
     atom   39 type  2   force =  -0.11217499E-05 -0.34779329E-05 -0.39353324E-07
     atom   40 type  3   force =   0.21474626E-05 -0.68580420E-06 -0.20567039E-05
     atom   41 type  2   force =   0.16475535E-05  0.19636300E-05 -0.39523303E-05
     atom   42 type  3   force =   0.22068412E-05  0.39022701E-06 -0.25657974E-05
     atom   43 type  2   force =  -0.85074738E-06  0.25326202E-05 -0.22781510E-05
     atom   44 type  3   force =   0.18360569E-05  0.35130445E-07 -0.21403325E-05
     atom   45 type  2   force =  -0.12943546E-05  0.69544172E-06  0.14408843E-05
     atom   46 type  3   force =  -0.71238284E-06 -0.30846165E-05  0.38974745E-06
     atom   47 type  1   force =  -0.88529864E-06 -0.35935889E-05 -0.13046500E-05
     atom   48 type  3   force =   0.78790026E-06 -0.12300678E-05 -0.12442435E-05
     atom   49 type  1   force =   0.78177974E-06 -0.33250042E-06  0.83831562E-06
     atom   50 type  3   force =   0.18346893E-05 -0.79805399E-06 -0.33289575E-05
     atom   51 type  2   force =   0.22376456E-05  0.17502897E-05 -0.39763503E-06
     atom   52 type  3   force =   0.14191107E-05 -0.17730922E-05 -0.20250471E-05
     atom   53 type  2   force =  -0.20458881E-05 -0.18521963E-05  0.26373389E-07
     atom   54 type  3   force =   0.12667311E-05 -0.18169647E-05 -0.78156841E-07
     atom   55 type  2   force =  -0.14030837E-06 -0.99841919E-06  0.19247415E-05
     atom   56 type  3   force =   0.17894254E-05 -0.19369329E-05 -0.99335160E-06
     atom   57 type  2   force =   0.16354401E-05 -0.12959777E-05 -0.34473488E-05
     atom   58 type  3   force =   0.37692388E-05 -0.98108653E-06 -0.28135862E-05
     atom   59 type  1   force =   0.31509393E-05  0.30304605E-06 -0.13078176E-05
     atom   60 type  3   force =   0.28220334E-05 -0.15782274E-05 -0.22554666E-05
     atom   61 type  2   force =   0.77709294E-06 -0.44557538E-05  0.29051730E-06
     atom   62 type  3   force =  -0.11480894E-06 -0.24962277E-05  0.77305020E-06
     atom   63 type  1   force =   0.12914840E-05 -0.15732681E-05  0.64775452E-06
     atom   64 type  3   force =   0.13206267E-05 -0.28505520E-05 -0.16374701E-05
     atom   65 type  1   force =   0.35284336E-05 -0.61504644E-06 -0.59819361E-06
     atom   66 type  3   force =   0.10244449E-05  0.14255963E-05 -0.14455508E-05
     atom   67 type  1   force =   0.54150834E-05 -0.11735377E-05 -0.75266746E-06
     atom   68 type  3   force =   0.36568599E-06  0.71197940E-06 -0.14123464E-05
     atom   69 type  1   force =  -0.45840988E-06 -0.11730673E-05 -0.17306336E-06
     atom   70 type  3   force =  -0.20734085E-05 -0.26283188E-05  0.96622572E-06
     atom   71 type  2   force =  -0.32476226E-05 -0.44672596E-05  0.88518107E-06
     atom   72 type  3   force =   0.54069151E-06  0.61106698E-06 -0.16996130E-06
     atom   73 type  1   force =   0.34935611E-06 -0.39206992E-06 -0.39774327E-05
     atom   74 type  3   force =   0.16109483E-05  0.18174141E-05 -0.14517671E-05
     atom   75 type  1   force =   0.26039110E-05  0.11260342E-05 -0.48209893E-05
     atom   76 type  3   force =  -0.90695895E-06  0.87886028E-06 -0.16989944E-05
     atom   77 type  2   force =  -0.18083915E-05 -0.44192715E-05 -0.40244822E-06
     atom   78 type  3   force =  -0.14439481E-05 -0.11988125E-05  0.14386681E-05
     atom   79 type  1   force =   0.13607933E-05 -0.91351006E-06  0.14601509E-05
     atom   80 type  3   force =  -0.10933488E-06 -0.82564578E-06 -0.17999187E-06
     atom   81 type  2   force =   0.44388478E-05 -0.22147292E-05 -0.33412757E-05
     atom   82 type  3   force =   0.81508319E-06  0.44131637E-06 -0.20076435E-05
     atom   83 type  1   force =   0.31370715E-05  0.29343102E-06 -0.32384931E-05
     atom   84 type  3   force =   0.12985840E-05  0.11991737E-05 -0.12351410E-05
     atom   85 type  1   force =  -0.46274436E-06 -0.87563455E-06 -0.16053629E-05
     atom   86 type  3   force =  -0.72868825E-06 -0.14987372E-05  0.24054060E-05
     atom   87 type  1   force =  -0.10045667E-06 -0.29668979E-05  0.98989141E-06
     atom   88 type  3   force =  -0.84194165E-06 -0.71446553E-06  0.10540242E-05
     atom   89 type  1   force =   0.15966119E-05  0.81648372E-06 -0.20030551E-05
     atom   90 type  3   force =   0.13684576E-05 -0.57062877E-06  0.13637698E-06
     atom   91 type  2   force =   0.25238388E-05 -0.24328249E-05 -0.47614717E-05
     atom   92 type  3   force =   0.31015225E-05  0.18223919E-05  0.27427646E-06
     atom   93 type  2   force =   0.42958959E-05  0.86308624E-06  0.14845324E-06
     atom   94 type  3   force =  -0.21705055E-05 -0.19876534E-05  0.16231027E-05
     atom   95 type  1   force =  -0.30066860E-05 -0.32543875E-05  0.16442994E-05
     atom   96 type  3   force =  -0.10435070E-05 -0.54417877E-06  0.69319690E-06
     atom   97 type  1   force =  -0.11173234E-05 -0.48801703E-06  0.20408355E-05
     atom   98 type  3   force =   0.64643933E-06  0.26094142E-05  0.10729165E-06
     atom   99 type  2   force =   0.33818958E-05  0.28987714E-05 -0.18911874E-05
     atom  100 type  3   force =  -0.14460774E-05  0.86578282E-06  0.45171584E-06
     atom  101 type  2   force =  -0.32614906E-05 -0.19883119E-05 -0.11484902E-05
     atom  102 type  3   force =  -0.24483990E-05 -0.65798628E-06  0.21383983E-05
     atom  103 type  1   force =  -0.66689329E-06  0.22995939E-05  0.10555371E-05
     atom  104 type  3   force =  -0.11800513E-05  0.15108478E-05  0.67085007E-06
     atom  105 type  2   force =  -0.16564855E-05  0.41077875E-05 -0.56393102E-06
     atom  106 type  3   force =  -0.89949256E-06  0.20592984E-05 -0.10311286E-05
     atom  107 type  2   force =   0.14412838E-05  0.35818393E-05 -0.13519055E-05
     atom  108 type  3   force =  -0.23846387E-06  0.16348471E-05 -0.65695198E-06
     atom  109 type  2   force =  -0.14684744E-05 -0.22434699E-05  0.27807791E-05
     atom  110 type  3   force =  -0.12741065E-05 -0.46783685E-06  0.24938604E-05
     atom  111 type  1   force =  -0.17210321E-05 -0.38184585E-06  0.12421085E-05
     atom  112 type  3   force =  -0.20163744E-05  0.12625488E-05  0.11868616E-05
     atom  113 type  1   force =  -0.36694690E-06  0.14104534E-05  0.15823449E-05
     atom  114 type  3   force =  -0.11864832E-05  0.21321660E-05  0.69121293E-06
     atom  115 type  1   force =  -0.17766109E-05  0.22960208E-05 -0.33053682E-05
     atom  116 type  3   force =   0.99890610E-06  0.18719749E-05  0.43734566E-06
     atom  117 type  1   force =   0.41485304E-06  0.24138057E-05  0.63358335E-06
     atom  118 type  3   force =  -0.13375779E-05 -0.19483482E-05  0.17072317E-05
     atom  119 type  1   force =  -0.25081606E-05 -0.18865065E-05  0.47826714E-05
     atom  120 type  3   force =  -0.75998029E-06 -0.19917255E-07  0.55651203E-06
     atom  121 type  1   force =  -0.19100097E-05 -0.97706086E-06  0.18258087E-05
     atom  122 type  3   force =   0.55343628E-06  0.15905856E-05  0.94018628E-06
     atom  123 type  2   force =   0.31748970E-05  0.47316476E-05  0.13953323E-05
     atom  124 type  3   force =   0.22874888E-06  0.11540426E-05  0.19710953E-06
     atom  125 type  1   force =   0.10108460E-05  0.86132069E-06 -0.29585872E-06
     atom  126 type  3   force =  -0.30226847E-05 -0.10809014E-05  0.18100249E-05
     atom  127 type  1   force =  -0.34849457E-05 -0.17231099E-05  0.13083736E-05
     atom  128 type  3   force =  -0.46934198E-06  0.10029562E-05  0.19950762E-05

     Total force =     0.443343     Total SCF correction =     0.000038


     entering subroutine stress ...

          total   stress  (Ry/bohr**3)                   (kbar)     P=   69.14
   0.0004651302  -0.0000036252   0.0000040245         68.42     -0.53      0.59
  -0.0000036252   0.0004712329   0.0000012363         -0.53     69.32      0.18
   0.0000040245   0.0000012363   0.0004737372          0.59      0.18     69.69

     kinetic stress (kbar)  21581.34     -0.34      0.39
                               -0.34  21583.44      0.12
                                0.39      0.12  21584.54

     local   stress (kbar)  -2680.34      0.08     -0.05
                                0.08  -2680.41     -0.03
                               -0.05     -0.03  -2680.26

     nonloc. stress (kbar)   5394.94      0.11     -0.12
                                0.11   5394.59     -0.03
                               -0.12     -0.03   5394.42

     hartree stress (kbar)  10649.34     -0.38      0.36
                               -0.38  10648.57      0.13
                                0.36      0.13  10647.86

     exc-cor stress (kbar)  -5277.48     -0.01      0.01
                               -0.01  -5277.49      0.00
                                0.01      0.00  -5277.49

     corecor stress (kbar)  -1151.96     -0.00      0.00
                               -0.00  -1151.97      0.00
                                0.00      0.00  -1151.97

     ewald   stress (kbar) -28447.41      0.00      0.00
                                0.00 -28447.41     -0.00
                                0.00     -0.00 -28447.41

     hubbard stress (kbar)      0.00      0.00      0.00
                                0.00      0.00      0.00
                                0.00      0.00      0.00

     london  stress (kbar)      0.00      0.00      0.00
                                0.00      0.00      0.00
                                0.00      0.00      0.00

     XDM     stress (kbar)      0.00      0.00      0.00
                                0.00      0.00      0.00
                                0.00      0.00      0.00

     dft-nl  stress (kbar)      0.00      0.00      0.00
                                0.00      0.00      0.00
                                0.00      0.00      0.00



     Writing output data file CaO_mix444.011.save

     init_run     :    953.57s CPU    915.46s WALL (       1 calls)
     electrons    :  62218.52s CPU  59650.02s WALL (       1 calls)
     forces       :    471.21s CPU    292.35s WALL (       1 calls)
     stress       :   1716.43s CPU   1680.33s WALL (       1 calls)

     Called by init_run:
     wfcinit      :    925.68s CPU    886.73s WALL (       1 calls)
     potinit      :      0.72s CPU      0.80s WALL (       1 calls)

     Called by electrons:
     c_bands      :  54801.42s CPU  52206.54s WALL (      26 calls)
     sum_band     :   6840.50s CPU   6773.91s WALL (      26 calls)
     v_of_rho     :     18.85s CPU     23.79s WALL (      27 calls)
     v_h          :      1.05s CPU      1.45s WALL (      27 calls)
     v_xc         :     18.41s CPU     23.02s WALL (      29 calls)
     newd         :    546.38s CPU    626.42s WALL (      27 calls)
     mix_rho      :     33.63s CPU     41.30s WALL (      26 calls)

     Called by c_bands:
     init_us_2    :     58.24s CPU     68.94s WALL (     440 calls)
     cegterg      :  54393.30s CPU  51724.19s WALL (     208 calls)

     Called by sum_band:
     sum_band:bec :     19.05s CPU     22.02s WALL (     208 calls)
     addusdens    :    440.58s CPU    497.47s WALL (      26 calls)

     Called by *egterg:
     h_psi        :  25557.10s CPU  24561.20s WALL (     842 calls)
     s_psi        :   6035.03s CPU   4127.79s WALL (     842 calls)
     g_psi        :     10.72s CPU     13.50s WALL (     626 calls)
     cdiaghg      :  11486.63s CPU  14554.80s WALL (     834 calls)
     cegterg:over :   5308.37s CPU   3989.31s WALL (     626 calls)
     cegterg:upda :   2384.13s CPU   1712.89s WALL (     626 calls)
     cegterg:last :   1776.23s CPU   1200.57s WALL (     208 calls)

     Called by h_psi:
     h_psi:vloc   :  12234.37s CPU  15325.77s WALL (     842 calls)
     h_psi:vnl    :  13302.89s CPU   9212.11s WALL (     842 calls)
     add_vuspsi   :   6028.98s CPU   4096.74s WALL (     842 calls)

     General routines
     calbec       :  11083.97s CPU   7877.91s WALL (    1066 calls)
     fft          :     68.92s CPU     79.05s WALL (     453 calls)
     ffts         :     21.36s CPU     26.00s WALL (     704 calls)
     fftw         :  14331.96s CPU  18092.90s WALL (  705466 calls)
     interpolate  :      5.14s CPU      6.46s WALL (      53 calls)

     Parallel routines
     fft_scatter  :  10800.84s CPU  13525.05s WALL (  706623 calls)

     PWSCF        :    18h 9m CPU       17h22m WALL


   This run was terminated on:  13:23:41  19Aug2017            

=------------------------------------------------------------------------------=
   JOB DONE.
=------------------------------------------------------------------------------=
