
     Program PWSCF v.5.1 starts on 21Aug2017 at 10:48:46 

     This program is part of the open-source Quantum ESPRESSO suite
     for quantum simulation of materials; please cite
         "P. Giannozzi et al., J. Phys.:Condens. Matter 21 395502 (2009);
          URL http://www.quantum-espresso.org", 
     in publications or presentations arising from this work. More details at
     http://www.quantum-espresso.org/quote

     Parallel version (MPI), running on     8 processors
     R & G space division:  proc/nbgrp/npool/nimage =       8
     Reading input from /tmp/CaO_rocksalt.relax.in.up_1.00.super.222.01.2235/CaO_rocksalt.relax.in.up_1.00.super.222.01.t
Warning: card &IONS ignored
Warning: card   ION_DYNAMICS='BFGS', ignored
Warning: card / ignored
Warning: card &CELL ignored
Warning: card  CELL_DYNAMICS = 'BFGS' ignored
Warning: card / ignored
     Message from routine read_cards :
     DEPRECATED: no units specified in CELL_PARAMETERS card

     Current dimensions of program PWSCF are:
     Max number of different atomic species (ntypx) = 10
     Max number of k-points (npk) =  40000
     Max angular momentum in pseudopotentials (lmaxx) =  3
 kfg - two_fermi_energies  F

     Subspace diagonalization in iterative solution of the eigenvalue problem:
     a serial algorithm will be used


     Parallelization info
     --------------------
     sticks:   dense  smooth     PW     G-vecs:    dense   smooth      PW
     Min         279     223     62                 8755     6264     922
     Max         280     224     63                 8759     6294     926
     Sum        2233    1789    499                70049    50237    7391



     bravais-lattice index     =            0
     lattice parameter (alat)  =    12.744332997  a.u.
     unit-cell volume          =    1463.6470 (a.u.)^3
     number of atoms/cell      =           16
     number of atomic types    =            2
     number of electrons       =       128.00
     number of Kohn-Sham states=           77
     kinetic-energy cutoff     =      40.0000  Ry
     charge density cutoff     =     200.0000  Ry
     convergence threshold     =      1.0E-10
     mixing beta               =       0.3000
     number of iterations used =            8  local-TF  mixing
     Exchange-correlation      = SLA  PW   PSX  PSC ( 1  4 10  8 0)
     A smooth kinetic-energy cutoff is imposed at      39.5000 Ry
     height of the smooth step-function =             800.0000 Ry
     width of the smooth step-function  =               1.0000 Ry


     celldm(1)=  12.744333  celldm(2)=   0.000000  celldm(3)=   0.000000
     celldm(4)=   0.000000  celldm(5)=   0.000000  celldm(6)=   0.000000

     crystal axes: (cart. coord. in units of alat)
               a(1) = (   0.000000000000   0.707106781187   0.707106781187 )  
               a(2) = (   0.707106781187   0.000000000000   0.707106781187 )  
               a(3) = (   0.707106781187   0.707106781187   0.000000000000 )  

     reciprocal axes: (cart. coord. in units 2 pi/alat)
               b(1) = ( -0.707107  0.707107  0.707107 )  
               b(2) = (  0.707107 -0.707107  0.707107 )  
               b(3) = (  0.707107  0.707107 -0.707107 )  


     PseudoPot. # 1 for Ca read from file:
     /users/kfg/psuedo/gbrv_1.5/ca.pbesol.UPF
     MD5 check sum: 0533207b58cddeaa036efa5b63902087
     Pseudo is Ultrasoft + core correction, Zval = 10.0
     Generated by new atomic code, or converted to UPF format
     Using radial grid of  845 points,  6 beta functions with: 
                l(1) =   0
                l(2) =   0
                l(3) =   1
                l(4) =   1
                l(5) =   2
                l(6) =   2
     Q(r) pseudized with  8 coefficients,  rinner =    1.500   1.500   1.500
                                                       1.500   1.500

     PseudoPot. # 2 for O  read from file:
     /users/kfg/psuedo/gbrv_1.5/o.pbesol.UPF
     MD5 check sum: 501638753501ef6325af9037351f7734
     Pseudo is Ultrasoft + core correction, Zval =  6.0
     Generated by new atomic code, or converted to UPF format
     Using radial grid of  737 points,  5 beta functions with: 
                l(1) =   0
                l(2) =   0
                l(3) =   1
                l(4) =   1
                l(5) =   2
     Q(r) pseudized with  8 coefficients,  rinner =    0.900   0.900   0.900
                                                       0.900   0.900

     atomic species   valence    mass     pseudopotential
        Ca            10.00    40.07800     Ca( 1.00)
        O              6.00    15.99940     O ( 1.00)

     No symmetry found


                                    s                        frac. trans.

      isym =  1     identity                                     

 cryst.   s( 1) = (     1          0          0      )
                  (     0          1          0      )
                  (     0          0          1      )

 cart.    s( 1) = (  1.0000000  0.0000000  0.0000000 )
                  (  0.0000000  1.0000000  0.0000000 )
                  (  0.0000000  0.0000000  1.0000000 )


     point group C_1 (1)    
     there are  1 classes
     the character table:

       E    
A      1.00

     the symmetry operations in each class:
     E        1

   Cartesian axes

     site n.     atom                  positions (alat units)
         1           Ca  tau(   1) = (   -0.00071074365   -0.00006605973    0.00062140802  )
         2           O   tau(   2) = (    0.35433323333    0.35370129405    0.35414820613  )
         3           Ca  tau(   3) = (    0.35396816916    0.35290162264   -0.00073802121  )
         4           O   tau(   4) = (    0.70701852995    0.70657446047    0.35294966644  )
         5           Ca  tau(   5) = (    0.35425606232    0.00039992042    0.35294014592  )
         6           O   tau(   6) = (    0.70738308269    0.35339565910    0.70720821014  )
         7           Ca  tau(   7) = (    0.70698240091    0.35412233605    0.35424687566  )
         8           O   tau(   8) = (    1.06001182203    0.70679419614    0.70762491777  )
         9           Ca  tau(   9) = (   -0.00034045055    0.35426109744    0.35291800166  )
        10           O   tau(  10) = (    0.35381697454    0.70739293117    0.70716757055  )
        11           Ca  tau(  11) = (    0.35418111820    0.70655743066    0.35432261375  )
        12           O   tau(  12) = (    0.70787935630    1.06029887495    0.70678472291  )
        13           Ca  tau(  13) = (    0.35352897990    0.35296189915    0.70655962047  )
        14           O   tau(  14) = (    0.70764432472    0.70689312790    1.06035736024  )
        15           Ca  tau(  15) = (    0.70657556370    0.70678035856    0.70702868764  )
        16           O   tau(  16) = (    1.06092664122    1.06019212720    1.06112794752  )

   Crystallographic axes

     site n.     atom                  positions (cryst. coord.)
         1           Ca  tau(   1) = (    0.00089526220   -0.00001645855   -0.00098868476  )
         2           O   tau(   2) = (    0.24997374956    0.25086744665    0.25023541752  )
         3           Ca  tau(   3) = (   -0.00127602208    0.00023230247    0.50035428299  )
         4           O   tau(   4) = (    0.24925909802    0.24988710709    0.74998808681  )
         5           Ca  tau(   5) = (   -0.00064770697    0.49978044803    0.00121327985  )
         6           O   tau(   6) = (    0.24976481343    0.75037862878    0.25001212055  )
         7           Ca  tau(   7) = (    0.00098062333    0.50000011266    0.49982398706  )
         8           O   tau(   8) = (    0.25060379939    0.75012895639    0.74895413859  )
         9           Ca  tau(   9) = (    0.50029187138   -0.00119044703    0.00070897725  )
        10           O   tau(  10) = (    0.75005894117    0.25002702797    0.25034573601  )
        11           Ca  tau(  11) = (    0.49971160298    0.00137624285    0.49951149805  )
        12           O   tau(  12) = (    0.74897050187    0.25057403895    0.75051854725  )
        13           Ca  tau(  13) = (    0.49921211230    0.50001408558   -0.00004860752  )
        14           O   tau(  14) = (    0.74925470355    0.75031705627    0.25044314508  )
        15           Ca  tau(  15) = (    0.50008959136    0.49979996769    0.49944877733  )
        16           O   tau(  16) = (    0.74981138756    0.75085014724    0.74952669746  )

     number of k points=    36  gaussian smearing, width (Ry)=  0.0050
                       cart. coord. in units 2pi/alat
        k(    1) = (   0.0000000   0.0000000   0.0000000), wk =   0.0312500
        k(    2) = (   0.1767767   0.1767767  -0.1767767), wk =   0.0625000
        k(    3) = (  -0.3535534  -0.3535534   0.3535534), wk =   0.0312500
        k(    4) = (   0.3535534   0.0000000   0.0000000), wk =   0.0625000
        k(    5) = (  -0.1767767  -0.5303301   0.5303301), wk =   0.0625000
        k(    6) = (   0.0000000  -0.3535534   0.3535534), wk =   0.0625000
        k(    7) = (  -0.7071068   0.0000000   0.0000000), wk =   0.0312500
        k(    8) = (  -0.7071068   0.3535534   0.0000000), wk =   0.0625000
        k(    9) = (  -0.1767767  -0.1767767  -0.1767767), wk =   0.0625000
        k(   10) = (  -0.1767767   0.1767767   0.1767767), wk =   0.0625000
        k(   11) = (   0.1767767  -0.1767767   0.1767767), wk =   0.0625000
        k(   12) = (   0.3535534   0.3535534   0.3535534), wk =   0.0312500
        k(   13) = (   0.3535534  -0.3535534  -0.3535534), wk =   0.0312500
        k(   14) = (  -0.3535534   0.3535534  -0.3535534), wk =   0.0312500
        k(   15) = (   0.0000000   0.3535534   0.0000000), wk =   0.0625000
        k(   16) = (   0.0000000   0.0000000   0.3535534), wk =   0.0625000
        k(   17) = (   0.1767767   0.5303301   0.5303301), wk =   0.0625000
        k(   18) = (   0.1767767  -0.5303301  -0.5303301), wk =   0.0625000
        k(   19) = (  -0.1767767   0.5303301  -0.5303301), wk =   0.0625000
        k(   20) = (  -0.5303301  -0.1767767  -0.5303301), wk =   0.0625000
        k(   21) = (   0.5303301   0.1767767  -0.5303301), wk =   0.0625000
        k(   22) = (  -0.5303301   0.1767767   0.5303301), wk =   0.0625000
        k(   23) = (   0.5303301  -0.1767767   0.5303301), wk =   0.0625000
        k(   24) = (   0.5303301   0.5303301  -0.1767767), wk =   0.0625000
        k(   25) = (  -0.5303301   0.5303301   0.1767767), wk =   0.0625000
        k(   26) = (   0.5303301  -0.5303301   0.1767767), wk =   0.0625000
        k(   27) = (  -0.5303301  -0.5303301  -0.1767767), wk =   0.0625000
        k(   28) = (   0.0000000   0.3535534   0.3535534), wk =   0.0625000
        k(   29) = (  -0.3535534   0.0000000  -0.3535534), wk =   0.0625000
        k(   30) = (   0.3535534   0.0000000  -0.3535534), wk =   0.0625000
        k(   31) = (   0.3535534   0.3535534   0.0000000), wk =   0.0625000
        k(   32) = (  -0.3535534   0.3535534   0.0000000), wk =   0.0625000
        k(   33) = (   0.0000000  -0.7071068   0.0000000), wk =   0.0312500
        k(   34) = (   0.0000000   0.0000000  -0.7071068), wk =   0.0312500
        k(   35) = (   0.3535534  -0.7071068   0.0000000), wk =   0.0625000
        k(   36) = (   0.7071068   0.0000000   0.3535534), wk =   0.0625000

                       cryst. coord.
        k(    1) = (   0.0000000   0.0000000   0.0000000), wk =   0.0312500
        k(    2) = (   0.0000000   0.0000000   0.2500000), wk =   0.0625000
        k(    3) = (   0.0000000   0.0000000  -0.5000000), wk =   0.0312500
        k(    4) = (   0.0000000   0.2500000   0.2500000), wk =   0.0625000
        k(    5) = (   0.0000000   0.2500000  -0.5000000), wk =   0.0625000
        k(    6) = (   0.0000000   0.2500000  -0.2500000), wk =   0.0625000
        k(    7) = (   0.0000000  -0.5000000  -0.5000000), wk =   0.0312500
        k(    8) = (   0.2500000  -0.5000000  -0.2500000), wk =   0.0625000
        k(    9) = (  -0.2500000  -0.2500000  -0.2500000), wk =   0.0625000
        k(   10) = (   0.2500000   0.0000000   0.0000000), wk =   0.0625000
        k(   11) = (   0.0000000   0.2500000   0.0000000), wk =   0.0625000
        k(   12) = (   0.5000000   0.5000000   0.5000000), wk =   0.0312500
        k(   13) = (  -0.5000000   0.0000000   0.0000000), wk =   0.0312500
        k(   14) = (   0.0000000  -0.5000000   0.0000000), wk =   0.0312500
        k(   15) = (   0.2500000   0.0000000   0.2500000), wk =   0.0625000
        k(   16) = (   0.2500000   0.2500000   0.0000000), wk =   0.0625000
        k(   17) = (   0.7500000   0.5000000   0.5000000), wk =   0.0625000
        k(   18) = (  -0.7500000  -0.2500000  -0.2500000), wk =   0.0625000
        k(   19) = (   0.0000000  -0.5000000   0.2500000), wk =   0.0625000
        k(   20) = (  -0.5000000  -0.7500000  -0.5000000), wk =   0.0625000
        k(   21) = (  -0.2500000   0.0000000   0.5000000), wk =   0.0625000
        k(   22) = (   0.5000000   0.0000000  -0.2500000), wk =   0.0625000
        k(   23) = (   0.2500000   0.7500000   0.2500000), wk =   0.0625000
        k(   24) = (   0.2500000   0.2500000   0.7500000), wk =   0.0625000
        k(   25) = (   0.5000000  -0.2500000   0.0000000), wk =   0.0625000
        k(   26) = (  -0.2500000   0.5000000   0.0000000), wk =   0.0625000
        k(   27) = (  -0.5000000  -0.5000000  -0.7500000), wk =   0.0625000
        k(   28) = (   0.5000000   0.2500000   0.2500000), wk =   0.0625000
        k(   29) = (  -0.2500000  -0.5000000  -0.2500000), wk =   0.0625000
        k(   30) = (  -0.2500000   0.0000000   0.2500000), wk =   0.0625000
        k(   31) = (   0.2500000   0.2500000   0.5000000), wk =   0.0625000
        k(   32) = (   0.2500000  -0.2500000   0.0000000), wk =   0.0625000
        k(   33) = (  -0.5000000   0.0000000  -0.5000000), wk =   0.0312500
        k(   34) = (  -0.5000000  -0.5000000   0.0000000), wk =   0.0312500
        k(   35) = (  -0.5000000   0.2500000  -0.2500000), wk =   0.0625000
        k(   36) = (   0.2500000   0.7500000   0.5000000), wk =   0.0625000

     Dense  grid:    70049 G-vectors     FFT dimensions: (  60,  60,  60)

     Smooth grid:    50237 G-vectors     FFT dimensions: (  54,  54,  54)

     Largest allocated arrays     est. size (Mb)     dimensions
        Kohn-Sham Wavefunctions         0.95 Mb     (     805,   77)
        NL pseudopotentials             3.05 Mb     (     805,  248)
        Each V/rho on FFT grid          0.44 Mb     (   28800)
        Each G-vector array             0.07 Mb     (    8759)
        G-vector shells                 0.00 Mb     (     548)
     Largest temporary arrays     est. size (Mb)     dimensions
        Auxiliary wavefunctions         3.78 Mb     (     805,  308)
        Each subspace H/S matrix        1.45 Mb     (     308,  308)
        Each <psi_i|beta_j> matrix      0.29 Mb     (     248,   77)
        Arrays for rho mixing           3.52 Mb     (   28800,    8)

     Check: negative/imaginary core charge=   -0.000003    0.000000

     Initial potential from superposition of free atoms

     starting charge  127.95858, renormalised to  128.00000
     Starting wfc are  112 randomized atomic wfcs

     total cpu time spent up to now is       22.8 secs

     Self-consistent Calculation

     iteration #  1     ecut=    40.00 Ry     beta=0.30
     Davidson diagonalization with overlap
     ethr =  1.00E-02,  avg # of iterations =  2.4

     total cpu time spent up to now is       74.3 secs

     total energy              =    -859.13120226 Ry
     Harris-Foulkes estimate   =    -859.84523985 Ry
     estimated scf accuracy    <       3.61051673 Ry

     iteration #  2     ecut=    40.00 Ry     beta=0.30
     Davidson diagonalization with overlap
     ethr =  2.82E-03,  avg # of iterations =  1.3

     total cpu time spent up to now is      115.5 secs

     total energy              =    -858.73687685 Ry
     Harris-Foulkes estimate   =    -859.25722266 Ry
     estimated scf accuracy    <       1.35184835 Ry

     iteration #  3     ecut=    40.00 Ry     beta=0.30
     Davidson diagonalization with overlap
     ethr =  1.06E-03,  avg # of iterations =  2.1

     total cpu time spent up to now is      167.3 secs

     total energy              =    -858.97561724 Ry
     Harris-Foulkes estimate   =    -858.99913040 Ry
     estimated scf accuracy    <       0.08774118 Ry

     iteration #  4     ecut=    40.00 Ry     beta=0.30
     Davidson diagonalization with overlap
     ethr =  6.85E-05,  avg # of iterations =  2.8

     total cpu time spent up to now is      225.1 secs

     total energy              =    -858.97625360 Ry
     Harris-Foulkes estimate   =    -858.99986846 Ry
     estimated scf accuracy    <       0.07655917 Ry

     iteration #  5     ecut=    40.00 Ry     beta=0.30
     Davidson diagonalization with overlap
     ethr =  5.98E-05,  avg # of iterations =  2.0

     total cpu time spent up to now is      273.3 secs

     total energy              =    -858.98528985 Ry
     Harris-Foulkes estimate   =    -858.98529053 Ry
     estimated scf accuracy    <       0.00014475 Ry

     iteration #  6     ecut=    40.00 Ry     beta=0.30
     Davidson diagonalization with overlap
     c_bands:  2 eigenvalues not converged
     c_bands:  2 eigenvalues not converged
     c_bands:  2 eigenvalues not converged
     c_bands:  2 eigenvalues not converged
     c_bands:  1 eigenvalues not converged
     c_bands:  1 eigenvalues not converged
     ethr =  1.13E-07,  avg # of iterations = 10.6

     total cpu time spent up to now is      408.1 secs

     total energy              =    -858.98545313 Ry
     Harris-Foulkes estimate   =    -858.98543402 Ry
     estimated scf accuracy    <       0.00007991 Ry

     iteration #  7     ecut=    40.00 Ry     beta=0.30
     Davidson diagonalization with overlap
     ethr =  6.24E-08,  avg # of iterations =  4.1

     total cpu time spent up to now is      480.9 secs

     total energy              =    -858.98539867 Ry
     Harris-Foulkes estimate   =    -858.98556855 Ry
     estimated scf accuracy    <       0.00050459 Ry

     iteration #  8     ecut=    40.00 Ry     beta=0.30
     Davidson diagonalization with overlap
     ethr =  6.24E-08,  avg # of iterations =  3.0

     total cpu time spent up to now is      540.9 secs

     total energy              =    -858.98546896 Ry
     Harris-Foulkes estimate   =    -858.98546888 Ry
     estimated scf accuracy    <       0.00000642 Ry

     iteration #  9     ecut=    40.00 Ry     beta=0.30
     Davidson diagonalization with overlap
     ethr =  5.01E-09,  avg # of iterations =  2.0

     total cpu time spent up to now is      591.1 secs

     total energy              =    -858.98546467 Ry
     Harris-Foulkes estimate   =    -858.98546982 Ry
     estimated scf accuracy    <       0.00001268 Ry

     iteration # 10     ecut=    40.00 Ry     beta=0.30
     Davidson diagonalization with overlap
     ethr =  5.01E-09,  avg # of iterations =  3.0

     total cpu time spent up to now is      651.4 secs

     total energy              =    -858.98546719 Ry
     Harris-Foulkes estimate   =    -858.98546763 Ry
     estimated scf accuracy    <       0.00000203 Ry

     iteration # 11     ecut=    40.00 Ry     beta=0.30
     Davidson diagonalization with overlap
     ethr =  1.58E-09,  avg # of iterations =  2.0

     total cpu time spent up to now is      697.9 secs

     total energy              =    -858.98546689 Ry
     Harris-Foulkes estimate   =    -858.98546730 Ry
     estimated scf accuracy    <       0.00000069 Ry

     iteration # 12     ecut=    40.00 Ry     beta=0.30
     Davidson diagonalization with overlap
     ethr =  5.41E-10,  avg # of iterations =  3.0

     total cpu time spent up to now is      764.1 secs

     total energy              =    -858.98546706 Ry
     Harris-Foulkes estimate   =    -858.98546705 Ry
     estimated scf accuracy    <       0.00000005 Ry

     iteration # 13     ecut=    40.00 Ry     beta=0.30
     Davidson diagonalization with overlap
     ethr =  3.88E-11,  avg # of iterations =  2.0

     total cpu time spent up to now is      815.9 secs

     total energy              =    -858.98546707 Ry
     Harris-Foulkes estimate   =    -858.98546706 Ry
     estimated scf accuracy    <          1.0E-09 Ry

     iteration # 14     ecut=    40.00 Ry     beta=0.30
     Davidson diagonalization with overlap
     ethr =  8.10E-13,  avg # of iterations =  3.0

     total cpu time spent up to now is      874.3 secs

     total energy              =    -858.98546708 Ry
     Harris-Foulkes estimate   =    -858.98546707 Ry
     estimated scf accuracy    <          7.7E-10 Ry

     iteration # 15     ecut=    40.00 Ry     beta=0.30
     Davidson diagonalization with overlap
     ethr =  5.98E-13,  avg # of iterations =  2.0

     total cpu time spent up to now is      921.4 secs

     End of self-consistent calculation

          k = 0.0000 0.0000 0.0000 (  6231 PWs)   bands (ev):

   -29.4044 -29.2901 -29.2864 -29.2854 -29.2853 -29.2501 -29.2493 -29.2456
   -11.4846 -11.4845 -11.4845 -11.4843 -10.9008 -10.9007 -10.9007 -10.4818
   -10.4817 -10.4817 -10.4815 -10.4813 -10.4813 -10.2861 -10.2860 -10.2854
   -10.2851 -10.2850 -10.2850 -10.2849 -10.2848 -10.2270 -10.2265 -10.2262
    -7.5479  -7.3061  -7.3060  -7.3060  -6.2184  -6.2183  -6.2183  -6.2183
     5.1529   5.1529   5.1530   5.1530   6.5809   6.5813   6.5818   6.6357
     6.6358   6.6358   6.6359   6.6359   6.6359   6.6364   6.6367   7.5185
     7.5185   7.5185   7.5186   7.5186   7.5187   7.8908   7.8908   7.8909
    11.4419  11.4420  11.4421  12.6800  14.1614  14.1615  14.1616  15.0341
    15.0344  15.0345  15.0346  15.7393  15.7395

     occupation numbers 
     1.0000   1.0000   1.0000   1.0000   1.0000   1.0000   1.0000   1.0000
     1.0000   1.0000   1.0000   1.0000   1.0000   1.0000   1.0000   1.0000
     1.0000   1.0000   1.0000   1.0000   1.0000   1.0000   1.0000   1.0000
     1.0000   1.0000   1.0000   1.0000   1.0000   1.0000   1.0000   1.0000
     1.0000   1.0000   1.0000   1.0000   1.0000   1.0000   1.0000   1.0000
     1.0000   1.0000   1.0000   1.0000   1.0000   1.0000   1.0000   1.0000
     1.0000   1.0000   1.0000   1.0000   1.0000   1.0000   1.0000   1.0000
     1.0000   1.0000   1.0000   1.0000   1.0000   1.0000   1.0000   1.0000
     0.0000   0.0000   0.0000   0.0000   0.0000   0.0000   0.0000   0.0000
     0.0000   0.0000   0.0000   0.0000   0.0000

          k = 0.1768 0.1768-0.1768 (  6234 PWs)   bands (ev):

   -29.3875 -29.3033 -29.2857 -29.2816 -29.2802 -29.2553 -29.2541 -29.2497
   -11.3809 -11.3807 -11.3805 -11.3402 -10.9095 -10.9073 -10.9052 -10.5690
   -10.5654 -10.5611 -10.4748 -10.4538 -10.4537 -10.4529 -10.3589 -10.3572
   -10.3560 -10.3146 -10.3143 -10.3141 -10.2778 -10.2777 -10.2349 -10.2346
    -7.2922  -7.1200  -7.1198  -7.1195  -6.3753  -6.3590  -6.3589  -6.3588
     5.4179   5.4192   5.4205   5.4652   6.4882   6.4884   6.4888   6.6562
     6.6570   6.6578   6.7583   6.7586   6.7587   6.7909   6.7912   7.1943
     7.1972   7.1996   7.3366   7.3816   7.3821   7.3823   7.6702   7.6703
    11.9597  11.9666  11.9734  13.3745  14.1126  14.4371  14.4373  14.6277
    14.6374  14.6466  14.6614  15.5482  15.5519

     occupation numbers 
     1.0000   1.0000   1.0000   1.0000   1.0000   1.0000   1.0000   1.0000
     1.0000   1.0000   1.0000   1.0000   1.0000   1.0000   1.0000   1.0000
     1.0000   1.0000   1.0000   1.0000   1.0000   1.0000   1.0000   1.0000
     1.0000   1.0000   1.0000   1.0000   1.0000   1.0000   1.0000   1.0000
     1.0000   1.0000   1.0000   1.0000   1.0000   1.0000   1.0000   1.0000
     1.0000   1.0000   1.0000   1.0000   1.0000   1.0000   1.0000   1.0000
     1.0000   1.0000   1.0000   1.0000   1.0000   1.0000   1.0000   1.0000
     1.0000   1.0000   1.0000   1.0000   1.0000   1.0000   1.0000   1.0000
     0.0000   0.0000   0.0000   0.0000   0.0000   0.0000   0.0000   0.0000
     0.0000   0.0000   0.0000   0.0000   0.0000

          k =-0.3536-0.3536 0.3536 (  6266 PWs)   bands (ev):

   -29.3521 -29.3389 -29.2808 -29.2736 -29.2692 -29.2665 -29.2622 -29.2549
   -11.1248 -11.1234 -11.1228 -11.1138 -11.1133 -11.1125 -10.9575 -10.9473
   -10.5258 -10.5209 -10.5172 -10.5123 -10.5086 -10.5033 -10.3933 -10.3915
   -10.3884 -10.3805 -10.3779 -10.3758 -10.2632 -10.2627 -10.2501 -10.2496
    -6.7962  -6.7859  -6.7276  -6.7242  -6.7206  -6.7151  -6.7118  -6.7085
     6.0373   6.0445   6.0466   6.0512   6.0535   6.0604   6.2946   6.3055
     6.7643   6.7682   6.7731   6.7789   6.7814   6.7864   7.0519   7.0567
     7.0587   7.0676   7.0695   7.0744   7.1898   7.1916   7.2071   7.2088
    13.2060  13.2136  13.2202  13.2309  13.2406  13.2408  14.1650  14.1770
    14.8454  14.8604  15.1563  15.1574  15.1713

     occupation numbers 
     1.0000   1.0000   1.0000   1.0000   1.0000   1.0000   1.0000   1.0000
     1.0000   1.0000   1.0000   1.0000   1.0000   1.0000   1.0000   1.0000
     1.0000   1.0000   1.0000   1.0000   1.0000   1.0000   1.0000   1.0000
     1.0000   1.0000   1.0000   1.0000   1.0000   1.0000   1.0000   1.0000
     1.0000   1.0000   1.0000   1.0000   1.0000   1.0000   1.0000   1.0000
     1.0000   1.0000   1.0000   1.0000   1.0000   1.0000   1.0000   1.0000
     1.0000   1.0000   1.0000   1.0000   1.0000   1.0000   1.0000   1.0000
     1.0000   1.0000   1.0000   1.0000   1.0000   1.0000   1.0000   1.0000
     0.0000   0.0000   0.0000   0.0000   0.0000   0.0000   0.0000   0.0000
     0.0000   0.0000   0.0000   0.0000   0.0000

          k = 0.3536 0.0000 0.0000 (  6254 PWs)   bands (ev):

   -29.3819 -29.2924 -29.2871 -29.2863 -29.2858 -29.2689 -29.2488 -29.2465
   -11.3442 -11.3440 -11.3435 -11.3433 -10.9219 -10.8408 -10.8408 -10.6066
   -10.6064 -10.5443 -10.5442 -10.4815 -10.4445 -10.4443 -10.3825 -10.3811
   -10.3806 -10.3792 -10.2879 -10.2876 -10.2859 -10.2855 -10.2633 -10.2628
    -7.2483  -7.1147  -7.0772  -7.0771  -6.3784  -6.3782  -6.3782  -6.3781
     5.4574   5.4586   5.4608   5.4619   6.2762   6.6238   6.6242   6.6858
     6.6862   6.6868   6.6873   6.8063   6.8066   6.8087   6.8089   7.0146
     7.0151   7.0238   7.2192   7.2193   7.5201   7.5201   7.7681   7.7681
    11.7350  12.3159  12.3161  13.4387  13.5996  14.7190  14.7257  14.7308
    14.7372  14.7600  14.7620  15.5153  15.5179

     occupation numbers 
     1.0000   1.0000   1.0000   1.0000   1.0000   1.0000   1.0000   1.0000
     1.0000   1.0000   1.0000   1.0000   1.0000   1.0000   1.0000   1.0000
     1.0000   1.0000   1.0000   1.0000   1.0000   1.0000   1.0000   1.0000
     1.0000   1.0000   1.0000   1.0000   1.0000   1.0000   1.0000   1.0000
     1.0000   1.0000   1.0000   1.0000   1.0000   1.0000   1.0000   1.0000
     1.0000   1.0000   1.0000   1.0000   1.0000   1.0000   1.0000   1.0000
     1.0000   1.0000   1.0000   1.0000   1.0000   1.0000   1.0000   1.0000
     1.0000   1.0000   1.0000   1.0000   1.0000   1.0000   1.0000   1.0000
     0.0000   0.0000   0.0000   0.0000   0.0000   0.0000   0.0000   0.0000
     0.0000   0.0000   0.0000   0.0000   0.0000

          k =-0.1768-0.5303 0.5303 (  6253 PWs)   bands (ev):

   -29.3498 -29.3189 -29.2972 -29.2825 -29.2805 -29.2661 -29.2535 -29.2498
   -11.1641 -11.1637 -11.1634 -11.0881 -10.9833 -10.9554 -10.9530 -10.8127
   -10.6454 -10.6392 -10.5883 -10.4848 -10.4815 -10.4752 -10.4715 -10.4116
   -10.3904 -10.3656 -10.3414 -10.3391 -10.3366 -10.3003 -10.2827 -10.2504
    -6.9219  -6.8690  -6.8219  -6.8218  -6.6244  -6.5919  -6.5917  -6.5772
     5.8207   5.8265   5.8568   5.9249   6.0595   6.3589   6.3591   6.3643
     6.7521   6.7552   6.7687   6.7800   6.7812   6.8054   6.8905   6.9909
     6.9927   7.0238   7.0264   7.2110   7.2508   7.3864   7.3952   7.5006
    12.4924  13.3925  13.3970  13.4056  13.7698  13.7904  14.1082  14.3822
    14.4283  15.1502  15.2206  15.3020  15.3381

     occupation numbers 
     1.0000   1.0000   1.0000   1.0000   1.0000   1.0000   1.0000   1.0000
     1.0000   1.0000   1.0000   1.0000   1.0000   1.0000   1.0000   1.0000
     1.0000   1.0000   1.0000   1.0000   1.0000   1.0000   1.0000   1.0000
     1.0000   1.0000   1.0000   1.0000   1.0000   1.0000   1.0000   1.0000
     1.0000   1.0000   1.0000   1.0000   1.0000   1.0000   1.0000   1.0000
     1.0000   1.0000   1.0000   1.0000   1.0000   1.0000   1.0000   1.0000
     1.0000   1.0000   1.0000   1.0000   1.0000   1.0000   1.0000   1.0000
     1.0000   1.0000   1.0000   1.0000   1.0000   1.0000   1.0000   1.0000
     0.0000   0.0000   0.0000   0.0000   0.0000   0.0000   0.0000   0.0000
     0.0000   0.0000   0.0000   0.0000   0.0000

          k = 0.0000-0.3536 0.3536 (  6259 PWs)   bands (ev):

   -29.3626 -29.3083 -29.3057 -29.2751 -29.2735 -29.2626 -29.2611 -29.2492
   -11.2319 -11.2318 -11.1798 -11.1788 -10.9864 -10.9843 -10.8665 -10.7841
   -10.7289 -10.5057 -10.5018 -10.4949 -10.4944 -10.4518 -10.4476 -10.4120
   -10.3664 -10.3660 -10.3215 -10.3189 -10.3174 -10.3155 -10.3036 -10.2299
    -7.0022  -6.9030  -6.9024  -6.8821  -6.5669  -6.5662  -6.5331  -6.5331
     5.7694   5.7698   5.7744   5.7762   6.2222   6.2253   6.5098   6.6652
     6.6681   6.7292   6.7302   6.7958   6.7960   6.8704   6.8747   7.0552
     7.0570   7.0715   7.0782   7.0914   7.2402   7.2436   7.2887   7.6083
    12.5589  12.5774  13.0064  13.7885  13.8109  13.9211  14.1350  14.6378
    14.6968  14.7026  14.7660  14.7718  15.2524

     occupation numbers 
     1.0000   1.0000   1.0000   1.0000   1.0000   1.0000   1.0000   1.0000
     1.0000   1.0000   1.0000   1.0000   1.0000   1.0000   1.0000   1.0000
     1.0000   1.0000   1.0000   1.0000   1.0000   1.0000   1.0000   1.0000
     1.0000   1.0000   1.0000   1.0000   1.0000   1.0000   1.0000   1.0000
     1.0000   1.0000   1.0000   1.0000   1.0000   1.0000   1.0000   1.0000
     1.0000   1.0000   1.0000   1.0000   1.0000   1.0000   1.0000   1.0000
     1.0000   1.0000   1.0000   1.0000   1.0000   1.0000   1.0000   1.0000
     1.0000   1.0000   1.0000   1.0000   1.0000   1.0000   1.0000   1.0000
     0.0000   0.0000   0.0000   0.0000   0.0000   0.0000   0.0000   0.0000
     0.0000   0.0000   0.0000   0.0000   0.0000

          k =-0.7071 0.0000 0.0000 (  6314 PWs)   bands (ev):

   -29.3299 -29.3270 -29.2878 -29.2871 -29.2865 -29.2860 -29.2483 -29.2461
   -11.1546 -11.1543 -11.1540 -11.1537 -10.8216 -10.8200 -10.7200 -10.7197
   -10.6961 -10.6959 -10.6906 -10.6905 -10.5282 -10.5258 -10.5249 -10.5224
   -10.3569 -10.3567 -10.3535 -10.3533 -10.2878 -10.2868 -10.2860 -10.2853
    -6.9508  -6.9487  -6.8570  -6.8570  -6.5344  -6.5341  -6.5339  -6.5339
     5.7431   5.7467   5.7480   5.7515   6.1441   6.1569   6.5553   6.5553
     6.7373   6.7377   6.7385   6.7390   6.8117   6.8118   6.8197   6.8203
     7.0222   7.0247   7.0265   7.0288   7.5843   7.5844   7.5893   7.5894
    12.5367  12.5595  14.2168  14.2172  14.2532  14.2545  14.4079  14.4183
    14.4228  14.4334  14.5954  14.6146  15.2459

     occupation numbers 
     1.0000   1.0000   1.0000   1.0000   1.0000   1.0000   1.0000   1.0000
     1.0000   1.0000   1.0000   1.0000   1.0000   1.0000   1.0000   1.0000
     1.0000   1.0000   1.0000   1.0000   1.0000   1.0000   1.0000   1.0000
     1.0000   1.0000   1.0000   1.0000   1.0000   1.0000   1.0000   1.0000
     1.0000   1.0000   1.0000   1.0000   1.0000   1.0000   1.0000   1.0000
     1.0000   1.0000   1.0000   1.0000   1.0000   1.0000   1.0000   1.0000
     1.0000   1.0000   1.0000   1.0000   1.0000   1.0000   1.0000   1.0000
     1.0000   1.0000   1.0000   1.0000   1.0000   1.0000   1.0000   1.0000
     0.0000   0.0000   0.0000   0.0000   0.0000   0.0000   0.0000   0.0000
     0.0000   0.0000   0.0000   0.0000   0.0000

          k =-0.7071 0.3536 0.0000 (  6228 PWs)   bands (ev):

   -29.3239 -29.3186 -29.3116 -29.3075 -29.2671 -29.2631 -29.2560 -29.2509
   -11.0388 -11.0350 -11.0324 -11.0299 -10.9978 -10.9948 -10.9925 -10.9899
   -10.6477 -10.6455 -10.6445 -10.6418 -10.4190 -10.4182 -10.4162 -10.4118
   -10.4060 -10.4042 -10.4023 -10.4009 -10.3018 -10.2986 -10.2939 -10.2908
    -6.7525  -6.7491  -6.7443  -6.7407  -6.6972  -6.6935  -6.6888  -6.6854
     6.0036   6.0076   6.0090   6.0118   6.0874   6.0916   6.0926   6.0973
     6.8102   6.8112   6.8124   6.8138   6.8504   6.8547   6.8559   6.8591
     7.0712   7.0760   7.0847   7.0894   7.3587   7.3613   7.3620   7.3644
    13.2412  13.2517  13.2561  13.2664  14.3577  14.3719  14.3770  14.4018
    14.5878  14.5996  14.6059  14.6204  15.0938

     occupation numbers 
     1.0000   1.0000   1.0000   1.0000   1.0000   1.0000   1.0000   1.0000
     1.0000   1.0000   1.0000   1.0000   1.0000   1.0000   1.0000   1.0000
     1.0000   1.0000   1.0000   1.0000   1.0000   1.0000   1.0000   1.0000
     1.0000   1.0000   1.0000   1.0000   1.0000   1.0000   1.0000   1.0000
     1.0000   1.0000   1.0000   1.0000   1.0000   1.0000   1.0000   1.0000
     1.0000   1.0000   1.0000   1.0000   1.0000   1.0000   1.0000   1.0000
     1.0000   1.0000   1.0000   1.0000   1.0000   1.0000   1.0000   1.0000
     1.0000   1.0000   1.0000   1.0000   1.0000   1.0000   1.0000   1.0000
     0.0000   0.0000   0.0000   0.0000   0.0000   0.0000   0.0000   0.0000
     0.0000   0.0000   0.0000   0.0000   0.0000

          k =-0.1768-0.1768-0.1768 (  6234 PWs)   bands (ev):

   -29.3874 -29.3045 -29.2846 -29.2810 -29.2804 -29.2552 -29.2543 -29.2501
   -11.3810 -11.3808 -11.3804 -11.3402 -10.9080 -10.9074 -10.9066 -10.5665
   -10.5650 -10.5639 -10.4748 -10.4536 -10.4535 -10.4532 -10.3579 -10.3574
   -10.3566 -10.3151 -10.3146 -10.3143 -10.2769 -10.2767 -10.2355 -10.2351
    -7.2922  -7.1199  -7.1198  -7.1196  -6.3753  -6.3589  -6.3589  -6.3588
     5.4182   5.4192   5.4202   5.4653   6.4882   6.4885   6.4887   6.6562
     6.6571   6.6579   6.7585   6.7586   6.7587   6.7909   6.7909   7.1949
     7.1968   7.1992   7.3371   7.3817   7.3819   7.3820   7.6702   7.6702
    11.9644  11.9666  11.9688  13.3745  14.1127  14.4368  14.4373  14.6325
    14.6388  14.6401  14.6624  15.5505  15.5529

     occupation numbers 
     1.0000   1.0000   1.0000   1.0000   1.0000   1.0000   1.0000   1.0000
     1.0000   1.0000   1.0000   1.0000   1.0000   1.0000   1.0000   1.0000
     1.0000   1.0000   1.0000   1.0000   1.0000   1.0000   1.0000   1.0000
     1.0000   1.0000   1.0000   1.0000   1.0000   1.0000   1.0000   1.0000
     1.0000   1.0000   1.0000   1.0000   1.0000   1.0000   1.0000   1.0000
     1.0000   1.0000   1.0000   1.0000   1.0000   1.0000   1.0000   1.0000
     1.0000   1.0000   1.0000   1.0000   1.0000   1.0000   1.0000   1.0000
     1.0000   1.0000   1.0000   1.0000   1.0000   1.0000   1.0000   1.0000
     0.0000   0.0000   0.0000   0.0000   0.0000   0.0000   0.0000   0.0000
     0.0000   0.0000   0.0000   0.0000   0.0000

          k =-0.1768 0.1768 0.1768 (  6234 PWs)   bands (ev):

   -29.3874 -29.3039 -29.2855 -29.2808 -29.2803 -29.2552 -29.2544 -29.2498
   -11.3812 -11.3807 -11.3802 -11.3403 -10.9088 -10.9073 -10.9058 -10.5686
   -10.5650 -10.5620 -10.4747 -10.4536 -10.4534 -10.4532 -10.3587 -10.3575
   -10.3558 -10.3148 -10.3144 -10.3142 -10.2773 -10.2771 -10.2354 -10.2349
    -7.2922  -7.1201  -7.1198  -7.1195  -6.3753  -6.3590  -6.3589  -6.3588
     5.4178   5.4192   5.4206   5.4652   6.4881   6.4885   6.4888   6.6559
     6.6570   6.6581   6.7583   6.7586   6.7588   6.7910   6.7911   7.1941
     7.1971   7.2000   7.3368   7.3815   7.3820   7.3822   7.6701   7.6702
    11.9620  11.9666  11.9713  13.3745  14.1128  14.4369  14.4373  14.6303
    14.6379  14.6434  14.6618  15.5507  15.5541

     occupation numbers 
     1.0000   1.0000   1.0000   1.0000   1.0000   1.0000   1.0000   1.0000
     1.0000   1.0000   1.0000   1.0000   1.0000   1.0000   1.0000   1.0000
     1.0000   1.0000   1.0000   1.0000   1.0000   1.0000   1.0000   1.0000
     1.0000   1.0000   1.0000   1.0000   1.0000   1.0000   1.0000   1.0000
     1.0000   1.0000   1.0000   1.0000   1.0000   1.0000   1.0000   1.0000
     1.0000   1.0000   1.0000   1.0000   1.0000   1.0000   1.0000   1.0000
     1.0000   1.0000   1.0000   1.0000   1.0000   1.0000   1.0000   1.0000
     1.0000   1.0000   1.0000   1.0000   1.0000   1.0000   1.0000   1.0000
     0.0000   0.0000   0.0000   0.0000   0.0000   0.0000   0.0000   0.0000
     0.0000   0.0000   0.0000   0.0000   0.0000

          k = 0.1768-0.1768 0.1768 (  6234 PWs)   bands (ev):

   -29.3874 -29.3047 -29.2837 -29.2817 -29.2803 -29.2553 -29.2540 -29.2503
   -11.3813 -11.3806 -11.3802 -11.3403 -10.9092 -10.9073 -10.9055 -10.5694
   -10.5653 -10.5608 -10.4751 -10.4536 -10.4534 -10.4529 -10.3592 -10.3569
   -10.3557 -10.3151 -10.3146 -10.3144 -10.2766 -10.2766 -10.2357 -10.2353
    -7.2922  -7.1201  -7.1198  -7.1194  -6.3753  -6.3589  -6.3589  -6.3588
     5.4179   5.4192   5.4204   5.4652   6.4881   6.4884   6.4888   6.6560
     6.6570   6.6580   6.7582   6.7586   6.7587   6.7910   6.7911   7.1944
     7.1970   7.1997   7.3366   7.3815   7.3822   7.3824   7.6701   7.6703
    11.9609  11.9666  11.9723  13.3745  14.1128  14.4369  14.4371  14.6304
    14.6338  14.6470  14.6623  15.5509  15.5540

     occupation numbers 
     1.0000   1.0000   1.0000   1.0000   1.0000   1.0000   1.0000   1.0000
     1.0000   1.0000   1.0000   1.0000   1.0000   1.0000   1.0000   1.0000
     1.0000   1.0000   1.0000   1.0000   1.0000   1.0000   1.0000   1.0000
     1.0000   1.0000   1.0000   1.0000   1.0000   1.0000   1.0000   1.0000
     1.0000   1.0000   1.0000   1.0000   1.0000   1.0000   1.0000   1.0000
     1.0000   1.0000   1.0000   1.0000   1.0000   1.0000   1.0000   1.0000
     1.0000   1.0000   1.0000   1.0000   1.0000   1.0000   1.0000   1.0000
     1.0000   1.0000   1.0000   1.0000   1.0000   1.0000   1.0000   1.0000
     0.0000   0.0000   0.0000   0.0000   0.0000   0.0000   0.0000   0.0000
     0.0000   0.0000   0.0000   0.0000   0.0000

          k = 0.3536 0.3536 0.3536 (  6266 PWs)   bands (ev):

   -29.3491 -29.3429 -29.2794 -29.2725 -29.2699 -29.2658 -29.2630 -29.2557
   -11.1238 -11.1222 -11.1214 -11.1155 -11.1147 -11.1133 -10.9558 -10.9490
   -10.5253 -10.5195 -10.5166 -10.5127 -10.5100 -10.5040 -10.3907 -10.3883
   -10.3854 -10.3835 -10.3814 -10.3784 -10.2595 -10.2592 -10.2533 -10.2530
    -6.7954  -6.7868  -6.7266  -6.7239  -6.7212  -6.7142  -6.7122  -6.7096
     6.0390   6.0450   6.0465   6.0515   6.0527   6.0587   6.2949   6.3053
     6.7642   6.7706   6.7724   6.7785   6.7798   6.7869   7.0526   7.0572
     7.0585   7.0673   7.0689   7.0741   7.1894   7.1933   7.2057   7.2089
    13.2123  13.2206  13.2212  13.2301  13.2302  13.2380  14.1678  14.1742
    14.8494  14.8564  15.1584  15.1622  15.1693

     occupation numbers 
     1.0000   1.0000   1.0000   1.0000   1.0000   1.0000   1.0000   1.0000
     1.0000   1.0000   1.0000   1.0000   1.0000   1.0000   1.0000   1.0000
     1.0000   1.0000   1.0000   1.0000   1.0000   1.0000   1.0000   1.0000
     1.0000   1.0000   1.0000   1.0000   1.0000   1.0000   1.0000   1.0000
     1.0000   1.0000   1.0000   1.0000   1.0000   1.0000   1.0000   1.0000
     1.0000   1.0000   1.0000   1.0000   1.0000   1.0000   1.0000   1.0000
     1.0000   1.0000   1.0000   1.0000   1.0000   1.0000   1.0000   1.0000
     1.0000   1.0000   1.0000   1.0000   1.0000   1.0000   1.0000   1.0000
     0.0000   0.0000   0.0000   0.0000   0.0000   0.0000   0.0000   0.0000
     0.0000   0.0000   0.0000   0.0000   0.0000

          k = 0.3536-0.3536-0.3536 (  6266 PWs)   bands (ev):

   -29.3507 -29.3409 -29.2805 -29.2718 -29.2699 -29.2658 -29.2635 -29.2551
   -11.1249 -11.1227 -11.1213 -11.1156 -11.1139 -11.1123 -10.9555 -10.9492
   -10.5263 -10.5182 -10.5169 -10.5138 -10.5095 -10.5033 -10.3921 -10.3900
   -10.3859 -10.3830 -10.3795 -10.3769 -10.2613 -10.2611 -10.2518 -10.2512
    -6.7938  -6.7886  -6.7252  -6.7231  -6.7216  -6.7145  -6.7122  -6.7108
     6.0422   6.0471   6.0476   6.0493   6.0511   6.0562   6.2980   6.3020
     6.7665   6.7677   6.7715   6.7776   6.7837   6.7854   7.0567   7.0603
     7.0615   7.0641   7.0654   7.0697   7.1958   7.1962   7.2027   7.2036
    13.2146  13.2165  13.2191  13.2297  13.2346  13.2379  14.1669  14.1753
    14.8474  14.8584  15.1587  15.1608  15.1690

     occupation numbers 
     1.0000   1.0000   1.0000   1.0000   1.0000   1.0000   1.0000   1.0000
     1.0000   1.0000   1.0000   1.0000   1.0000   1.0000   1.0000   1.0000
     1.0000   1.0000   1.0000   1.0000   1.0000   1.0000   1.0000   1.0000
     1.0000   1.0000   1.0000   1.0000   1.0000   1.0000   1.0000   1.0000
     1.0000   1.0000   1.0000   1.0000   1.0000   1.0000   1.0000   1.0000
     1.0000   1.0000   1.0000   1.0000   1.0000   1.0000   1.0000   1.0000
     1.0000   1.0000   1.0000   1.0000   1.0000   1.0000   1.0000   1.0000
     1.0000   1.0000   1.0000   1.0000   1.0000   1.0000   1.0000   1.0000
     0.0000   0.0000   0.0000   0.0000   0.0000   0.0000   0.0000   0.0000
     0.0000   0.0000   0.0000   0.0000   0.0000

          k =-0.3536 0.3536-0.3536 (  6266 PWs)   bands (ev):

   -29.3473 -29.3449 -29.2781 -29.2739 -29.2697 -29.2660 -29.2620 -29.2564
   -11.1237 -11.1219 -11.1207 -11.1159 -11.1148 -11.1138 -10.9539 -10.9509
   -10.5251 -10.5205 -10.5176 -10.5122 -10.5081 -10.5046 -10.3886 -10.3875
   -10.3873 -10.3824 -10.3813 -10.3806 -10.2575 -10.2571 -10.2555 -10.2548
    -6.7932  -6.7892  -6.7250  -6.7225  -6.7213  -6.7145  -6.7131  -6.7110
     6.0433   6.0473   6.0473   6.0501   6.0506   6.0546   6.2975   6.3025
     6.7669   6.7682   6.7718   6.7793   6.7807   6.7857   7.0568   7.0594
     7.0613   7.0645   7.0655   7.0696   7.1954   7.1962   7.2031   7.2041
    13.2124  13.2159  13.2212  13.2295  13.2342  13.2388  14.1696  14.1725
    14.8517  14.8541  15.1606  15.1640  15.1674

     occupation numbers 
     1.0000   1.0000   1.0000   1.0000   1.0000   1.0000   1.0000   1.0000
     1.0000   1.0000   1.0000   1.0000   1.0000   1.0000   1.0000   1.0000
     1.0000   1.0000   1.0000   1.0000   1.0000   1.0000   1.0000   1.0000
     1.0000   1.0000   1.0000   1.0000   1.0000   1.0000   1.0000   1.0000
     1.0000   1.0000   1.0000   1.0000   1.0000   1.0000   1.0000   1.0000
     1.0000   1.0000   1.0000   1.0000   1.0000   1.0000   1.0000   1.0000
     1.0000   1.0000   1.0000   1.0000   1.0000   1.0000   1.0000   1.0000
     1.0000   1.0000   1.0000   1.0000   1.0000   1.0000   1.0000   1.0000
     0.0000   0.0000   0.0000   0.0000   0.0000   0.0000   0.0000   0.0000
     0.0000   0.0000   0.0000   0.0000   0.0000

          k = 0.0000 0.3536 0.0000 (  6254 PWs)   bands (ev):

   -29.3819 -29.2919 -29.2879 -29.2862 -29.2858 -29.2685 -29.2495 -29.2460
   -11.3443 -11.3440 -11.3436 -11.3432 -10.9219 -10.8408 -10.8408 -10.6068
   -10.6062 -10.5444 -10.5442 -10.4813 -10.4445 -10.4444 -10.3824 -10.3820
   -10.3800 -10.3790 -10.2887 -10.2871 -10.2859 -10.2852 -10.2641 -10.2619
    -7.2483  -7.1148  -7.0772  -7.0772  -6.3784  -6.3783  -6.3782  -6.3780
     5.4577   5.4592   5.4602   5.4616   6.2762   6.6236   6.6242   6.6851
     6.6858   6.6870   6.6882   6.8059   6.8072   6.8083   6.8093   7.0142
     7.0149   7.0244   7.2192   7.2193   7.5201   7.5202   7.7681   7.7682
    11.7350  12.3160  12.3161  13.4387  13.5996  14.7117  14.7200  14.7356
    14.7458  14.7586  14.7632  15.5079  15.5164

     occupation numbers 
     1.0000   1.0000   1.0000   1.0000   1.0000   1.0000   1.0000   1.0000
     1.0000   1.0000   1.0000   1.0000   1.0000   1.0000   1.0000   1.0000
     1.0000   1.0000   1.0000   1.0000   1.0000   1.0000   1.0000   1.0000
     1.0000   1.0000   1.0000   1.0000   1.0000   1.0000   1.0000   1.0000
     1.0000   1.0000   1.0000   1.0000   1.0000   1.0000   1.0000   1.0000
     1.0000   1.0000   1.0000   1.0000   1.0000   1.0000   1.0000   1.0000
     1.0000   1.0000   1.0000   1.0000   1.0000   1.0000   1.0000   1.0000
     1.0000   1.0000   1.0000   1.0000   1.0000   1.0000   1.0000   1.0000
     0.0000   0.0000   0.0000   0.0000   0.0000   0.0000   0.0000   0.0000
     0.0000   0.0000   0.0000   0.0000   0.0000

          k = 0.0000 0.0000 0.3536 (  6254 PWs)   bands (ev):

   -29.3819 -29.2923 -29.2873 -29.2862 -29.2859 -29.2688 -29.2490 -29.2464
   -11.3447 -11.3439 -11.3436 -11.3428 -10.9219 -10.8408 -10.8408 -10.6067
   -10.6064 -10.5443 -10.5442 -10.4814 -10.4446 -10.4444 -10.3829 -10.3818
   -10.3801 -10.3786 -10.2885 -10.2873 -10.2859 -10.2853 -10.2636 -10.2623
    -7.2483  -7.1147  -7.0772  -7.0771  -6.3785  -6.3783  -6.3782  -6.3780
     5.4588   5.4595   5.4598   5.4605   6.2763   6.6234   6.6242   6.6846
     6.6860   6.6872   6.6883   6.8061   6.8074   6.8081   6.8092   7.0144
     7.0153   7.0241   7.2192   7.2192   7.5201   7.5201   7.7680   7.7681
    11.7349  12.3160  12.3161  13.4387  13.5996  14.7151  14.7176  14.7374
    14.7417  14.7598  14.7630  15.5097  15.5204

     occupation numbers 
     1.0000   1.0000   1.0000   1.0000   1.0000   1.0000   1.0000   1.0000
     1.0000   1.0000   1.0000   1.0000   1.0000   1.0000   1.0000   1.0000
     1.0000   1.0000   1.0000   1.0000   1.0000   1.0000   1.0000   1.0000
     1.0000   1.0000   1.0000   1.0000   1.0000   1.0000   1.0000   1.0000
     1.0000   1.0000   1.0000   1.0000   1.0000   1.0000   1.0000   1.0000
     1.0000   1.0000   1.0000   1.0000   1.0000   1.0000   1.0000   1.0000
     1.0000   1.0000   1.0000   1.0000   1.0000   1.0000   1.0000   1.0000
     1.0000   1.0000   1.0000   1.0000   1.0000   1.0000   1.0000   1.0000
     0.0000   0.0000   0.0000   0.0000   0.0000   0.0000   0.0000   0.0000
     0.0000   0.0000   0.0000   0.0000   0.0000

          k = 0.1768 0.5303 0.5303 (  6253 PWs)   bands (ev):

   -29.3491 -29.3212 -29.2960 -29.2818 -29.2794 -29.2677 -29.2535 -29.2497
   -11.1642 -11.1639 -11.1631 -11.0881 -10.9834 -10.9545 -10.9541 -10.8128
   -10.6426 -10.6420 -10.5882 -10.4823 -10.4796 -10.4771 -10.4741 -10.4118
   -10.3898 -10.3652 -10.3425 -10.3384 -10.3374 -10.2991 -10.2828 -10.2509
    -6.9219  -6.8690  -6.8219  -6.8218  -6.6244  -6.5919  -6.5917  -6.5772
     5.8228   5.8245   5.8565   5.9252   6.0595   6.3584   6.3593   6.3646
     6.7527   6.7545   6.7690   6.7795   6.7815   6.8053   6.8905   6.9910
     6.9927   7.0228   7.0273   7.2110   7.2508   7.3902   7.3914   7.5005
    12.4925  13.3917  13.4008  13.4028  13.7770  13.7829  14.1083  14.3823
    14.4284  15.1499  15.2210  15.3396  15.3432

     occupation numbers 
     1.0000   1.0000   1.0000   1.0000   1.0000   1.0000   1.0000   1.0000
     1.0000   1.0000   1.0000   1.0000   1.0000   1.0000   1.0000   1.0000
     1.0000   1.0000   1.0000   1.0000   1.0000   1.0000   1.0000   1.0000
     1.0000   1.0000   1.0000   1.0000   1.0000   1.0000   1.0000   1.0000
     1.0000   1.0000   1.0000   1.0000   1.0000   1.0000   1.0000   1.0000
     1.0000   1.0000   1.0000   1.0000   1.0000   1.0000   1.0000   1.0000
     1.0000   1.0000   1.0000   1.0000   1.0000   1.0000   1.0000   1.0000
     1.0000   1.0000   1.0000   1.0000   1.0000   1.0000   1.0000   1.0000
     0.0000   0.0000   0.0000   0.0000   0.0000   0.0000   0.0000   0.0000
     0.0000   0.0000   0.0000   0.0000   0.0000

          k = 0.1768-0.5303-0.5303 (  6253 PWs)   bands (ev):

   -29.3495 -29.3201 -29.2970 -29.2818 -29.2794 -29.2674 -29.2536 -29.2497
   -11.1642 -11.1638 -11.1632 -11.0881 -10.9833 -10.9544 -10.9540 -10.8128
   -10.6426 -10.6420 -10.5882 -10.4831 -10.4807 -10.4759 -10.4734 -10.4116
   -10.3900 -10.3654 -10.3420 -10.3384 -10.3374 -10.2997 -10.2827 -10.2507
    -6.9219  -6.8690  -6.8218  -6.8218  -6.6244  -6.5919  -6.5917  -6.5772
     5.8228   5.8245   5.8568   5.9250   6.0594   6.3586   6.3594   6.3641
     6.7525   6.7542   6.7686   6.7801   6.7819   6.8054   6.8905   6.9915
     6.9932   7.0224   7.0266   7.2111   7.2509   7.3902   7.3913   7.5005
    12.4925  13.3931  13.4005  13.4019  13.7770  13.7829  14.1081  14.3825
    14.4283  15.1504  15.2208  15.3415  15.3660

     occupation numbers 
     1.0000   1.0000   1.0000   1.0000   1.0000   1.0000   1.0000   1.0000
     1.0000   1.0000   1.0000   1.0000   1.0000   1.0000   1.0000   1.0000
     1.0000   1.0000   1.0000   1.0000   1.0000   1.0000   1.0000   1.0000
     1.0000   1.0000   1.0000   1.0000   1.0000   1.0000   1.0000   1.0000
     1.0000   1.0000   1.0000   1.0000   1.0000   1.0000   1.0000   1.0000
     1.0000   1.0000   1.0000   1.0000   1.0000   1.0000   1.0000   1.0000
     1.0000   1.0000   1.0000   1.0000   1.0000   1.0000   1.0000   1.0000
     1.0000   1.0000   1.0000   1.0000   1.0000   1.0000   1.0000   1.0000
     0.0000   0.0000   0.0000   0.0000   0.0000   0.0000   0.0000   0.0000
     0.0000   0.0000   0.0000   0.0000   0.0000

          k =-0.1768 0.5303-0.5303 (  6253 PWs)   bands (ev):

   -29.3489 -29.3220 -29.2944 -29.2825 -29.2805 -29.2668 -29.2535 -29.2500
   -11.1642 -11.1636 -11.1634 -11.0881 -10.9833 -10.9555 -10.9531 -10.8128
   -10.6455 -10.6392 -10.5882 -10.4821 -10.4803 -10.4766 -10.4739 -10.4117
   -10.3899 -10.3652 -10.3431 -10.3390 -10.3367 -10.2986 -10.2831 -10.2509
    -6.9219  -6.8690  -6.8218  -6.8218  -6.6244  -6.5920  -6.5917  -6.5772
     5.8207   5.8266   5.8568   5.9249   6.0594   6.3587   6.3591   6.3644
     6.7519   6.7549   6.7684   6.7805   6.7816   6.8053   6.8906   6.9911
     6.9933   7.0235   7.0258   7.2110   7.2508   7.3864   7.3952   7.5006
    12.4924  13.3918  13.3977  13.4059  13.7695  13.7902  14.1082  14.3819
    14.4286  15.1501  15.2208  15.3401  15.3664

     occupation numbers 
     1.0000   1.0000   1.0000   1.0000   1.0000   1.0000   1.0000   1.0000
     1.0000   1.0000   1.0000   1.0000   1.0000   1.0000   1.0000   1.0000
     1.0000   1.0000   1.0000   1.0000   1.0000   1.0000   1.0000   1.0000
     1.0000   1.0000   1.0000   1.0000   1.0000   1.0000   1.0000   1.0000
     1.0000   1.0000   1.0000   1.0000   1.0000   1.0000   1.0000   1.0000
     1.0000   1.0000   1.0000   1.0000   1.0000   1.0000   1.0000   1.0000
     1.0000   1.0000   1.0000   1.0000   1.0000   1.0000   1.0000   1.0000
     1.0000   1.0000   1.0000   1.0000   1.0000   1.0000   1.0000   1.0000
     0.0000   0.0000   0.0000   0.0000   0.0000   0.0000   0.0000   0.0000
     0.0000   0.0000   0.0000   0.0000   0.0000

          k =-0.5303-0.1768-0.5303 (  6253 PWs)   bands (ev):

   -29.3492 -29.3206 -29.2977 -29.2813 -29.2771 -29.2691 -29.2544 -29.2490
   -11.1642 -11.1639 -11.1631 -11.0881 -10.9834 -10.9544 -10.9541 -10.8128
   -10.6431 -10.6414 -10.5881 -10.4816 -10.4804 -10.4767 -10.4748 -10.4118
   -10.3896 -10.3652 -10.3421 -10.3384 -10.3375 -10.2996 -10.2825 -10.2510
    -6.9219  -6.8690  -6.8219  -6.8218  -6.6244  -6.5920  -6.5916  -6.5772
     5.8234   5.8237   5.8569   5.9250   6.0595   6.3574   6.3592   6.3657
     6.7527   6.7546   6.7685   6.7796   6.7818   6.8053   6.8905   6.9915
     6.9922   7.0228   7.0272   7.2110   7.2508   7.3901   7.3916   7.5005
    12.4926  13.3884  13.4012  13.4057  13.7796  13.7798  14.1089  14.3822
    14.4282  15.1503  15.2204  15.3011  15.3417

     occupation numbers 
     1.0000   1.0000   1.0000   1.0000   1.0000   1.0000   1.0000   1.0000
     1.0000   1.0000   1.0000   1.0000   1.0000   1.0000   1.0000   1.0000
     1.0000   1.0000   1.0000   1.0000   1.0000   1.0000   1.0000   1.0000
     1.0000   1.0000   1.0000   1.0000   1.0000   1.0000   1.0000   1.0000
     1.0000   1.0000   1.0000   1.0000   1.0000   1.0000   1.0000   1.0000
     1.0000   1.0000   1.0000   1.0000   1.0000   1.0000   1.0000   1.0000
     1.0000   1.0000   1.0000   1.0000   1.0000   1.0000   1.0000   1.0000
     1.0000   1.0000   1.0000   1.0000   1.0000   1.0000   1.0000   1.0000
     0.0000   0.0000   0.0000   0.0000   0.0000   0.0000   0.0000   0.0000
     0.0000   0.0000   0.0000   0.0000   0.0000

          k = 0.5303 0.1768-0.5303 (  6253 PWs)   bands (ev):

   -29.3498 -29.3194 -29.2950 -29.2848 -29.2811 -29.2643 -29.2543 -29.2497
   -11.1644 -11.1636 -11.1632 -11.0881 -10.9833 -10.9550 -10.9534 -10.8128
   -10.6441 -10.6404 -10.5885 -10.4851 -10.4812 -10.4751 -10.4714 -10.4115
   -10.3905 -10.3657 -10.3423 -10.3382 -10.3369 -10.2998 -10.2830 -10.2503
    -6.9219  -6.8690  -6.8219  -6.8218  -6.6244  -6.5918  -6.5918  -6.5772
     5.8214   5.8258   5.8568   5.9249   6.0595   6.3589   6.3592   6.3642
     6.7517   6.7554   6.7686   6.7799   6.7815   6.8054   6.8906   6.9910
     6.9927   7.0231   7.0270   7.2110   7.2508   7.3879   7.3938   7.5005
    12.4925  13.3887  13.4000  13.4063  13.7721  13.7876  14.1086  14.3817
    14.4288  15.1505  15.2202  15.3018  15.3396

     occupation numbers 
     1.0000   1.0000   1.0000   1.0000   1.0000   1.0000   1.0000   1.0000
     1.0000   1.0000   1.0000   1.0000   1.0000   1.0000   1.0000   1.0000
     1.0000   1.0000   1.0000   1.0000   1.0000   1.0000   1.0000   1.0000
     1.0000   1.0000   1.0000   1.0000   1.0000   1.0000   1.0000   1.0000
     1.0000   1.0000   1.0000   1.0000   1.0000   1.0000   1.0000   1.0000
     1.0000   1.0000   1.0000   1.0000   1.0000   1.0000   1.0000   1.0000
     1.0000   1.0000   1.0000   1.0000   1.0000   1.0000   1.0000   1.0000
     1.0000   1.0000   1.0000   1.0000   1.0000   1.0000   1.0000   1.0000
     0.0000   0.0000   0.0000   0.0000   0.0000   0.0000   0.0000   0.0000
     0.0000   0.0000   0.0000   0.0000   0.0000

          k =-0.5303 0.1768 0.5303 (  6253 PWs)   bands (ev):

   -29.3494 -29.3208 -29.2937 -29.2848 -29.2811 -29.2647 -29.2543 -29.2497
   -11.1644 -11.1635 -11.1632 -11.0881 -10.9833 -10.9550 -10.9534 -10.8129
   -10.6442 -10.6404 -10.5884 -10.4842 -10.4799 -10.4767 -10.4719 -10.4115
   -10.3903 -10.3655 -10.3429 -10.3384 -10.3368 -10.2991 -10.2832 -10.2505
    -6.9219  -6.8690  -6.8219  -6.8218  -6.6244  -6.5918  -6.5918  -6.5772
     5.8214   5.8258   5.8569   5.9249   6.0595   6.3582   6.3590   6.3650
     6.7516   6.7543   6.7682   6.7807   6.7824   6.8054   6.8906   6.9911
     6.9934   7.0228   7.0264   7.2110   7.2509   7.3879   7.3937   7.5005
    12.4925  13.3873  13.4004  13.4077  13.7719  13.7875  14.1088  14.3817
    14.4287  15.1504  15.2207  15.3031  15.3385

     occupation numbers 
     1.0000   1.0000   1.0000   1.0000   1.0000   1.0000   1.0000   1.0000
     1.0000   1.0000   1.0000   1.0000   1.0000   1.0000   1.0000   1.0000
     1.0000   1.0000   1.0000   1.0000   1.0000   1.0000   1.0000   1.0000
     1.0000   1.0000   1.0000   1.0000   1.0000   1.0000   1.0000   1.0000
     1.0000   1.0000   1.0000   1.0000   1.0000   1.0000   1.0000   1.0000
     1.0000   1.0000   1.0000   1.0000   1.0000   1.0000   1.0000   1.0000
     1.0000   1.0000   1.0000   1.0000   1.0000   1.0000   1.0000   1.0000
     1.0000   1.0000   1.0000   1.0000   1.0000   1.0000   1.0000   1.0000
     0.0000   0.0000   0.0000   0.0000   0.0000   0.0000   0.0000   0.0000
     0.0000   0.0000   0.0000   0.0000   0.0000

          k = 0.5303-0.1768 0.5303 (  6253 PWs)   bands (ev):

   -29.3490 -29.3213 -29.2972 -29.2813 -29.2772 -29.2692 -29.2544 -29.2490
   -11.1642 -11.1638 -11.1631 -11.0881 -10.9834 -10.9544 -10.9541 -10.8128
   -10.6431 -10.6415 -10.5881 -10.4805 -10.4798 -10.4777 -10.4755 -10.4118
   -10.3895 -10.3651 -10.3425 -10.3385 -10.3373 -10.2993 -10.2825 -10.2511
    -6.9219  -6.8690  -6.8218  -6.8218  -6.6244  -6.5920  -6.5916  -6.5772
     5.8234   5.8237   5.8570   5.9250   6.0595   6.3581   6.3593   6.3647
     6.7531   6.7539   6.7680   6.7798   6.7825   6.8053   6.8904   6.9917
     6.9931   7.0227   7.0264   7.2111   7.2509   7.3900   7.3916   7.5005
    12.4925  13.3878  13.4013  13.4063  13.7794  13.7797  14.1088  14.3821
    14.4284  15.1503  15.2205  15.3027  15.3412

     occupation numbers 
     1.0000   1.0000   1.0000   1.0000   1.0000   1.0000   1.0000   1.0000
     1.0000   1.0000   1.0000   1.0000   1.0000   1.0000   1.0000   1.0000
     1.0000   1.0000   1.0000   1.0000   1.0000   1.0000   1.0000   1.0000
     1.0000   1.0000   1.0000   1.0000   1.0000   1.0000   1.0000   1.0000
     1.0000   1.0000   1.0000   1.0000   1.0000   1.0000   1.0000   1.0000
     1.0000   1.0000   1.0000   1.0000   1.0000   1.0000   1.0000   1.0000
     1.0000   1.0000   1.0000   1.0000   1.0000   1.0000   1.0000   1.0000
     1.0000   1.0000   1.0000   1.0000   1.0000   1.0000   1.0000   1.0000
     0.0000   0.0000   0.0000   0.0000   0.0000   0.0000   0.0000   0.0000
     0.0000   0.0000   0.0000   0.0000   0.0000

          k = 0.5303 0.5303-0.1768 (  6253 PWs)   bands (ev):

   -29.3498 -29.3191 -29.2965 -29.2831 -29.2809 -29.2655 -29.2536 -29.2499
   -11.1641 -11.1637 -11.1634 -11.0881 -10.9833 -10.9546 -10.9538 -10.8128
   -10.6432 -10.6413 -10.5884 -10.4845 -10.4824 -10.4741 -10.4720 -10.4115
   -10.3905 -10.3656 -10.3417 -10.3381 -10.3373 -10.3002 -10.2829 -10.2502
    -6.9219  -6.8690  -6.8220  -6.8217  -6.6244  -6.5919  -6.5916  -6.5772
     5.8225   5.8244   5.8570   5.9250   6.0595   6.3590   6.3593   6.3641
     6.7511   6.7540   6.7670   6.7811   6.7838   6.8054   6.8905   6.9908
     6.9926   7.0242   7.0264   7.2109   7.2508   7.3894   7.3921   7.5005
    12.4924  13.3887  13.4009  13.4056  13.7763  13.7831  14.1086  14.3820
    14.4284  15.1501  15.2208  15.3433  15.3653

     occupation numbers 
     1.0000   1.0000   1.0000   1.0000   1.0000   1.0000   1.0000   1.0000
     1.0000   1.0000   1.0000   1.0000   1.0000   1.0000   1.0000   1.0000
     1.0000   1.0000   1.0000   1.0000   1.0000   1.0000   1.0000   1.0000
     1.0000   1.0000   1.0000   1.0000   1.0000   1.0000   1.0000   1.0000
     1.0000   1.0000   1.0000   1.0000   1.0000   1.0000   1.0000   1.0000
     1.0000   1.0000   1.0000   1.0000   1.0000   1.0000   1.0000   1.0000
     1.0000   1.0000   1.0000   1.0000   1.0000   1.0000   1.0000   1.0000
     1.0000   1.0000   1.0000   1.0000   1.0000   1.0000   1.0000   1.0000
     0.0000   0.0000   0.0000   0.0000   0.0000   0.0000   0.0000   0.0000
     0.0000   0.0000   0.0000   0.0000   0.0000

          k =-0.5303 0.5303 0.1768 (  6253 PWs)   bands (ev):

   -29.3495 -29.3199 -29.2977 -29.2817 -29.2785 -29.2679 -29.2538 -29.2494
   -11.1645 -11.1640 -11.1627 -11.0881 -10.9833 -10.9549 -10.9535 -10.8128
   -10.6447 -10.6398 -10.5882 -10.4837 -10.4804 -10.4763 -10.4728 -10.4117
   -10.3899 -10.3653 -10.3420 -10.3388 -10.3367 -10.2999 -10.2825 -10.2507
    -6.9219  -6.8690  -6.8220  -6.8217  -6.6244  -6.5922  -6.5914  -6.5772
     5.8226   5.8245   5.8570   5.9249   6.0595   6.3580   6.3597   6.3644
     6.7529   6.7543   6.7681   6.7791   6.7828   6.8055   6.8903   6.9916
     6.9935   7.0218   7.0272   7.2111   7.2508   7.3879   7.3935   7.5004
    12.4925  13.3886  13.4005  13.4064  13.7762  13.7831  14.1088  14.3822
    14.4282  15.1495  15.2207  15.3024  15.3421

     occupation numbers 
     1.0000   1.0000   1.0000   1.0000   1.0000   1.0000   1.0000   1.0000
     1.0000   1.0000   1.0000   1.0000   1.0000   1.0000   1.0000   1.0000
     1.0000   1.0000   1.0000   1.0000   1.0000   1.0000   1.0000   1.0000
     1.0000   1.0000   1.0000   1.0000   1.0000   1.0000   1.0000   1.0000
     1.0000   1.0000   1.0000   1.0000   1.0000   1.0000   1.0000   1.0000
     1.0000   1.0000   1.0000   1.0000   1.0000   1.0000   1.0000   1.0000
     1.0000   1.0000   1.0000   1.0000   1.0000   1.0000   1.0000   1.0000
     1.0000   1.0000   1.0000   1.0000   1.0000   1.0000   1.0000   1.0000
     0.0000   0.0000   0.0000   0.0000   0.0000   0.0000   0.0000   0.0000
     0.0000   0.0000   0.0000   0.0000   0.0000

          k = 0.5303-0.5303 0.1768 (  6253 PWs)   bands (ev):

   -29.3490 -29.3216 -29.2961 -29.2818 -29.2785 -29.2683 -29.2538 -29.2495
   -11.1646 -11.1639 -11.1626 -11.0881 -10.9834 -10.9549 -10.9536 -10.8129
   -10.6448 -10.6399 -10.5881 -10.4816 -10.4800 -10.4771 -10.4745 -10.4118
   -10.3896 -10.3652 -10.3428 -10.3390 -10.3367 -10.2990 -10.2827 -10.2510
    -6.9219  -6.8690  -6.8220  -6.8217  -6.6244  -6.5922  -6.5915  -6.5772
     5.8226   5.8246   5.8568   5.9249   6.0595   6.3576   6.3595   6.3650
     6.7529   6.7544   6.7692   6.7787   6.7820   6.8055   6.8903   6.9919
     6.9932   7.0216   7.0274   7.2112   7.2508   7.3880   7.3935   7.5004
    12.4925  13.3878  13.4007  13.4070  13.7761  13.7829  14.1088  14.3819
    14.4286  15.1495  15.2207  15.3024  15.3416

     occupation numbers 
     1.0000   1.0000   1.0000   1.0000   1.0000   1.0000   1.0000   1.0000
     1.0000   1.0000   1.0000   1.0000   1.0000   1.0000   1.0000   1.0000
     1.0000   1.0000   1.0000   1.0000   1.0000   1.0000   1.0000   1.0000
     1.0000   1.0000   1.0000   1.0000   1.0000   1.0000   1.0000   1.0000
     1.0000   1.0000   1.0000   1.0000   1.0000   1.0000   1.0000   1.0000
     1.0000   1.0000   1.0000   1.0000   1.0000   1.0000   1.0000   1.0000
     1.0000   1.0000   1.0000   1.0000   1.0000   1.0000   1.0000   1.0000
     1.0000   1.0000   1.0000   1.0000   1.0000   1.0000   1.0000   1.0000
     0.0000   0.0000   0.0000   0.0000   0.0000   0.0000   0.0000   0.0000
     0.0000   0.0000   0.0000   0.0000   0.0000

          k =-0.5303-0.5303-0.1768 (  6253 PWs)   bands (ev):

   -29.3491 -29.3216 -29.2942 -29.2830 -29.2809 -29.2661 -29.2536 -29.2499
   -11.1643 -11.1636 -11.1632 -11.0880 -10.9833 -10.9547 -10.9539 -10.8128
   -10.6432 -10.6413 -10.5883 -10.4831 -10.4798 -10.4765 -10.4734 -10.4116
   -10.3900 -10.3653 -10.3432 -10.3382 -10.3373 -10.2987 -10.2831 -10.2507
    -6.9219  -6.8690  -6.8220  -6.8218  -6.6244  -6.5919  -6.5916  -6.5772
     5.8226   5.8245   5.8569   5.9249   6.0595   6.3575   6.3591   6.3658
     6.7514   6.7544   6.7677   6.7802   6.7833   6.8053   6.8906   6.9911
     6.9925   7.0242   7.0262   7.2109   7.2508   7.3894   7.3922   7.5004
    12.4925  13.3881  13.4010  13.4062  13.7764  13.7832  14.1086  14.3811
    14.4294  15.1500  15.2205  15.3023  15.3417

     occupation numbers 
     1.0000   1.0000   1.0000   1.0000   1.0000   1.0000   1.0000   1.0000
     1.0000   1.0000   1.0000   1.0000   1.0000   1.0000   1.0000   1.0000
     1.0000   1.0000   1.0000   1.0000   1.0000   1.0000   1.0000   1.0000
     1.0000   1.0000   1.0000   1.0000   1.0000   1.0000   1.0000   1.0000
     1.0000   1.0000   1.0000   1.0000   1.0000   1.0000   1.0000   1.0000
     1.0000   1.0000   1.0000   1.0000   1.0000   1.0000   1.0000   1.0000
     1.0000   1.0000   1.0000   1.0000   1.0000   1.0000   1.0000   1.0000
     1.0000   1.0000   1.0000   1.0000   1.0000   1.0000   1.0000   1.0000
     0.0000   0.0000   0.0000   0.0000   0.0000   0.0000   0.0000   0.0000
     0.0000   0.0000   0.0000   0.0000   0.0000

          k = 0.0000 0.3536 0.3536 (  6259 PWs)   bands (ev):

   -29.3625 -29.3082 -29.3064 -29.2754 -29.2697 -29.2663 -29.2608 -29.2488
   -11.2319 -11.2318 -11.1798 -11.1788 -10.9859 -10.9849 -10.8665 -10.7841
   -10.7290 -10.5040 -10.5037 -10.4948 -10.4939 -10.4503 -10.4496 -10.4120
   -10.3667 -10.3659 -10.3213 -10.3188 -10.3171 -10.3155 -10.3039 -10.2300
    -7.0022  -6.9028  -6.9026  -6.8821  -6.5669  -6.5662  -6.5331  -6.5331
     5.7694   5.7699   5.7744   5.7762   6.2234   6.2241   6.5097   6.6653
     6.6681   6.7293   6.7303   6.7958   6.7960   6.8704   6.8747   7.0551
     7.0570   7.0718   7.0790   7.0903   7.2394   7.2444   7.2885   7.6083
    12.5657  12.5707  13.0066  13.7886  13.8111  13.9210  14.1350  14.6380
    14.6997  14.7006  14.7677  14.7690  15.2525

     occupation numbers 
     1.0000   1.0000   1.0000   1.0000   1.0000   1.0000   1.0000   1.0000
     1.0000   1.0000   1.0000   1.0000   1.0000   1.0000   1.0000   1.0000
     1.0000   1.0000   1.0000   1.0000   1.0000   1.0000   1.0000   1.0000
     1.0000   1.0000   1.0000   1.0000   1.0000   1.0000   1.0000   1.0000
     1.0000   1.0000   1.0000   1.0000   1.0000   1.0000   1.0000   1.0000
     1.0000   1.0000   1.0000   1.0000   1.0000   1.0000   1.0000   1.0000
     1.0000   1.0000   1.0000   1.0000   1.0000   1.0000   1.0000   1.0000
     1.0000   1.0000   1.0000   1.0000   1.0000   1.0000   1.0000   1.0000
     0.0000   0.0000   0.0000   0.0000   0.0000   0.0000   0.0000   0.0000
     0.0000   0.0000   0.0000   0.0000   0.0000

          k =-0.3536 0.0000-0.3536 (  6259 PWs)   bands (ev):

   -29.3624 -29.3095 -29.3061 -29.2722 -29.2700 -29.2659 -29.2639 -29.2483
   -11.2319 -11.2318 -11.1794 -11.1792 -10.9857 -10.9852 -10.8666 -10.7839
   -10.7292 -10.5045 -10.5030 -10.4940 -10.4938 -10.4510 -10.4499 -10.4119
   -10.3669 -10.3661 -10.3203 -10.3198 -10.3160 -10.3154 -10.3047 -10.2302
    -7.0022  -6.9029  -6.9025  -6.8820  -6.5666  -6.5665  -6.5331  -6.5331
     5.7688   5.7699   5.7751   5.7762   6.2237   6.2237   6.5098   6.6662
     6.6671   6.7293   6.7303   6.7958   6.7959   6.8722   6.8730   7.0549
     7.0566   7.0721   7.0790   7.0905   7.2396   7.2439   7.2888   7.6083
    12.5681  12.5682  13.0066  13.7979  13.8015  13.9210  14.1350  14.6375
    14.7033  14.7043  14.7647  14.7651  15.2524

     occupation numbers 
     1.0000   1.0000   1.0000   1.0000   1.0000   1.0000   1.0000   1.0000
     1.0000   1.0000   1.0000   1.0000   1.0000   1.0000   1.0000   1.0000
     1.0000   1.0000   1.0000   1.0000   1.0000   1.0000   1.0000   1.0000
     1.0000   1.0000   1.0000   1.0000   1.0000   1.0000   1.0000   1.0000
     1.0000   1.0000   1.0000   1.0000   1.0000   1.0000   1.0000   1.0000
     1.0000   1.0000   1.0000   1.0000   1.0000   1.0000   1.0000   1.0000
     1.0000   1.0000   1.0000   1.0000   1.0000   1.0000   1.0000   1.0000
     1.0000   1.0000   1.0000   1.0000   1.0000   1.0000   1.0000   1.0000
     0.0000   0.0000   0.0000   0.0000   0.0000   0.0000   0.0000   0.0000
     0.0000   0.0000   0.0000   0.0000   0.0000

          k = 0.3536 0.0000-0.3536 (  6259 PWs)   bands (ev):

   -29.3628 -29.3069 -29.3059 -29.2794 -29.2697 -29.2661 -29.2573 -29.2501
   -11.2320 -11.2318 -11.1794 -11.1792 -10.9863 -10.9845 -10.8664 -10.7839
   -10.7292 -10.5049 -10.5027 -10.4960 -10.4938 -10.4511 -10.4478 -10.4121
   -10.3663 -10.3659 -10.3204 -10.3198 -10.3184 -10.3157 -10.3031 -10.2297
    -7.0022  -6.9028  -6.9026  -6.8821  -6.5666  -6.5665  -6.5331  -6.5331
     5.7692   5.7699   5.7750   5.7758   6.2226   6.2249   6.5098   6.6662
     6.6671   6.7292   6.7300   6.7958   6.7960   6.8722   6.8729   7.0552
     7.0570   7.0736   7.0787   7.0890   7.2394   7.2441   7.2887   7.6083
    12.5613  12.5750  13.0065  13.7977  13.8015  13.9212  14.1351  14.6384
    14.7021  14.7035  14.7648  14.7660  15.2524

     occupation numbers 
     1.0000   1.0000   1.0000   1.0000   1.0000   1.0000   1.0000   1.0000
     1.0000   1.0000   1.0000   1.0000   1.0000   1.0000   1.0000   1.0000
     1.0000   1.0000   1.0000   1.0000   1.0000   1.0000   1.0000   1.0000
     1.0000   1.0000   1.0000   1.0000   1.0000   1.0000   1.0000   1.0000
     1.0000   1.0000   1.0000   1.0000   1.0000   1.0000   1.0000   1.0000
     1.0000   1.0000   1.0000   1.0000   1.0000   1.0000   1.0000   1.0000
     1.0000   1.0000   1.0000   1.0000   1.0000   1.0000   1.0000   1.0000
     1.0000   1.0000   1.0000   1.0000   1.0000   1.0000   1.0000   1.0000
     0.0000   0.0000   0.0000   0.0000   0.0000   0.0000   0.0000   0.0000
     0.0000   0.0000   0.0000   0.0000   0.0000

          k = 0.3536 0.3536 0.0000 (  6259 PWs)   bands (ev):

   -29.3627 -29.3075 -29.3061 -29.2773 -29.2715 -29.2645 -29.2592 -29.2495
   -11.2319 -11.2318 -11.1794 -11.1792 -10.9858 -10.9850 -10.8665 -10.7839
   -10.7291 -10.5044 -10.5032 -10.4952 -10.4939 -10.4505 -10.4489 -10.4121
   -10.3664 -10.3660 -10.3206 -10.3196 -10.3177 -10.3156 -10.3036 -10.2298
    -7.0022  -6.9028  -6.9026  -6.8821  -6.5667  -6.5664  -6.5332  -6.5330
     5.7687   5.7697   5.7752   5.7763   6.2232   6.2243   6.5099   6.6663
     6.6676   6.7289   6.7295   6.7957   6.7959   6.8721   6.8734   7.0559
     7.0566   7.0721   7.0788   7.0898   7.2408   7.2426   7.2889   7.6084
    12.5651  12.5712  13.0065  13.7965  13.8027  13.9212  14.1352  14.6384
    14.7030  14.7031  14.7649  14.7656  15.2523

     occupation numbers 
     1.0000   1.0000   1.0000   1.0000   1.0000   1.0000   1.0000   1.0000
     1.0000   1.0000   1.0000   1.0000   1.0000   1.0000   1.0000   1.0000
     1.0000   1.0000   1.0000   1.0000   1.0000   1.0000   1.0000   1.0000
     1.0000   1.0000   1.0000   1.0000   1.0000   1.0000   1.0000   1.0000
     1.0000   1.0000   1.0000   1.0000   1.0000   1.0000   1.0000   1.0000
     1.0000   1.0000   1.0000   1.0000   1.0000   1.0000   1.0000   1.0000
     1.0000   1.0000   1.0000   1.0000   1.0000   1.0000   1.0000   1.0000
     1.0000   1.0000   1.0000   1.0000   1.0000   1.0000   1.0000   1.0000
     0.0000   0.0000   0.0000   0.0000   0.0000   0.0000   0.0000   0.0000
     0.0000   0.0000   0.0000   0.0000   0.0000

          k =-0.3536 0.3536 0.0000 (  6259 PWs)   bands (ev):

   -29.3625 -29.3086 -29.3063 -29.2735 -29.2716 -29.2645 -29.2624 -29.2486
   -11.2319 -11.2318 -11.1795 -11.1792 -10.9855 -10.9853 -10.8665 -10.7839
   -10.7292 -10.5057 -10.5017 -10.4943 -10.4940 -10.4518 -10.4486 -10.4119
   -10.3667 -10.3660 -10.3206 -10.3198 -10.3165 -10.3153 -10.3043 -10.2301
    -7.0022  -6.9032  -6.9022  -6.8820  -6.5667  -6.5664  -6.5332  -6.5330
     5.7689   5.7697   5.7753   5.7762   6.2231   6.2243   6.5097   6.6659
     6.6669   6.7291   6.7310   6.7958   6.7959   6.8718   6.8730   7.0539
     7.0569   7.0757   7.0809   7.0862   7.2385   7.2450   7.2887   7.6083
    12.5650  12.5713  13.0066  13.7966  13.8027  13.9210  14.1351  14.6377
    14.7023  14.7037  14.7653  14.7660  15.2525

     occupation numbers 
     1.0000   1.0000   1.0000   1.0000   1.0000   1.0000   1.0000   1.0000
     1.0000   1.0000   1.0000   1.0000   1.0000   1.0000   1.0000   1.0000
     1.0000   1.0000   1.0000   1.0000   1.0000   1.0000   1.0000   1.0000
     1.0000   1.0000   1.0000   1.0000   1.0000   1.0000   1.0000   1.0000
     1.0000   1.0000   1.0000   1.0000   1.0000   1.0000   1.0000   1.0000
     1.0000   1.0000   1.0000   1.0000   1.0000   1.0000   1.0000   1.0000
     1.0000   1.0000   1.0000   1.0000   1.0000   1.0000   1.0000   1.0000
     1.0000   1.0000   1.0000   1.0000   1.0000   1.0000   1.0000   1.0000
     0.0000   0.0000   0.0000   0.0000   0.0000   0.0000   0.0000   0.0000
     0.0000   0.0000   0.0000   0.0000   0.0000

          k = 0.0000-0.7071 0.0000 (  6314 PWs)   bands (ev):

   -29.3302 -29.3266 -29.2899 -29.2869 -29.2866 -29.2840 -29.2489 -29.2456
   -11.1548 -11.1543 -11.1539 -11.1535 -10.8212 -10.8206 -10.7199 -10.7187
   -10.6943 -10.6939 -10.6934 -10.6926 -10.5286 -10.5272 -10.5235 -10.5220
   -10.3565 -10.3550 -10.3545 -10.3544 -10.2881 -10.2871 -10.2855 -10.2850
    -6.9499  -6.9496  -6.8570  -6.8570  -6.5346  -6.5343  -6.5339  -6.5335
     5.7433   5.7460   5.7486   5.7513   6.1494   6.1515   6.5553   6.5555
     6.7358   6.7374   6.7390   6.7399   6.8153   6.8155   6.8163   6.8169
     7.0200   7.0252   7.0256   7.0312   7.5864   7.5865   7.5872   7.5872
    12.5461  12.5499  14.2326  14.2329  14.2372  14.2387  14.3985  14.4113
    14.4292  14.4432  14.6034  14.6068  15.2407

     occupation numbers 
     1.0000   1.0000   1.0000   1.0000   1.0000   1.0000   1.0000   1.0000
     1.0000   1.0000   1.0000   1.0000   1.0000   1.0000   1.0000   1.0000
     1.0000   1.0000   1.0000   1.0000   1.0000   1.0000   1.0000   1.0000
     1.0000   1.0000   1.0000   1.0000   1.0000   1.0000   1.0000   1.0000
     1.0000   1.0000   1.0000   1.0000   1.0000   1.0000   1.0000   1.0000
     1.0000   1.0000   1.0000   1.0000   1.0000   1.0000   1.0000   1.0000
     1.0000   1.0000   1.0000   1.0000   1.0000   1.0000   1.0000   1.0000
     1.0000   1.0000   1.0000   1.0000   1.0000   1.0000   1.0000   1.0000
     0.0000   0.0000   0.0000   0.0000   0.0000   0.0000   0.0000   0.0000
     0.0000   0.0000   0.0000   0.0000   0.0000

          k = 0.0000 0.0000-0.7071 (  6314 PWs)   bands (ev):

   -29.3297 -29.3272 -29.2885 -29.2874 -29.2865 -29.2850 -29.2484 -29.2459
   -11.1551 -11.1542 -11.1540 -11.1531 -10.8211 -10.8207 -10.7197 -10.7195
   -10.6945 -10.6940 -10.6928 -10.6924 -10.5293 -10.5271 -10.5236 -10.5213
   -10.3560 -10.3554 -10.3547 -10.3544 -10.2881 -10.2872 -10.2859 -10.2846
    -6.9501  -6.9494  -6.8571  -6.8570  -6.5347  -6.5343  -6.5338  -6.5334
     5.7440   5.7451   5.7494   5.7505   6.1488   6.1523   6.5553   6.5554
     6.7353   6.7370   6.7387   6.7405   6.8147   6.8152   6.8168   6.8180
     7.0193   7.0249   7.0263   7.0317   7.5861   7.5861   7.5874   7.5875
    12.5448  12.5511  14.2307  14.2308  14.2393  14.2409  14.4022  14.4076
    14.4326  14.4388  14.6024  14.6082  15.2431

     occupation numbers 
     1.0000   1.0000   1.0000   1.0000   1.0000   1.0000   1.0000   1.0000
     1.0000   1.0000   1.0000   1.0000   1.0000   1.0000   1.0000   1.0000
     1.0000   1.0000   1.0000   1.0000   1.0000   1.0000   1.0000   1.0000
     1.0000   1.0000   1.0000   1.0000   1.0000   1.0000   1.0000   1.0000
     1.0000   1.0000   1.0000   1.0000   1.0000   1.0000   1.0000   1.0000
     1.0000   1.0000   1.0000   1.0000   1.0000   1.0000   1.0000   1.0000
     1.0000   1.0000   1.0000   1.0000   1.0000   1.0000   1.0000   1.0000
     1.0000   1.0000   1.0000   1.0000   1.0000   1.0000   1.0000   1.0000
     0.0000   0.0000   0.0000   0.0000   0.0000   0.0000   0.0000   0.0000
     0.0000   0.0000   0.0000   0.0000   0.0000

          k = 0.3536-0.7071 0.0000 (  6228 PWs)   bands (ev):

   -29.3245 -29.3161 -29.3142 -29.3069 -29.2679 -29.2603 -29.2585 -29.2503
   -11.0377 -11.0354 -11.0326 -11.0304 -10.9977 -10.9956 -10.9919 -10.9899
   -10.6469 -10.6454 -10.6445 -10.6429 -10.4188 -10.4179 -10.4170 -10.4110
   -10.4056 -10.4050 -10.4020 -10.4014 -10.3024 -10.2970 -10.2954 -10.2902
    -6.7529  -6.7486  -6.7448  -6.7403  -6.6976  -6.6927  -6.6894  -6.6851
     6.0058   6.0077   6.0090   6.0093   6.0882   6.0917   6.0937   6.0955
     6.8098   6.8113   6.8127   6.8139   6.8533   6.8538   6.8560   6.8567
     7.0721   7.0781   7.0826   7.0886   7.3603   7.3610   7.3622   7.3628
    13.2466  13.2523  13.2550  13.2612  14.3675  14.3695  14.3796  14.3917
    14.5982  14.6005  14.6043  14.6106  15.1021

     occupation numbers 
     1.0000   1.0000   1.0000   1.0000   1.0000   1.0000   1.0000   1.0000
     1.0000   1.0000   1.0000   1.0000   1.0000   1.0000   1.0000   1.0000
     1.0000   1.0000   1.0000   1.0000   1.0000   1.0000   1.0000   1.0000
     1.0000   1.0000   1.0000   1.0000   1.0000   1.0000   1.0000   1.0000
     1.0000   1.0000   1.0000   1.0000   1.0000   1.0000   1.0000   1.0000
     1.0000   1.0000   1.0000   1.0000   1.0000   1.0000   1.0000   1.0000
     1.0000   1.0000   1.0000   1.0000   1.0000   1.0000   1.0000   1.0000
     1.0000   1.0000   1.0000   1.0000   1.0000   1.0000   1.0000   1.0000
     0.0000   0.0000   0.0000   0.0000   0.0000   0.0000   0.0000   0.0000
     0.0000   0.0000   0.0000   0.0000   0.0000

          k = 0.7071 0.0000 0.3536 (  6228 PWs)   bands (ev):

   -29.3244 -29.3169 -29.3134 -29.3069 -29.2678 -29.2612 -29.2577 -29.2504
   -11.0396 -11.0359 -11.0314 -11.0292 -10.9975 -10.9952 -10.9921 -10.9903
   -10.6476 -10.6454 -10.6444 -10.6421 -10.4193 -10.4184 -10.4163 -10.4107
   -10.4057 -10.4047 -10.4022 -10.4011 -10.3020 -10.2973 -10.2952 -10.2906
    -6.7514  -6.7507  -6.7427  -6.7417  -6.6959  -6.6955  -6.6871  -6.6865
     6.0035   6.0080   6.0086   6.0120   6.0877   6.0908   6.0929   6.0973
     6.8101   6.8113   6.8124   6.8139   6.8506   6.8541   6.8553   6.8599
     7.0707   7.0724   7.0884   7.0900   7.3585   7.3615   7.3616   7.3646
    13.2421  13.2525  13.2554  13.2655  14.3571  14.3740  14.3764  14.4014
    14.5874  14.6008  14.6035  14.6213  15.0953

     occupation numbers 
     1.0000   1.0000   1.0000   1.0000   1.0000   1.0000   1.0000   1.0000
     1.0000   1.0000   1.0000   1.0000   1.0000   1.0000   1.0000   1.0000
     1.0000   1.0000   1.0000   1.0000   1.0000   1.0000   1.0000   1.0000
     1.0000   1.0000   1.0000   1.0000   1.0000   1.0000   1.0000   1.0000
     1.0000   1.0000   1.0000   1.0000   1.0000   1.0000   1.0000   1.0000
     1.0000   1.0000   1.0000   1.0000   1.0000   1.0000   1.0000   1.0000
     1.0000   1.0000   1.0000   1.0000   1.0000   1.0000   1.0000   1.0000
     1.0000   1.0000   1.0000   1.0000   1.0000   1.0000   1.0000   1.0000
     0.0000   0.0000   0.0000   0.0000   0.0000   0.0000   0.0000   0.0000
     0.0000   0.0000   0.0000   0.0000   0.0000

     the Fermi energy is    10.1986 ev

!    total energy              =    -858.98546708 Ry
     Harris-Foulkes estimate   =    -858.98546708 Ry
     estimated scf accuracy    <          5.2E-11 Ry

     The total energy is the sum of the following terms:

     one-electron contribution =    -199.81337955 Ry
     hartree contribution      =     163.78187439 Ry
     xc contribution           =    -153.32603391 Ry
     ewald contribution        =    -669.62792800 Ry
     smearing contrib. (-TS)   =      -0.00000000 Ry

     convergence has been achieved in  15 iterations

     Forces acting on atoms (Ry/au):

     atom    1 type  1   force =   0.12415647E-02 -0.71252870E-03 -0.12568447E-02
     atom    2 type  2   force =  -0.67350122E-03 -0.88202533E-03 -0.90398251E-03
     atom    3 type  1   force =  -0.35520509E-03  0.17581758E-02  0.13174982E-02
     atom    4 type  2   force =   0.64732795E-03  0.90848920E-03  0.77965457E-03
     atom    5 type  1   force =  -0.15522508E-02 -0.89560231E-03  0.14201107E-02
     atom    6 type  2   force =  -0.56292532E-03 -0.20932011E-03 -0.15019993E-03
     atom    7 type  1   force =   0.18416624E-02 -0.18486637E-02 -0.19718034E-02
     atom    8 type  2   force =   0.15088184E-02  0.78099988E-05 -0.13355256E-02
     atom    9 type  1   force =   0.13469385E-02 -0.13363277E-02  0.12496912E-02
     atom   10 type  2   force =  -0.34619312E-03 -0.85075094E-03  0.42876526E-03
     atom   11 type  1   force =  -0.21426445E-02  0.10232602E-02 -0.20255096E-02
     atom   12 type  2   force =  -0.13068660E-02  0.61533616E-03  0.19113016E-03
     atom   13 type  1   force =  -0.13863462E-02 -0.70834212E-04  0.18365265E-02
     atom   14 type  2   force =  -0.13742072E-02  0.18401151E-03  0.84804502E-03
     atom   15 type  1   force =   0.27793835E-02  0.11885203E-02  0.28505735E-03
     atom   16 type  2   force =   0.33444405E-03  0.11204498E-02 -0.71261318E-03
     The non-local contrib.  to forces
     atom    1 type  1   force =   0.57178118E-03 -0.39539326E-04 -0.14425003E-02
     atom    2 type  2   force =   0.98041434E-03 -0.25245069E-02  0.68879117E-03
     atom    3 type  1   force =   0.13326822E-03  0.50641837E-03  0.18107840E-02
     atom    4 type  2   force =  -0.87922619E-03 -0.57981169E-03  0.35978608E-03
     atom    5 type  1   force =  -0.48561667E-03 -0.61327429E-03  0.10198121E-02
     atom    6 type  2   force =  -0.26535594E-02 -0.41678164E-03 -0.59041052E-03
     atom    7 type  1   force =   0.62088036E-03 -0.10201071E-02 -0.77091908E-03
     atom    8 type  2   force =   0.67013087E-02  0.13251672E-02 -0.41074645E-02
     atom    9 type  1   force =   0.11626703E-02 -0.14382179E-02  0.41329646E-03
     atom   10 type  2   force =   0.23316185E-02 -0.21774404E-03  0.11914123E-02
     atom   11 type  1   force =  -0.14555236E-03  0.36864239E-03 -0.17553419E-03
     atom   12 type  2   force =  -0.40322135E-02  0.20586753E-02 -0.45546388E-03
     atom   13 type  1   force =   0.12821507E-02  0.10400266E-02  0.12901678E-02
     atom   14 type  2   force =  -0.66474776E-02 -0.24115979E-02  0.14484913E-02
     atom   15 type  1   force =  -0.28463871E-03 -0.26419078E-03 -0.75670537E-03
     atom   16 type  2   force =   0.33199515E-02  0.31967933E-02  0.10599962E-02
     The ionic contribution  to forces
     atom    1 type  1   force =   0.23949447E-01 -0.28678961E-01 -0.67672001E-01
     atom    2 type  2   force =  -0.72488755E-01 -0.29278211E-01 -0.71319895E-01
     atom    3 type  1   force =   0.46299584E-03  0.69805171E-01  0.70033399E-01
     atom    4 type  2   force =   0.85092190E-01  0.70556294E-01  0.31448454E-01
     atom    5 type  1   force =  -0.57153030E-01 -0.29674057E-01  0.62031657E-01
     atom    6 type  2   force =   0.24591214E-01 -0.16644124E-01  0.11641605E-01
     atom    7 type  1   force =   0.81683396E-01 -0.75364377E-01 -0.79093123E-01
     atom    8 type  2   force =  -0.26165348E-01 -0.23332065E-01 -0.22927808E-01
     atom    9 type  1   force =   0.62989747E-01 -0.56522525E-01  0.36140013E-01
     atom   10 type  2   force =  -0.75970957E-01 -0.45490078E-01  0.25158984E-01
     atom   11 type  1   force =  -0.78288089E-01  0.38564991E-01 -0.61142708E-01
     atom   12 type  2   force =   0.48453944E-02  0.63785067E-02  0.20161761E-01
     atom   13 type  1   force =  -0.38495704E-01  0.28636097E-02  0.89119985E-01
     atom   14 type  2   force =   0.30590592E-01  0.51288585E-01  0.35133876E-01
     atom   15 type  1   force =   0.79934326E-01  0.40469080E-01 -0.12685132E-01
     atom   16 type  2   force =  -0.45577420E-01  0.25058162E-01 -0.66029067E-01
     The local contribution  to forces
     atom    1 type  1   force =  -0.23270730E-01  0.27992737E-01  0.67874164E-01
     atom    2 type  2   force =   0.70813786E-01  0.30897198E-01  0.69698714E-01
     atom    3 type  1   force =  -0.95568201E-03 -0.68540293E-01 -0.70551614E-01
     atom    4 type  2   force =  -0.83547216E-01 -0.69039768E-01 -0.31003700E-01
     atom    5 type  1   force =   0.56081552E-01  0.29385931E-01 -0.61627494E-01
     atom    6 type  2   force =  -0.22516262E-01  0.16846283E-01 -0.11206400E-01
     atom    7 type  1   force =  -0.80452886E-01  0.74532335E-01  0.77879125E-01
     atom    8 type  2   force =   0.21014341E-01  0.22014215E-01  0.25662945E-01
     atom    9 type  1   force =  -0.62814638E-01  0.56637158E-01 -0.35285060E-01
     atom   10 type  2   force =   0.73281581E-01  0.44830719E-01 -0.25911345E-01
     atom   11 type  1   force =   0.76269916E-01 -0.37902534E-01  0.59261784E-01
     atom   12 type  2   force =  -0.21580186E-02 -0.78050092E-02 -0.19508354E-01
     atom   13 type  1   force =   0.35782848E-01 -0.40021399E-02 -0.88579450E-01
     atom   14 type  2   force =  -0.25353581E-01 -0.48685200E-01 -0.35709973E-01
     atom   15 type  1   force =  -0.76819163E-01 -0.38992788E-01  0.13755446E-01
     atom   16 type  2   force =   0.42599772E-01 -0.27103904E-01  0.64233599E-01
     The core correction contribution to forces
     atom    1 type  1   force =  -0.80042625E-05  0.13460224E-04 -0.16414741E-04
     atom    2 type  2   force =   0.20982651E-04  0.24263913E-04  0.28258766E-04
     atom    3 type  1   force =   0.37026426E-05 -0.13538831E-04  0.25413158E-04
     atom    4 type  2   force =  -0.18977529E-04 -0.28266858E-04 -0.24452586E-04
     atom    5 type  1   force =   0.40874400E-05  0.58155563E-05 -0.42799353E-05
     atom    6 type  2   force =   0.16048582E-04  0.55224987E-05  0.48526661E-05
     atom    7 type  1   force =  -0.91188840E-05  0.33762661E-05  0.13054532E-04
     atom    8 type  2   force =  -0.42059987E-04  0.50430026E-06  0.37796229E-04
     atom    9 type  1   force =   0.97368660E-05 -0.13503802E-04 -0.18855822E-04
     atom   10 type  2   force =   0.11706380E-04  0.26272799E-04 -0.11154301E-04
     atom   11 type  1   force =   0.20930950E-04 -0.76915752E-05  0.31259340E-04
     atom   12 type  2   force =   0.38368439E-04 -0.17303860E-04 -0.64582222E-05
     atom   13 type  1   force =   0.44328946E-04  0.28129996E-04  0.62756764E-05
     atom   14 type  2   force =   0.37568182E-04 -0.74717060E-05 -0.24664335E-04
     atom   15 type  1   force =  -0.51156340E-04 -0.23738462E-04 -0.29006370E-04
     atom   16 type  2   force =  -0.83195625E-05 -0.31726374E-04  0.22591252E-04
     The Hubbard contrib.    to forces
     atom    1 type  1   force =   0.00000000E+00  0.00000000E+00  0.00000000E+00
     atom    2 type  2   force =   0.00000000E+00  0.00000000E+00  0.00000000E+00
     atom    3 type  1   force =   0.00000000E+00  0.00000000E+00  0.00000000E+00
     atom    4 type  2   force =   0.00000000E+00  0.00000000E+00  0.00000000E+00
     atom    5 type  1   force =   0.00000000E+00  0.00000000E+00  0.00000000E+00
     atom    6 type  2   force =   0.00000000E+00  0.00000000E+00  0.00000000E+00
     atom    7 type  1   force =   0.00000000E+00  0.00000000E+00  0.00000000E+00
     atom    8 type  2   force =   0.00000000E+00  0.00000000E+00  0.00000000E+00
     atom    9 type  1   force =   0.00000000E+00  0.00000000E+00  0.00000000E+00
     atom   10 type  2   force =   0.00000000E+00  0.00000000E+00  0.00000000E+00
     atom   11 type  1   force =   0.00000000E+00  0.00000000E+00  0.00000000E+00
     atom   12 type  2   force =   0.00000000E+00  0.00000000E+00  0.00000000E+00
     atom   13 type  1   force =   0.00000000E+00  0.00000000E+00  0.00000000E+00
     atom   14 type  2   force =   0.00000000E+00  0.00000000E+00  0.00000000E+00
     atom   15 type  1   force =   0.00000000E+00  0.00000000E+00  0.00000000E+00
     atom   16 type  2   force =   0.00000000E+00  0.00000000E+00  0.00000000E+00
     The SCF correction term to forces
     atom    1 type  1   force =  -0.86713387E-06 -0.28601418E-06 -0.89055523E-07
     atom    2 type  2   force =   0.13321656E-06 -0.83049955E-06  0.15281915E-06
     atom    3 type  1   force =   0.57274189E-06  0.35673598E-06 -0.47995793E-06
     atom    4 type  2   force =   0.62071764E-06 -0.18945453E-07 -0.42919041E-06
     atom    5 type  1   force =   0.81908699E-06 -0.79136670E-07  0.41972536E-06
     atom    6 type  2   force =  -0.30411145E-06 -0.28109386E-06  0.15743160E-06
     atom    7 type  1   force =  -0.54575385E-06  0.47832423E-07  0.64069326E-07
     atom    8 type  2   force =   0.63913651E-06 -0.71910499E-07 -0.99032381E-06
     atom    9 type  1   force =  -0.51535122E-06  0.69996542E-06  0.30123952E-06
     atom   10 type  2   force =  -0.79605373E-07  0.17855314E-07  0.87306501E-06
     atom   11 type  1   force =   0.21270418E-06 -0.20883979E-06 -0.30598020E-06
     atom   12 type  2   force =  -0.33423912E-06  0.40599413E-06 -0.35084705E-06
     atom   13 type  1   force =   0.92782991E-07 -0.52184469E-06 -0.44725447E-06
     atom   14 type  2   force =  -0.12472715E-05 -0.36420972E-06  0.31858924E-06
     atom   15 type  1   force =   0.78679536E-07  0.96486277E-07  0.45881552E-06
     atom   16 type  2   force =   0.52259824E-06  0.10638477E-05  0.27130645E-06

     Total force =     0.008363     Total SCF correction =     0.000003


     entering subroutine stress ...

          total   stress  (Ry/bohr**3)                   (kbar)     P=    0.16
   0.0000009884  -0.0000000556  -0.0000000123          0.15     -0.01     -0.00
  -0.0000000556   0.0000010749  -0.0000000077         -0.01      0.16     -0.00
  -0.0000000123  -0.0000000077   0.0000012428         -0.00     -0.00      0.18

     kinetic stress (kbar)  19113.67     -0.00     -0.01
                               -0.00  19113.66     -0.01
                               -0.01     -0.01  19113.70

     local   stress (kbar)  -1916.53      0.21      0.16
                                0.21  -1916.78      0.47
                                0.16      0.47  -1917.17

     nonloc. stress (kbar)   4494.10      0.00     -0.00
                                0.00   4494.10      0.00
                               -0.00      0.00   4494.10

     hartree stress (kbar)   5486.91     -0.08     -0.06
                               -0.08   5487.01     -0.18
                               -0.06     -0.18   5487.11

     exc-cor stress (kbar)  -3162.93      0.00     -0.00
                                0.00  -3162.93     -0.00
                               -0.00     -0.00  -3162.93

     corecor stress (kbar)  -1581.03      0.00      0.00
                                0.00  -1581.03      0.00
                                0.00      0.00  -1581.03

     ewald   stress (kbar) -22434.05     -0.14     -0.10
                               -0.14 -22433.87     -0.29
                               -0.10     -0.29 -22433.59

     hubbard stress (kbar)      0.00      0.00      0.00
                                0.00      0.00      0.00
                                0.00      0.00      0.00

     london  stress (kbar)      0.00      0.00      0.00
                                0.00      0.00      0.00
                                0.00      0.00      0.00

     XDM     stress (kbar)      0.00      0.00      0.00
                                0.00      0.00      0.00
                                0.00      0.00      0.00

     dft-nl  stress (kbar)      0.00      0.00      0.00
                                0.00      0.00      0.00
                                0.00      0.00      0.00



     Writing output data file CaO_rocksalt.relax.in.up_1.00.super.222.011.save

     init_run     :     22.32s CPU     22.54s WALL (       1 calls)
     electrons    :    864.36s CPU    898.72s WALL (       1 calls)
     forces       :      6.68s CPU      6.37s WALL (       1 calls)
     stress       :     14.26s CPU     14.36s WALL (       1 calls)

     Called by init_run:
     wfcinit      :     21.63s CPU     21.80s WALL (       1 calls)
     potinit      :      0.09s CPU      0.10s WALL (       1 calls)

     Called by electrons:
     c_bands      :    767.96s CPU    801.23s WALL (      15 calls)
     sum_band     :     90.57s CPU     91.43s WALL (      15 calls)
     v_of_rho     :      0.82s CPU      0.86s WALL (      16 calls)
     v_h          :      0.05s CPU      0.05s WALL (      16 calls)
     v_xc         :      0.86s CPU      0.91s WALL (      18 calls)
     newd         :      4.21s CPU      4.33s WALL (      16 calls)
     mix_rho      :      0.98s CPU      1.06s WALL (      15 calls)

     Called by c_bands:
     init_us_2    :      3.64s CPU      3.79s WALL (    1188 calls)
     cegterg      :    749.06s CPU    781.17s WALL (     540 calls)

     Called by sum_band:
     sum_band:bec :      0.73s CPU      0.69s WALL (     540 calls)
     addusdens    :      4.12s CPU      4.18s WALL (      15 calls)

     Called by *egterg:
     h_psi        :    408.39s CPU    409.07s WALL (    2206 calls)
     s_psi        :     45.34s CPU     37.69s WALL (    2206 calls)
     g_psi        :      0.53s CPU      0.61s WALL (    1630 calls)
     cdiaghg      :    137.65s CPU    171.95s WALL (    2170 calls)
     cegterg:over :     82.13s CPU     82.76s WALL (    1630 calls)
     cegterg:upda :     27.96s CPU     26.63s WALL (    1630 calls)
     cegterg:last :     13.26s CPU     11.27s WALL (     540 calls)

     Called by h_psi:
     h_psi:vloc   :    292.65s CPU    299.92s WALL (    2206 calls)
     h_psi:vnl    :    115.06s CPU    108.41s WALL (    2206 calls)
     add_vuspsi   :     45.81s CPU     39.99s WALL (    2206 calls)

     General routines
     calbec       :     97.12s CPU     95.70s WALL (    2818 calls)
     fft          :      0.85s CPU      0.86s WALL (     277 calls)
     ffts         :      0.61s CPU      0.67s WALL (     331 calls)
     fftw         :    331.54s CPU    339.45s WALL (  254034 calls)
     interpolate  :      0.14s CPU      0.16s WALL (      31 calls)

     Parallel routines
     fft_scatter  :    104.28s CPU    107.65s WALL (  254642 calls)

     PWSCF        : 15m 9.91s CPU    15m44.69s WALL


   This run was terminated on:  11: 4:31  21Aug2017            

=------------------------------------------------------------------------------=
   JOB DONE.
=------------------------------------------------------------------------------=
