
     Program PWSCF v.5.1 starts on 18Aug2017 at 20: 3: 8 

     This program is part of the open-source Quantum ESPRESSO suite
     for quantum simulation of materials; please cite
         "P. Giannozzi et al., J. Phys.:Condens. Matter 21 395502 (2009);
          URL http://www.quantum-espresso.org", 
     in publications or presentations arising from this work. More details at
     http://www.quantum-espresso.org/quote

     Parallel version (MPI), running on     8 processors
     R & G space division:  proc/nbgrp/npool/nimage =       8
     Reading input from /tmp/CaO_rocksalt.relax.in.up_1.00.super.444.02.10444/CaO_rocksalt.relax.in.up_1.00.super.444.02.t
Warning: card &IONS ignored
Warning: card   ION_DYNAMICS='BFGS', ignored
Warning: card / ignored
Warning: card &CELL ignored
Warning: card  CELL_DYNAMICS = 'BFGS' ignored
Warning: card / ignored
     Message from routine read_cards :
     DEPRECATED: no units specified in CELL_PARAMETERS card

     Current dimensions of program PWSCF are:
     Max number of different atomic species (ntypx) = 10
     Max number of k-points (npk) =  40000
     Max angular momentum in pseudopotentials (lmaxx) =  3
 kfg - two_fermi_energies  F

     Subspace diagonalization in iterative solution of the eigenvalue problem:
     a serial algorithm will be used


     Parallelization info
     --------------------
     sticks:   dense  smooth     PW     G-vecs:    dense   smooth      PW
     Min        1119     894    236                69921    50015    6787
     Max        1121     895    237                69923    50039    6792
     Sum        8959    7159   1891               559377   400181   54313



     bravais-lattice index     =            0
     lattice parameter (alat)  =    25.488665994  a.u.
     unit-cell volume          =   11709.1757 (a.u.)^3
     number of atoms/cell      =          128
     number of atomic types    =            2
     number of electrons       =      1024.00
     number of Kohn-Sham states=          614
     kinetic-energy cutoff     =      40.0000  Ry
     charge density cutoff     =     200.0000  Ry
     convergence threshold     =      1.0E-10
     mixing beta               =       0.3000
     number of iterations used =            8  local-TF  mixing
     Exchange-correlation      = SLA  PW   PSX  PSC ( 1  4 10  8 0)
     A smooth kinetic-energy cutoff is imposed at      39.5000 Ry
     height of the smooth step-function =             800.0000 Ry
     width of the smooth step-function  =               1.0000 Ry


     celldm(1)=  25.488666  celldm(2)=   0.000000  celldm(3)=   0.000000
     celldm(4)=   0.000000  celldm(5)=   0.000000  celldm(6)=   0.000000

     crystal axes: (cart. coord. in units of alat)
               a(1) = (   0.000000000000   0.707106781187   0.707106781187 )  
               a(2) = (   0.707106781187   0.000000000000   0.707106781187 )  
               a(3) = (   0.707106781187   0.707106781187   0.000000000000 )  

     reciprocal axes: (cart. coord. in units 2 pi/alat)
               b(1) = ( -0.707107  0.707107  0.707107 )  
               b(2) = (  0.707107 -0.707107  0.707107 )  
               b(3) = (  0.707107  0.707107 -0.707107 )  


     PseudoPot. # 1 for Ca read from file:
     /users/kfg/psuedo/gbrv_1.5/ca.pbesol.UPF
     MD5 check sum: 0533207b58cddeaa036efa5b63902087
     Pseudo is Ultrasoft + core correction, Zval = 10.0
     Generated by new atomic code, or converted to UPF format
     Using radial grid of  845 points,  6 beta functions with: 
                l(1) =   0
                l(2) =   0
                l(3) =   1
                l(4) =   1
                l(5) =   2
                l(6) =   2
     Q(r) pseudized with  8 coefficients,  rinner =    1.500   1.500   1.500
                                                       1.500   1.500

     PseudoPot. # 2 for O  read from file:
     /users/kfg/psuedo/gbrv_1.5/o.pbesol.UPF
     MD5 check sum: 501638753501ef6325af9037351f7734
     Pseudo is Ultrasoft + core correction, Zval =  6.0
     Generated by new atomic code, or converted to UPF format
     Using radial grid of  737 points,  5 beta functions with: 
                l(1) =   0
                l(2) =   0
                l(3) =   1
                l(4) =   1
                l(5) =   2
     Q(r) pseudized with  8 coefficients,  rinner =    0.900   0.900   0.900
                                                       0.900   0.900

     atomic species   valence    mass     pseudopotential
        Ca            10.00    40.07800     Ca( 1.00)
        O              6.00    15.99940     O ( 1.00)

     No symmetry found


                                    s                        frac. trans.

      isym =  1     identity                                     

 cryst.   s( 1) = (     1          0          0      )
                  (     0          1          0      )
                  (     0          0          1      )

 cart.    s( 1) = (  1.0000000  0.0000000  0.0000000 )
                  (  0.0000000  1.0000000  0.0000000 )
                  (  0.0000000  0.0000000  1.0000000 )


     point group C_1 (1)    
     there are  1 classes
     the character table:

       E    
A      1.00

     the symmetry operations in each class:
     E        1

   Cartesian axes

     site n.     atom                  positions (alat units)
         1           Ca  tau(   1) = (   -0.00017351872   -0.00161038685    0.00156757720  )
         2           O   tau(   2) = (    0.17576265103    0.17772336402    0.17503228292  )
         3           Ca  tau(   3) = (    0.17549880353    0.17783181529   -0.00085463594  )
         4           O   tau(   4) = (    0.35330124613    0.35385792279    0.17801617878  )
         5           Ca  tau(   5) = (    0.35250898724    0.35216478203   -0.00105849824  )
         6           O   tau(   6) = (    0.53020513904    0.53172537701    0.17532122838  )
         7           Ca  tau(   7) = (    0.53080741026    0.52899549459    0.00084192882  )
         8           O   tau(   8) = (    0.70758239498    0.70730230405    0.17804786390  )
         9           Ca  tau(   9) = (    0.17673785050    0.00171314381    0.17745174803  )
        10           O   tau(  10) = (    0.35424654892    0.17685068204    0.35472831630  )
        11           Ca  tau(  11) = (    0.35178359797    0.17729221093    0.17513603801  )
        12           O   tau(  12) = (    0.52933015667    0.35334078039    0.35541834370  )
        13           Ca  tau(  13) = (    0.53133915975    0.35309823680    0.17590060620  )
        14           O   tau(  14) = (    0.70600268697    0.52999899785    0.35267638334  )
        15           Ca  tau(  15) = (    0.70847639609    0.53226540683    0.17695852317  )
        16           O   tau(  16) = (    0.88463651348    0.70626352997    0.35236609401  )
        17           Ca  tau(  17) = (    0.35492974520    0.00078174095    0.35353183231  )
        18           O   tau(  18) = (    0.53212095169    0.17500777479    0.53080358000  )
        19           Ca  tau(  19) = (    0.53047557304    0.17535466134    0.35173275574  )
        20           O   tau(  20) = (    0.70860867742    0.35269106949    0.52877382942  )
        21           Ca  tau(  21) = (    0.70690294338    0.35487666238    0.35249792428  )
        22           O   tau(  22) = (    0.88506808352    0.52911980118    0.53149091958  )
        23           Ca  tau(  23) = (    0.88504107304    0.52842104019    0.35396821774  )
        24           O   tau(  24) = (    1.06111792392    0.70645312452    0.52931460684  )
        25           Ca  tau(  25) = (    0.53085047882    0.00164781450    0.53010767109  )
        26           O   tau(  26) = (    0.70573502803    0.17739531572    0.70885587089  )
        27           Ca  tau(  27) = (    0.70542391920    0.17499936995    0.53021915868  )
        28           O   tau(  28) = (    0.88299778770    0.35388439628    0.70769001954  )
        29           Ca  tau(  29) = (    0.88250290938    0.35493443777    0.52913860762  )
        30           O   tau(  30) = (    1.06214133188    0.53165438035    0.70859613058  )
        31           Ca  tau(  31) = (    1.05908054744    0.52865781412    0.53056048502  )
        32           O   tau(  32) = (    1.23829390202    0.70718785401    0.70562812023  )
        33           Ca  tau(  33) = (    0.00026465605    0.17810611541    0.17847056125  )
        34           O   tau(  34) = (    0.17490333099    0.35436180113    0.35310927393  )
        35           Ca  tau(  35) = (    0.17853270321    0.35422447054    0.17595224667  )
        36           O   tau(  36) = (    0.35366440078    0.53218810338    0.35448774730  )
        37           Ca  tau(  37) = (    0.35343701284    0.53066552069    0.17602387677  )
        38           O   tau(  38) = (    0.53217502714    0.70646095823    0.35422224429  )
        39           Ca  tau(  39) = (    0.52842677404    0.70772940206    0.17569671289  )
        40           O   tau(  40) = (    0.70775609375    0.88430787371    0.35223375604  )
        41           Ca  tau(  41) = (    0.17548495594    0.17840388195    0.35301807411  )
        42           O   tau(  42) = (    0.35412583459    0.35168954818    0.52890466393  )
        43           Ca  tau(  43) = (    0.35431751103    0.35221291962    0.35362466448  )
        44           O   tau(  44) = (    0.52853397609    0.53054877318    0.52950986752  )
        45           Ca  tau(  45) = (    0.53222664757    0.53059206290    0.35548892666  )
        46           O   tau(  46) = (    0.70881933425    0.70654330026    0.53135968740  )
        47           Ca  tau(  47) = (    0.70532199805    0.70774155175    0.35194714342  )
        48           O   tau(  48) = (    0.88375688839    0.88466362345    0.52894169102  )
        49           Ca  tau(  49) = (    0.35343828607    0.17574541557    0.52942932389  )
        50           O   tau(  50) = (    0.53093118634    0.35235572395    0.70783714853  )
        51           Ca  tau(  51) = (    0.52881653935    0.35166381371    0.53046196065  )
        52           O   tau(  52) = (    0.70637742717    0.52877764037    0.70708759346  )
        53           Ca  tau(  53) = (    0.70699009543    0.53006512619    0.52928370945  )
        54           O   tau(  54) = (    0.88560234362    0.70867676201    0.70610582108  )
        55           Ca  tau(  55) = (    0.88218066221    0.70639135478    0.52840791931  )
        56           O   tau(  56) = (    1.06089348503    0.88378667489    0.70887324735  )
        57           Ca  tau(  57) = (    0.53167766811    0.17509745290    0.70541427974  )
        58           O   tau(  58) = (    0.70902409669    0.35267282632    0.88259250032  )
        59           Ca  tau(  59) = (    0.70641410605    0.35240678778    0.70793149657  )
        60           O   tau(  60) = (    0.88461614870    0.53135481265    0.88282593017  )
        61           Ca  tau(  61) = (    0.88544781459    0.53153506889    0.70535514185  )
        62           O   tau(  62) = (    1.06027549564    0.70876415020    0.88439042890  )
        63           Ca  tau(  63) = (    1.06139138348    0.70524762263    0.70815913190  )
        64           O   tau(  64) = (    1.23695771218    0.88412914438    0.88255722903  )
        65           Ca  tau(  65) = (    0.00186797327    0.35519975964    0.35346138209  )
        66           O   tau(  66) = (    0.17501748675    0.53134282607    0.53098995555  )
        67           Ca  tau(  67) = (    0.17691693275    0.53215572591    0.35394630862  )
        68           O   tau(  68) = (    0.35389679204    0.70734739057    0.52970561182  )
        69           Ca  tau(  69) = (    0.35490034754    0.70565457631    0.35382556292  )
        70           O   tau(  70) = (    0.52903697280    0.88500252820    0.52949561312  )
        71           Ca  tau(  71) = (    0.53177299502    0.88316693310    0.35406186451  )
        72           O   tau(  72) = (    0.70646840604    1.06118652674    0.53019741477  )
        73           Ca  tau(  73) = (    0.17549860755    0.35534012325    0.52914276171  )
        74           O   tau(  74) = (    0.35269490903    0.53118529588    0.70906551224  )
        75           Ca  tau(  75) = (    0.35243478271    0.52973276520    0.53031785609  )
        76           O   tau(  76) = (    0.53109234191    0.70609224372    0.70891493618  )
        77           Ca  tau(  77) = (    0.53137949714    0.70593491822    0.52944288604  )
        78           O   tau(  78) = (    0.70637721003    0.88403451805    0.70887458529  )
        79           Ca  tau(  79) = (    0.70773445229    0.88577419335    0.53088510381  )
        80           O   tau(  80) = (    0.88538864400    1.06102855457    0.70651235492  )
        81           Ca  tau(  81) = (    0.35352636421    0.35159542473    0.70870483899  )
        82           O   tau(  82) = (    0.52863739114    0.52922448351    0.88506091428  )
        83           Ca  tau(  83) = (    0.53008817986    0.52922539957    0.70841031438  )
        84           O   tau(  84) = (    0.70818712624    0.70655908288    0.88501614882  )
        85           Ca  tau(  85) = (    0.70570192306    0.70899269153    0.70737614543  )
        86           O   tau(  86) = (    0.88336351588    0.88194072639    0.88339026159  )
        87           Ca  tau(  87) = (    0.88298132148    0.88361428948    0.70745959607  )
        88           O   tau(  88) = (    1.05879455041    1.06015232985    0.88458407416  )
        89           Ca  tau(  89) = (    0.52933013224    0.35466746763    0.88508249425  )
        90           O   tau(  90) = (    0.70662168173    0.53027497249    1.05876882650  )
        91           Ca  tau(  91) = (    0.70705078076    0.52994092459    0.88307959086  )
        92           O   tau(  92) = (    0.88208406644    0.70812165337    1.05939121691  )
        93           Ca  tau(  93) = (    0.88305209074    0.70885325534    0.88326010725  )
        94           O   tau(  94) = (    1.06150161151    0.88469768416    1.06116676316  )
        95           Ca  tau(  95) = (    1.05938155408    0.88378980919    0.88430046465  )
        96           O   tau(  96) = (    1.23702559055    1.06008706525    1.06013991427  )
        97           Ca  tau(  97) = (    0.00096807341    0.53222174419    0.52873125799  )
        98           O   tau(  98) = (    0.17623129546    0.70649266387    0.70822955098  )
        99           Ca  tau(  99) = (    0.17826206163    0.70521381369    0.53129642596  )
       100           O   tau( 100) = (    0.35190759193    0.88274246774    0.70565557745  )
       101           Ca  tau( 101) = (    0.35396222718    0.88292185456    0.53060574948  )
       102           O   tau( 102) = (    0.53099160735    1.06240513248    0.70537242430  )
       103           Ca  tau( 103) = (    0.53109877175    1.05944907769    0.53176705477  )
       104           O   tau( 104) = (    0.70633948300    1.23649274598    0.70794777322  )
       105           Ca  tau( 105) = (    0.17549512549    0.53081897497    0.70570983157  )
       106           O   tau( 106) = (    0.35298826944    0.70848169567    0.88257827964  )
       107           Ca  tau( 107) = (    0.35280285983    0.70574280153    0.70746234845  )
       108           O   tau( 108) = (    0.53129794629    0.88251045625    0.88444590107  )
       109           Ca  tau( 109) = (    0.52967735862    0.88336198924    0.70688663873  )
       110           O   tau( 110) = (    0.70584484944    1.06049913003    0.88421544836  )
       111           Ca  tau( 111) = (    0.70818754239    1.06103654803    0.70646191936  )
       112           O   tau( 112) = (    0.88408578874    1.23740819832    0.88527933731  )
       113           Ca  tau( 113) = (    0.35334937336    0.52929446182    0.88432352509  )
       114           O   tau( 114) = (    0.53092117112    0.70902460224    1.06086880132  )
       115           Ca  tau( 115) = (    0.53043466537    0.70600442341    0.88430880547  )
       116           O   tau( 116) = (    0.70592489271    0.88334018094    1.06245241724  )
       117           Ca  tau( 117) = (    0.70648803097    0.88214015545    0.88339396348  )
       118           O   tau( 118) = (    0.88496130539    1.06037659886    1.05959080509  )
       119           Ca  tau( 119) = (    0.88216821494    1.06254249972    0.88258717617  )
       120           O   tau( 120) = (    1.05962224895    1.23805317960    1.05990641015  )
       121           Ca  tau( 121) = (    0.53018194863    0.53093813513    1.06152531420  )
       122           O   tau( 122) = (    0.70559692916    0.70523025450    1.23731971016  )
       123           Ca  tau( 123) = (    0.70616862321    0.70888764153    1.05871404814  )
       124           O   tau( 124) = (    0.88446554112    0.88401017764    1.23873123039  )
       125           Ca  tau( 125) = (    0.88427807008    0.88494282792    1.06215306392  )
       126           O   tau( 126) = (    1.06039935553    1.06123792585    1.23889586912  )
       127           Ca  tau( 127) = (    1.06195535559    1.05897335351    1.06039980986  )
       128           O   tau( 128) = (    1.23932054809    1.23816906058    1.23654707973  )

   Crystallographic axes

     site n.     atom                  positions (cryst. coord.)
         1           Ca  tau(   1) = (    0.00009242527    0.00212446367   -0.00236985620  )
         2           O   tau(   2) = (    0.12515294763    0.12238008073    0.12618584411  )
         3           Ca  tau(   3) = (    0.00104536956   -0.00225400730    0.25044679544  )
         4           O   tau(   4) = (    0.12627007702    0.12548281734    0.37416059654  )
         5           Ca  tau(   5) = (   -0.00099186112   -0.00050508144    0.49902807206  )
         6           O   tau(   6) = (    0.12504580005    0.12289585889    0.62692743958  )
         7           Ca  tau(   7) = (   -0.00068588427    0.00187655143    0.74879848716  )
         8           O   tau(   8) = (    0.12570079775    0.12609690614    0.87457571334  )
         9           Ca  tau(   9) = (    0.00171617739    0.24923849134    0.00070657383  )
        10           O   tau(  10) = (    0.12539297751    0.37626861836    0.12471165555  )
        11           Ca  tau(  11) = (    0.00045583707    0.24722392314    0.25027321213  )
        12           O   tau(  12) = (    0.12687543960    0.37576200238    0.37282388416  )
        13           Ca  tau(  13) = (   -0.00165485385    0.25041587677    0.50101116917  )
        14           O   tau(  14) = (    0.12492646013    0.37383326431    0.62460531067  )
        15           Ca  tau(  15) = (    0.00052858630    0.24972855715    0.75220837082  )
        16           O   tau(  16) = (    0.12303170832    0.37528920076    0.87577575437  )
        17           Ca  tau(  17) = (   -0.00043569936    0.50040521134    0.00154124801  )
        18           O   tau(  18) = (    0.12281766186    0.62785195993    0.12468070677  )
        19           Ca  tau(  19) = (   -0.00239578805    0.49982102155    0.25038472835  )
        20           O   tau(  20) = (    0.12222780639    0.62557131461    0.37655268741  )
        21           Ca  tau(  21) = (    0.00033350216    0.49817384306    0.50153788675  )
        22           O   tau(  22) = (    0.12412738918    0.62751427757    0.62416100977  )
        23           Ca  tau(  23) = (   -0.00187511645    0.50246177062    0.74917531813  )
        24           O   tau(  24) = (    0.12349606318    0.62506783258    0.87557952670  )
        25           Ca  tau(  25) = (    0.00063993642    0.74904552156    0.00169042519  )
        26           O   tau(  26) = (    0.12764419985    0.87482938654    0.12323066155  )
        27           Ca  tau(  27) = (   -0.00014523306    0.74998835830    0.24763171545  )
        28           O   tau(  28) = (    0.12627274470    0.87455207889    0.37419536802  )
        29           Ca  tau(  29) = (    0.00111025382    0.74720474146    0.50084284183  )
        30           O   tau(  30) = (    0.12594220830    0.87616404981    0.62593062689  )
        31           Ca  tau(  31) = (    0.00009740516    0.75022842841    0.74753764543  )
        32           O   tau(  32) = (    0.12340574074    0.87450311688    0.87670891355  )
        33           Ca  tau(  33) = (    0.25195064599    0.00044484221   -0.00007056204  )
        34           O   tau(  34) = (    0.37658226328    0.12278966091    0.12456100187  )
        35           Ca  tau(  35) = (    0.24864986686    0.00018418672    0.25229918350  )
        36           O   tau(  36) = (    0.37689601068    0.12442536925    0.37573162286  )
        37           Ca  tau(  37) = (    0.24978715663   -0.00085180281    0.50068721981  )
        38           O   tau(  38) = (    0.37371171473    0.12723418725    0.62537495369  )
        39           Ca  tau(  39) = (    0.25102244127   -0.00254976703    0.74985807761  )
        40           O   tau(  40) = (    0.37390783830    0.12422591661    0.87669235002  )
        41           Ca  tau(  41) = (    0.25168546646    0.24755748171    0.00061572296  )
        42           O   tau(  42) = (    0.37226935982    0.37571478911    0.12509476896  )
        43           Ca  tau(  43) = (    0.24856222739    0.25153856911    0.24954206038  )
        44           O   tau(  44) = (    0.37584469472    0.37299534134    0.37446457582  )
        45           Ca  tau(  45) = (    0.25021280477    0.25252445658    0.50015768667  )
        46           O   tau(  46) = (    0.37411863914    0.37733743728    0.62508447849  )
        47           Ca  tau(  47) = (    0.25057509456    0.24715332890    0.75032260658  )
        48           O   tau(  48) = (    0.37465941508    0.37337709807    0.87644387934  )
        49           Ca  tau(  49) = (    0.24871523138    0.50001089878   -0.00017368115  )
        50           O   tau(  50) = (    0.37424452729    0.62678836811    0.12406171630  )
        51           Ca  tau(  51) = (    0.24982735593    0.50035914314    0.24750037881  )
        52           O   tau(  52) = (    0.37440441864    0.62556844581    0.37340009185  )
        53           Ca  tau(  53) = (    0.24915525462    0.49936494563    0.50047003579  )
        54           O   tau(  54) = (    0.37418693580    0.62439749283    0.62803335238  )
        55           Ca  tau(  55) = (    0.24933901163    0.49794263432    0.74964922263  )
        56           O   tau(  56) = (    0.37601565377    0.62648250664    0.87384744811  )
        57           Ca  tau(  57) = (    0.24666293254    0.75094350896    0.00096226009  )
        58           O   tau(  58) = (    0.37210874224    0.87606554176    0.12664595182  )
        59           Ca  tau(  59) = (    0.25026218650    0.75090413718    0.24811627225  )
        60           O   tau(  60) = (    0.37445871558    0.87404568808    0.37699046690  )
        61           Ca  tau(  61) = (    0.24850730151    0.74901550638    0.50319680179  )
        62           O   tau(  62) = (    0.37680241347    0.87391452551    0.62554146028  )
        63           Ca  tau(  63) = (    0.24891245596    0.75257579270    0.74845829680  )
        64           O   tau(  64) = (    0.37457472854    0.87354967432    0.87577269833  )
        65           Ca  tau(  65) = (    0.49977824232    0.00009163801    0.00255007512  )
        66           O   tau(  66) = (    0.62742666205    0.12350653457    0.12400556884  )
        67           Ca  tau(  67) = (    0.50146959459   -0.00091392458    0.25111225029  )
        68           O   tau(  68) = (    0.62448574518    0.12463111511    0.37585452787  )
        69           Ca  tau(  69) = (    0.49821314859    0.00217176120    0.49973312358  )
        70           O   tau(  70) = (    0.62611559674    0.12270428055    0.62546698138  )
        71           Ca  tau(  71) = (    0.49883258184    0.00188650886    0.75015407279  )
        72           O   tau(  72) = (    0.62572977591    0.12408259880    0.87501460242  )
        73           Ca  tau(  73) = (    0.50132759031    0.24699327973    0.00119923124  )
        74           O   tau(  74) = (    0.62759679493    0.37517326910    0.12361265463  )
        75           Ca  tau(  75) = (    0.50035995794    0.24962274652    0.24879530305  )
        76           O   tau(  76) = (    0.62502217593    0.37753494137    0.37354305142  )
        77           Ca  tau(  77) = (    0.49780197691    0.25094333303    0.50054075859  )
        78           O   tau(  78) = (    0.62687271350    0.37562733904    0.62334089153  )
        79           Ca  tau(  79) = (    0.50128556516    0.24949934871    0.75138831227  )
        80           O   tau(  80) = (    0.62377584897    0.37538350534    0.87674512298  )
        81           Ca  tau(  81) = (    0.49976461711    0.50249537791   -0.00253359899  )
        82           O   tau(  82) = (    0.62624771125    0.62541743725    0.12218873087  )
        83           Ca  tau(  83) = (    0.50031165937    0.50153181495    0.24812607826  )
        84           O   tau(  84) = (    0.62464971979    0.62695212079    0.37457571783  )
        85           Ca  tau(  85) = (    0.50251739398    0.49786354459    0.50014968600  )
        86           O   tau(  86) = (    0.62364518031    0.62565730849    0.62360735616  )
        87           Ca  tau(  87) = (    0.50069705377    0.49980190183    0.74892225833  )
        88           O   tau(  88) = (    0.62645549243    0.62453530232    0.87282631063  )
        89           Ca  tau(  89) = (    0.50234267903    0.74935298815   -0.00076713617  )
        90           O   tau(  90) = (    0.62396666299    0.87335857087    0.12595539489  )
        91           Ca  tau(  91) = (    0.49919598671    0.74966714734    0.25025365610  )
        92           O   tau(  92) = (    0.62609271146    0.87211271536    0.37534253455  )
        93           Ca  tau(  93) = (    0.50138203360    0.74773638917    0.50108785383  )
        94           O   tau(  94) = (    0.62533895823    0.87537747018    0.62581250530  )
        95           Ca  tau(  95) = (    0.50113274162    0.74945696869    0.74873479282  )
        96           O   tau(  96) = (    0.62451769129    0.87474655348    0.87467181368  )
        97           Ca  tau(  97) = (    0.74952253109   -0.00178361519    0.00315267774  )
        98           O   tau(  98) = (    0.87574532754    0.12584250873    0.12338617943  )
        99           Ca  tau(  99) = (    0.74829446286    0.00307214837    0.24902847684  )
       100           O   tau( 100) = (    0.87433078437    0.12361690362    0.37405558559  )
       101           Ca  tau( 101) = (    0.74922586309    0.00116398410    0.49941419814  )
       102           O   tau( 102) = (    0.87453973171    0.12300751725    0.62792801537  )
       103           Ca  tau( 103) = (    0.74961617462    0.00241600627    0.74867107970  )
       104           O   tau( 104) = (    0.87546963849    0.12571970385    0.87319517265  )
       105           Ca  tau( 105) = (    0.75026411094    0.24776030397    0.00042728263  )
       106           O   tau( 106) = (    0.87544889881    0.37270527411    0.12649552389  )
       107           Ca  tau( 107) = (    0.74981765015    0.25068519790    0.24825339132  )
       108           O   tau( 108) = (    0.87374244167    0.37705294681    0.37431581449  )
       109           Ca  tau( 109) = (    0.74993713648    0.24975153507    0.49932536918  )
       110           O   tau( 110) = (    0.87601318635    0.37445629278    0.62375906622  )
       111           Ca  tau( 111) = (    0.74904593846    0.25004208921    0.75148633794  )
       112           O   tau( 112) = (    0.87582369442    0.37615035090    0.87413576184  )
       113           Ca  tau( 113) = (    0.74972312652    0.50089919619   -0.00118772012  )
       114           O   tau( 114) = (    0.87608566726    0.62420937947    0.12662654128  )
       115           Ca  tau( 115) = (    0.74944731949    0.50115418653    0.24899371119  )
       116           O   tau( 116) = (    0.87671886231    0.62581575552    0.37251280177  )
       117           Ca  tau( 117) = (    0.74885867039    0.50044905369    0.49867590136  )
       118           O   tau( 118) = (    0.87328118710    0.62520650003    0.62631778023  )
       119           Ca  tau( 119) = (    0.75162725717    0.49653949734    0.75103475652  )
       120           O   tau( 120) = (    0.87563673108    0.62329728900    0.87523486645  )
       121           Ca  tau( 121) = (    0.75114645267    0.75007704347   -0.00028654120  )
       122           O   tau( 122) = (    0.87465787941    0.87517643569    0.12268831110  )
       123           Ca  tau( 123) = (    0.75054651907    0.74670124649    0.25197199778  )
       124           O   tau( 124) = (    0.87559326247    0.87623724368    0.37458592003  )
       125           Ca  tau( 125) = (    0.75152568893    0.75058557938    0.49997246024  )
       126           O   tau( 126) = (    0.87662462900    0.87543871148    0.62419243864  )
       127           Ca  tau( 127) = (    0.74770730243    0.75192449021    0.74990717630  )
       128           O   tau( 128) = (    0.87355660071    0.87518504997    0.87747887727  )

     number of k points=     8  gaussian smearing, width (Ry)=  0.0050
                       cart. coord. in units 2pi/alat
        k(    1) = (   0.0000000   0.0000000   0.0000000), wk =   0.2500000
        k(    2) = (  -0.3535534  -0.3535534   0.3535534), wk =   0.2500000
        k(    3) = (  -0.7071068   0.0000000   0.0000000), wk =   0.2500000
        k(    4) = (   0.3535534   0.3535534   0.3535534), wk =   0.2500000
        k(    5) = (   0.3535534  -0.3535534  -0.3535534), wk =   0.2500000
        k(    6) = (  -0.3535534   0.3535534  -0.3535534), wk =   0.2500000
        k(    7) = (   0.0000000  -0.7071068   0.0000000), wk =   0.2500000
        k(    8) = (   0.0000000   0.0000000  -0.7071068), wk =   0.2500000

                       cryst. coord.
        k(    1) = (   0.0000000   0.0000000   0.0000000), wk =   0.2500000
        k(    2) = (   0.0000000   0.0000000  -0.5000000), wk =   0.2500000
        k(    3) = (   0.0000000  -0.5000000  -0.5000000), wk =   0.2500000
        k(    4) = (   0.5000000   0.5000000   0.5000000), wk =   0.2500000
        k(    5) = (  -0.5000000   0.0000000   0.0000000), wk =   0.2500000
        k(    6) = (   0.0000000  -0.5000000   0.0000000), wk =   0.2500000
        k(    7) = (  -0.5000000   0.0000000  -0.5000000), wk =   0.2500000
        k(    8) = (  -0.5000000  -0.5000000   0.0000000), wk =   0.2500000

     Dense  grid:   559377 G-vectors     FFT dimensions: ( 120, 120, 120)

     Smooth grid:   400181 G-vectors     FFT dimensions: ( 108, 108, 108)

     Largest allocated arrays     est. size (Mb)     dimensions
        Kohn-Sham Wavefunctions        58.96 Mb     (    6293,  614)
        NL pseudopotentials           190.51 Mb     (    6293, 1984)
        Each V/rho on FFT grid          3.30 Mb     (  216000)
        Each G-vector array             0.53 Mb     (   69923)
        G-vector shells                 0.02 Mb     (    2196)
     Largest temporary arrays     est. size (Mb)     dimensions
        Auxiliary wavefunctions       235.83 Mb     (    6293, 2456)
        Each subspace H/S matrix       92.04 Mb     (    2456, 2456)
        Each <psi_i|beta_j> matrix     18.59 Mb     (    1984,  614)
        Arrays for rho mixing          26.37 Mb     (  216000,    8)

     Check: negative/imaginary core charge=   -0.000003    0.000000

     Initial potential from superposition of free atoms

     starting charge 1023.66864, renormalised to 1024.00000
     Starting wfc are  896 randomized atomic wfcs

     total cpu time spent up to now is      721.5 secs

     per-process dynamical memory:   797.7 Mb

     Self-consistent Calculation

     iteration #  1     ecut=    40.00 Ry     beta=0.30
     Davidson diagonalization with overlap
     ethr =  1.00E-02,  avg # of iterations =  2.4

     total cpu time spent up to now is     2135.2 secs

     total energy              =   -6873.02648737 Ry
     Harris-Foulkes estimate   =   -6878.74858225 Ry
     estimated scf accuracy    <      28.94022107 Ry

     iteration #  2     ecut=    40.00 Ry     beta=0.30
     Davidson diagonalization with overlap
     ethr =  2.83E-03,  avg # of iterations =  1.9

     total cpu time spent up to now is     3443.5 secs

     total energy              =   -6869.86343471 Ry
     Harris-Foulkes estimate   =   -6874.03819041 Ry
     estimated scf accuracy    <      10.84567205 Ry

     iteration #  3     ecut=    40.00 Ry     beta=0.30
     Davidson diagonalization with overlap
     ethr =  1.06E-03,  avg # of iterations =  2.4

     total cpu time spent up to now is     5124.9 secs

     total energy              =   -6871.78044788 Ry
     Harris-Foulkes estimate   =   -6871.97116665 Ry
     estimated scf accuracy    <       0.71047063 Ry

     iteration #  4     ecut=    40.00 Ry     beta=0.30
     Davidson diagonalization with overlap
     ethr =  6.94E-05,  avg # of iterations =  4.5

     total cpu time spent up to now is     7162.2 secs

     total energy              =   -6871.78505368 Ry
     Harris-Foulkes estimate   =   -6871.97720562 Ry
     estimated scf accuracy    <       0.62238692 Ry

     iteration #  5     ecut=    40.00 Ry     beta=0.30
     Davidson diagonalization with overlap
     ethr =  6.08E-05,  avg # of iterations =  3.0

     total cpu time spent up to now is     8783.0 secs

     total energy              =   -6871.85854953 Ry
     Harris-Foulkes estimate   =   -6871.85864355 Ry
     estimated scf accuracy    <       0.00278107 Ry

     iteration #  6     ecut=    40.00 Ry     beta=0.30
     Davidson diagonalization with overlap
     ethr =  2.72E-07,  avg # of iterations = 11.6

     total cpu time spent up to now is    13430.5 secs

     total energy              =   -6871.85970546 Ry
     Harris-Foulkes estimate   =   -6871.85966706 Ry
     estimated scf accuracy    <       0.00164547 Ry

     iteration #  7     ecut=    40.00 Ry     beta=0.30
     Davidson diagonalization with overlap
     ethr =  1.61E-07,  avg # of iterations =  3.0

     total cpu time spent up to now is    15222.7 secs

     total energy              =   -6871.85788557 Ry
     Harris-Foulkes estimate   =   -6871.86035429 Ry
     estimated scf accuracy    <       0.00343092 Ry

     iteration #  8     ecut=    40.00 Ry     beta=0.30
     Davidson diagonalization with overlap
     ethr =  1.61E-07,  avg # of iterations =  4.0

     total cpu time spent up to now is    17374.3 secs

     total energy              =   -6871.85876831 Ry
     Harris-Foulkes estimate   =   -6871.86139673 Ry
     estimated scf accuracy    <       0.00954152 Ry

     iteration #  9     ecut=    40.00 Ry     beta=0.30
     Davidson diagonalization with overlap
     ethr =  1.61E-07,  avg # of iterations =  3.0

     total cpu time spent up to now is    19237.5 secs

     total energy              =   -6871.85963922 Ry
     Harris-Foulkes estimate   =   -6871.85961803 Ry
     estimated scf accuracy    <       0.00077596 Ry

     iteration # 10     ecut=    40.00 Ry     beta=0.30
     Davidson diagonalization with overlap
     ethr =  7.58E-08,  avg # of iterations =  1.0

     total cpu time spent up to now is    20464.7 secs

     total energy              =   -6871.85951384 Ry
     Harris-Foulkes estimate   =   -6871.85964796 Ry
     estimated scf accuracy    <       0.00052419 Ry

     iteration # 11     ecut=    40.00 Ry     beta=0.30
     Davidson diagonalization with overlap
     ethr =  5.12E-08,  avg # of iterations =  2.0

     total cpu time spent up to now is    22039.9 secs

     total energy              =   -6871.85953561 Ry
     Harris-Foulkes estimate   =   -6871.85955902 Ry
     estimated scf accuracy    <       0.00006163 Ry

     iteration # 12     ecut=    40.00 Ry     beta=0.30
     Davidson diagonalization with overlap
     ethr =  6.02E-09,  avg # of iterations =  2.0

     total cpu time spent up to now is    23569.0 secs

     total energy              =   -6871.85954152 Ry
     Harris-Foulkes estimate   =   -6871.85954498 Ry
     estimated scf accuracy    <       0.00001041 Ry

     iteration # 13     ecut=    40.00 Ry     beta=0.30
     Davidson diagonalization with overlap
     ethr =  1.02E-09,  avg # of iterations =  2.0

     total cpu time spent up to now is    25047.5 secs

     total energy              =   -6871.85954275 Ry
     Harris-Foulkes estimate   =   -6871.85954284 Ry
     estimated scf accuracy    <       0.00000205 Ry

     iteration # 14     ecut=    40.00 Ry     beta=0.30
     Davidson diagonalization with overlap
     ethr =  2.00E-10,  avg # of iterations =  1.0

     total cpu time spent up to now is    26265.8 secs

     total energy              =   -6871.85954218 Ry
     Harris-Foulkes estimate   =   -6871.85954280 Ry
     estimated scf accuracy    <       0.00000156 Ry

     iteration # 15     ecut=    40.00 Ry     beta=0.30
     Davidson diagonalization with overlap
     ethr =  1.52E-10,  avg # of iterations =  2.4

     total cpu time spent up to now is    27831.3 secs

     total energy              =   -6871.85954245 Ry
     Harris-Foulkes estimate   =   -6871.85954248 Ry
     estimated scf accuracy    <       0.00000018 Ry

     iteration # 16     ecut=    40.00 Ry     beta=0.30
     Davidson diagonalization with overlap
     ethr =  1.79E-11,  avg # of iterations =  2.0

     total cpu time spent up to now is    29331.7 secs

     total energy              =   -6871.85954248 Ry
     Harris-Foulkes estimate   =   -6871.85954248 Ry
     estimated scf accuracy    <       0.00000007 Ry

     iteration # 17     ecut=    40.00 Ry     beta=0.30
     Davidson diagonalization with overlap
     ethr =  6.65E-12,  avg # of iterations =  2.0

     total cpu time spent up to now is    30722.4 secs

     total energy              =   -6871.85954249 Ry
     Harris-Foulkes estimate   =   -6871.85954249 Ry
     estimated scf accuracy    <       0.00000003 Ry

     iteration # 18     ecut=    40.00 Ry     beta=0.30
     Davidson diagonalization with overlap
     ethr =  2.75E-12,  avg # of iterations =  2.0

     total cpu time spent up to now is    32045.6 secs

     total energy              =   -6871.85954249 Ry
     Harris-Foulkes estimate   =   -6871.85954249 Ry
     estimated scf accuracy    <       0.00000001 Ry

     iteration # 19     ecut=    40.00 Ry     beta=0.30
     Davidson diagonalization with overlap
     ethr =  1.27E-12,  avg # of iterations =  2.0

     total cpu time spent up to now is    33531.9 secs

     total energy              =   -6871.85954249 Ry
     Harris-Foulkes estimate   =   -6871.85954249 Ry
     estimated scf accuracy    <          6.2E-09 Ry

     iteration # 20     ecut=    40.00 Ry     beta=0.30
     Davidson diagonalization with overlap
     ethr =  6.09E-13,  avg # of iterations =  2.0

     total cpu time spent up to now is    34917.8 secs

     total energy              =   -6871.85954249 Ry
     Harris-Foulkes estimate   =   -6871.85954249 Ry
     estimated scf accuracy    <          3.6E-09 Ry

     iteration # 21     ecut=    40.00 Ry     beta=0.30
     Davidson diagonalization with overlap
     ethr =  3.54E-13,  avg # of iterations =  1.0

     total cpu time spent up to now is    36179.3 secs

     total energy              =   -6871.85954249 Ry
     Harris-Foulkes estimate   =   -6871.85954249 Ry
     estimated scf accuracy    <          2.2E-09 Ry

     iteration # 22     ecut=    40.00 Ry     beta=0.30
     Davidson diagonalization with overlap
     ethr =  2.16E-13,  avg # of iterations =  2.1

     total cpu time spent up to now is    37703.7 secs

     total energy              =   -6871.85954249 Ry
     Harris-Foulkes estimate   =   -6871.85954249 Ry
     estimated scf accuracy    <          7.6E-10 Ry

     iteration # 23     ecut=    40.00 Ry     beta=0.30
     Davidson diagonalization with overlap
     ethr =  1.00E-13,  avg # of iterations =  2.1

     total cpu time spent up to now is    39257.2 secs

     total energy              =   -6871.85954249 Ry
     Harris-Foulkes estimate   =   -6871.85954249 Ry
     estimated scf accuracy    <          2.0E-10 Ry

     iteration # 24     ecut=    40.00 Ry     beta=0.30
     Davidson diagonalization with overlap
     ethr =  1.00E-13,  avg # of iterations =  1.0

     total cpu time spent up to now is    40599.2 secs

     End of self-consistent calculation

          k = 0.0000 0.0000 0.0000 ( 50237 PWs)   bands (ev):

   -29.5017 -29.4728 -29.4458 -29.4284 -29.4176 -29.4073 -29.3971 -29.3922
   -29.3872 -29.3839 -29.3795 -29.3746 -29.3587 -29.3578 -29.3505 -29.3428
   -29.3380 -29.3354 -29.3299 -29.3219 -29.3209 -29.3171 -29.3133 -29.3113
   -29.3074 -29.3041 -29.2965 -29.2922 -29.2891 -29.2880 -29.2852 -29.2835
   -29.2801 -29.2792 -29.2769 -29.2739 -29.2719 -29.2698 -29.2694 -29.2617
   -29.2608 -29.2567 -29.2539 -29.2476 -29.2442 -29.2349 -29.2344 -29.2268
   -29.2254 -29.2229 -29.2203 -29.2159 -29.2106 -29.2082 -29.2055 -29.1979
   -29.1906 -29.1636 -29.1622 -29.1589 -29.1441 -29.1388 -29.1178 -29.0995
   -11.5012 -11.4974 -11.4963 -11.4940 -11.2333 -11.2234 -11.2113 -11.2103
   -11.1954 -11.1934 -11.1908 -11.1856 -11.1818 -11.1765 -11.1726 -11.1652
   -11.1555 -11.1416 -11.1386 -11.1375 -11.1297 -11.1275 -11.1262 -11.1239
   -11.1183 -11.1164 -11.1141 -11.1128 -11.1103 -11.1089 -11.1062 -11.1019
   -11.0988 -11.0963 -11.0920 -11.0878 -11.0864 -11.0819 -11.0739 -11.0700
   -10.9714 -10.9686 -10.9621 -10.9606 -10.9511 -10.9469 -10.9440 -10.9402
   -10.9053 -10.9017 -10.9006 -10.8314 -10.8259 -10.8193 -10.8158 -10.8126
   -10.8108 -10.7470 -10.7381 -10.7336 -10.7316 -10.7299 -10.7261 -10.7209
   -10.7193 -10.7141 -10.7109 -10.7046 -10.7022 -10.7009 -10.6973 -10.6957
   -10.6901 -10.6845 -10.6791 -10.5872 -10.5768 -10.5762 -10.5718 -10.5703
   -10.5661 -10.5635 -10.5589 -10.5576 -10.5540 -10.5484 -10.5454 -10.5387
   -10.5378 -10.5354 -10.5324 -10.5309 -10.5271 -10.5251 -10.5223 -10.5204
   -10.5184 -10.5161 -10.5118 -10.5108 -10.5068 -10.5041 -10.5029 -10.5010
   -10.4950 -10.4948 -10.4908 -10.4889 -10.4861 -10.4818 -10.4813 -10.4784
   -10.4727 -10.4706 -10.4686 -10.4643 -10.4573 -10.4403 -10.4331 -10.4234
   -10.4164 -10.4145 -10.4085 -10.4070 -10.4053 -10.4047 -10.3999 -10.3965
   -10.3933 -10.3911 -10.3888 -10.3862 -10.3857 -10.3825 -10.3788 -10.3757
   -10.3733 -10.3701 -10.3689 -10.3657 -10.3631 -10.3557 -10.3512 -10.3501
   -10.3475 -10.3435 -10.3432 -10.3390 -10.3364 -10.3336 -10.3307 -10.3281
   -10.3260 -10.3220 -10.3139 -10.3058 -10.3005 -10.2943 -10.2931 -10.2891
   -10.2882 -10.2864 -10.2807 -10.2773 -10.2769 -10.2742 -10.2737 -10.2696
   -10.2645 -10.2611 -10.2577 -10.2570 -10.2535 -10.2498 -10.2482 -10.2448
   -10.2428 -10.2389 -10.2335 -10.2305 -10.2284 -10.2222 -10.2168 -10.2138
   -10.2122 -10.2037 -10.2000 -10.1972 -10.1883 -10.1832 -10.1578 -10.1524
    -7.5501  -7.3100  -7.3082  -7.3068  -6.9880  -6.9712  -6.9692  -6.9601
    -6.9513  -6.9424  -6.8983  -6.8756  -6.8749  -6.8713  -6.8654  -6.8569
    -6.8510  -6.8119  -6.8004  -6.7944  -6.7921  -6.7868  -6.7835  -6.7742
    -6.7628  -6.7478  -6.7435  -6.7412  -6.7381  -6.7337  -6.7300  -6.7234
    -6.7201  -6.7192  -6.7161  -6.7150  -6.7116  -6.7095  -6.7059  -6.6998
    -6.6981  -6.6935  -6.6918  -6.6891  -6.6856  -6.6800  -6.6765  -6.6707
    -6.5399  -6.5364  -6.5290  -6.5249  -6.5212  -6.5189  -6.5134  -6.5105
    -6.5055  -6.5038  -6.4986  -6.4817  -6.2107  -6.2099  -6.2076  -6.2024
     5.1484   5.1492   5.1498   5.1507   5.7166   5.7195   5.7265   5.7309
     5.7350   5.7388   5.7423   5.7446   5.7476   5.7510   5.7592   5.7636
     5.9987   6.0053   6.0125   6.0179   6.0242   6.0282   6.0311   6.0341
     6.0367   6.0393   6.0449   6.0455   6.0494   6.0533   6.0564   6.0569
     6.0601   6.0614   6.0634   6.0662   6.0671   6.0720   6.0763   6.0801
     6.1427   6.1448   6.1492   6.1521   6.1568   6.1607   6.2774   6.2813
     6.2898   6.2990   6.3040   6.3132   6.3168   6.3205   6.5323   6.5363
     6.5404   6.5406   6.5445   6.5526   6.5741   6.5771   6.5783   6.6135
     6.6179   6.6225   6.6228   6.6259   6.6284   6.6307   6.6349   6.6818
     6.6924   6.6996   6.7007   6.7051   6.7099   6.7127   6.7159   6.7211
     6.7238   6.7285   6.7373   6.7403   6.7425   6.7485   6.7541   6.7562
     6.7572   6.7606   6.7633   6.7640   6.7697   6.7703   6.7760   6.7785
     6.7825   6.7836   6.7865   6.7881   6.7899   6.7965   6.7992   6.8001
     6.8059   6.8090   6.8135   6.8162   6.8194   6.8226   6.8258   6.8315
     6.8323   6.8350   6.8419   6.8447   6.8537   6.8597   6.8643   6.9822
     6.9924   6.9984   7.0019   7.0040   7.0065   7.0079   7.0164   7.0169
     7.0199   7.0202   7.0228   7.0269   7.0332   7.0391   7.0436   7.0486
     7.0525   7.0576   7.0603   7.0669   7.0689   7.0714   7.0750   7.0796
     7.0825   7.0836   7.0845   7.0861   7.0948   7.0990   7.0997   7.1046
     7.1070   7.1111   7.1207   7.1724   7.1737   7.1784   7.1846   7.1954
     7.2004   7.2029   7.2077   7.2152   7.2218   7.2244   7.2268   7.2317
     7.2357   7.2397   7.2451   7.5219   7.5222   7.5233   7.5240   7.5256
     7.5289   7.5706   7.5851   7.5872   7.5884   7.5951   7.5955   7.5977
     7.6005   7.6035   7.6056   7.6117   7.6215   7.8953   7.8978   7.8985
    11.4408  11.4409  11.4413  12.5238  12.5323  12.5414  12.5436  12.5520
    12.5594  12.6735  13.1474  13.1525  13.1673  13.1793  13.1852  13.1946
    13.1970  13.2058  13.2069  13.2135  13.2158  13.2219  13.2303  13.2330
    13.2376  13.2399  13.2430  13.2464  13.2547  13.2596  13.2662  13.2695
    13.2796  13.2873  14.0977  14.1144  14.1258  14.1398  14.1450  14.1523
    14.1578  14.1662  14.1763  14.1827  14.1929  14.2014  14.2146  14.2185
    14.2273  14.2322  14.2351  14.2441  14.2509  14.2515  14.2545  14.2587
    14.2708  14.3879  14.4010  14.4033  14.4146  14.4185  14.4231  14.4275
    14.4302  14.4347  14.4406  14.4603  14.4661  14.5721  14.5788  14.5942
    14.6007  14.6062  14.6114  14.8113  14.8276  14.8344  14.8467  14.8580
    14.8656  14.8724  14.8827  15.0252  15.0314  15.0334  15.0407  15.1181
    15.1208  15.1278  15.1368  15.1469  15.1505  15.1516  15.1589  15.1603
    15.1653  15.1720  15.1785  15.1845  15.1858  15.1883

     occupation numbers 
     1.0000   1.0000   1.0000   1.0000   1.0000   1.0000   1.0000   1.0000
     1.0000   1.0000   1.0000   1.0000   1.0000   1.0000   1.0000   1.0000
     1.0000   1.0000   1.0000   1.0000   1.0000   1.0000   1.0000   1.0000
     1.0000   1.0000   1.0000   1.0000   1.0000   1.0000   1.0000   1.0000
     1.0000   1.0000   1.0000   1.0000   1.0000   1.0000   1.0000   1.0000
     1.0000   1.0000   1.0000   1.0000   1.0000   1.0000   1.0000   1.0000
     1.0000   1.0000   1.0000   1.0000   1.0000   1.0000   1.0000   1.0000
     1.0000   1.0000   1.0000   1.0000   1.0000   1.0000   1.0000   1.0000
     1.0000   1.0000   1.0000   1.0000   1.0000   1.0000   1.0000   1.0000
     1.0000   1.0000   1.0000   1.0000   1.0000   1.0000   1.0000   1.0000
     1.0000   1.0000   1.0000   1.0000   1.0000   1.0000   1.0000   1.0000
     1.0000   1.0000   1.0000   1.0000   1.0000   1.0000   1.0000   1.0000
     1.0000   1.0000   1.0000   1.0000   1.0000   1.0000   1.0000   1.0000
     1.0000   1.0000   1.0000   1.0000   1.0000   1.0000   1.0000   1.0000
     1.0000   1.0000   1.0000   1.0000   1.0000   1.0000   1.0000   1.0000
     1.0000   1.0000   1.0000   1.0000   1.0000   1.0000   1.0000   1.0000
     1.0000   1.0000   1.0000   1.0000   1.0000   1.0000   1.0000   1.0000
     1.0000   1.0000   1.0000   1.0000   1.0000   1.0000   1.0000   1.0000
     1.0000   1.0000   1.0000   1.0000   1.0000   1.0000   1.0000   1.0000
     1.0000   1.0000   1.0000   1.0000   1.0000   1.0000   1.0000   1.0000
     1.0000   1.0000   1.0000   1.0000   1.0000   1.0000   1.0000   1.0000
     1.0000   1.0000   1.0000   1.0000   1.0000   1.0000   1.0000   1.0000
     1.0000   1.0000   1.0000   1.0000   1.0000   1.0000   1.0000   1.0000
     1.0000   1.0000   1.0000   1.0000   1.0000   1.0000   1.0000   1.0000
     1.0000   1.0000   1.0000   1.0000   1.0000   1.0000   1.0000   1.0000
     1.0000   1.0000   1.0000   1.0000   1.0000   1.0000   1.0000   1.0000
     1.0000   1.0000   1.0000   1.0000   1.0000   1.0000   1.0000   1.0000
     1.0000   1.0000   1.0000   1.0000   1.0000   1.0000   1.0000   1.0000
     1.0000   1.0000   1.0000   1.0000   1.0000   1.0000   1.0000   1.0000
     1.0000   1.0000   1.0000   1.0000   1.0000   1.0000   1.0000   1.0000
     1.0000   1.0000   1.0000   1.0000   1.0000   1.0000   1.0000   1.0000
     1.0000   1.0000   1.0000   1.0000   1.0000   1.0000   1.0000   1.0000
     1.0000   1.0000   1.0000   1.0000   1.0000   1.0000   1.0000   1.0000
     1.0000   1.0000   1.0000   1.0000   1.0000   1.0000   1.0000   1.0000
     1.0000   1.0000   1.0000   1.0000   1.0000   1.0000   1.0000   1.0000
     1.0000   1.0000   1.0000   1.0000   1.0000   1.0000   1.0000   1.0000
     1.0000   1.0000   1.0000   1.0000   1.0000   1.0000   1.0000   1.0000
     1.0000   1.0000   1.0000   1.0000   1.0000   1.0000   1.0000   1.0000
     1.0000   1.0000   1.0000   1.0000   1.0000   1.0000   1.0000   1.0000
     1.0000   1.0000   1.0000   1.0000   1.0000   1.0000   1.0000   1.0000
     1.0000   1.0000   1.0000   1.0000   1.0000   1.0000   1.0000   1.0000
     1.0000   1.0000   1.0000   1.0000   1.0000   1.0000   1.0000   1.0000
     1.0000   1.0000   1.0000   1.0000   1.0000   1.0000   1.0000   1.0000
     1.0000   1.0000   1.0000   1.0000   1.0000   1.0000   1.0000   1.0000
     1.0000   1.0000   1.0000   1.0000   1.0000   1.0000   1.0000   1.0000
     1.0000   1.0000   1.0000   1.0000   1.0000   1.0000   1.0000   1.0000
     1.0000   1.0000   1.0000   1.0000   1.0000   1.0000   1.0000   1.0000
     1.0000   1.0000   1.0000   1.0000   1.0000   1.0000   1.0000   1.0000
     1.0000   1.0000   1.0000   1.0000   1.0000   1.0000   1.0000   1.0000
     1.0000   1.0000   1.0000   1.0000   1.0000   1.0000   1.0000   1.0000
     1.0000   1.0000   1.0000   1.0000   1.0000   1.0000   1.0000   1.0000
     1.0000   1.0000   1.0000   1.0000   1.0000   1.0000   1.0000   1.0000
     1.0000   1.0000   1.0000   1.0000   1.0000   1.0000   1.0000   1.0000
     1.0000   1.0000   1.0000   1.0000   1.0000   1.0000   1.0000   1.0000
     1.0000   1.0000   1.0000   1.0000   1.0000   1.0000   1.0000   1.0000
     1.0000   1.0000   1.0000   1.0000   1.0000   1.0000   1.0000   1.0000
     1.0000   1.0000   1.0000   1.0000   1.0000   1.0000   1.0000   1.0000
     1.0000   1.0000   1.0000   1.0000   1.0000   1.0000   1.0000   1.0000
     1.0000   1.0000   1.0000   1.0000   1.0000   1.0000   1.0000   1.0000
     1.0000   1.0000   1.0000   1.0000   1.0000   1.0000   1.0000   1.0000
     1.0000   1.0000   1.0000   1.0000   1.0000   1.0000   1.0000   1.0000
     1.0000   1.0000   1.0000   1.0000   1.0000   1.0000   1.0000   1.0000
     1.0000   1.0000   1.0000   1.0000   1.0000   1.0000   1.0000   1.0000
     1.0000   1.0000   1.0000   1.0000   1.0000   1.0000   1.0000   1.0000
     0.0000   0.0000   0.0000   0.0000   0.0000   0.0000   0.0000   0.0000
     0.0000   0.0000   0.0000   0.0000   0.0000   0.0000   0.0000   0.0000
     0.0000   0.0000   0.0000   0.0000   0.0000   0.0000   0.0000   0.0000
     0.0000   0.0000   0.0000   0.0000   0.0000   0.0000   0.0000   0.0000
     0.0000   0.0000   0.0000   0.0000   0.0000   0.0000   0.0000   0.0000
     0.0000   0.0000   0.0000   0.0000   0.0000   0.0000   0.0000   0.0000
     0.0000   0.0000   0.0000   0.0000   0.0000   0.0000   0.0000   0.0000
     0.0000   0.0000   0.0000   0.0000   0.0000   0.0000   0.0000   0.0000
     0.0000   0.0000   0.0000   0.0000   0.0000   0.0000   0.0000   0.0000
     0.0000   0.0000   0.0000   0.0000   0.0000   0.0000   0.0000   0.0000
     0.0000   0.0000   0.0000   0.0000   0.0000   0.0000   0.0000   0.0000
     0.0000   0.0000   0.0000   0.0000   0.0000   0.0000   0.0000   0.0000
     0.0000   0.0000   0.0000   0.0000   0.0000   0.0000

          k =-0.3536-0.3536 0.3536 ( 49986 PWs)   bands (ev):

   -29.5009 -29.4738 -29.4473 -29.4241 -29.4197 -29.4075 -29.3981 -29.3916
   -29.3887 -29.3824 -29.3783 -29.3760 -29.3611 -29.3566 -29.3503 -29.3449
   -29.3378 -29.3339 -29.3270 -29.3247 -29.3223 -29.3153 -29.3132 -29.3082
   -29.3069 -29.3048 -29.2968 -29.2919 -29.2901 -29.2867 -29.2843 -29.2839
   -29.2803 -29.2800 -29.2773 -29.2758 -29.2713 -29.2689 -29.2676 -29.2653
   -29.2614 -29.2566 -29.2531 -29.2481 -29.2435 -29.2342 -29.2324 -29.2303
   -29.2246 -29.2235 -29.2198 -29.2139 -29.2124 -29.2077 -29.2063 -29.1975
   -29.1906 -29.1637 -29.1623 -29.1586 -29.1439 -29.1391 -29.1179 -29.0995
   -11.4138 -11.4112 -11.4070 -11.3896 -11.3790 -11.3763 -11.3687 -11.3428
   -11.2315 -11.2219 -11.2124 -11.2031 -11.1987 -11.1947 -11.1900 -11.1803
   -11.1759 -11.1721 -11.1671 -11.1604 -11.1558 -11.1513 -11.1425 -11.1390
   -11.1350 -11.1308 -11.1047 -11.0915 -11.0891 -11.0870 -11.0800 -11.0739
   -11.0117 -11.0054 -11.0009 -10.9982 -10.9936 -10.9836 -10.9743 -10.9694
   -10.9647 -10.9617 -10.9578 -10.9522 -10.9515 -10.9466 -10.9435 -10.9419
   -10.9361 -10.9352 -10.9220 -10.9195 -10.9129 -10.8949 -10.8920 -10.8817
   -10.8390 -10.8335 -10.8134 -10.8101 -10.7921 -10.7916 -10.6795 -10.6751
   -10.6726 -10.6684 -10.6647 -10.6591 -10.6504 -10.6447 -10.6408 -10.6388
   -10.6322 -10.6290 -10.6159 -10.6120 -10.6101 -10.6023 -10.5937 -10.5902
   -10.5889 -10.5828 -10.5767 -10.5722 -10.5707 -10.5587 -10.5414 -10.5364
   -10.5320 -10.5239 -10.5195 -10.5182 -10.5142 -10.5092 -10.5057 -10.5031
   -10.4963 -10.4944 -10.4925 -10.4888 -10.4866 -10.4830 -10.4787 -10.4781
   -10.4767 -10.4738 -10.4696 -10.4672 -10.4652 -10.4620 -10.4563 -10.4548
   -10.4517 -10.4468 -10.4431 -10.4403 -10.4371 -10.4310 -10.4264 -10.4233
   -10.4165 -10.4151 -10.4135 -10.4098 -10.4086 -10.4020 -10.4010 -10.3988
   -10.3938 -10.3915 -10.3901 -10.3880 -10.3859 -10.3825 -10.3803 -10.3791
   -10.3727 -10.3661 -10.3624 -10.3590 -10.3537 -10.3529 -10.3519 -10.3490
   -10.3446 -10.3420 -10.3405 -10.3360 -10.3339 -10.3327 -10.3309 -10.3286
   -10.3276 -10.3231 -10.3170 -10.3169 -10.3139 -10.3111 -10.3108 -10.3069
   -10.3036 -10.3007 -10.2998 -10.2967 -10.2929 -10.2908 -10.2885 -10.2860
   -10.2840 -10.2778 -10.2737 -10.2706 -10.2688 -10.2654 -10.2645 -10.2580
   -10.2543 -10.2483 -10.2443 -10.2411 -10.2364 -10.2330 -10.2292 -10.2232
   -10.2212 -10.2119 -10.2079 -10.2035 -10.2005 -10.1923 -10.1810 -10.1561
    -7.3034  -7.2910  -7.1413  -7.1374  -7.1280  -7.1207  -7.1144  -7.1077
    -6.9720  -6.9567  -6.9349  -6.9269  -6.9107  -6.9033  -6.8996  -6.8890
    -6.8855  -6.8780  -6.8729  -6.8660  -6.8597  -6.8435  -6.8371  -6.8270
    -6.8245  -6.8187  -6.8102  -6.8086  -6.8019  -6.7957  -6.7918  -6.7810
    -6.6643  -6.6495  -6.6472  -6.6429  -6.6374  -6.6293  -6.6187  -6.6182
    -6.6019  -6.5985  -6.5929  -6.5897  -6.5825  -6.5776  -6.5737  -6.5697
    -6.5669  -6.5627  -6.5613  -6.5510  -6.5467  -6.5329  -6.5301  -6.5109
    -6.3783  -6.3654  -6.3631  -6.3620  -6.3442  -6.3333  -6.3274  -6.3191
     5.3995   5.4037   5.4086   5.4195   5.4238   5.4274   5.4506   5.4699
     5.7829   5.7919   5.7965   5.7970   5.8048   5.8092   5.8165   5.8194
     5.8276   5.8289   5.8330   5.8365   5.8436   5.8473   5.8511   5.8691
     5.8760   5.8830   5.9134   5.9200   5.9225   5.9321   5.9325   5.9362
     6.0491   6.0548   6.0576   6.0647   6.0653   6.0681   6.3253   6.3314
     6.3357   6.3382   6.3401   6.3432   6.3468   6.3520   6.3565   6.3571
     6.3590   6.3636   6.3663   6.3695   6.3720   6.3777   6.3833   6.3881
     6.4731   6.4758   6.4792   6.4958   6.4981   6.5031   6.6196   6.6295
     6.6370   6.6538   6.6594   6.6642   6.6852   6.6919   6.6996   6.7022
     6.7127   6.7140   6.7216   6.7241   6.7286   6.7295   6.7334   6.7360
     6.7421   6.7438   6.7455   6.7485   6.7524   6.7558   6.7564   6.7592
     6.7607   6.7654   6.7677   6.7701   6.7737   6.7756   6.7787   6.7820
     6.7856   6.7868   6.7900   6.7919   6.7954   6.7998   6.8036   6.8079
     6.8092   6.8131   6.8152   6.8204   6.8288   6.8303   6.8341   6.8392
     6.8429   6.8512   6.8770   6.8826   6.8899   6.8943   6.9092   6.9111
     6.9534   6.9580   6.9655   6.9722   6.9751   6.9782   6.9888   6.9914
     7.0006   7.0010   7.0101   7.0122   7.0167   7.0177   7.0221   7.0239
     7.0290   7.0362   7.0410   7.0464   7.0491   7.0545   7.0614   7.0688
     7.1685   7.1799   7.1889   7.1892   7.1944   7.1971   7.2008   7.2048
     7.2148   7.2252   7.2270   7.2337   7.2588   7.2612   7.2672   7.2738
     7.2817   7.2869   7.3110   7.3378   7.3451   7.3613   7.3631   7.3709
     7.3749   7.3822   7.3856   7.3875   7.3974   7.3994   7.4047   7.4103
     7.4180   7.4263   7.4301   7.4311   7.4366   7.4487   7.4806   7.4836
     7.5014   7.5182   7.5288   7.5443   7.6641   7.6698   7.6938   7.7001
    11.9404  11.9438  11.9506  11.9773  11.9801  11.9857  12.4647  12.4792
    12.4816  12.4965  12.5044  12.5147  13.3218  13.3310  13.3404  13.3512
    13.3567  13.3586  13.3689  13.3759  13.3792  13.3873  13.3924  13.3955
    13.4031  13.4072  13.4135  13.4317  13.4331  13.4425  13.4468  13.4657
    13.7385  13.7494  13.7531  13.7663  13.7699  13.7746  13.7838  13.7857
    13.7942  13.7953  13.8091  13.8204  14.0495  14.0820  14.0999  14.1047
    14.1146  14.1272  14.1349  14.1562  14.3571  14.3682  14.3688  14.3730
    14.3785  14.3825  14.3871  14.3953  14.4141  14.4179  14.4268  14.4420
    14.4476  14.4556  14.4592  14.4669  14.6077  14.6133  14.6297  14.6371
    14.6475  14.6580  14.6698  14.6747  15.1229  15.1282  15.1406  15.1449
    15.1553  15.1586  15.1887  15.1957  15.2007  15.2064  15.2146  15.2279
    15.2692  15.2770  15.2831  15.2870  15.2919  15.2941  15.2995  15.3061
    15.3114  15.3203  15.3294  15.3313  15.3354  15.3395

     occupation numbers 
     1.0000   1.0000   1.0000   1.0000   1.0000   1.0000   1.0000   1.0000
     1.0000   1.0000   1.0000   1.0000   1.0000   1.0000   1.0000   1.0000
     1.0000   1.0000   1.0000   1.0000   1.0000   1.0000   1.0000   1.0000
     1.0000   1.0000   1.0000   1.0000   1.0000   1.0000   1.0000   1.0000
     1.0000   1.0000   1.0000   1.0000   1.0000   1.0000   1.0000   1.0000
     1.0000   1.0000   1.0000   1.0000   1.0000   1.0000   1.0000   1.0000
     1.0000   1.0000   1.0000   1.0000   1.0000   1.0000   1.0000   1.0000
     1.0000   1.0000   1.0000   1.0000   1.0000   1.0000   1.0000   1.0000
     1.0000   1.0000   1.0000   1.0000   1.0000   1.0000   1.0000   1.0000
     1.0000   1.0000   1.0000   1.0000   1.0000   1.0000   1.0000   1.0000
     1.0000   1.0000   1.0000   1.0000   1.0000   1.0000   1.0000   1.0000
     1.0000   1.0000   1.0000   1.0000   1.0000   1.0000   1.0000   1.0000
     1.0000   1.0000   1.0000   1.0000   1.0000   1.0000   1.0000   1.0000
     1.0000   1.0000   1.0000   1.0000   1.0000   1.0000   1.0000   1.0000
     1.0000   1.0000   1.0000   1.0000   1.0000   1.0000   1.0000   1.0000
     1.0000   1.0000   1.0000   1.0000   1.0000   1.0000   1.0000   1.0000
     1.0000   1.0000   1.0000   1.0000   1.0000   1.0000   1.0000   1.0000
     1.0000   1.0000   1.0000   1.0000   1.0000   1.0000   1.0000   1.0000
     1.0000   1.0000   1.0000   1.0000   1.0000   1.0000   1.0000   1.0000
     1.0000   1.0000   1.0000   1.0000   1.0000   1.0000   1.0000   1.0000
     1.0000   1.0000   1.0000   1.0000   1.0000   1.0000   1.0000   1.0000
     1.0000   1.0000   1.0000   1.0000   1.0000   1.0000   1.0000   1.0000
     1.0000   1.0000   1.0000   1.0000   1.0000   1.0000   1.0000   1.0000
     1.0000   1.0000   1.0000   1.0000   1.0000   1.0000   1.0000   1.0000
     1.0000   1.0000   1.0000   1.0000   1.0000   1.0000   1.0000   1.0000
     1.0000   1.0000   1.0000   1.0000   1.0000   1.0000   1.0000   1.0000
     1.0000   1.0000   1.0000   1.0000   1.0000   1.0000   1.0000   1.0000
     1.0000   1.0000   1.0000   1.0000   1.0000   1.0000   1.0000   1.0000
     1.0000   1.0000   1.0000   1.0000   1.0000   1.0000   1.0000   1.0000
     1.0000   1.0000   1.0000   1.0000   1.0000   1.0000   1.0000   1.0000
     1.0000   1.0000   1.0000   1.0000   1.0000   1.0000   1.0000   1.0000
     1.0000   1.0000   1.0000   1.0000   1.0000   1.0000   1.0000   1.0000
     1.0000   1.0000   1.0000   1.0000   1.0000   1.0000   1.0000   1.0000
     1.0000   1.0000   1.0000   1.0000   1.0000   1.0000   1.0000   1.0000
     1.0000   1.0000   1.0000   1.0000   1.0000   1.0000   1.0000   1.0000
     1.0000   1.0000   1.0000   1.0000   1.0000   1.0000   1.0000   1.0000
     1.0000   1.0000   1.0000   1.0000   1.0000   1.0000   1.0000   1.0000
     1.0000   1.0000   1.0000   1.0000   1.0000   1.0000   1.0000   1.0000
     1.0000   1.0000   1.0000   1.0000   1.0000   1.0000   1.0000   1.0000
     1.0000   1.0000   1.0000   1.0000   1.0000   1.0000   1.0000   1.0000
     1.0000   1.0000   1.0000   1.0000   1.0000   1.0000   1.0000   1.0000
     1.0000   1.0000   1.0000   1.0000   1.0000   1.0000   1.0000   1.0000
     1.0000   1.0000   1.0000   1.0000   1.0000   1.0000   1.0000   1.0000
     1.0000   1.0000   1.0000   1.0000   1.0000   1.0000   1.0000   1.0000
     1.0000   1.0000   1.0000   1.0000   1.0000   1.0000   1.0000   1.0000
     1.0000   1.0000   1.0000   1.0000   1.0000   1.0000   1.0000   1.0000
     1.0000   1.0000   1.0000   1.0000   1.0000   1.0000   1.0000   1.0000
     1.0000   1.0000   1.0000   1.0000   1.0000   1.0000   1.0000   1.0000
     1.0000   1.0000   1.0000   1.0000   1.0000   1.0000   1.0000   1.0000
     1.0000   1.0000   1.0000   1.0000   1.0000   1.0000   1.0000   1.0000
     1.0000   1.0000   1.0000   1.0000   1.0000   1.0000   1.0000   1.0000
     1.0000   1.0000   1.0000   1.0000   1.0000   1.0000   1.0000   1.0000
     1.0000   1.0000   1.0000   1.0000   1.0000   1.0000   1.0000   1.0000
     1.0000   1.0000   1.0000   1.0000   1.0000   1.0000   1.0000   1.0000
     1.0000   1.0000   1.0000   1.0000   1.0000   1.0000   1.0000   1.0000
     1.0000   1.0000   1.0000   1.0000   1.0000   1.0000   1.0000   1.0000
     1.0000   1.0000   1.0000   1.0000   1.0000   1.0000   1.0000   1.0000
     1.0000   1.0000   1.0000   1.0000   1.0000   1.0000   1.0000   1.0000
     1.0000   1.0000   1.0000   1.0000   1.0000   1.0000   1.0000   1.0000
     1.0000   1.0000   1.0000   1.0000   1.0000   1.0000   1.0000   1.0000
     1.0000   1.0000   1.0000   1.0000   1.0000   1.0000   1.0000   1.0000
     1.0000   1.0000   1.0000   1.0000   1.0000   1.0000   1.0000   1.0000
     1.0000   1.0000   1.0000   1.0000   1.0000   1.0000   1.0000   1.0000
     1.0000   1.0000   1.0000   1.0000   1.0000   1.0000   1.0000   1.0000
     0.0000   0.0000   0.0000   0.0000   0.0000   0.0000   0.0000   0.0000
     0.0000   0.0000   0.0000   0.0000   0.0000   0.0000   0.0000   0.0000
     0.0000   0.0000   0.0000   0.0000   0.0000   0.0000   0.0000   0.0000
     0.0000   0.0000   0.0000   0.0000   0.0000   0.0000   0.0000   0.0000
     0.0000   0.0000   0.0000   0.0000   0.0000   0.0000   0.0000   0.0000
     0.0000   0.0000   0.0000   0.0000   0.0000   0.0000   0.0000   0.0000
     0.0000   0.0000   0.0000   0.0000   0.0000   0.0000   0.0000   0.0000
     0.0000   0.0000   0.0000   0.0000   0.0000   0.0000   0.0000   0.0000
     0.0000   0.0000   0.0000   0.0000   0.0000   0.0000   0.0000   0.0000
     0.0000   0.0000   0.0000   0.0000   0.0000   0.0000   0.0000   0.0000
     0.0000   0.0000   0.0000   0.0000   0.0000   0.0000   0.0000   0.0000
     0.0000   0.0000   0.0000   0.0000   0.0000   0.0000   0.0000   0.0000
     0.0000   0.0000   0.0000   0.0000   0.0000   0.0000

          k =-0.7071 0.0000 0.0000 ( 50000 PWs)   bands (ev):

   -29.5008 -29.4737 -29.4471 -29.4252 -29.4187 -29.4088 -29.3978 -29.3913
   -29.3889 -29.3807 -29.3790 -29.3760 -29.3608 -29.3556 -29.3517 -29.3448
   -29.3419 -29.3337 -29.3289 -29.3219 -29.3195 -29.3146 -29.3120 -29.3085
   -29.3061 -29.3029 -29.2952 -29.2930 -29.2913 -29.2903 -29.2859 -29.2850
   -29.2811 -29.2789 -29.2773 -29.2753 -29.2706 -29.2691 -29.2676 -29.2631
   -29.2603 -29.2583 -29.2539 -29.2476 -29.2431 -29.2336 -29.2327 -29.2310
   -29.2250 -29.2231 -29.2181 -29.2160 -29.2119 -29.2079 -29.2061 -29.1971
   -29.1908 -29.1639 -29.1622 -29.1586 -29.1439 -29.1391 -29.1179 -29.0995
   -11.3828 -11.3764 -11.3727 -11.3724 -11.3661 -11.3492 -11.3483 -11.3444
   -11.2698 -11.2529 -11.2436 -11.2409 -11.2393 -11.2276 -11.2252 -11.2203
   -11.2076 -11.2010 -11.1940 -11.1914 -11.1831 -11.1762 -11.1752 -11.1685
   -11.0662 -11.0595 -11.0505 -11.0494 -11.0446 -11.0398 -11.0351 -11.0279
   -11.0267 -11.0230 -11.0152 -11.0118 -11.0011 -11.0001 -10.9989 -10.9919
   -10.9850 -10.9829 -10.9780 -10.9756 -10.9708 -10.9637 -10.9598 -10.9456
   -10.9353 -10.9218 -10.8763 -10.8738 -10.8672 -10.8623 -10.8501 -10.8428
   -10.8319 -10.8309 -10.8005 -10.7855 -10.7780 -10.7690 -10.7424 -10.7347
   -10.7305 -10.7270 -10.6724 -10.6682 -10.6574 -10.6553 -10.6527 -10.6489
   -10.6448 -10.6424 -10.6396 -10.6362 -10.6194 -10.6080 -10.5895 -10.5812
   -10.5652 -10.5605 -10.5476 -10.5335 -10.5322 -10.5281 -10.5240 -10.5213
   -10.5172 -10.5168 -10.5091 -10.5077 -10.5063 -10.5016 -10.4983 -10.4962
   -10.4931 -10.4913 -10.4884 -10.4868 -10.4848 -10.4832 -10.4770 -10.4721
   -10.4695 -10.4652 -10.4629 -10.4597 -10.4539 -10.4494 -10.4461 -10.4407
   -10.4375 -10.4352 -10.4347 -10.4269 -10.4259 -10.4243 -10.4239 -10.4216
   -10.4199 -10.4175 -10.4147 -10.4093 -10.4085 -10.4040 -10.4028 -10.4008
   -10.3992 -10.3968 -10.3954 -10.3915 -10.3881 -10.3859 -10.3843 -10.3809
   -10.3794 -10.3754 -10.3713 -10.3675 -10.3667 -10.3611 -10.3560 -10.3528
   -10.3496 -10.3471 -10.3445 -10.3396 -10.3380 -10.3361 -10.3319 -10.3294
   -10.3274 -10.3261 -10.3228 -10.3207 -10.3179 -10.3120 -10.3108 -10.3103
   -10.3064 -10.3024 -10.2987 -10.2973 -10.2953 -10.2900 -10.2861 -10.2824
   -10.2802 -10.2774 -10.2744 -10.2718 -10.2698 -10.2658 -10.2642 -10.2620
   -10.2587 -10.2568 -10.2530 -10.2485 -10.2447 -10.2419 -10.2359 -10.2315
   -10.2271 -10.2242 -10.2165 -10.2111 -10.1925 -10.1888 -10.1842 -10.1577
    -7.2611  -7.2477  -7.1290  -7.1170  -7.0976  -7.0852  -7.0827  -7.0713
    -7.0247  -7.0070  -7.0042  -6.9985  -6.9379  -6.9185  -6.9154  -6.9087
    -6.9076  -6.9019  -6.8994  -6.8954  -6.8876  -6.8835  -6.8781  -6.8735
    -6.7816  -6.7627  -6.7585  -6.7533  -6.7469  -6.7410  -6.7315  -6.7305
    -6.7149  -6.7013  -6.6950  -6.6898  -6.6802  -6.6793  -6.6757  -6.6716
    -6.5760  -6.5734  -6.5649  -6.5619  -6.5553  -6.5527  -6.5481  -6.5465
    -6.5381  -6.5357  -6.5298  -6.5234  -6.5148  -6.5134  -6.5132  -6.4978
    -6.3728  -6.3720  -6.3700  -6.3688  -6.3637  -6.3577  -6.3481  -6.3365
     5.4374   5.4396   5.4490   5.4509   5.4560   5.4572   5.4674   5.4694
     5.7343   5.7542   5.7554   5.7592   5.7638   5.7652   5.7658   5.7677
     5.7707   5.7718   5.7730   5.7754   5.7786   5.7792   5.7824   5.7896
     5.9902   5.9935   5.9948   6.0030   6.0038   6.0109   6.0126   6.0190
     6.0732   6.0807   6.0889   6.0902   6.0944   6.0997   6.1008   6.1064
     6.2085   6.2145   6.2188   6.2213   6.2271   6.2292   6.2312   6.2349
     6.2720   6.2775   6.4940   6.4994   6.5048   6.5079   6.6010   6.6054
     6.6188   6.6219   6.6325   6.6377   6.6409   6.6482   6.6504   6.6522
     6.6549   6.6586   6.6602   6.6647   6.6702   6.6719   6.6785   6.6815
     6.6881   6.6954   6.7181   6.7213   6.7261   6.7295   6.7348   6.7364
     6.7431   6.7488   6.7523   6.7540   6.7560   6.7618   6.7643   6.7665
     6.7711   6.7763   6.7840   6.7898   6.7966   6.8020   6.8045   6.8051
     6.8108   6.8144   6.8174   6.8182   6.8223   6.8260   6.8301   6.8337
     6.8351   6.8400   6.8435   6.8477   6.8491   6.8540   6.8596   6.8621
     6.8644   6.8695   6.8715   6.8811   6.8835   6.8901   6.8917   6.8924
     6.8986   6.9068   6.9970   7.0011   7.0086   7.0184   7.0222   7.0236
     7.0343   7.0369   7.0404   7.0453   7.0503   7.0511   7.0531   7.0554
     7.0582   7.0604   7.0673   7.0692   7.0727   7.0769   7.0783   7.0797
     7.0842   7.0886   7.0912   7.0941   7.1024   7.1071   7.1076   7.1083
     7.1135   7.1175   7.1208   7.1234   7.2228   7.2235   7.2321   7.2369
     7.2414   7.2442   7.2486   7.2506   7.2613   7.2622   7.2710   7.2747
     7.2808   7.2872   7.2950   7.2992   7.3568   7.3620   7.3673   7.3700
     7.3815   7.3820   7.3896   7.4085   7.5221   7.5260   7.5338   7.5385
     7.6047   7.6170   7.6207   7.6276   7.7677   7.7708   7.7807   7.7836
    11.7224  11.7440  12.2913  12.2946  12.3144  12.3153  12.5389  12.5459
    12.5595  12.5691  12.5772  12.5815  12.5858  12.5925  12.9799  12.9991
    13.0079  13.0166  13.2193  13.2313  13.2349  13.2410  13.2597  13.2645
    13.2712  13.2873  13.4259  13.4363  13.5833  13.5913  13.7678  13.7709
    13.7939  13.7976  13.8026  13.8073  13.8111  13.8268  13.9077  13.9168
    13.9240  13.9259  14.1089  14.1218  14.1329  14.1463  14.3357  14.3455
    14.3547  14.3653  14.3812  14.3982  14.3991  14.4114  14.5501  14.5583
    14.5649  14.5709  14.5871  14.5939  14.5970  14.5988  14.6192  14.6219
    14.6268  14.6399  14.6530  14.6675  14.6777  14.6804  14.6888  14.6916
    14.7034  14.7058  14.7118  14.7290  14.7324  14.7362  14.7392  14.7486
    14.7488  14.7536  14.7626  14.7660  14.7685  14.7736  14.7754  14.7837
    14.7874  14.7921  14.8005  14.8022  14.8117  14.8170  15.0764  15.0871
    15.0895  15.0984  15.1045  15.1099  15.1135  15.1208

     occupation numbers 
     1.0000   1.0000   1.0000   1.0000   1.0000   1.0000   1.0000   1.0000
     1.0000   1.0000   1.0000   1.0000   1.0000   1.0000   1.0000   1.0000
     1.0000   1.0000   1.0000   1.0000   1.0000   1.0000   1.0000   1.0000
     1.0000   1.0000   1.0000   1.0000   1.0000   1.0000   1.0000   1.0000
     1.0000   1.0000   1.0000   1.0000   1.0000   1.0000   1.0000   1.0000
     1.0000   1.0000   1.0000   1.0000   1.0000   1.0000   1.0000   1.0000
     1.0000   1.0000   1.0000   1.0000   1.0000   1.0000   1.0000   1.0000
     1.0000   1.0000   1.0000   1.0000   1.0000   1.0000   1.0000   1.0000
     1.0000   1.0000   1.0000   1.0000   1.0000   1.0000   1.0000   1.0000
     1.0000   1.0000   1.0000   1.0000   1.0000   1.0000   1.0000   1.0000
     1.0000   1.0000   1.0000   1.0000   1.0000   1.0000   1.0000   1.0000
     1.0000   1.0000   1.0000   1.0000   1.0000   1.0000   1.0000   1.0000
     1.0000   1.0000   1.0000   1.0000   1.0000   1.0000   1.0000   1.0000
     1.0000   1.0000   1.0000   1.0000   1.0000   1.0000   1.0000   1.0000
     1.0000   1.0000   1.0000   1.0000   1.0000   1.0000   1.0000   1.0000
     1.0000   1.0000   1.0000   1.0000   1.0000   1.0000   1.0000   1.0000
     1.0000   1.0000   1.0000   1.0000   1.0000   1.0000   1.0000   1.0000
     1.0000   1.0000   1.0000   1.0000   1.0000   1.0000   1.0000   1.0000
     1.0000   1.0000   1.0000   1.0000   1.0000   1.0000   1.0000   1.0000
     1.0000   1.0000   1.0000   1.0000   1.0000   1.0000   1.0000   1.0000
     1.0000   1.0000   1.0000   1.0000   1.0000   1.0000   1.0000   1.0000
     1.0000   1.0000   1.0000   1.0000   1.0000   1.0000   1.0000   1.0000
     1.0000   1.0000   1.0000   1.0000   1.0000   1.0000   1.0000   1.0000
     1.0000   1.0000   1.0000   1.0000   1.0000   1.0000   1.0000   1.0000
     1.0000   1.0000   1.0000   1.0000   1.0000   1.0000   1.0000   1.0000
     1.0000   1.0000   1.0000   1.0000   1.0000   1.0000   1.0000   1.0000
     1.0000   1.0000   1.0000   1.0000   1.0000   1.0000   1.0000   1.0000
     1.0000   1.0000   1.0000   1.0000   1.0000   1.0000   1.0000   1.0000
     1.0000   1.0000   1.0000   1.0000   1.0000   1.0000   1.0000   1.0000
     1.0000   1.0000   1.0000   1.0000   1.0000   1.0000   1.0000   1.0000
     1.0000   1.0000   1.0000   1.0000   1.0000   1.0000   1.0000   1.0000
     1.0000   1.0000   1.0000   1.0000   1.0000   1.0000   1.0000   1.0000
     1.0000   1.0000   1.0000   1.0000   1.0000   1.0000   1.0000   1.0000
     1.0000   1.0000   1.0000   1.0000   1.0000   1.0000   1.0000   1.0000
     1.0000   1.0000   1.0000   1.0000   1.0000   1.0000   1.0000   1.0000
     1.0000   1.0000   1.0000   1.0000   1.0000   1.0000   1.0000   1.0000
     1.0000   1.0000   1.0000   1.0000   1.0000   1.0000   1.0000   1.0000
     1.0000   1.0000   1.0000   1.0000   1.0000   1.0000   1.0000   1.0000
     1.0000   1.0000   1.0000   1.0000   1.0000   1.0000   1.0000   1.0000
     1.0000   1.0000   1.0000   1.0000   1.0000   1.0000   1.0000   1.0000
     1.0000   1.0000   1.0000   1.0000   1.0000   1.0000   1.0000   1.0000
     1.0000   1.0000   1.0000   1.0000   1.0000   1.0000   1.0000   1.0000
     1.0000   1.0000   1.0000   1.0000   1.0000   1.0000   1.0000   1.0000
     1.0000   1.0000   1.0000   1.0000   1.0000   1.0000   1.0000   1.0000
     1.0000   1.0000   1.0000   1.0000   1.0000   1.0000   1.0000   1.0000
     1.0000   1.0000   1.0000   1.0000   1.0000   1.0000   1.0000   1.0000
     1.0000   1.0000   1.0000   1.0000   1.0000   1.0000   1.0000   1.0000
     1.0000   1.0000   1.0000   1.0000   1.0000   1.0000   1.0000   1.0000
     1.0000   1.0000   1.0000   1.0000   1.0000   1.0000   1.0000   1.0000
     1.0000   1.0000   1.0000   1.0000   1.0000   1.0000   1.0000   1.0000
     1.0000   1.0000   1.0000   1.0000   1.0000   1.0000   1.0000   1.0000
     1.0000   1.0000   1.0000   1.0000   1.0000   1.0000   1.0000   1.0000
     1.0000   1.0000   1.0000   1.0000   1.0000   1.0000   1.0000   1.0000
     1.0000   1.0000   1.0000   1.0000   1.0000   1.0000   1.0000   1.0000
     1.0000   1.0000   1.0000   1.0000   1.0000   1.0000   1.0000   1.0000
     1.0000   1.0000   1.0000   1.0000   1.0000   1.0000   1.0000   1.0000
     1.0000   1.0000   1.0000   1.0000   1.0000   1.0000   1.0000   1.0000
     1.0000   1.0000   1.0000   1.0000   1.0000   1.0000   1.0000   1.0000
     1.0000   1.0000   1.0000   1.0000   1.0000   1.0000   1.0000   1.0000
     1.0000   1.0000   1.0000   1.0000   1.0000   1.0000   1.0000   1.0000
     1.0000   1.0000   1.0000   1.0000   1.0000   1.0000   1.0000   1.0000
     1.0000   1.0000   1.0000   1.0000   1.0000   1.0000   1.0000   1.0000
     1.0000   1.0000   1.0000   1.0000   1.0000   1.0000   1.0000   1.0000
     1.0000   1.0000   1.0000   1.0000   1.0000   1.0000   1.0000   1.0000
     0.0000   0.0000   0.0000   0.0000   0.0000   0.0000   0.0000   0.0000
     0.0000   0.0000   0.0000   0.0000   0.0000   0.0000   0.0000   0.0000
     0.0000   0.0000   0.0000   0.0000   0.0000   0.0000   0.0000   0.0000
     0.0000   0.0000   0.0000   0.0000   0.0000   0.0000   0.0000   0.0000
     0.0000   0.0000   0.0000   0.0000   0.0000   0.0000   0.0000   0.0000
     0.0000   0.0000   0.0000   0.0000   0.0000   0.0000   0.0000   0.0000
     0.0000   0.0000   0.0000   0.0000   0.0000   0.0000   0.0000   0.0000
     0.0000   0.0000   0.0000   0.0000   0.0000   0.0000   0.0000   0.0000
     0.0000   0.0000   0.0000   0.0000   0.0000   0.0000   0.0000   0.0000
     0.0000   0.0000   0.0000   0.0000   0.0000   0.0000   0.0000   0.0000
     0.0000   0.0000   0.0000   0.0000   0.0000   0.0000   0.0000   0.0000
     0.0000   0.0000   0.0000   0.0000   0.0000   0.0000   0.0000   0.0000
     0.0000   0.0000   0.0000   0.0000   0.0000   0.0000

          k = 0.3536 0.3536 0.3536 ( 49986 PWs)   bands (ev):

   -29.5010 -29.4730 -29.4489 -29.4242 -29.4165 -29.4092 -29.3978 -29.3941
   -29.3882 -29.3840 -29.3781 -29.3736 -29.3595 -29.3556 -29.3502 -29.3439
   -29.3391 -29.3380 -29.3301 -29.3241 -29.3195 -29.3145 -29.3131 -29.3075
   -29.3058 -29.3020 -29.2959 -29.2945 -29.2910 -29.2877 -29.2864 -29.2846
   -29.2805 -29.2787 -29.2774 -29.2754 -29.2721 -29.2700 -29.2683 -29.2617
   -29.2601 -29.2568 -29.2537 -29.2478 -29.2429 -29.2338 -29.2334 -29.2314
   -29.2247 -29.2229 -29.2181 -29.2164 -29.2116 -29.2085 -29.2056 -29.1972
   -29.1906 -29.1639 -29.1622 -29.1587 -29.1439 -29.1391 -29.1179 -29.0995
   -11.4120 -11.4049 -11.4006 -11.3944 -11.3875 -11.3806 -11.3674 -11.3484
   -11.2251 -11.2148 -11.2095 -11.2039 -11.1998 -11.1937 -11.1896 -11.1826
   -11.1778 -11.1728 -11.1661 -11.1618 -11.1605 -11.1554 -11.1442 -11.1393
   -11.1285 -11.1211 -11.1030 -11.0968 -11.0923 -11.0803 -11.0747 -11.0736
   -11.0189 -11.0091 -11.0070 -10.9990 -10.9925 -10.9896 -10.9785 -10.9698
   -10.9682 -10.9620 -10.9573 -10.9546 -10.9521 -10.9494 -10.9430 -10.9370
   -10.9361 -10.9278 -10.9158 -10.9140 -10.9083 -10.8944 -10.8924 -10.8868
   -10.8398 -10.8360 -10.8235 -10.8079 -10.7921 -10.7878 -10.6843 -10.6697
   -10.6646 -10.6630 -10.6610 -10.6561 -10.6536 -10.6514 -10.6497 -10.6384
   -10.6353 -10.6328 -10.6189 -10.6079 -10.6044 -10.6013 -10.5978 -10.5916
   -10.5845 -10.5806 -10.5764 -10.5710 -10.5657 -10.5615 -10.5359 -10.5302
   -10.5277 -10.5214 -10.5211 -10.5147 -10.5126 -10.5100 -10.5075 -10.5018
   -10.4993 -10.4963 -10.4915 -10.4880 -10.4869 -10.4843 -10.4810 -10.4802
   -10.4757 -10.4726 -10.4699 -10.4688 -10.4644 -10.4635 -10.4597 -10.4563
   -10.4550 -10.4507 -10.4501 -10.4464 -10.4368 -10.4316 -10.4251 -10.4219
   -10.4212 -10.4189 -10.4129 -10.4118 -10.4106 -10.4063 -10.3993 -10.3968
   -10.3931 -10.3872 -10.3867 -10.3844 -10.3823 -10.3785 -10.3756 -10.3742
   -10.3733 -10.3707 -10.3625 -10.3602 -10.3565 -10.3524 -10.3508 -10.3485
   -10.3463 -10.3421 -10.3410 -10.3375 -10.3361 -10.3335 -10.3315 -10.3288
   -10.3258 -10.3226 -10.3195 -10.3148 -10.3135 -10.3123 -10.3102 -10.3049
   -10.3031 -10.3012 -10.2975 -10.2960 -10.2928 -10.2910 -10.2859 -10.2805
   -10.2790 -10.2764 -10.2751 -10.2695 -10.2667 -10.2653 -10.2632 -10.2582
   -10.2554 -10.2533 -10.2468 -10.2447 -10.2422 -10.2369 -10.2312 -10.2296
   -10.2199 -10.2151 -10.2115 -10.1963 -10.1935 -10.1843 -10.1829 -10.1578
    -7.3021  -7.2922  -7.1354  -7.1331  -7.1266  -7.1254  -7.1198  -7.1151
    -6.9637  -6.9589  -6.9370  -6.9217  -6.9097  -6.9009  -6.8962  -6.8948
    -6.8843  -6.8819  -6.8690  -6.8652  -6.8633  -6.8423  -6.8385  -6.8311
    -6.8244  -6.8136  -6.8079  -6.8035  -6.8014  -6.7964  -6.7935  -6.7865
    -6.6639  -6.6542  -6.6486  -6.6407  -6.6351  -6.6284  -6.6266  -6.6155
    -6.6046  -6.6028  -6.5978  -6.5931  -6.5804  -6.5768  -6.5748  -6.5709
    -6.5641  -6.5578  -6.5562  -6.5463  -6.5427  -6.5414  -6.5322  -6.5099
    -6.3747  -6.3590  -6.3562  -6.3513  -6.3479  -6.3459  -6.3296  -6.3242
     5.4046   5.4065   5.4089   5.4187   5.4214   5.4237   5.4516   5.4660
     5.7866   5.7946   5.7975   5.8039   5.8051   5.8110   5.8133   5.8200
     5.8231   5.8256   5.8302   5.8344   5.8407   5.8499   5.8540   5.8613
     5.8745   5.8860   5.9155   5.9157   5.9239   5.9296   5.9343   5.9375
     6.0493   6.0550   6.0614   6.0637   6.0659   6.0686   6.3272   6.3323
     6.3354   6.3385   6.3408   6.3454   6.3485   6.3496   6.3519   6.3567
     6.3591   6.3649   6.3662   6.3698   6.3742   6.3754   6.3816   6.3885
     6.4762   6.4794   6.4813   6.4891   6.4962   6.4992   6.6280   6.6359
     6.6434   6.6476   6.6511   6.6607   6.6850   6.6909   6.7055   6.7086
     6.7146   6.7162   6.7181   6.7245   6.7263   6.7324   6.7345   6.7356
     6.7433   6.7452   6.7477   6.7495   6.7513   6.7536   6.7586   6.7629
     6.7644   6.7647   6.7682   6.7693   6.7739   6.7763   6.7802   6.7810
     6.7818   6.7832   6.7866   6.7879   6.7909   6.7966   6.7971   6.8016
     6.8048   6.8132   6.8165   6.8217   6.8252   6.8291   6.8344   6.8404
     6.8509   6.8565   6.8745   6.8880   6.8929   6.8959   6.9038   6.9079
     6.9574   6.9642   6.9687   6.9702   6.9772   6.9783   6.9814   6.9880
     6.9932   7.0012   7.0049   7.0140   7.0181   7.0242   7.0266   7.0301
     7.0346   7.0377   7.0402   7.0411   7.0466   7.0518   7.0543   7.0570
     7.1702   7.1823   7.1850   7.1904   7.1922   7.1962   7.2009   7.2123
     7.2144   7.2220   7.2317   7.2349   7.2564   7.2643   7.2684   7.2718
[...]
     atom   77 type  1   force =   0.00000000E+00  0.00000000E+00  0.00000000E+00
     atom   78 type  2   force =   0.00000000E+00  0.00000000E+00  0.00000000E+00
     atom   79 type  1   force =   0.00000000E+00  0.00000000E+00  0.00000000E+00
     atom   80 type  2   force =   0.00000000E+00  0.00000000E+00  0.00000000E+00
     atom   81 type  1   force =   0.00000000E+00  0.00000000E+00  0.00000000E+00
     atom   82 type  2   force =   0.00000000E+00  0.00000000E+00  0.00000000E+00
     atom   83 type  1   force =   0.00000000E+00  0.00000000E+00  0.00000000E+00
     atom   84 type  2   force =   0.00000000E+00  0.00000000E+00  0.00000000E+00
     atom   85 type  1   force =   0.00000000E+00  0.00000000E+00  0.00000000E+00
     atom   86 type  2   force =   0.00000000E+00  0.00000000E+00  0.00000000E+00
     atom   87 type  1   force =   0.00000000E+00  0.00000000E+00  0.00000000E+00
     atom   88 type  2   force =   0.00000000E+00  0.00000000E+00  0.00000000E+00
     atom   89 type  1   force =   0.00000000E+00  0.00000000E+00  0.00000000E+00
     atom   90 type  2   force =   0.00000000E+00  0.00000000E+00  0.00000000E+00
     atom   91 type  1   force =   0.00000000E+00  0.00000000E+00  0.00000000E+00
     atom   92 type  2   force =   0.00000000E+00  0.00000000E+00  0.00000000E+00
     atom   93 type  1   force =   0.00000000E+00  0.00000000E+00  0.00000000E+00
     atom   94 type  2   force =   0.00000000E+00  0.00000000E+00  0.00000000E+00
     atom   95 type  1   force =   0.00000000E+00  0.00000000E+00  0.00000000E+00
     atom   96 type  2   force =   0.00000000E+00  0.00000000E+00  0.00000000E+00
     atom   97 type  1   force =   0.00000000E+00  0.00000000E+00  0.00000000E+00
     atom   98 type  2   force =   0.00000000E+00  0.00000000E+00  0.00000000E+00
     atom   99 type  1   force =   0.00000000E+00  0.00000000E+00  0.00000000E+00
     atom  100 type  2   force =   0.00000000E+00  0.00000000E+00  0.00000000E+00
     atom  101 type  1   force =   0.00000000E+00  0.00000000E+00  0.00000000E+00
     atom  102 type  2   force =   0.00000000E+00  0.00000000E+00  0.00000000E+00
     atom  103 type  1   force =   0.00000000E+00  0.00000000E+00  0.00000000E+00
     atom  104 type  2   force =   0.00000000E+00  0.00000000E+00  0.00000000E+00
     atom  105 type  1   force =   0.00000000E+00  0.00000000E+00  0.00000000E+00
     atom  106 type  2   force =   0.00000000E+00  0.00000000E+00  0.00000000E+00
     atom  107 type  1   force =   0.00000000E+00  0.00000000E+00  0.00000000E+00
     atom  108 type  2   force =   0.00000000E+00  0.00000000E+00  0.00000000E+00
     atom  109 type  1   force =   0.00000000E+00  0.00000000E+00  0.00000000E+00
     atom  110 type  2   force =   0.00000000E+00  0.00000000E+00  0.00000000E+00
     atom  111 type  1   force =   0.00000000E+00  0.00000000E+00  0.00000000E+00
     atom  112 type  2   force =   0.00000000E+00  0.00000000E+00  0.00000000E+00
     atom  113 type  1   force =   0.00000000E+00  0.00000000E+00  0.00000000E+00
     atom  114 type  2   force =   0.00000000E+00  0.00000000E+00  0.00000000E+00
     atom  115 type  1   force =   0.00000000E+00  0.00000000E+00  0.00000000E+00
     atom  116 type  2   force =   0.00000000E+00  0.00000000E+00  0.00000000E+00
     atom  117 type  1   force =   0.00000000E+00  0.00000000E+00  0.00000000E+00
     atom  118 type  2   force =   0.00000000E+00  0.00000000E+00  0.00000000E+00
     atom  119 type  1   force =   0.00000000E+00  0.00000000E+00  0.00000000E+00
     atom  120 type  2   force =   0.00000000E+00  0.00000000E+00  0.00000000E+00
     atom  121 type  1   force =   0.00000000E+00  0.00000000E+00  0.00000000E+00
     atom  122 type  2   force =   0.00000000E+00  0.00000000E+00  0.00000000E+00
     atom  123 type  1   force =   0.00000000E+00  0.00000000E+00  0.00000000E+00
     atom  124 type  2   force =   0.00000000E+00  0.00000000E+00  0.00000000E+00
     atom  125 type  1   force =   0.00000000E+00  0.00000000E+00  0.00000000E+00
     atom  126 type  2   force =   0.00000000E+00  0.00000000E+00  0.00000000E+00
     atom  127 type  1   force =   0.00000000E+00  0.00000000E+00  0.00000000E+00
     atom  128 type  2   force =   0.00000000E+00  0.00000000E+00  0.00000000E+00
     The SCF correction term to forces
     atom    1 type  1   force =  -0.24814561E-06 -0.25414700E-06 -0.32887238E-06
     atom    2 type  2   force =  -0.27926000E-07  0.42967823E-06  0.41589937E-06
     atom    3 type  1   force =   0.52169323E-06 -0.40440275E-06 -0.40869724E-06
     atom    4 type  2   force =   0.15081839E-05  0.45178059E-06  0.15389191E-05
     atom    5 type  1   force =   0.12288856E-05 -0.46843878E-06  0.18574675E-05
     atom    6 type  2   force =  -0.10067745E-05 -0.11420239E-05  0.52217691E-07
     atom    7 type  1   force =   0.16884299E-06 -0.68247434E-06  0.34843546E-05
     atom    8 type  2   force =  -0.58921001E-06  0.41534421E-06  0.17199201E-05
     atom    9 type  1   force =   0.26727845E-06  0.90872925E-09  0.72529135E-06
     atom   10 type  2   force =   0.24583519E-06  0.18373681E-05 -0.94530253E-06
     atom   11 type  1   force =   0.24277734E-05  0.82276604E-06  0.24973123E-06
     atom   12 type  2   force =  -0.14369005E-05 -0.51151452E-07 -0.24466124E-05
     atom   13 type  1   force =  -0.11180416E-05 -0.55901695E-06 -0.17495848E-06
     atom   14 type  2   force =   0.13620974E-06  0.13755872E-05  0.48272642E-06
     atom   15 type  1   force =  -0.17873885E-05  0.85700261E-07  0.54284789E-06
     atom   16 type  2   force =  -0.17355201E-05 -0.21895623E-06  0.22167241E-05
     atom   17 type  1   force =  -0.85512418E-06  0.61641083E-06 -0.15594684E-05
     atom   18 type  2   force =  -0.42874529E-06 -0.35425946E-06 -0.17760722E-06
     atom   19 type  1   force =  -0.36777534E-06  0.99873442E-06 -0.30102709E-05
     atom   20 type  2   force =   0.14330142E-05  0.10907710E-05  0.12332185E-06
     atom   21 type  1   force =  -0.27951904E-06  0.25876058E-06 -0.13983897E-05
     atom   22 type  2   force =  -0.13018586E-05  0.12286626E-05 -0.10182450E-05
     atom   23 type  1   force =  -0.67131181E-06  0.29289291E-06  0.18848917E-05
     atom   24 type  2   force =  -0.25142617E-05  0.61495052E-06  0.13199143E-06
     atom   25 type  1   force =   0.13069644E-05  0.14194963E-05  0.41105119E-06
     atom   26 type  2   force =  -0.39100722E-06  0.46360841E-06  0.10088639E-05
     atom   27 type  1   force =   0.85431548E-06 -0.15822656E-05 -0.13644388E-06
     atom   28 type  2   force =  -0.23464708E-06 -0.23162609E-06 -0.57297050E-06
     atom   29 type  1   force =   0.72187436E-06  0.10727456E-05 -0.89889964E-06
     atom   30 type  2   force =   0.10160956E-05 -0.30055092E-06  0.18111697E-05
     atom   31 type  1   force =  -0.36383589E-05 -0.36663914E-06  0.13477909E-06
     atom   32 type  2   force =  -0.12824393E-06 -0.32017759E-06  0.95716198E-06
     atom   33 type  1   force =  -0.13450913E-05  0.29049775E-06  0.78524286E-06
     atom   34 type  2   force =   0.16474666E-05  0.44888899E-07  0.97022632E-06
     atom   35 type  1   force =   0.86652125E-06 -0.72413464E-06  0.14907719E-05
     atom   36 type  2   force =   0.24867288E-06 -0.16008436E-05 -0.78478022E-06
     atom   37 type  1   force =   0.24770853E-05 -0.10768576E-05  0.10074538E-05
     atom   38 type  2   force =   0.11990702E-05 -0.19453730E-06  0.10916930E-06
     atom   39 type  1   force =  -0.12277505E-06 -0.46601408E-06  0.43938612E-06
     atom   40 type  2   force =  -0.21330742E-07 -0.13636516E-05  0.19030790E-06
     atom   41 type  1   force =  -0.12533873E-06  0.23036254E-06  0.14540381E-05
     atom   42 type  2   force =  -0.20496395E-05  0.55033025E-06 -0.13347848E-05
     atom   43 type  1   force =  -0.41425240E-06  0.40351335E-06 -0.16145250E-05
     atom   44 type  2   force =   0.20842900E-06  0.13369811E-05  0.61540279E-06
     atom   45 type  1   force =  -0.43816334E-06 -0.14086632E-06 -0.22695347E-05
     atom   46 type  2   force =   0.14472736E-05  0.20145184E-06 -0.17733413E-06
     atom   47 type  1   force =   0.56287333E-06  0.48892030E-07  0.18790181E-05
     atom   48 type  2   force =  -0.91133875E-06 -0.78685018E-06  0.23664752E-06
     atom   49 type  1   force =  -0.20182969E-05  0.61560646E-06 -0.64419132E-06
     atom   50 type  2   force =  -0.26147655E-06  0.75500096E-06  0.18520552E-05
     atom   51 type  1   force =  -0.75106235E-06  0.29485899E-06 -0.29730243E-06
     atom   52 type  2   force =  -0.13564045E-05  0.13291691E-05 -0.94588039E-06
     atom   53 type  1   force =   0.19123605E-05  0.30310207E-05 -0.69323547E-06
     atom   54 type  2   force =  -0.18230130E-05  0.65410024E-06 -0.18095911E-05
     atom   55 type  1   force =  -0.27650089E-05 -0.39291959E-07 -0.30319854E-06
     atom   56 type  2   force =   0.13560929E-06  0.46664808E-06  0.52447078E-06
     atom   57 type  1   force =  -0.46395067E-08  0.21754340E-06  0.20075227E-05
     atom   58 type  2   force =  -0.77233642E-06 -0.98081208E-06 -0.37046837E-07
     atom   59 type  1   force =  -0.58623355E-06 -0.30744417E-06  0.13076728E-05
     atom   60 type  2   force =   0.14345153E-05 -0.34018044E-08  0.85221326E-06
     atom   61 type  1   force =  -0.58389090E-07  0.10720366E-05 -0.23833634E-05
     atom   62 type  2   force =   0.21750693E-06 -0.73019911E-06  0.31360242E-06
     atom   63 type  1   force =  -0.24803374E-06 -0.26088160E-06  0.11434648E-05
     atom   64 type  2   force =  -0.24522354E-07  0.70254919E-06  0.12380474E-06
     atom   65 type  1   force =   0.13777243E-05 -0.11912163E-05 -0.39670543E-06
     atom   66 type  2   force =  -0.35139918E-07  0.43223841E-07 -0.43104567E-06
     atom   67 type  1   force =   0.11793467E-05 -0.47890506E-06  0.22129596E-05
     atom   68 type  2   force =  -0.56296128E-06  0.47952115E-06  0.96096132E-06
     atom   69 type  1   force =   0.17198904E-06 -0.40970502E-06  0.38203375E-06
     atom   70 type  2   force =  -0.60092441E-07 -0.11934815E-05  0.78747798E-06
     atom   71 type  1   force =   0.38607566E-06 -0.11117793E-05 -0.16371042E-05
     atom   72 type  2   force =   0.17234800E-05 -0.38707725E-06  0.61800911E-06
     atom   73 type  1   force =  -0.33201311E-07  0.77078535E-07 -0.15018537E-05
     atom   74 type  2   force =   0.11559338E-05  0.56416925E-06  0.67965584E-06
     atom   75 type  1   force =  -0.17846338E-05  0.70594829E-06 -0.22347160E-06
     atom   76 type  2   force =   0.23649873E-06 -0.11421642E-07  0.52158295E-06
     atom   77 type  1   force =   0.96698061E-06  0.18514399E-06  0.12171713E-05
     atom   78 type  2   force =  -0.62419019E-06 -0.78334156E-06  0.32775859E-06
     atom   79 type  1   force =   0.18078127E-05 -0.20738329E-05  0.86200632E-06
     atom   80 type  2   force =  -0.42794863E-06 -0.33759802E-06 -0.13026068E-05
     atom   81 type  1   force =   0.11123403E-05  0.85485824E-06  0.22546864E-05
     atom   82 type  2   force =  -0.14348506E-05  0.16084687E-06 -0.18157109E-05
     atom   83 type  1   force =  -0.79913552E-06  0.13845057E-05  0.17806894E-05
     atom   84 type  2   force =  -0.11077303E-05  0.16349931E-05 -0.74346305E-06
     atom   85 type  1   force =  -0.71773711E-06  0.15646727E-05 -0.51779461E-06
     atom   86 type  2   force =  -0.58835592E-06 -0.12779460E-06 -0.55758011E-06
     atom   87 type  1   force =  -0.19082963E-05 -0.11315531E-05 -0.18598034E-05
     atom   88 type  2   force =   0.11774046E-05  0.69550422E-06  0.67575670E-06
     atom   89 type  1   force =  -0.17249368E-05  0.91225189E-07 -0.93059363E-06
     atom   90 type  2   force =   0.12789369E-05  0.77447451E-06  0.57096719E-06
     atom   91 type  1   force =  -0.22914555E-05  0.83009934E-06 -0.34252740E-06
     atom   92 type  2   force =  -0.53162700E-06 -0.82322318E-06  0.11402939E-05
     atom   93 type  1   force =  -0.92042123E-06  0.46816071E-06 -0.24434586E-06
     atom   94 type  2   force =   0.60423689E-06  0.51751342E-06  0.12291548E-06
     atom   95 type  1   force =   0.14936441E-05  0.19453550E-05  0.58902279E-06
     atom   96 type  2   force =  -0.65251732E-06 -0.10474261E-05 -0.15932660E-05
     atom   97 type  1   force =   0.36396603E-05  0.56577965E-06  0.63464399E-06
     atom   98 type  2   force =   0.13106951E-05 -0.17146173E-06 -0.13729366E-05
     atom   99 type  1   force =   0.31276274E-06 -0.10158065E-05 -0.45625989E-06
     atom  100 type  2   force =   0.12062766E-05 -0.11853586E-05 -0.13352466E-06
     atom  101 type  1   force =  -0.63788178E-06 -0.12218416E-05  0.15875659E-06
     atom  102 type  2   force =   0.65878264E-06 -0.50590495E-06  0.21982221E-05
     atom  103 type  1   force =   0.42679205E-06 -0.17773373E-05  0.13747005E-05
     atom  104 type  2   force =  -0.53217854E-06 -0.84766794E-06 -0.22672005E-06
     atom  105 type  1   force =   0.34091774E-06  0.62882105E-06 -0.16326331E-05
     atom  106 type  2   force =   0.14274572E-05 -0.49616184E-06 -0.10263017E-05
     atom  107 type  1   force =   0.16893452E-05  0.83568983E-07 -0.40336985E-06
     atom  108 type  2   force =   0.43810626E-06  0.46000629E-06 -0.58711996E-06
     atom  109 type  1   force =   0.94028455E-06 -0.86106604E-06  0.25078484E-05
     atom  110 type  2   force =  -0.18284426E-05 -0.10349929E-05 -0.45876638E-06
     atom  111 type  1   force =  -0.14230389E-05 -0.13431635E-05  0.20352745E-06
     atom  112 type  2   force =   0.10820117E-05  0.30244512E-07  0.37904470E-06
     atom  113 type  1   force =   0.16460669E-05 -0.15734332E-05 -0.41365124E-06
     atom  114 type  2   force =   0.95038492E-06  0.12675547E-05 -0.18226871E-05
     atom  115 type  1   force =   0.71817322E-06  0.66789167E-06 -0.18224272E-05
     atom  116 type  2   force =  -0.86300919E-06 -0.48114740E-06 -0.18650533E-05
     atom  117 type  1   force =  -0.24180292E-05 -0.11859985E-05 -0.10898175E-05
     atom  118 type  2   force =   0.77378454E-06  0.99729648E-06  0.74659803E-06
     atom  119 type  1   force =   0.19702211E-05 -0.34050736E-07  0.10106376E-05
     atom  120 type  2   force =  -0.13983320E-05 -0.11655742E-05 -0.21263894E-05
     atom  121 type  1   force =  -0.35376969E-06  0.33946324E-06 -0.37111380E-05
     atom  122 type  2   force =   0.18377219E-05 -0.69262045E-06 -0.97880517E-06
     atom  123 type  1   force =   0.42560536E-06  0.58717162E-06 -0.57606391E-06
     atom  124 type  2   force =   0.13918042E-05 -0.51895033E-06  0.23231174E-06
     atom  125 type  1   force =   0.23814082E-06  0.37517906E-07  0.40152217E-06
     atom  126 type  2   force =  -0.13897794E-05 -0.15131562E-05 -0.85144086E-06
     atom  127 type  1   force =  -0.10036809E-05 -0.21682331E-06 -0.25487238E-05
     atom  128 type  2   force =   0.10325934E-05 -0.10777777E-06  0.17080189E-05

     Total force =     0.106030     Total SCF correction =     0.000022


     entering subroutine stress ...

          total   stress  (Ry/bohr**3)                   (kbar)     P=    0.94
   0.0000063824   0.0000002417  -0.0000000487          0.94      0.04     -0.01
   0.0000002417   0.0000066961   0.0000003371          0.04      0.99      0.05
  -0.0000000487   0.0000003371   0.0000061164         -0.01      0.05      0.90

     kinetic stress (kbar)  19114.48      0.06     -0.07
                                0.06  19114.66      0.07
                               -0.07      0.07  19114.41

     local   stress (kbar)  -1924.54     -1.74      4.23
                               -1.74  -1925.90     -2.61
                                4.23     -2.61  -1922.90

     nonloc. stress (kbar)   4494.14     -0.00      0.01
                               -0.00   4494.12     -0.00
                                0.01     -0.00   4494.13

     hartree stress (kbar)   5490.87      0.62     -1.65
                                0.62   5491.33      0.98
                               -1.65      0.98   5490.22

     exc-cor stress (kbar)  -3163.05      0.00     -0.00
                                0.00  -3163.04      0.00
                               -0.00      0.00  -3163.05

     corecor stress (kbar)  -1581.03     -0.00      0.00
                               -0.00  -1581.04     -0.00
                                0.00     -0.00  -1581.03

     ewald   stress (kbar) -22429.93      1.10     -2.52
                                1.10 -22429.15      1.61
                               -2.52      1.61 -22430.88

     hubbard stress (kbar)      0.00      0.00      0.00
                                0.00      0.00      0.00
                                0.00      0.00      0.00

     london  stress (kbar)      0.00      0.00      0.00
                                0.00      0.00      0.00
                                0.00      0.00      0.00

     XDM     stress (kbar)      0.00      0.00      0.00
                                0.00      0.00      0.00
                                0.00      0.00      0.00

     dft-nl  stress (kbar)      0.00      0.00      0.00
                                0.00      0.00      0.00
                                0.00      0.00      0.00



     Writing output data file CaO_rocksalt.relax.in.up_1.00.super.444.022.save

     init_run     :    892.85s CPU    720.95s WALL (       1 calls)
     electrons    :  48788.06s CPU  39877.88s WALL (       1 calls)
     forces       :    588.77s CPU    455.89s WALL (       1 calls)
     stress       :   3583.59s CPU   3563.66s WALL (       1 calls)

     Called by init_run:
     wfcinit      :    813.14s CPU    640.70s WALL (       1 calls)
     potinit      :      0.79s CPU      0.81s WALL (       1 calls)

     Called by electrons:
     c_bands      :  41987.82s CPU  33760.01s WALL (      24 calls)
     sum_band     :   5691.90s CPU   4989.62s WALL (      24 calls)
     v_of_rho     :     16.07s CPU     16.44s WALL (      25 calls)
     v_h          :      1.21s CPU      1.23s WALL (      25 calls)
     v_xc         :     16.07s CPU     16.44s WALL (      27 calls)
     newd         :   1142.93s CPU   1161.76s WALL (      25 calls)
     mix_rho      :     24.39s CPU     25.23s WALL (      24 calls)

     Called by c_bands:
     init_us_2    :     74.57s CPU     78.13s WALL (     408 calls)
     cegterg      :  41543.65s CPU  33298.06s WALL (     192 calls)

     Called by sum_band:
     sum_band:bec :     15.63s CPU     15.90s WALL (     192 calls)
     addusdens    :    817.49s CPU    834.79s WALL (      24 calls)

     Called by *egterg:
     h_psi        :  19216.57s CPU  16006.85s WALL (     699 calls)
     s_psi        :   4190.27s CPU   2501.30s WALL (     699 calls)
     g_psi        :     19.77s CPU     22.59s WALL (     499 calls)
     cdiaghg      :  10124.28s CPU   9493.25s WALL (     691 calls)
     cegterg:over :   3922.81s CPU   2572.04s WALL (     499 calls)
     cegterg:upda :   1759.23s CPU   1087.00s WALL (     499 calls)
     cegterg:last :   1200.07s CPU    714.13s WALL (     192 calls)

     Called by h_psi:
     h_psi:vloc   :  10042.58s CPU  10322.36s WALL (     699 calls)
     h_psi:vnl    :   9144.77s CPU   5654.21s WALL (     699 calls)
     add_vuspsi   :   4067.73s CPU   2445.44s WALL (     699 calls)

     General routines
     calbec       :   8143.78s CPU   5426.10s WALL (     907 calls)
     fft          :    356.49s CPU    359.93s WALL (     421 calls)
     ffts         :     12.88s CPU     13.28s WALL (     558 calls)
     fftw         :  10595.73s CPU  10887.15s WALL (  677722 calls)
     interpolate  :      3.54s CPU      3.62s WALL (      49 calls)

     Parallel routines
     fft_scatter  :   6200.34s CPU   6385.65s WALL (  678701 calls)

     PWSCF        :    14h57m CPU       12h24m WALL


   This run was terminated on:   8:27:25  19Aug2017            

=------------------------------------------------------------------------------=
   JOB DONE.
=------------------------------------------------------------------------------=
