
     Program PWSCF v.5.1 starts on 21Aug2017 at 10:31:38 

     This program is part of the open-source Quantum ESPRESSO suite
     for quantum simulation of materials; please cite
         "P. Giannozzi et al., J. Phys.:Condens. Matter 21 395502 (2009);
          URL http://www.quantum-espresso.org", 
     in publications or presentations arising from this work. More details at
     http://www.quantum-espresso.org/quote

     Parallel version (MPI), running on     8 processors
     R & G space division:  proc/nbgrp/npool/nimage =       8
     Reading input from /tmp/CaO_rocksalt.relax.in.up_1.00.super.444.b.singleMg.7127/CaO_rocksalt.relax.in.up_1.00.super.444.b.singleMg.t
Warning: card &IONS ignored
Warning: card   ION_DYNAMICS='BFGS', ignored
Warning: card / ignored
Warning: card &CELL ignored
Warning: card  CELL_DYNAMICS = 'BFGS' ignored
Warning: card / ignored
     Message from routine read_cards :
     DEPRECATED: no units specified in CELL_PARAMETERS card

     Current dimensions of program PWSCF are:
     Max number of different atomic species (ntypx) = 10
     Max number of k-points (npk) =  40000
     Max angular momentum in pseudopotentials (lmaxx) =  3
 kfg - two_fermi_energies  F

     Subspace diagonalization in iterative solution of the eigenvalue problem:
     a serial algorithm will be used


     Parallelization info
     --------------------
     sticks:   dense  smooth     PW     G-vecs:    dense   smooth      PW
     Min        1119     894    236                69921    50015    6787
     Max        1121     895    237                69923    50039    6792
     Sum        8959    7159   1891               559377   400181   54313



     bravais-lattice index     =            0
     lattice parameter (alat)  =    25.488665994  a.u.
     unit-cell volume          =   11709.1757 (a.u.)^3
     number of atoms/cell      =          128
     number of atomic types    =            3
     number of electrons       =      1024.00
     number of Kohn-Sham states=          614
     kinetic-energy cutoff     =      40.0000  Ry
     charge density cutoff     =     200.0000  Ry
     convergence threshold     =      1.0E-10
     mixing beta               =       0.3000
     number of iterations used =            8  local-TF  mixing
     Exchange-correlation      = SLA  PW   PSX  PSC ( 1  4 10  8 0)
     A smooth kinetic-energy cutoff is imposed at      39.5000 Ry
     height of the smooth step-function =             800.0000 Ry
     width of the smooth step-function  =               1.0000 Ry


     celldm(1)=  25.488666  celldm(2)=   0.000000  celldm(3)=   0.000000
     celldm(4)=   0.000000  celldm(5)=   0.000000  celldm(6)=   0.000000

     crystal axes: (cart. coord. in units of alat)
               a(1) = (   0.000000000000   0.707106781187   0.707106781187 )  
               a(2) = (   0.707106781187   0.000000000000   0.707106781187 )  
               a(3) = (   0.707106781187   0.707106781187   0.000000000000 )  

     reciprocal axes: (cart. coord. in units 2 pi/alat)
               b(1) = ( -0.707107  0.707107  0.707107 )  
               b(2) = (  0.707107 -0.707107  0.707107 )  
               b(3) = (  0.707107  0.707107 -0.707107 )  


     PseudoPot. # 1 for Ca read from file:
     /users/kfg/psuedo/gbrv_1.5/ca.pbesol.UPF
     MD5 check sum: 0533207b58cddeaa036efa5b63902087
     Pseudo is Ultrasoft + core correction, Zval = 10.0
     Generated by new atomic code, or converted to UPF format
     Using radial grid of  845 points,  6 beta functions with: 
                l(1) =   0
                l(2) =   0
                l(3) =   1
                l(4) =   1
                l(5) =   2
                l(6) =   2
     Q(r) pseudized with  8 coefficients,  rinner =    1.500   1.500   1.500
                                                       1.500   1.500

     PseudoPot. # 2 for Mg read from file:
     /users/kfg/psuedo/gbrv_1.5/mg.pbesol.UPF
     MD5 check sum: 4059f37963cf5867752dbf5ab2400678
     Pseudo is Ultrasoft, Zval = 10.0
     Generated by new atomic code, or converted to UPF format
     Using radial grid of  821 points,  7 beta functions with: 
                l(1) =   0
                l(2) =   0
                l(3) =   0
                l(4) =   1
                l(5) =   1
                l(6) =   2
                l(7) =   2
     Q(r) pseudized with  8 coefficients,  rinner =    1.200   1.200   1.200
                                                       1.200   1.200

     PseudoPot. # 3 for O  read from file:
     /users/kfg/psuedo/gbrv_1.5/o.pbesol.UPF
     MD5 check sum: 501638753501ef6325af9037351f7734
     Pseudo is Ultrasoft + core correction, Zval =  6.0
     Generated by new atomic code, or converted to UPF format
     Using radial grid of  737 points,  5 beta functions with: 
                l(1) =   0
                l(2) =   0
                l(3) =   1
                l(4) =   1
                l(5) =   2
     Q(r) pseudized with  8 coefficients,  rinner =    0.900   0.900   0.900
                                                       0.900   0.900

     atomic species   valence    mass     pseudopotential
        Ca            10.00    40.07800     Ca( 1.00)
        Mg            10.00    40.07800     Mg( 1.00)
        O              6.00    15.99940     O ( 1.00)

     48 Sym. Ops., with inversion, found


                                    s                        frac. trans.

      isym =  1     identity                                     

 cryst.   s( 1) = (     1          0          0      )
                  (     0          1          0      )
                  (     0          0          1      )

 cart.    s( 1) = (  1.0000000  0.0000000  0.0000000 )
                  (  0.0000000  1.0000000  0.0000000 )
                  (  0.0000000  0.0000000  1.0000000 )


      isym =  2     180 deg rotation - cart. axis [0,0,1]        

 cryst.   s( 2) = (     0          1         -1      )
                  (     1          0         -1      )
                  (     0          0         -1      )

 cart.    s( 2) = ( -1.0000000  0.0000000  0.0000000 )
                  (  0.0000000 -1.0000000  0.0000000 )
                  (  0.0000000  0.0000000  1.0000000 )


      isym =  3     180 deg rotation - cart. axis [0,1,0]        

 cryst.   s( 3) = (     0         -1          1      )
                  (     0         -1          0      )
                  (     1         -1          0      )

 cart.    s( 3) = ( -1.0000000  0.0000000  0.0000000 )
                  (  0.0000000  1.0000000  0.0000000 )
                  (  0.0000000  0.0000000 -1.0000000 )


      isym =  4     180 deg rotation - cart. axis [1,0,0]        

 cryst.   s( 4) = (    -1          0          0      )
                  (    -1          0          1      )
                  (    -1          1          0      )

 cart.    s( 4) = (  1.0000000  0.0000000  0.0000000 )
                  (  0.0000000 -1.0000000  0.0000000 )
                  (  0.0000000  0.0000000 -1.0000000 )


      isym =  5     180 deg rotation - cart. axis [1,1,0]        

 cryst.   s( 5) = (    -1          0          1      )
                  (     0         -1          1      )
                  (     0          0          1      )

 cart.    s( 5) = (  0.0000000  1.0000000  0.0000000 )
                  (  1.0000000  0.0000000  0.0000000 )
                  (  0.0000000  0.0000000 -1.0000000 )


      isym =  6     180 deg rotation - cart. axis [1,-1,0]       

 cryst.   s( 6) = (     0         -1          0      )
                  (    -1          0          0      )
                  (     0          0         -1      )

 cart.    s( 6) = (  0.0000000 -1.0000000  0.0000000 )
                  ( -1.0000000  0.0000000  0.0000000 )
                  (  0.0000000  0.0000000 -1.0000000 )


      isym =  7      90 deg rotation - cart. axis [0,0,-1]       

 cryst.   s( 7) = (     0          1          0      )
                  (     0          1         -1      )
                  (    -1          1          0      )

 cart.    s( 7) = (  0.0000000  1.0000000  0.0000000 )
                  ( -1.0000000  0.0000000  0.0000000 )
                  (  0.0000000  0.0000000  1.0000000 )


      isym =  8      90 deg rotation - cart. axis [0,0,1]        

 cryst.   s( 8) = (     1          0         -1      )
                  (     1          0          0      )
                  (     1         -1          0      )

 cart.    s( 8) = (  0.0000000 -1.0000000  0.0000000 )
                  (  1.0000000  0.0000000  0.0000000 )
                  (  0.0000000  0.0000000  1.0000000 )


      isym =  9     180 deg rotation - cart. axis [1,0,1]        

 cryst.   s( 9) = (    -1          1          0      )
                  (     0          1          0      )
                  (     0          1         -1      )

 cart.    s( 9) = (  0.0000000  0.0000000  1.0000000 )
                  (  0.0000000 -1.0000000  0.0000000 )
                  (  1.0000000  0.0000000  0.0000000 )


      isym = 10     180 deg rotation - cart. axis [-1,0,1]       

 cryst.   s(10) = (     0          0         -1      )
                  (     0         -1          0      )
                  (    -1          0          0      )

 cart.    s(10) = (  0.0000000  0.0000000 -1.0000000 )
                  (  0.0000000 -1.0000000  0.0000000 )
                  ( -1.0000000  0.0000000  0.0000000 )


      isym = 11      90 deg rotation - cart. axis [0,1,0]        

 cryst.   s(11) = (     0          0          1      )
                  (    -1          0          1      )
                  (     0         -1          1      )

 cart.    s(11) = (  0.0000000  0.0000000  1.0000000 )
                  (  0.0000000  1.0000000  0.0000000 )
                  ( -1.0000000  0.0000000  0.0000000 )


      isym = 12      90 deg rotation - cart. axis [0,-1,0]       

 cryst.   s(12) = (     1         -1          0      )
                  (     1          0         -1      )
                  (     1          0          0      )

 cart.    s(12) = (  0.0000000  0.0000000 -1.0000000 )
                  (  0.0000000  1.0000000  0.0000000 )
                  (  1.0000000  0.0000000  0.0000000 )


      isym = 13     180 deg rotation - cart. axis [0,1,1]        

 cryst.   s(13) = (     1          0          0      )
                  (     1         -1          0      )
                  (     1          0         -1      )

 cart.    s(13) = ( -1.0000000  0.0000000  0.0000000 )
                  (  0.0000000  0.0000000  1.0000000 )
                  (  0.0000000  1.0000000  0.0000000 )


      isym = 14     180 deg rotation - cart. axis [0,1,-1]       

 cryst.   s(14) = (    -1          0          0      )
                  (     0          0         -1      )
                  (     0         -1          0      )

 cart.    s(14) = ( -1.0000000  0.0000000  0.0000000 )
                  (  0.0000000  0.0000000 -1.0000000 )
                  (  0.0000000 -1.0000000  0.0000000 )


      isym = 15      90 deg rotation - cart. axis [-1,0,0]       

 cryst.   s(15) = (     0         -1          1      )
                  (     0          0          1      )
                  (    -1          0          1      )

 cart.    s(15) = (  1.0000000  0.0000000  0.0000000 )
                  (  0.0000000  0.0000000  1.0000000 )
                  (  0.0000000 -1.0000000  0.0000000 )


      isym = 16      90 deg rotation - cart. axis [1,0,0]        

 cryst.   s(16) = (     0          1         -1      )
                  (    -1          1          0      )
                  (     0          1          0      )

 cart.    s(16) = (  1.0000000  0.0000000  0.0000000 )
                  (  0.0000000  0.0000000 -1.0000000 )
                  (  0.0000000  1.0000000  0.0000000 )


      isym = 17     120 deg rotation - cart. axis [-1,-1,-1]     

 cryst.   s(17) = (     0          0          1      )
                  (     1          0          0      )
                  (     0          1          0      )

 cart.    s(17) = (  0.0000000  1.0000000  0.0000000 )
                  (  0.0000000  0.0000000  1.0000000 )
                  (  1.0000000  0.0000000  0.0000000 )


      isym = 18     120 deg rotation - cart. axis [-1,1,1]       

 cryst.   s(18) = (     1         -1          0      )
                  (     0         -1          1      )
                  (     0         -1          0      )

 cart.    s(18) = (  0.0000000 -1.0000000  0.0000000 )
                  (  0.0000000  0.0000000  1.0000000 )
                  ( -1.0000000  0.0000000  0.0000000 )


      isym = 19     120 deg rotation - cart. axis [1,1,-1]       

 cryst.   s(19) = (    -1          1          0      )
                  (    -1          0          0      )
                  (    -1          0          1      )

 cart.    s(19) = (  0.0000000  1.0000000  0.0000000 )
                  (  0.0000000  0.0000000 -1.0000000 )
                  ( -1.0000000  0.0000000  0.0000000 )


      isym = 20     120 deg rotation - cart. axis [1,-1,1]       

 cryst.   s(20) = (     0          0         -1      )
                  (     0          1         -1      )
                  (     1          0         -1      )

 cart.    s(20) = (  0.0000000 -1.0000000  0.0000000 )
                  (  0.0000000  0.0000000 -1.0000000 )
                  (  1.0000000  0.0000000  0.0000000 )


      isym = 21     120 deg rotation - cart. axis [1,1,1]        

 cryst.   s(21) = (     0          1          0      )
                  (     0          0          1      )
                  (     1          0          0      )

 cart.    s(21) = (  0.0000000  0.0000000  1.0000000 )
                  (  1.0000000  0.0000000  0.0000000 )
                  (  0.0000000  1.0000000  0.0000000 )


      isym = 22     120 deg rotation - cart. axis [-1,1,-1]      

 cryst.   s(22) = (    -1          0          1      )
                  (    -1          1          0      )
                  (    -1          0          0      )

 cart.    s(22) = (  0.0000000  0.0000000  1.0000000 )
                  ( -1.0000000  0.0000000  0.0000000 )
                  (  0.0000000 -1.0000000  0.0000000 )


      isym = 23     120 deg rotation - cart. axis [1,-1,-1]      

 cryst.   s(23) = (     1          0         -1      )
                  (     0          0         -1      )
                  (     0          1         -1      )

 cart.    s(23) = (  0.0000000  0.0000000 -1.0000000 )
                  ( -1.0000000  0.0000000  0.0000000 )
                  (  0.0000000  1.0000000  0.0000000 )


      isym = 24     120 deg rotation - cart. axis [-1,-1,1]      

 cryst.   s(24) = (     0         -1          0      )
                  (     1         -1          0      )
                  (     0         -1          1      )

 cart.    s(24) = (  0.0000000  0.0000000 -1.0000000 )
                  (  1.0000000  0.0000000  0.0000000 )
                  (  0.0000000 -1.0000000  0.0000000 )


      isym = 25     inversion                                    

 cryst.   s(25) = (    -1          0          0      )
                  (     0         -1          0      )
                  (     0          0         -1      )

 cart.    s(25) = ( -1.0000000  0.0000000  0.0000000 )
                  (  0.0000000 -1.0000000  0.0000000 )
                  (  0.0000000  0.0000000 -1.0000000 )


      isym = 26     inv. 180 deg rotation - cart. axis [0,0,1]   

 cryst.   s(26) = (     0         -1          1      )
                  (    -1          0          1      )
                  (     0          0          1      )

 cart.    s(26) = (  1.0000000  0.0000000  0.0000000 )
                  (  0.0000000  1.0000000  0.0000000 )
                  (  0.0000000  0.0000000 -1.0000000 )


      isym = 27     inv. 180 deg rotation - cart. axis [0,1,0]   

 cryst.   s(27) = (     0          1         -1      )
                  (     0          1          0      )
                  (    -1          1          0      )

 cart.    s(27) = (  1.0000000  0.0000000  0.0000000 )
                  (  0.0000000 -1.0000000  0.0000000 )
                  (  0.0000000  0.0000000  1.0000000 )


      isym = 28     inv. 180 deg rotation - cart. axis [1,0,0]   

 cryst.   s(28) = (     1          0          0      )
                  (     1          0         -1      )
                  (     1         -1          0      )

 cart.    s(28) = ( -1.0000000  0.0000000  0.0000000 )
                  (  0.0000000  1.0000000  0.0000000 )
                  (  0.0000000  0.0000000  1.0000000 )


      isym = 29     inv. 180 deg rotation - cart. axis [1,1,0]   

 cryst.   s(29) = (     1          0         -1      )
                  (     0          1         -1      )
                  (     0          0         -1      )

 cart.    s(29) = (  0.0000000 -1.0000000  0.0000000 )
                  ( -1.0000000  0.0000000  0.0000000 )
                  (  0.0000000  0.0000000  1.0000000 )


      isym = 30     inv. 180 deg rotation - cart. axis [1,-1,0]  

 cryst.   s(30) = (     0          1          0      )
                  (     1          0          0      )
                  (     0          0          1      )

 cart.    s(30) = (  0.0000000  1.0000000  0.0000000 )
                  (  1.0000000  0.0000000  0.0000000 )
                  (  0.0000000  0.0000000  1.0000000 )


      isym = 31     inv.  90 deg rotation - cart. axis [0,0,-1]  

 cryst.   s(31) = (     0         -1          0      )
                  (     0         -1          1      )
                  (     1         -1          0      )

 cart.    s(31) = (  0.0000000 -1.0000000  0.0000000 )
                  (  1.0000000  0.0000000  0.0000000 )
                  (  0.0000000  0.0000000 -1.0000000 )


      isym = 32     inv.  90 deg rotation - cart. axis [0,0,1]   

 cryst.   s(32) = (    -1          0          1      )
                  (    -1          0          0      )
                  (    -1          1          0      )

 cart.    s(32) = (  0.0000000  1.0000000  0.0000000 )
                  ( -1.0000000  0.0000000  0.0000000 )
                  (  0.0000000  0.0000000 -1.0000000 )


      isym = 33     inv. 180 deg rotation - cart. axis [1,0,1]   

 cryst.   s(33) = (     1         -1          0      )
                  (     0         -1          0      )
                  (     0         -1          1      )

 cart.    s(33) = (  0.0000000  0.0000000 -1.0000000 )
                  (  0.0000000  1.0000000  0.0000000 )
                  ( -1.0000000  0.0000000  0.0000000 )


      isym = 34     inv. 180 deg rotation - cart. axis [-1,0,1]  

 cryst.   s(34) = (     0          0          1      )
                  (     0          1          0      )
                  (     1          0          0      )

 cart.    s(34) = (  0.0000000  0.0000000  1.0000000 )
                  (  0.0000000  1.0000000  0.0000000 )
                  (  1.0000000  0.0000000  0.0000000 )


      isym = 35     inv.  90 deg rotation - cart. axis [0,1,0]   

 cryst.   s(35) = (     0          0         -1      )
                  (     1          0         -1      )
                  (     0          1         -1      )

 cart.    s(35) = (  0.0000000  0.0000000 -1.0000000 )
                  (  0.0000000 -1.0000000  0.0000000 )
                  (  1.0000000  0.0000000  0.0000000 )


      isym = 36     inv.  90 deg rotation - cart. axis [0,-1,0]  

 cryst.   s(36) = (    -1          1          0      )
                  (    -1          0          1      )
                  (    -1          0          0      )

 cart.    s(36) = (  0.0000000  0.0000000  1.0000000 )
                  (  0.0000000 -1.0000000  0.0000000 )
                  ( -1.0000000  0.0000000  0.0000000 )


      isym = 37     inv. 180 deg rotation - cart. axis [0,1,1]   

 cryst.   s(37) = (    -1          0          0      )
                  (    -1          1          0      )
                  (    -1          0          1      )

 cart.    s(37) = (  1.0000000  0.0000000  0.0000000 )
                  (  0.0000000  0.0000000 -1.0000000 )
                  (  0.0000000 -1.0000000  0.0000000 )


      isym = 38     inv. 180 deg rotation - cart. axis [0,1,-1]  

 cryst.   s(38) = (     1          0          0      )
                  (     0          0          1      )
                  (     0          1          0      )

 cart.    s(38) = (  1.0000000  0.0000000  0.0000000 )
                  (  0.0000000  0.0000000  1.0000000 )
                  (  0.0000000  1.0000000  0.0000000 )


      isym = 39     inv.  90 deg rotation - cart. axis [-1,0,0]  

 cryst.   s(39) = (     0          1         -1      )
                  (     0          0         -1      )
                  (     1          0         -1      )

 cart.    s(39) = ( -1.0000000  0.0000000  0.0000000 )
                  (  0.0000000  0.0000000 -1.0000000 )
                  (  0.0000000  1.0000000  0.0000000 )


      isym = 40     inv.  90 deg rotation - cart. axis [1,0,0]   

 cryst.   s(40) = (     0         -1          1      )
                  (     1         -1          0      )
                  (     0         -1          0      )

 cart.    s(40) = ( -1.0000000  0.0000000  0.0000000 )
                  (  0.0000000  0.0000000  1.0000000 )
                  (  0.0000000 -1.0000000  0.0000000 )


      isym = 41     inv. 120 deg rotation - cart. axis [-1,-1,-1]

 cryst.   s(41) = (     0          0         -1      )
                  (    -1          0          0      )
                  (     0         -1          0      )

 cart.    s(41) = (  0.0000000 -1.0000000  0.0000000 )
                  (  0.0000000  0.0000000 -1.0000000 )
                  ( -1.0000000  0.0000000  0.0000000 )


      isym = 42     inv. 120 deg rotation - cart. axis [-1,1,1]  

 cryst.   s(42) = (    -1          1          0      )
                  (     0          1         -1      )
                  (     0          1          0      )

 cart.    s(42) = (  0.0000000  1.0000000  0.0000000 )
                  (  0.0000000  0.0000000 -1.0000000 )
                  (  1.0000000  0.0000000  0.0000000 )


      isym = 43     inv. 120 deg rotation - cart. axis [1,1,-1]  

 cryst.   s(43) = (     1         -1          0      )
                  (     1          0          0      )
                  (     1          0         -1      )

 cart.    s(43) = (  0.0000000 -1.0000000  0.0000000 )
                  (  0.0000000  0.0000000  1.0000000 )
                  (  1.0000000  0.0000000  0.0000000 )


      isym = 44     inv. 120 deg rotation - cart. axis [1,-1,1]  

 cryst.   s(44) = (     0          0          1      )
                  (     0         -1          1      )
                  (    -1          0          1      )

 cart.    s(44) = (  0.0000000  1.0000000  0.0000000 )
                  (  0.0000000  0.0000000  1.0000000 )
                  ( -1.0000000  0.0000000  0.0000000 )


      isym = 45     inv. 120 deg rotation - cart. axis [1,1,1]   

 cryst.   s(45) = (     0         -1          0      )
                  (     0          0         -1      )
                  (    -1          0          0      )

 cart.    s(45) = (  0.0000000  0.0000000 -1.0000000 )
                  ( -1.0000000  0.0000000  0.0000000 )
                  (  0.0000000 -1.0000000  0.0000000 )


      isym = 46     inv. 120 deg rotation - cart. axis [-1,1,-1] 

 cryst.   s(46) = (     1          0         -1      )
                  (     1         -1          0      )
                  (     1          0          0      )

 cart.    s(46) = (  0.0000000  0.0000000 -1.0000000 )
                  (  1.0000000  0.0000000  0.0000000 )
                  (  0.0000000  1.0000000  0.0000000 )


      isym = 47     inv. 120 deg rotation - cart. axis [1,-1,-1] 

 cryst.   s(47) = (    -1          0          1      )
                  (     0          0          1      )
                  (     0         -1          1      )

 cart.    s(47) = (  0.0000000  0.0000000  1.0000000 )
                  (  1.0000000  0.0000000  0.0000000 )
                  (  0.0000000 -1.0000000  0.0000000 )


      isym = 48     inv. 120 deg rotation - cart. axis [-1,-1,1] 

 cryst.   s(48) = (     0          1          0      )
                  (    -1          1          0      )
                  (     0          1         -1      )

 cart.    s(48) = (  0.0000000  0.0000000  1.0000000 )
                  ( -1.0000000  0.0000000  0.0000000 )
                  (  0.0000000  1.0000000  0.0000000 )


     point group O_h (m-3m) 
     there are 10 classes
     the character table:

       E     8C3   6C2'  6C4   3C2   i     6S4   8S6   3s_h  6s_d 
A_1g   1.00  1.00  1.00  1.00  1.00  1.00  1.00  1.00  1.00  1.00
A_2g   1.00  1.00 -1.00 -1.00  1.00  1.00 -1.00  1.00  1.00 -1.00
E_g    2.00 -1.00  0.00  0.00  2.00  2.00  0.00 -1.00  2.00  0.00
T_1g   3.00  0.00 -1.00  1.00 -1.00  3.00  1.00  0.00 -1.00 -1.00
T_2g   3.00  0.00  1.00 -1.00 -1.00  3.00 -1.00  0.00 -1.00  1.00
A_1u   1.00  1.00  1.00  1.00  1.00 -1.00 -1.00 -1.00 -1.00 -1.00
A_2u   1.00  1.00 -1.00 -1.00  1.00 -1.00  1.00 -1.00 -1.00  1.00
E_u    2.00 -1.00  0.00  0.00  2.00 -2.00  0.00  1.00 -2.00  0.00
T_1u   3.00  0.00 -1.00  1.00 -1.00 -3.00 -1.00  0.00  1.00  1.00
T_2u   3.00  0.00  1.00 -1.00 -1.00 -3.00  1.00  0.00  1.00 -1.00

     the symmetry operations in each class:
     E        1
     3C2      2    4    3
     6C2'     5    6   14   13   10    9
     6C4      7    8   15   16   12   11
     8C3     17   19   20   18   24   21   22   23
     i       25
     3s_h    26   28   27
     6s_d    29   30   38   37   34   33
     6S4     31   32   39   40   36   35
     8S6     41   43   44   42   48   45   46   47

   Cartesian axes

     site n.     atom                  positions (alat units)
         1           Ca  tau(   1) = (    0.00000000000    0.00000000000    0.00000000000  )
         2           O   tau(   2) = (    0.17677669530    0.17677669530    0.17677669530  )
         3           Ca  tau(   3) = (    0.17677669530    0.17677669530    0.00000000000  )
         4           O   tau(   4) = (    0.35355339059    0.35355339059    0.17677669530  )
         5           Ca  tau(   5) = (    0.35355339059    0.35355339059    0.00000000000  )
         6           O   tau(   6) = (    0.53033008589    0.53033008589    0.17677669530  )
         7           Ca  tau(   7) = (    0.53033008589    0.53033008589    0.00000000000  )
         8           O   tau(   8) = (    0.70710678119    0.70710678119    0.17677669530  )
         9           Ca  tau(   9) = (    0.17677669530    0.00000000000    0.17677669530  )
        10           O   tau(  10) = (    0.35355339059    0.17677669530    0.35355339059  )
        11           Ca  tau(  11) = (    0.35355339059    0.17677669530    0.17677669530  )
        12           O   tau(  12) = (    0.53033008589    0.35355339059    0.35355339059  )
        13           Ca  tau(  13) = (    0.53033008589    0.35355339059    0.17677669530  )
        14           O   tau(  14) = (    0.70710678119    0.53033008589    0.35355339059  )
        15           Ca  tau(  15) = (    0.70710678119    0.53033008589    0.17677669530  )
        16           O   tau(  16) = (    0.88388347648    0.70710678119    0.35355339059  )
        17           Ca  tau(  17) = (    0.35355339059    0.00000000000    0.35355339059  )
        18           O   tau(  18) = (    0.53033008589    0.17677669530    0.53033008589  )
        19           Ca  tau(  19) = (    0.53033008589    0.17677669530    0.35355339059  )
        20           O   tau(  20) = (    0.70710678119    0.35355339059    0.53033008589  )
        21           Ca  tau(  21) = (    0.70710678119    0.35355339059    0.35355339059  )
        22           O   tau(  22) = (    0.88388347648    0.53033008589    0.53033008589  )
        23           Ca  tau(  23) = (    0.88388347648    0.53033008589    0.35355339059  )
        24           O   tau(  24) = (    1.06066017178    0.70710678119    0.53033008589  )
        25           Ca  tau(  25) = (    0.53033008589    0.00000000000    0.53033008589  )
        26           O   tau(  26) = (    0.70710678119    0.17677669530    0.70710678119  )
        27           Ca  tau(  27) = (    0.70710678119    0.17677669530    0.53033008589  )
        28           O   tau(  28) = (    0.88388347648    0.35355339059    0.70710678119  )
        29           Ca  tau(  29) = (    0.88388347648    0.35355339059    0.53033008589  )
        30           O   tau(  30) = (    1.06066017178    0.53033008589    0.70710678119  )
        31           Ca  tau(  31) = (    1.06066017178    0.53033008589    0.53033008589  )
        32           O   tau(  32) = (    1.23743686708    0.70710678119    0.70710678119  )
        33           Ca  tau(  33) = (    0.00000000000    0.17677669530    0.17677669530  )
        34           O   tau(  34) = (    0.17677669530    0.35355339059    0.35355339059  )
        35           Ca  tau(  35) = (    0.17677669530    0.35355339059    0.17677669530  )
        36           O   tau(  36) = (    0.35355339059    0.53033008589    0.35355339059  )
        37           Ca  tau(  37) = (    0.35355339059    0.53033008589    0.17677669530  )
        38           O   tau(  38) = (    0.53033008589    0.70710678119    0.35355339059  )
        39           Ca  tau(  39) = (    0.53033008589    0.70710678119    0.17677669530  )
        40           O   tau(  40) = (    0.70710678119    0.88388347648    0.35355339059  )
        41           Ca  tau(  41) = (    0.17677669530    0.17677669530    0.35355339059  )
        42           O   tau(  42) = (    0.35355339059    0.35355339059    0.53033008589  )
        43           Ca  tau(  43) = (    0.35355339059    0.35355339059    0.35355339059  )
        44           O   tau(  44) = (    0.53033008589    0.53033008589    0.53033008589  )
        45           Ca  tau(  45) = (    0.53033008589    0.53033008589    0.35355339059  )
        46           O   tau(  46) = (    0.70710678119    0.70710678119    0.53033008589  )
        47           Ca  tau(  47) = (    0.70710678119    0.70710678119    0.35355339059  )
        48           O   tau(  48) = (    0.88388347648    0.88388347648    0.53033008589  )
        49           Ca  tau(  49) = (    0.35355339059    0.17677669530    0.53033008589  )
        50           O   tau(  50) = (    0.53033008589    0.35355339059    0.70710678119  )
        51           Ca  tau(  51) = (    0.53033008589    0.35355339059    0.53033008589  )
        52           O   tau(  52) = (    0.70710678119    0.53033008589    0.70710678119  )
        53           Ca  tau(  53) = (    0.70710678119    0.53033008589    0.53033008589  )
        54           O   tau(  54) = (    0.88388347648    0.70710678119    0.70710678119  )
        55           Ca  tau(  55) = (    0.88388347648    0.70710678119    0.53033008589  )
        56           O   tau(  56) = (    1.06066017178    0.88388347648    0.70710678119  )
        57           Ca  tau(  57) = (    0.53033008589    0.17677669530    0.70710678119  )
        58           O   tau(  58) = (    0.70710678119    0.35355339059    0.88388347648  )
        59           Ca  tau(  59) = (    0.70710678119    0.35355339059    0.70710678119  )
        60           O   tau(  60) = (    0.88388347648    0.53033008589    0.88388347648  )
        61           Ca  tau(  61) = (    0.88388347648    0.53033008589    0.70710678119  )
        62           O   tau(  62) = (    1.06066017178    0.70710678119    0.88388347648  )
        63           Ca  tau(  63) = (    1.06066017178    0.70710678119    0.70710678119  )
        64           O   tau(  64) = (    1.23743686708    0.88388347648    0.88388347648  )
        65           Ca  tau(  65) = (    0.00000000000    0.35355339059    0.35355339059  )
        66           O   tau(  66) = (    0.17677669530    0.53033008589    0.53033008589  )
        67           Ca  tau(  67) = (    0.17677669530    0.53033008589    0.35355339059  )
        68           O   tau(  68) = (    0.35355339059    0.70710678119    0.53033008589  )
        69           Ca  tau(  69) = (    0.35355339059    0.70710678119    0.35355339059  )
        70           O   tau(  70) = (    0.53033008589    0.88388347648    0.53033008589  )
        71           Ca  tau(  71) = (    0.53033008589    0.88388347648    0.35355339059  )
        72           O   tau(  72) = (    0.70710678119    1.06066017178    0.53033008589  )
        73           Ca  tau(  73) = (    0.17677669530    0.35355339059    0.53033008589  )
        74           O   tau(  74) = (    0.35355339059    0.53033008589    0.70710678119  )
        75           Ca  tau(  75) = (    0.35355339059    0.53033008589    0.53033008589  )
        76           O   tau(  76) = (    0.53033008589    0.70710678119    0.70710678119  )
        77           Ca  tau(  77) = (    0.53033008589    0.70710678119    0.53033008589  )
        78           O   tau(  78) = (    0.70710678119    0.88388347648    0.70710678119  )
        79           Ca  tau(  79) = (    0.70710678119    0.88388347648    0.53033008589  )
        80           O   tau(  80) = (    0.88388347648    1.06066017178    0.70710678119  )
        81           Ca  tau(  81) = (    0.35355339059    0.35355339059    0.70710678119  )
        82           O   tau(  82) = (    0.53033008589    0.53033008589    0.88388347648  )
        83           Ca  tau(  83) = (    0.53033008589    0.53033008589    0.70710678119  )
        84           O   tau(  84) = (    0.70710678119    0.70710678119    0.88388347648  )
        85           Mg  tau(  85) = (    0.70710678119    0.70710678119    0.70710678119  )
        86           O   tau(  86) = (    0.88388347648    0.88388347648    0.88388347648  )
        87           Ca  tau(  87) = (    0.88388347648    0.88388347648    0.70710678119  )
        88           O   tau(  88) = (    1.06066017178    1.06066017178    0.88388347648  )
        89           Ca  tau(  89) = (    0.53033008589    0.35355339059    0.88388347648  )
        90           O   tau(  90) = (    0.70710678119    0.53033008589    1.06066017178  )
        91           Ca  tau(  91) = (    0.70710678119    0.53033008589    0.88388347648  )
        92           O   tau(  92) = (    0.88388347648    0.70710678119    1.06066017178  )
        93           Ca  tau(  93) = (    0.88388347648    0.70710678119    0.88388347648  )
        94           O   tau(  94) = (    1.06066017178    0.88388347648    1.06066017178  )
        95           Ca  tau(  95) = (    1.06066017178    0.88388347648    0.88388347648  )
        96           O   tau(  96) = (    1.23743686708    1.06066017178    1.06066017178  )
        97           Ca  tau(  97) = (    0.00000000000    0.53033008589    0.53033008589  )
        98           O   tau(  98) = (    0.17677669530    0.70710678119    0.70710678119  )
        99           Ca  tau(  99) = (    0.17677669530    0.70710678119    0.53033008589  )
       100           O   tau( 100) = (    0.35355339059    0.88388347648    0.70710678119  )
       101           Ca  tau( 101) = (    0.35355339059    0.88388347648    0.53033008589  )
       102           O   tau( 102) = (    0.53033008589    1.06066017178    0.70710678119  )
       103           Ca  tau( 103) = (    0.53033008589    1.06066017178    0.53033008589  )
       104           O   tau( 104) = (    0.70710678119    1.23743686708    0.70710678119  )
       105           Ca  tau( 105) = (    0.17677669530    0.53033008589    0.70710678119  )
       106           O   tau( 106) = (    0.35355339059    0.70710678119    0.88388347648  )
       107           Ca  tau( 107) = (    0.35355339059    0.70710678119    0.70710678119  )
       108           O   tau( 108) = (    0.53033008589    0.88388347648    0.88388347648  )
       109           Ca  tau( 109) = (    0.53033008589    0.88388347648    0.70710678119  )
       110           O   tau( 110) = (    0.70710678119    1.06066017178    0.88388347648  )
       111           Ca  tau( 111) = (    0.70710678119    1.06066017178    0.70710678119  )
       112           O   tau( 112) = (    0.88388347648    1.23743686708    0.88388347648  )
       113           Ca  tau( 113) = (    0.35355339059    0.53033008589    0.88388347648  )
       114           O   tau( 114) = (    0.53033008589    0.70710678119    1.06066017178  )
       115           Ca  tau( 115) = (    0.53033008589    0.70710678119    0.88388347648  )
       116           O   tau( 116) = (    0.70710678119    0.88388347648    1.06066017178  )
       117           Ca  tau( 117) = (    0.70710678119    0.88388347648    0.88388347648  )
       118           O   tau( 118) = (    0.88388347648    1.06066017178    1.06066017178  )
       119           Ca  tau( 119) = (    0.88388347648    1.06066017178    0.88388347648  )
       120           O   tau( 120) = (    1.06066017178    1.23743686708    1.06066017178  )
       121           Ca  tau( 121) = (    0.53033008589    0.53033008589    1.06066017178  )
       122           O   tau( 122) = (    0.70710678119    0.70710678119    1.23743686708  )
       123           Ca  tau( 123) = (    0.70710678119    0.70710678119    1.06066017178  )
       124           O   tau( 124) = (    0.88388347648    0.88388347648    1.23743686708  )
       125           Ca  tau( 125) = (    0.88388347648    0.88388347648    1.06066017178  )
       126           O   tau( 126) = (    1.06066017178    1.06066017178    1.23743686708  )
       127           Ca  tau( 127) = (    1.06066017178    1.06066017178    1.06066017178  )
       128           O   tau( 128) = (    1.23743686708    1.23743686708    1.23743686708  )

   Crystallographic axes

     site n.     atom                  positions (cryst. coord.)
         1           Ca  tau(   1) = (    0.00000000000    0.00000000000    0.00000000000  )
         2           O   tau(   2) = (    0.12500000000    0.12500000000    0.12500000000  )
         3           Ca  tau(   3) = (    0.00000000000    0.00000000000    0.25000000000  )
         4           O   tau(   4) = (    0.12500000000    0.12500000000    0.37500000000  )
         5           Ca  tau(   5) = (    0.00000000000    0.00000000000    0.50000000000  )
         6           O   tau(   6) = (    0.12500000000    0.12500000000    0.62500000000  )
         7           Ca  tau(   7) = (    0.00000000000    0.00000000000    0.75000000000  )
         8           O   tau(   8) = (    0.12500000000    0.12500000000    0.87500000000  )
         9           Ca  tau(   9) = (    0.00000000000    0.25000000000    0.00000000000  )
        10           O   tau(  10) = (    0.12500000000    0.37500000000    0.12500000000  )
        11           Ca  tau(  11) = (    0.00000000000    0.25000000000    0.25000000000  )
        12           O   tau(  12) = (    0.12500000000    0.37500000000    0.37500000000  )
        13           Ca  tau(  13) = (    0.00000000000    0.25000000000    0.50000000000  )
        14           O   tau(  14) = (    0.12500000000    0.37500000000    0.62500000000  )
        15           Ca  tau(  15) = (    0.00000000000    0.25000000000    0.75000000000  )
        16           O   tau(  16) = (    0.12500000000    0.37500000000    0.87500000000  )
        17           Ca  tau(  17) = (    0.00000000000    0.50000000000    0.00000000000  )
        18           O   tau(  18) = (    0.12500000000    0.62500000000    0.12500000000  )
        19           Ca  tau(  19) = (    0.00000000000    0.50000000000    0.25000000000  )
        20           O   tau(  20) = (    0.12500000000    0.62500000000    0.37500000000  )
        21           Ca  tau(  21) = (    0.00000000000    0.50000000000    0.50000000000  )
        22           O   tau(  22) = (    0.12500000000    0.62500000000    0.62500000000  )
        23           Ca  tau(  23) = (    0.00000000000    0.50000000000    0.75000000000  )
        24           O   tau(  24) = (    0.12500000000    0.62500000000    0.87500000000  )
        25           Ca  tau(  25) = (    0.00000000000    0.75000000000    0.00000000000  )
        26           O   tau(  26) = (    0.12500000000    0.87500000000    0.12500000000  )
        27           Ca  tau(  27) = (    0.00000000000    0.75000000000    0.25000000000  )
        28           O   tau(  28) = (    0.12500000000    0.87500000000    0.37500000000  )
        29           Ca  tau(  29) = (    0.00000000000    0.75000000000    0.50000000000  )
        30           O   tau(  30) = (    0.12500000000    0.87500000000    0.62500000000  )
        31           Ca  tau(  31) = (    0.00000000000    0.75000000000    0.75000000000  )
        32           O   tau(  32) = (    0.12500000000    0.87500000000    0.87500000000  )
        33           Ca  tau(  33) = (    0.25000000000    0.00000000000    0.00000000000  )
        34           O   tau(  34) = (    0.37500000000    0.12500000000    0.12500000000  )
        35           Ca  tau(  35) = (    0.25000000000    0.00000000000    0.25000000000  )
        36           O   tau(  36) = (    0.37500000000    0.12500000000    0.37500000000  )
        37           Ca  tau(  37) = (    0.25000000000    0.00000000000    0.50000000000  )
        38           O   tau(  38) = (    0.37500000000    0.12500000000    0.62500000000  )
        39           Ca  tau(  39) = (    0.25000000000    0.00000000000    0.75000000000  )
        40           O   tau(  40) = (    0.37500000000    0.12500000000    0.87500000000  )
        41           Ca  tau(  41) = (    0.25000000000    0.25000000000    0.00000000000  )
        42           O   tau(  42) = (    0.37500000000    0.37500000000    0.12500000000  )
        43           Ca  tau(  43) = (    0.25000000000    0.25000000000    0.25000000000  )
        44           O   tau(  44) = (    0.37500000000    0.37500000000    0.37500000000  )
        45           Ca  tau(  45) = (    0.25000000000    0.25000000000    0.50000000000  )
        46           O   tau(  46) = (    0.37500000000    0.37500000000    0.62500000000  )
        47           Ca  tau(  47) = (    0.25000000000    0.25000000000    0.75000000000  )
        48           O   tau(  48) = (    0.37500000000    0.37500000000    0.87500000000  )
        49           Ca  tau(  49) = (    0.25000000000    0.50000000000    0.00000000000  )
        50           O   tau(  50) = (    0.37500000000    0.62500000000    0.12500000000  )
        51           Ca  tau(  51) = (    0.25000000000    0.50000000000    0.25000000000  )
        52           O   tau(  52) = (    0.37500000000    0.62500000000    0.37500000000  )
        53           Ca  tau(  53) = (    0.25000000000    0.50000000000    0.50000000000  )
        54           O   tau(  54) = (    0.37500000000    0.62500000000    0.62500000000  )
        55           Ca  tau(  55) = (    0.25000000000    0.50000000000    0.75000000000  )
        56           O   tau(  56) = (    0.37500000000    0.62500000000    0.87500000000  )
        57           Ca  tau(  57) = (    0.25000000000    0.75000000000    0.00000000000  )
        58           O   tau(  58) = (    0.37500000000    0.87500000000    0.12500000000  )
        59           Ca  tau(  59) = (    0.25000000000    0.75000000000    0.25000000000  )
        60           O   tau(  60) = (    0.37500000000    0.87500000000    0.37500000000  )
        61           Ca  tau(  61) = (    0.25000000000    0.75000000000    0.50000000000  )
        62           O   tau(  62) = (    0.37500000000    0.87500000000    0.62500000000  )
        63           Ca  tau(  63) = (    0.25000000000    0.75000000000    0.75000000000  )
        64           O   tau(  64) = (    0.37500000000    0.87500000000    0.87500000000  )
        65           Ca  tau(  65) = (    0.50000000000    0.00000000000    0.00000000000  )
        66           O   tau(  66) = (    0.62500000000    0.12500000000    0.12500000000  )
        67           Ca  tau(  67) = (    0.50000000000    0.00000000000    0.25000000000  )
        68           O   tau(  68) = (    0.62500000000    0.12500000000    0.37500000000  )
        69           Ca  tau(  69) = (    0.50000000000    0.00000000000    0.50000000000  )
        70           O   tau(  70) = (    0.62500000000    0.12500000000    0.62500000000  )
        71           Ca  tau(  71) = (    0.50000000000    0.00000000000    0.75000000000  )
        72           O   tau(  72) = (    0.62500000000    0.12500000000    0.87500000000  )
        73           Ca  tau(  73) = (    0.50000000000    0.25000000000    0.00000000000  )
        74           O   tau(  74) = (    0.62500000000    0.37500000000    0.12500000000  )
        75           Ca  tau(  75) = (    0.50000000000    0.25000000000    0.25000000000  )
        76           O   tau(  76) = (    0.62500000000    0.37500000000    0.37500000000  )
        77           Ca  tau(  77) = (    0.50000000000    0.25000000000    0.50000000000  )
        78           O   tau(  78) = (    0.62500000000    0.37500000000    0.62500000000  )
        79           Ca  tau(  79) = (    0.50000000000    0.25000000000    0.75000000000  )
        80           O   tau(  80) = (    0.62500000000    0.37500000000    0.87500000000  )
        81           Ca  tau(  81) = (    0.50000000000    0.50000000000    0.00000000000  )
        82           O   tau(  82) = (    0.62500000000    0.62500000000    0.12500000000  )
        83           Ca  tau(  83) = (    0.50000000000    0.50000000000    0.25000000000  )
        84           O   tau(  84) = (    0.62500000000    0.62500000000    0.37500000000  )
        85           Mg  tau(  85) = (    0.50000000000    0.50000000000    0.50000000000  )
        86           O   tau(  86) = (    0.62500000000    0.62500000000    0.62500000000  )
        87           Ca  tau(  87) = (    0.50000000000    0.50000000000    0.75000000000  )
        88           O   tau(  88) = (    0.62500000000    0.62500000000    0.87500000000  )
        89           Ca  tau(  89) = (    0.50000000000    0.75000000000    0.00000000000  )
        90           O   tau(  90) = (    0.62500000000    0.87500000000    0.12500000000  )
        91           Ca  tau(  91) = (    0.50000000000    0.75000000000    0.25000000000  )
        92           O   tau(  92) = (    0.62500000000    0.87500000000    0.37500000000  )
        93           Ca  tau(  93) = (    0.50000000000    0.75000000000    0.50000000000  )
        94           O   tau(  94) = (    0.62500000000    0.87500000000    0.62500000000  )
        95           Ca  tau(  95) = (    0.50000000000    0.75000000000    0.75000000000  )
        96           O   tau(  96) = (    0.62500000000    0.87500000000    0.87500000000  )
        97           Ca  tau(  97) = (    0.75000000000    0.00000000000    0.00000000000  )
        98           O   tau(  98) = (    0.87500000000    0.12500000000    0.12500000000  )
        99           Ca  tau(  99) = (    0.75000000000    0.00000000000    0.25000000000  )
       100           O   tau( 100) = (    0.87500000000    0.12500000000    0.37500000000  )
       101           Ca  tau( 101) = (    0.75000000000    0.00000000000    0.50000000000  )
       102           O   tau( 102) = (    0.87500000000    0.12500000000    0.62500000000  )
       103           Ca  tau( 103) = (    0.75000000000    0.00000000000    0.75000000000  )
       104           O   tau( 104) = (    0.87500000000    0.12500000000    0.87500000000  )
       105           Ca  tau( 105) = (    0.75000000000    0.25000000000    0.00000000000  )
       106           O   tau( 106) = (    0.87500000000    0.37500000000    0.12500000000  )
       107           Ca  tau( 107) = (    0.75000000000    0.25000000000    0.25000000000  )
       108           O   tau( 108) = (    0.87500000000    0.37500000000    0.37500000000  )
       109           Ca  tau( 109) = (    0.75000000000    0.25000000000    0.50000000000  )
       110           O   tau( 110) = (    0.87500000000    0.37500000000    0.62500000000  )
       111           Ca  tau( 111) = (    0.75000000000    0.25000000000    0.75000000000  )
       112           O   tau( 112) = (    0.87500000000    0.37500000000    0.87500000000  )
       113           Ca  tau( 113) = (    0.75000000000    0.50000000000    0.00000000000  )
       114           O   tau( 114) = (    0.87500000000    0.62500000000    0.12500000000  )
       115           Ca  tau( 115) = (    0.75000000000    0.50000000000    0.25000000000  )
       116           O   tau( 116) = (    0.87500000000    0.62500000000    0.37500000000  )
       117           Ca  tau( 117) = (    0.75000000000    0.50000000000    0.50000000000  )
       118           O   tau( 118) = (    0.87500000000    0.62500000000    0.62500000000  )
       119           Ca  tau( 119) = (    0.75000000000    0.50000000000    0.75000000000  )
       120           O   tau( 120) = (    0.87500000000    0.62500000000    0.87500000000  )
       121           Ca  tau( 121) = (    0.75000000000    0.75000000000    0.00000000000  )
       122           O   tau( 122) = (    0.87500000000    0.87500000000    0.12500000000  )
       123           Ca  tau( 123) = (    0.75000000000    0.75000000000    0.25000000000  )
       124           O   tau( 124) = (    0.87500000000    0.87500000000    0.37500000000  )
       125           Ca  tau( 125) = (    0.75000000000    0.75000000000    0.50000000000  )
       126           O   tau( 126) = (    0.87500000000    0.87500000000    0.62500000000  )
       127           Ca  tau( 127) = (    0.75000000000    0.75000000000    0.75000000000  )
       128           O   tau( 128) = (    0.87500000000    0.87500000000    0.87500000000  )

     number of k points=     3  gaussian smearing, width (Ry)=  0.0050
                       cart. coord. in units 2pi/alat
        k(    1) = (   0.0000000   0.0000000   0.0000000), wk =   0.2500000
        k(    2) = (  -0.3535534  -0.3535534   0.3535534), wk =   1.0000000
        k(    3) = (  -0.7071068   0.0000000   0.0000000), wk =   0.7500000

                       cryst. coord.
        k(    1) = (   0.0000000   0.0000000   0.0000000), wk =   0.2500000
        k(    2) = (   0.0000000   0.0000000  -0.5000000), wk =   1.0000000
        k(    3) = (   0.0000000  -0.5000000  -0.5000000), wk =   0.7500000

     Dense  grid:   559377 G-vectors     FFT dimensions: ( 120, 120, 120)

     Smooth grid:   400181 G-vectors     FFT dimensions: ( 108, 108, 108)

     Largest allocated arrays     est. size (Mb)     dimensions
        Kohn-Sham Wavefunctions        58.96 Mb     (    6293,  614)
        NL pseudopotentials           190.61 Mb     (    6293, 1985)
        Each V/rho on FFT grid          3.30 Mb     (  216000)
        Each G-vector array             0.53 Mb     (   69923)
        G-vector shells                 0.02 Mb     (    2196)
     Largest temporary arrays     est. size (Mb)     dimensions
        Auxiliary wavefunctions       235.83 Mb     (    6293, 2456)
        Each subspace H/S matrix       92.04 Mb     (    2456, 2456)
        Each <psi_i|beta_j> matrix     18.60 Mb     (    1985,  614)
        Arrays for rho mixing          26.37 Mb     (  216000,    8)

     Check: negative/imaginary core charge=   -0.000003    0.000000

     Initial potential from superposition of free atoms

     starting charge 1023.37359, renormalised to 1024.00000
     Starting wfc are  891 randomized atomic wfcs

     total cpu time spent up to now is      308.0 secs

     Self-consistent Calculation

     iteration #  1     ecut=    40.00 Ry     beta=0.30
     Davidson diagonalization with overlap
     ethr =  1.00E-02,  avg # of iterations =  2.3

     total cpu time spent up to now is      923.5 secs

     total energy              =   -6923.23600121 Ry
     Harris-Foulkes estimate   =   -6928.92061400 Ry
     estimated scf accuracy    <      28.78866286 Ry

     iteration #  2     ecut=    40.00 Ry     beta=0.30
     Davidson diagonalization with overlap
     ethr =  2.81E-03,  avg # of iterations =  1.7

     total cpu time spent up to now is     1493.4 secs

     total energy              =   -6920.08419115 Ry
     Harris-Foulkes estimate   =   -6924.24241534 Ry
     estimated scf accuracy    <      10.82014745 Ry

     iteration #  3     ecut=    40.00 Ry     beta=0.30
     Davidson diagonalization with overlap
     ethr =  1.06E-03,  avg # of iterations =  2.3

     total cpu time spent up to now is     2204.6 secs

     total energy              =   -6921.98541668 Ry
     Harris-Foulkes estimate   =   -6922.18071994 Ry
     estimated scf accuracy    <       0.73523207 Ry

     iteration #  4     ecut=    40.00 Ry     beta=0.30
     Davidson diagonalization with overlap
     ethr =  7.18E-05,  avg # of iterations =  7.3

     total cpu time spent up to now is     3248.5 secs

     total energy              =   -6921.97428527 Ry
     Harris-Foulkes estimate   =   -6922.18017799 Ry
     estimated scf accuracy    <       0.63411353 Ry

     iteration #  5     ecut=    40.00 Ry     beta=0.30
     Davidson diagonalization with overlap
     ethr =  6.19E-05,  avg # of iterations =  4.0

     total cpu time spent up to now is     4029.3 secs

     total energy              =   -6922.05442143 Ry
     Harris-Foulkes estimate   =   -6922.05528115 Ry
     estimated scf accuracy    <       0.00953504 Ry

     iteration #  6     ecut=    40.00 Ry     beta=0.30
     Davidson diagonalization with overlap
     c_bands:  1 eigenvalues not converged
     c_bands:  1 eigenvalues not converged
     ethr =  9.31E-07,  avg # of iterations = 15.7

     total cpu time spent up to now is     5843.3 secs

     total energy              =   -6922.05367498 Ry
     Harris-Foulkes estimate   =   -6922.05555601 Ry
     estimated scf accuracy    <       0.00603117 Ry

     iteration #  7     ecut=    40.00 Ry     beta=0.30
     Davidson diagonalization with overlap
     ethr =  5.89E-07,  avg # of iterations =  5.7

     total cpu time spent up to now is     6650.6 secs

     total energy              =   -6922.05220977 Ry
     Harris-Foulkes estimate   =   -6922.05431958 Ry
     estimated scf accuracy    <       0.00420983 Ry

     iteration #  8     ecut=    40.00 Ry     beta=0.30
     Davidson diagonalization with overlap
     ethr =  4.11E-07,  avg # of iterations =  4.0

     total cpu time spent up to now is     7510.4 secs

     total energy              =   -6922.05243342 Ry
     Harris-Foulkes estimate   =   -6922.05420976 Ry
     estimated scf accuracy    <       0.00360264 Ry

     iteration #  9     ecut=    40.00 Ry     beta=0.30
     Davidson diagonalization with overlap
     ethr =  3.52E-07,  avg # of iterations =  5.3

     total cpu time spent up to now is     8454.5 secs

     total energy              =   -6922.05355437 Ry
     Harris-Foulkes estimate   =   -6922.05399772 Ry
     estimated scf accuracy    <       0.00213703 Ry

     iteration # 10     ecut=    40.00 Ry     beta=0.30
     Davidson diagonalization with overlap
     ethr =  2.09E-07,  avg # of iterations =  2.0

     total cpu time spent up to now is     9044.9 secs

     total energy              =   -6922.05347820 Ry
     Harris-Foulkes estimate   =   -6922.05362112 Ry
     estimated scf accuracy    <       0.00095679 Ry

     iteration # 11     ecut=    40.00 Ry     beta=0.30
     Davidson diagonalization with overlap
     ethr =  9.34E-08,  avg # of iterations =  2.0

     total cpu time spent up to now is     9653.3 secs

     total energy              =   -6922.05348303 Ry
     Harris-Foulkes estimate   =   -6922.05351852 Ry
     estimated scf accuracy    <       0.00033498 Ry

     iteration # 12     ecut=    40.00 Ry     beta=0.30
     Davidson diagonalization with overlap
     ethr =  3.27E-08,  avg # of iterations =  2.0

     total cpu time spent up to now is    10250.8 secs

     total energy              =   -6922.05346218 Ry
     Harris-Foulkes estimate   =   -6922.05349761 Ry
     estimated scf accuracy    <       0.00012567 Ry

     iteration # 13     ecut=    40.00 Ry     beta=0.30
     Davidson diagonalization with overlap
     ethr =  1.23E-08,  avg # of iterations =  2.0

     total cpu time spent up to now is    10930.1 secs

     total energy              =   -6922.05347716 Ry
     Harris-Foulkes estimate   =   -6922.05347969 Ry
     estimated scf accuracy    <       0.00000800 Ry

     iteration # 14     ecut=    40.00 Ry     beta=0.30
     Davidson diagonalization with overlap
     ethr =  7.81E-10,  avg # of iterations =  3.0

     total cpu time spent up to now is    11676.9 secs

     total energy              =   -6922.05347712 Ry
     Harris-Foulkes estimate   =   -6922.05347873 Ry
     estimated scf accuracy    <       0.00000414 Ry

     iteration # 15     ecut=    40.00 Ry     beta=0.30
     Davidson diagonalization with overlap
     ethr =  4.05E-10,  avg # of iterations =  2.7

     total cpu time spent up to now is    12386.8 secs

     total energy              =   -6922.05347768 Ry
     Harris-Foulkes estimate   =   -6922.05347768 Ry
     estimated scf accuracy    <       0.00000044 Ry

     iteration # 16     ecut=    40.00 Ry     beta=0.30
     Davidson diagonalization with overlap
     ethr =  4.26E-11,  avg # of iterations =  2.0

     total cpu time spent up to now is    13033.5 secs

     total energy              =   -6922.05347767 Ry
     Harris-Foulkes estimate   =   -6922.05347772 Ry
     estimated scf accuracy    <       0.00000024 Ry

     iteration # 17     ecut=    40.00 Ry     beta=0.30
     Davidson diagonalization with overlap
     ethr =  2.32E-11,  avg # of iterations =  2.0

     total cpu time spent up to now is    13703.8 secs

     total energy              =   -6922.05347769 Ry
     Harris-Foulkes estimate   =   -6922.05347769 Ry
     estimated scf accuracy    <       0.00000007 Ry

     iteration # 18     ecut=    40.00 Ry     beta=0.30
     Davidson diagonalization with overlap
     ethr =  6.69E-12,  avg # of iterations =  2.0

     total cpu time spent up to now is    14307.1 secs

     total energy              =   -6922.05347768 Ry
     Harris-Foulkes estimate   =   -6922.05347769 Ry
     estimated scf accuracy    <       0.00000003 Ry

     iteration # 19     ecut=    40.00 Ry     beta=0.30
     Davidson diagonalization with overlap
     ethr =  3.02E-12,  avg # of iterations =  2.7

     total cpu time spent up to now is    15027.2 secs

     total energy              =   -6922.05347768 Ry
     Harris-Foulkes estimate   =   -6922.05347769 Ry
     estimated scf accuracy    <       0.00000002 Ry

     iteration # 20     ecut=    40.00 Ry     beta=0.30
     Davidson diagonalization with overlap
     ethr =  2.32E-12,  avg # of iterations =  2.7

     total cpu time spent up to now is    15762.9 secs

     total energy              =   -6922.05347769 Ry
     Harris-Foulkes estimate   =   -6922.05347769 Ry
     estimated scf accuracy    <          4.8E-09 Ry

     iteration # 21     ecut=    40.00 Ry     beta=0.30
     Davidson diagonalization with overlap
     ethr =  4.68E-13,  avg # of iterations =  2.0

     total cpu time spent up to now is    16368.6 secs

     total energy              =   -6922.05347769 Ry
     Harris-Foulkes estimate   =   -6922.05347769 Ry
     estimated scf accuracy    <          3.2E-09 Ry

     iteration # 22     ecut=    40.00 Ry     beta=0.30
     Davidson diagonalization with overlap
     ethr =  3.09E-13,  avg # of iterations =  2.0

     total cpu time spent up to now is    17048.3 secs

     total energy              =   -6922.05347768 Ry
     Harris-Foulkes estimate   =   -6922.05347769 Ry
     estimated scf accuracy    <          2.2E-09 Ry

     iteration # 23     ecut=    40.00 Ry     beta=0.30
     Davidson diagonalization with overlap
     ethr =  2.16E-13,  avg # of iterations =  2.0

     total cpu time spent up to now is    17684.2 secs

     total energy              =   -6922.05347768 Ry
     Harris-Foulkes estimate   =   -6922.05347769 Ry
     estimated scf accuracy    <          1.0E-09 Ry

     iteration # 24     ecut=    40.00 Ry     beta=0.30
     Davidson diagonalization with overlap
     ethr =  1.01E-13,  avg # of iterations =  2.0

     total cpu time spent up to now is    18370.1 secs

     total energy              =   -6922.05347768 Ry
     Harris-Foulkes estimate   =   -6922.05347768 Ry
     estimated scf accuracy    <          1.6E-10 Ry

     iteration # 25     ecut=    40.00 Ry     beta=0.30
     Davidson diagonalization with overlap
     ethr =  1.00E-13,  avg # of iterations =  1.0

     total cpu time spent up to now is    18937.4 secs

     End of self-consistent calculation

          k = 0.0000 0.0000 0.0000 ( 50237 PWs)   bands (ev):

   -65.7581 -32.7105 -32.7105 -32.7105 -29.4616 -29.4108 -29.4108 -29.4108
   -29.4012 -29.4012 -29.4012 -29.4012 -29.3974 -29.3951 -29.3951 -29.3802
   -29.3802 -29.3802 -29.3784 -29.3583 -29.3583 -29.3492 -29.3460 -29.3460
   -29.3460 -29.3426 -29.3426 -29.3426 -29.3424 -29.3424 -29.3424 -29.3421
   -29.3406 -29.3406 -29.3406 -29.3380 -29.3380 -29.3380 -29.3263 -29.3263
   -29.3263 -29.3244 -29.3240 -29.3240 -29.3240 -29.3240 -29.3240 -29.3233
   -29.3233 -29.3207 -29.3203 -29.3203 -29.3203 -29.3201 -29.3201 -29.3201
   -29.3159 -29.3159 -29.3159 -29.3099 -29.3099 -29.3074 -29.2990 -29.2990
   -29.2990 -29.2989 -29.2989 -11.5372 -11.5312 -11.5312 -11.5312 -11.2163
   -11.2163 -11.2163 -11.2093 -11.2093 -11.2088 -11.2076 -11.2076 -11.2076
   -11.2076 -11.2076 -11.2076 -11.1831 -11.1831 -11.1831 -11.1829 -11.1829
   -11.1775 -11.1775 -11.1775 -11.1754 -11.1754 -11.1743 -11.1743 -11.1743
   -11.1736 -11.1724 -11.1724 -11.1724 -11.1703 -11.1703 -11.1703 -11.1703
   -11.0939 -11.0939 -11.0939 -11.0165 -11.0106 -11.0106 -11.0106 -11.0076
   -10.9856 -10.9856 -10.9856 -10.9399 -10.9399 -10.9399 -10.8751 -10.8751
   -10.8751 -10.8627 -10.8627 -10.8627 -10.7764 -10.7764 -10.7764 -10.7736
   -10.7708 -10.7708 -10.7566 -10.7566 -10.7566 -10.7478 -10.7478 -10.7478
   -10.7462 -10.7462 -10.7462 -10.7121 -10.7121 -10.7121 -10.5931 -10.5892
   -10.5892 -10.5892 -10.5852 -10.5852 -10.5852 -10.5806 -10.5806 -10.5802
   -10.5802 -10.5802 -10.5787 -10.5787 -10.5787 -10.5785 -10.5727 -10.5694
   -10.5694 -10.5694 -10.5693 -10.5693 -10.5693 -10.5690 -10.5690 -10.5690
   -10.5676 -10.5676 -10.5654 -10.5654 -10.5624 -10.5624 -10.5624 -10.5481
   -10.5481 -10.5481 -10.5345 -10.5345 -10.5345 -10.4991 -10.4991 -10.4991
   -10.4523 -10.4523 -10.4496 -10.4496 -10.4496 -10.4425 -10.4425 -10.4425
   -10.4412 -10.4412 -10.4412 -10.4407 -10.4398 -10.4398 -10.4395 -10.4395
   -10.4395 -10.4376 -10.4354 -10.4354 -10.4354 -10.4225 -10.4225 -10.4225
   -10.4161 -10.4161 -10.4161 -10.4085 -10.4085 -10.4085 -10.4063 -10.4063
   -10.4063 -10.3817 -10.3817 -10.3817 -10.3493 -10.3493 -10.3493 -10.3458
   -10.3458 -10.3458 -10.3412 -10.3407 -10.3407 -10.3407 -10.3404 -10.3404
   -10.3386 -10.3386 -10.3380 -10.3380 -10.3380 -10.3239 -10.3239 -10.3239
   -10.3164 -10.3164 -10.3158 -10.3158 -10.3158 -10.3133 -10.3133 -10.3133
   -10.3115 -10.3115 -10.3108 -10.3108 -10.3108 -10.2881 -10.2881 -10.2881
    -7.6137  -7.3638  -7.3638  -7.3624  -7.0465  -7.0465  -7.0465  -7.0287
    -7.0081  -7.0081  -6.9459  -6.9459  -6.9459  -6.9165  -6.9139  -6.9139
    -6.8857  -6.8857  -6.8857  -6.8785  -6.8481  -6.8481  -6.8481  -6.8461
    -6.8156  -6.8156  -6.8156  -6.7787  -6.7787  -6.7787  -6.7777  -6.7777
    -6.7777  -6.7776  -6.7760  -6.7760  -6.7760  -6.7747  -6.7747  -6.7723
    -6.7723  -6.7722  -6.7722  -6.7722  -6.7717  -6.7717  -6.7717  -6.7711
    -6.6249  -6.6249  -6.6249  -6.6000  -6.5947  -6.5947  -6.5947  -6.5915
    -6.5915  -6.5859  -6.5859  -6.5859  -6.2929  -6.2929  -6.2929  -6.2702
     4.8780   5.1043   5.1043   5.1043   5.3763   5.6811   5.6811   5.6811
     5.6927   5.6927   5.6927   5.6972   5.6972   5.6985   5.6985   5.6985
     5.8322   5.8379   5.8379   5.8379   5.9904   5.9904   5.9904   5.9916
     5.9918   5.9918   5.9925   5.9925   5.9925   5.9932   5.9932   5.9932
     5.9935   5.9935   5.9940   5.9940   5.9940   6.0178   6.0178   6.0178
     6.0791   6.0874   6.0874   6.0874   6.1052   6.1052   6.2005   6.2405
     6.2405   6.2405   6.2441   6.2527   6.2527   6.2527   6.4397   6.4397
     6.4397   6.4824   6.4991   6.4991   6.4991   6.5062   6.5062   6.5786
     6.5786   6.5786   6.5842   6.5842   6.5842   6.5910   6.5910   6.5910
     6.5927   6.5927   6.6766   6.6808   6.6808   6.6808   6.6836   6.6836
     6.6836   6.6845   6.6845   6.6845   6.6917   6.6917   6.7130   6.7169
     6.7169   6.7172   6.7172   6.7172   6.7178   6.7178   6.7178   6.7190
     6.7190   6.7190   6.7221   6.7221   6.7221   6.7232   6.7269   6.7269
     6.7269   6.7355   6.7355   6.7355   6.7559   6.7559   6.7559   6.7598
     6.7598   6.7598   6.7750   6.7750   6.7750   6.7874   6.7874   6.9225
     6.9225   6.9225   6.9665   6.9665   6.9665   6.9723   6.9723   6.9767
     6.9808   6.9808   6.9808   6.9924   6.9924   6.9924   7.0039   7.0040
     7.0059   7.0059   7.0059   7.0061   7.0061   7.0061   7.0066   7.0066
     7.0066   7.0079   7.0079   7.0082   7.0082   7.0082   7.0149   7.0149
     7.0149   7.0593   7.0593   7.1393   7.1393   7.1393   7.1415   7.1415
     7.1415   7.1418   7.1418   7.1418   7.1421   7.1421   7.1483   7.1483
     7.1483   7.2292   7.2292   7.4394   7.4394   7.4394   7.4610   7.4610
     7.4610   7.5121   7.5121   7.5121   7.5279   7.5279   7.5279   7.5311
     7.5311   7.5311   7.5377   7.5377   7.5377   7.8313   7.8313   7.8313
    11.4146  11.4146  11.4146  12.4656  12.4942  12.4942  12.5048  12.5336
    12.5336  12.5336  13.1504  13.1504  13.1504  13.1605  13.1669  13.1669
    13.1677  13.1677  13.1677  13.1690  13.1690  13.1690  13.1694  13.1694
    13.1694  13.1695  13.1695  13.1695  13.1708  13.1708  13.1795  13.3508
    13.3508  13.3508  13.6174  14.0882  14.0882  14.0882  14.1057  14.1057
    14.1057  14.1287  14.1434  14.1434  14.1434  14.1441  14.1751  14.1751
    14.1751  14.1762  14.1762  14.1762  14.1824  14.1824  14.1824  14.2569
    14.2569  14.2569  14.3516  14.3516  14.3516  14.3592  14.3592  14.3592
    14.3656  14.3656  14.3825  14.5117  14.5117  14.5117  14.5278  14.5278
    14.5278  14.5681  14.5681  14.6612  14.7286  14.7286  14.7286  14.7970
    14.7986  14.7986  14.7986  14.9766  14.9931  14.9931  14.9931  15.1007
    15.1008  15.1010  15.1064  15.1065  15.1072  15.1072  15.1072  15.1093
    15.1295  15.1436  15.1437  15.1437  15.1668  15.1668

     occupation numbers 
     1.0000   1.0000   1.0000   1.0000   1.0000   1.0000   1.0000   1.0000
     1.0000   1.0000   1.0000   1.0000   1.0000   1.0000   1.0000   1.0000
     1.0000   1.0000   1.0000   1.0000   1.0000   1.0000   1.0000   1.0000
     1.0000   1.0000   1.0000   1.0000   1.0000   1.0000   1.0000   1.0000
     1.0000   1.0000   1.0000   1.0000   1.0000   1.0000   1.0000   1.0000
     1.0000   1.0000   1.0000   1.0000   1.0000   1.0000   1.0000   1.0000
     1.0000   1.0000   1.0000   1.0000   1.0000   1.0000   1.0000   1.0000
     1.0000   1.0000   1.0000   1.0000   1.0000   1.0000   1.0000   1.0000
     1.0000   1.0000   1.0000   1.0000   1.0000   1.0000   1.0000   1.0000
     1.0000   1.0000   1.0000   1.0000   1.0000   1.0000   1.0000   1.0000
     1.0000   1.0000   1.0000   1.0000   1.0000   1.0000   1.0000   1.0000
     1.0000   1.0000   1.0000   1.0000   1.0000   1.0000   1.0000   1.0000
     1.0000   1.0000   1.0000   1.0000   1.0000   1.0000   1.0000   1.0000
     1.0000   1.0000   1.0000   1.0000   1.0000   1.0000   1.0000   1.0000
     1.0000   1.0000   1.0000   1.0000   1.0000   1.0000   1.0000   1.0000
     1.0000   1.0000   1.0000   1.0000   1.0000   1.0000   1.0000   1.0000
     1.0000   1.0000   1.0000   1.0000   1.0000   1.0000   1.0000   1.0000
     1.0000   1.0000   1.0000   1.0000   1.0000   1.0000   1.0000   1.0000
     1.0000   1.0000   1.0000   1.0000   1.0000   1.0000   1.0000   1.0000
     1.0000   1.0000   1.0000   1.0000   1.0000   1.0000   1.0000   1.0000
     1.0000   1.0000   1.0000   1.0000   1.0000   1.0000   1.0000   1.0000
     1.0000   1.0000   1.0000   1.0000   1.0000   1.0000   1.0000   1.0000
     1.0000   1.0000   1.0000   1.0000   1.0000   1.0000   1.0000   1.0000
     1.0000   1.0000   1.0000   1.0000   1.0000   1.0000   1.0000   1.0000
     1.0000   1.0000   1.0000   1.0000   1.0000   1.0000   1.0000   1.0000
     1.0000   1.0000   1.0000   1.0000   1.0000   1.0000   1.0000   1.0000
     1.0000   1.0000   1.0000   1.0000   1.0000   1.0000   1.0000   1.0000
     1.0000   1.0000   1.0000   1.0000   1.0000   1.0000   1.0000   1.0000
     1.0000   1.0000   1.0000   1.0000   1.0000   1.0000   1.0000   1.0000
     1.0000   1.0000   1.0000   1.0000   1.0000   1.0000   1.0000   1.0000
     1.0000   1.0000   1.0000   1.0000   1.0000   1.0000   1.0000   1.0000
     1.0000   1.0000   1.0000   1.0000   1.0000   1.0000   1.0000   1.0000
     1.0000   1.0000   1.0000   1.0000   1.0000   1.0000   1.0000   1.0000
     1.0000   1.0000   1.0000   1.0000   1.0000   1.0000   1.0000   1.0000
     1.0000   1.0000   1.0000   1.0000   1.0000   1.0000   1.0000   1.0000
     1.0000   1.0000   1.0000   1.0000   1.0000   1.0000   1.0000   1.0000
     1.0000   1.0000   1.0000   1.0000   1.0000   1.0000   1.0000   1.0000
     1.0000   1.0000   1.0000   1.0000   1.0000   1.0000   1.0000   1.0000
     1.0000   1.0000   1.0000   1.0000   1.0000   1.0000   1.0000   1.0000
     1.0000   1.0000   1.0000   1.0000   1.0000   1.0000   1.0000   1.0000
     1.0000   1.0000   1.0000   1.0000   1.0000   1.0000   1.0000   1.0000
     1.0000   1.0000   1.0000   1.0000   1.0000   1.0000   1.0000   1.0000
     1.0000   1.0000   1.0000   1.0000   1.0000   1.0000   1.0000   1.0000
     1.0000   1.0000   1.0000   1.0000   1.0000   1.0000   1.0000   1.0000
     1.0000   1.0000   1.0000   1.0000   1.0000   1.0000   1.0000   1.0000
     1.0000   1.0000   1.0000   1.0000   1.0000   1.0000   1.0000   1.0000
     1.0000   1.0000   1.0000   1.0000   1.0000   1.0000   1.0000   1.0000
     1.0000   1.0000   1.0000   1.0000   1.0000   1.0000   1.0000   1.0000
     1.0000   1.0000   1.0000   1.0000   1.0000   1.0000   1.0000   1.0000
     1.0000   1.0000   1.0000   1.0000   1.0000   1.0000   1.0000   1.0000
     1.0000   1.0000   1.0000   1.0000   1.0000   1.0000   1.0000   1.0000
     1.0000   1.0000   1.0000   1.0000   1.0000   1.0000   1.0000   1.0000
     1.0000   1.0000   1.0000   1.0000   1.0000   1.0000   1.0000   1.0000
     1.0000   1.0000   1.0000   1.0000   1.0000   1.0000   1.0000   1.0000
     1.0000   1.0000   1.0000   1.0000   1.0000   1.0000   1.0000   1.0000
     1.0000   1.0000   1.0000   1.0000   1.0000   1.0000   1.0000   1.0000
     1.0000   1.0000   1.0000   1.0000   1.0000   1.0000   1.0000   1.0000
     1.0000   1.0000   1.0000   1.0000   1.0000   1.0000   1.0000   1.0000
     1.0000   1.0000   1.0000   1.0000   1.0000   1.0000   1.0000   1.0000
     1.0000   1.0000   1.0000   1.0000   1.0000   1.0000   1.0000   1.0000
     1.0000   1.0000   1.0000   1.0000   1.0000   1.0000   1.0000   1.0000
     1.0000   1.0000   1.0000   1.0000   1.0000   1.0000   1.0000   1.0000
     1.0000   1.0000   1.0000   1.0000   1.0000   1.0000   1.0000   1.0000
     1.0000   1.0000   1.0000   1.0000   1.0000   1.0000   1.0000   1.0000
     0.0000   0.0000   0.0000   0.0000   0.0000   0.0000   0.0000   0.0000
     0.0000   0.0000   0.0000   0.0000   0.0000   0.0000   0.0000   0.0000
     0.0000   0.0000   0.0000   0.0000   0.0000   0.0000   0.0000   0.0000
     0.0000   0.0000   0.0000   0.0000   0.0000   0.0000   0.0000   0.0000
     0.0000   0.0000   0.0000   0.0000   0.0000   0.0000   0.0000   0.0000
     0.0000   0.0000   0.0000   0.0000   0.0000   0.0000   0.0000   0.0000
     0.0000   0.0000   0.0000   0.0000   0.0000   0.0000   0.0000   0.0000
     0.0000   0.0000   0.0000   0.0000   0.0000   0.0000   0.0000   0.0000
     0.0000   0.0000   0.0000   0.0000   0.0000   0.0000   0.0000   0.0000
     0.0000   0.0000   0.0000   0.0000   0.0000   0.0000   0.0000   0.0000
     0.0000   0.0000   0.0000   0.0000   0.0000   0.0000   0.0000   0.0000
     0.0000   0.0000   0.0000   0.0000   0.0000   0.0000   0.0000   0.0000
     0.0000   0.0000   0.0000   0.0000   0.0000   0.0000

          k =-0.3536-0.3536 0.3536 ( 49986 PWs)   bands (ev):

   -65.7581 -32.7105 -32.7105 -32.7105 -29.4478 -29.4420 -29.4117 -29.4117
   -29.4074 -29.4074 -29.4074 -29.3979 -29.3824 -29.3824 -29.3805 -29.3805
   -29.3780 -29.3699 -29.3664 -29.3630 -29.3575 -29.3575 -29.3540 -29.3521
   -29.3521 -29.3453 -29.3453 -29.3453 -29.3429 -29.3429 -29.3409 -29.3403
   -29.3396 -29.3389 -29.3382 -29.3382 -29.3380 -29.3380 -29.3316 -29.3316
   -29.3316 -29.3293 -29.3293 -29.3290 -29.3244 -29.3241 -29.3241 -29.3228
   -29.3228 -29.3207 -29.3154 -29.3154 -29.3149 -29.3149 -29.3149 -29.3132
   -29.3122 -29.3122 -29.3122 -29.3118 -29.3090 -29.3090 -29.3009 -29.3009
   -29.3006 -29.3006 -29.3006 -11.4416 -11.4416 -11.4374 -11.4285 -11.4164
   -11.4164 -11.3996 -11.3819 -11.2253 -11.2253 -11.2253 -11.2252 -11.2252
   -11.2246 -11.2233 -11.2215 -11.2215 -11.2201 -11.2201 -11.2179 -11.2167
   -11.2139 -11.2139 -11.1897 -11.1897 -11.1809 -11.1460 -11.1442 -11.1442
   -11.1260 -11.1245 -11.1245 -11.0420 -11.0420 -11.0403 -11.0403 -11.0391
   -11.0232 -11.0146 -11.0126 -11.0123 -11.0123 -11.0111 -11.0111 -11.0094
   -11.0094 -11.0077 -10.9876 -10.9876 -10.9721 -10.9682 -10.9682 -10.9636
   -10.9218 -10.9218 -10.9168 -10.8737 -10.8704 -10.8704 -10.8701 -10.8305
   -10.8305 -10.7064 -10.7043 -10.7043 -10.6989 -10.6984 -10.6984 -10.6935
   -10.6914 -10.6914 -10.6824 -10.6824 -10.6787 -10.6482 -10.6460 -10.6460
   -10.6421 -10.6307 -10.6214 -10.6214 -10.6211 -10.6211 -10.6136 -10.6136
   -10.5987 -10.5435 -10.5435 -10.5405 -10.5404 -10.5401 -10.5401 -10.5399
   -10.5376 -10.5376 -10.5366 -10.5366 -10.5353 -10.5353 -10.5344 -10.5344
   -10.5331 -10.5331 -10.5330 -10.5324 -10.5322 -10.5281 -10.5262 -10.5262
   -10.5156 -10.5156 -10.5140 -10.5140 -10.5098 -10.5030 -10.4981 -10.4844
   -10.4844 -10.4685 -10.4683 -10.4683 -10.4649 -10.4570 -10.4570 -10.4484
   -10.4475 -10.4464 -10.4464 -10.4333 -10.4333 -10.4265 -10.4232 -10.4232
   -10.4227 -10.4227 -10.4215 -10.4152 -10.4137 -10.4137 -10.4094 -10.4094
   -10.4078 -10.4022 -10.4021 -10.4021 -10.3994 -10.3994 -10.3989 -10.3985
   -10.3985 -10.3978 -10.3960 -10.3907 -10.3907 -10.3884 -10.3884 -10.3878
   -10.3788 -10.3788 -10.3760 -10.3760 -10.3713 -10.3658 -10.3630 -10.3630
   -10.3577 -10.3563 -10.3563 -10.3541 -10.3500 -10.3441 -10.3441 -10.3428
   -10.3374 -10.3374 -10.3361 -10.3361 -10.3353 -10.3353 -10.3164 -10.3164
   -10.3087 -10.3081 -10.3068 -10.3068 -10.2972 -10.2972 -10.2948 -10.2948
    -7.3630  -7.3623  -7.1938  -7.1938  -7.1794  -7.1758  -7.1755  -7.1755
    -7.0286  -7.0286  -7.0033  -6.9992  -6.9809  -6.9809  -6.9794  -6.9356
    -6.9356  -6.9318  -6.9261  -6.9261  -6.9012  -6.9012  -6.8914  -6.8814
    -6.8814  -6.8809  -6.8809  -6.8797  -6.8797  -6.8776  -6.8745  -6.8745
    -6.7311  -6.7311  -6.7291  -6.6954  -6.6821  -6.6821  -6.6733  -6.6733
    -6.6621  -6.6531  -6.6524  -6.6523  -6.6523  -6.6523  -6.6508  -6.6508
    -6.6429  -6.6429  -6.6418  -6.6376  -6.6376  -6.6364  -6.6309  -6.6309
    -6.4550  -6.4412  -6.4412  -6.4366  -6.4189  -6.4189  -6.4148  -6.4112
     4.9840   5.3332   5.3604   5.3604   5.3781   5.3781   5.4065   5.4101
     5.5537   5.6989   5.6989   5.7390   5.7649   5.7683   5.7683   5.7690
     5.7690   5.7721   5.7813   5.7813   5.7929   5.7929   5.7934   5.8023
     5.8023   5.8172   5.8472   5.8690   5.8690   5.8692   5.8806   5.8806
     5.9642   5.9642   5.9833   5.9849   6.0099   6.0099   6.1753   6.2083
     6.2083   6.2255   6.3019   6.3031   6.3037   6.3037   6.3042   6.3042
     6.3063   6.3098   6.3098   6.3098   6.3148   6.3148   6.3183   6.3183
     6.3726   6.3841   6.3841   6.4268   6.4320   6.4320   6.5577   6.5577
     6.5994   6.6062   6.6095   6.6112   6.6112   6.6190   6.6190   6.6950
     6.6952   6.6952   6.6964   6.6966   6.6966   6.6997   6.6997   6.6998
     6.6998   6.7003   6.7014   6.7037   6.7044   6.7071   6.7071   6.7126
     6.7126   6.7143   6.7143   6.7150   6.7175   6.7175   6.7204   6.7224
     6.7237   6.7237   6.7268   6.7269   6.7282   6.7282   6.7319   6.7319
     6.7394   6.7394   6.7440   6.7440   6.7462   6.7463   6.7463   6.7509
     6.7970   6.7970   6.8333   6.8341   6.8355   6.8355   6.8651   6.8746
     6.8746   6.8983   6.8983   6.9332   6.9359   6.9361   6.9361   6.9374
     6.9374   6.9448   6.9504   6.9504   6.9576   6.9576   6.9589   6.9646
     6.9659   6.9659   6.9667   6.9676   6.9835   6.9835   7.0130   7.0130
     7.1143   7.1219   7.1219   7.1317   7.1445   7.1445   7.1495   7.1495
     7.1532   7.1623   7.1643   7.1643   7.1779   7.1915   7.1915   7.2026
     7.2026   7.2069   7.2716   7.2803   7.2936   7.2936   7.3220   7.3257
     7.3289   7.3289   7.3293   7.3293   7.3302   7.3312   7.3324   7.3324
     7.3333   7.3341   7.3342   7.3342   7.3630   7.3630   7.4368   7.4368
     7.4413   7.4446   7.4563   7.4563   7.6113   7.6113   7.6178   7.6178
    11.9079  11.9079  11.9092  11.9589  11.9621  11.9621  12.4363  12.4363
    12.4423  12.4841  12.4841  12.4920  12.9503  13.2987  13.3314  13.3314
    13.3380  13.3408  13.3412  13.3412  13.3416  13.3416  13.3416  13.3420
    13.3420  13.3442  13.3442  13.3473  13.3522  13.4442  13.4534  13.4534
    13.7103  13.7103  13.7213  13.7219  13.7228  13.7228  13.7244  13.7244
    13.7327  13.7815  13.8345  13.8372  13.8372  14.0387  14.0387  14.0515
    14.0535  14.0690  14.0839  14.0839  14.1740  14.2833  14.3082  14.3082
    14.3359  14.3359  14.3444  14.3444  14.3698  14.3787  14.3787  14.3800
    14.3800  14.3921  14.4483  14.4483  14.5600  14.5685  14.5685  14.5877
    14.5999  14.6603  14.6658  14.6658  14.8557  15.0208  15.0625  15.0625
    15.1020  15.1020  15.1089  15.1089  15.1353  15.1371  15.1759  15.1759
    15.2455  15.2475  15.2486  15.2486  15.2523  15.2602  15.2602  15.2644
    15.2647  15.2770  15.2856  15.2864  15.2882  15.2883

     occupation numbers 
     1.0000   1.0000   1.0000   1.0000   1.0000   1.0000   1.0000   1.0000
     1.0000   1.0000   1.0000   1.0000   1.0000   1.0000   1.0000   1.0000
     1.0000   1.0000   1.0000   1.0000   1.0000   1.0000   1.0000   1.0000
     1.0000   1.0000   1.0000   1.0000   1.0000   1.0000   1.0000   1.0000
     1.0000   1.0000   1.0000   1.0000   1.0000   1.0000   1.0000   1.0000
     1.0000   1.0000   1.0000   1.0000   1.0000   1.0000   1.0000   1.0000
     1.0000   1.0000   1.0000   1.0000   1.0000   1.0000   1.0000   1.0000
     1.0000   1.0000   1.0000   1.0000   1.0000   1.0000   1.0000   1.0000
     1.0000   1.0000   1.0000   1.0000   1.0000   1.0000   1.0000   1.0000
     1.0000   1.0000   1.0000   1.0000   1.0000   1.0000   1.0000   1.0000
     1.0000   1.0000   1.0000   1.0000   1.0000   1.0000   1.0000   1.0000
     1.0000   1.0000   1.0000   1.0000   1.0000   1.0000   1.0000   1.0000
     1.0000   1.0000   1.0000   1.0000   1.0000   1.0000   1.0000   1.0000
     1.0000   1.0000   1.0000   1.0000   1.0000   1.0000   1.0000   1.0000
     1.0000   1.0000   1.0000   1.0000   1.0000   1.0000   1.0000   1.0000
     1.0000   1.0000   1.0000   1.0000   1.0000   1.0000   1.0000   1.0000
     1.0000   1.0000   1.0000   1.0000   1.0000   1.0000   1.0000   1.0000
     1.0000   1.0000   1.0000   1.0000   1.0000   1.0000   1.0000   1.0000
     1.0000   1.0000   1.0000   1.0000   1.0000   1.0000   1.0000   1.0000
     1.0000   1.0000   1.0000   1.0000   1.0000   1.0000   1.0000   1.0000
     1.0000   1.0000   1.0000   1.0000   1.0000   1.0000   1.0000   1.0000
     1.0000   1.0000   1.0000   1.0000   1.0000   1.0000   1.0000   1.0000
     1.0000   1.0000   1.0000   1.0000   1.0000   1.0000   1.0000   1.0000
[...]
     atom   77 type  1   force =   0.00000000E+00  0.00000000E+00  0.00000000E+00
     atom   78 type  3   force =   0.00000000E+00  0.00000000E+00  0.00000000E+00
     atom   79 type  1   force =   0.00000000E+00  0.00000000E+00  0.00000000E+00
     atom   80 type  3   force =   0.00000000E+00  0.00000000E+00  0.00000000E+00
     atom   81 type  1   force =   0.00000000E+00  0.00000000E+00  0.00000000E+00
     atom   82 type  3   force =   0.00000000E+00  0.00000000E+00  0.00000000E+00
     atom   83 type  1   force =   0.00000000E+00  0.00000000E+00  0.00000000E+00
     atom   84 type  3   force =   0.00000000E+00  0.00000000E+00  0.00000000E+00
     atom   85 type  2   force =   0.00000000E+00  0.00000000E+00  0.00000000E+00
     atom   86 type  3   force =   0.00000000E+00  0.00000000E+00  0.00000000E+00
     atom   87 type  1   force =   0.00000000E+00  0.00000000E+00  0.00000000E+00
     atom   88 type  3   force =   0.00000000E+00  0.00000000E+00  0.00000000E+00
     atom   89 type  1   force =   0.00000000E+00  0.00000000E+00  0.00000000E+00
     atom   90 type  3   force =   0.00000000E+00  0.00000000E+00  0.00000000E+00
     atom   91 type  1   force =   0.00000000E+00  0.00000000E+00  0.00000000E+00
     atom   92 type  3   force =   0.00000000E+00  0.00000000E+00  0.00000000E+00
     atom   93 type  1   force =   0.00000000E+00  0.00000000E+00  0.00000000E+00
     atom   94 type  3   force =   0.00000000E+00  0.00000000E+00  0.00000000E+00
     atom   95 type  1   force =   0.00000000E+00  0.00000000E+00  0.00000000E+00
     atom   96 type  3   force =   0.00000000E+00  0.00000000E+00  0.00000000E+00
     atom   97 type  1   force =   0.00000000E+00  0.00000000E+00  0.00000000E+00
     atom   98 type  3   force =   0.00000000E+00  0.00000000E+00  0.00000000E+00
     atom   99 type  1   force =   0.00000000E+00  0.00000000E+00  0.00000000E+00
     atom  100 type  3   force =   0.00000000E+00  0.00000000E+00  0.00000000E+00
     atom  101 type  1   force =   0.00000000E+00  0.00000000E+00  0.00000000E+00
     atom  102 type  3   force =   0.00000000E+00  0.00000000E+00  0.00000000E+00
     atom  103 type  1   force =   0.00000000E+00  0.00000000E+00  0.00000000E+00
     atom  104 type  3   force =   0.00000000E+00  0.00000000E+00  0.00000000E+00
     atom  105 type  1   force =   0.00000000E+00  0.00000000E+00  0.00000000E+00
     atom  106 type  3   force =   0.00000000E+00  0.00000000E+00  0.00000000E+00
     atom  107 type  1   force =   0.00000000E+00  0.00000000E+00  0.00000000E+00
     atom  108 type  3   force =   0.00000000E+00  0.00000000E+00  0.00000000E+00
     atom  109 type  1   force =   0.00000000E+00  0.00000000E+00  0.00000000E+00
     atom  110 type  3   force =   0.00000000E+00  0.00000000E+00  0.00000000E+00
     atom  111 type  1   force =   0.00000000E+00  0.00000000E+00  0.00000000E+00
     atom  112 type  3   force =   0.00000000E+00  0.00000000E+00  0.00000000E+00
     atom  113 type  1   force =   0.00000000E+00  0.00000000E+00  0.00000000E+00
     atom  114 type  3   force =   0.00000000E+00  0.00000000E+00  0.00000000E+00
     atom  115 type  1   force =   0.00000000E+00  0.00000000E+00  0.00000000E+00
     atom  116 type  3   force =   0.00000000E+00  0.00000000E+00  0.00000000E+00
     atom  117 type  1   force =   0.00000000E+00  0.00000000E+00  0.00000000E+00
     atom  118 type  3   force =   0.00000000E+00  0.00000000E+00  0.00000000E+00
     atom  119 type  1   force =   0.00000000E+00  0.00000000E+00  0.00000000E+00
     atom  120 type  3   force =   0.00000000E+00  0.00000000E+00  0.00000000E+00
     atom  121 type  1   force =   0.00000000E+00  0.00000000E+00  0.00000000E+00
     atom  122 type  3   force =   0.00000000E+00  0.00000000E+00  0.00000000E+00
     atom  123 type  1   force =   0.00000000E+00  0.00000000E+00  0.00000000E+00
     atom  124 type  3   force =   0.00000000E+00  0.00000000E+00  0.00000000E+00
     atom  125 type  1   force =   0.00000000E+00  0.00000000E+00  0.00000000E+00
     atom  126 type  3   force =   0.00000000E+00  0.00000000E+00  0.00000000E+00
     atom  127 type  1   force =   0.00000000E+00  0.00000000E+00  0.00000000E+00
     atom  128 type  3   force =   0.00000000E+00  0.00000000E+00  0.00000000E+00
     The SCF correction term to forces
     atom    1 type  1   force =  -0.59978547E-15  0.11168305E-14 -0.78222720E-15
     atom    2 type  3   force =  -0.37100791E-06 -0.37100791E-06 -0.37100791E-06
     atom    3 type  1   force =  -0.17764894E-05 -0.17764894E-05 -0.65110554E-15
     atom    4 type  3   force =  -0.19103547E-15  0.79464968E-15  0.11576189E-05
     atom    5 type  1   force =  -0.62112833E-15  0.54845047E-15 -0.42168119E-15
     atom    6 type  3   force =   0.37100791E-06  0.37100791E-06 -0.37100791E-06
     atom    7 type  1   force =   0.17764894E-05  0.17764894E-05  0.72753460E-15
     atom    8 type  3   force =  -0.81761120E-15  0.13789601E-15 -0.15358294E-05
     atom    9 type  1   force =  -0.17764894E-05 -0.76286989E-15 -0.17764894E-05
     atom   10 type  3   force =   0.94078430E-15  0.11576189E-05  0.10004168E-14
     atom   11 type  1   force =   0.22318174E-05  0.16205712E-06  0.16205712E-06
     atom   12 type  3   force =  -0.11576189E-05  0.15302794E-15  0.12159637E-14
     atom   13 type  1   force =  -0.16205712E-06 -0.22318174E-05  0.16205712E-06
     atom   14 type  3   force =  -0.77289713E-15  0.26019884E-06  0.14315058E-05
     atom   15 type  1   force =   0.43247279E-15  0.17764894E-05 -0.17764894E-05
     atom   16 type  3   force =  -0.26019884E-06 -0.18629328E-15  0.14315058E-05
     atom   17 type  1   force =   0.73020921E-15  0.28717900E-15  0.57500207E-15
     atom   18 type  3   force =   0.37100791E-06 -0.37100791E-06  0.37100791E-06
     atom   19 type  1   force =  -0.16205712E-06  0.16205712E-06 -0.22318174E-05
     atom   20 type  3   force =  -0.14088192E-14  0.14315058E-05  0.26019884E-06
     atom   21 type  1   force =   0.16926978E-15 -0.11147504E-14  0.65008701E-16
     atom   22 type  3   force =  -0.82887587E-06  0.82887587E-06  0.82887587E-06
     atom   23 type  1   force =   0.16205712E-06 -0.16205712E-06  0.22318174E-05
     atom   24 type  3   force =  -0.14315058E-05  0.12039112E-14  0.26019884E-06
     atom   25 type  1   force =   0.17764894E-05  0.23398411E-14  0.17764894E-05
     atom   26 type  3   force =  -0.12627316E-14 -0.15358294E-05 -0.92488825E-15
     atom   27 type  1   force =  -0.11474732E-14 -0.17764894E-05  0.17764894E-05
     atom   28 type  3   force =  -0.26019884E-06  0.14315058E-05 -0.24664069E-15
     atom   29 type  1   force =   0.16205712E-06  0.22318174E-05 -0.16205712E-06
     atom   30 type  3   force =  -0.14315058E-05  0.26019884E-06  0.14139096E-14
     atom   31 type  1   force =  -0.22318174E-05 -0.16205712E-06 -0.16205712E-06
     atom   32 type  3   force =   0.15358294E-05  0.13515833E-14 -0.37567499E-17
     atom   33 type  1   force =  -0.22025138E-14 -0.17764894E-05 -0.17764894E-05
     atom   34 type  3   force =   0.11576189E-05  0.11995265E-14  0.35396120E-15
     atom   35 type  1   force =   0.16205712E-06  0.22318174E-05  0.16205712E-06
     atom   36 type  3   force =  -0.20585754E-15 -0.11576189E-05  0.66678640E-15
     atom   37 type  1   force =  -0.22318174E-05 -0.16205712E-06  0.16205712E-06
     atom   38 type  3   force =   0.26019884E-06 -0.10193536E-14  0.14315058E-05
     atom   39 type  1   force =   0.17764894E-05  0.14216972E-14 -0.17764894E-05
     atom   40 type  3   force =  -0.80794238E-15 -0.26019884E-06  0.14315058E-05
     atom   41 type  1   force =   0.16205712E-06  0.16205712E-06  0.22318174E-05
     atom   42 type  3   force =   0.91922964E-15  0.55322872E-15 -0.11576189E-05
     atom   43 type  1   force =   0.37570115E-15  0.71738301E-15  0.34104508E-14
     atom   44 type  3   force =   0.82887587E-06  0.82887587E-06  0.82887587E-06
     atom   45 type  1   force =  -0.16205712E-06 -0.16205712E-06  0.22318174E-05
     atom   46 type  3   force =  -0.27057398E-15 -0.97169513E-15  0.17529234E-05
     atom   47 type  1   force =  -0.54320816E-15 -0.65333478E-15 -0.49645521E-06
     atom   48 type  3   force =  -0.82887587E-06 -0.82887587E-06  0.82887587E-06
     atom   49 type  1   force =  -0.22318174E-05  0.16205712E-06 -0.16205712E-06
     atom   50 type  3   force =   0.26019884E-06  0.14315058E-05 -0.89745920E-15
     atom   51 type  1   force =  -0.16205712E-06  0.22318174E-05 -0.16205712E-06
     atom   52 type  3   force =  -0.87416967E-15  0.17529234E-05 -0.78287073E-16
     atom   53 type  1   force =  -0.16093414E-14  0.43206796E-06  0.43206796E-06
     atom   54 type  3   force =  -0.17529234E-05  0.48581276E-15  0.17867407E-14
     atom   55 type  1   force =  -0.43206796E-06  0.86342621E-15  0.43206796E-06
     atom   56 type  3   force =  -0.14315058E-05 -0.26019884E-06  0.60913877E-15
     atom   57 type  1   force =   0.17764894E-05 -0.17764894E-05  0.20678891E-15
     atom   58 type  3   force =  -0.88001276E-15  0.14315058E-05 -0.26019884E-06
     atom   59 type  1   force =  -0.27463342E-14 -0.49645521E-06  0.19100868E-15
     atom   60 type  3   force =  -0.82887587E-06  0.82887587E-06 -0.82887587E-06
     atom   61 type  1   force =  -0.43206796E-06  0.43206796E-06  0.64429667E-15
     atom   62 type  3   force =  -0.14315058E-05  0.91769429E-15 -0.26019884E-06
     atom   63 type  1   force =   0.49645521E-06  0.28352635E-14  0.12588920E-14
     atom   64 type  3   force =   0.37100791E-06 -0.37100791E-06 -0.37100791E-06
     atom   65 type  1   force =  -0.13365287E-15  0.86904772E-15 -0.97602376E-15
     atom   66 type  3   force =  -0.37100791E-06  0.37100791E-06  0.37100791E-06
     atom   67 type  1   force =   0.16205712E-06 -0.16205712E-06 -0.22318174E-05
     atom   68 type  3   force =   0.14315058E-05 -0.10486730E-14  0.26019884E-06
     atom   69 type  1   force =  -0.86014983E-15  0.26228761E-15 -0.13724182E-14
     atom   70 type  3   force =   0.82887587E-06 -0.82887587E-06  0.82887587E-06
     atom   71 type  1   force =  -0.16205712E-06  0.16205712E-06  0.22318174E-05
     atom   72 type  3   force =   0.10590859E-14 -0.14315058E-05  0.26019884E-06
     atom   73 type  1   force =   0.16205712E-06 -0.22318174E-05 -0.16205712E-06
     atom   74 type  3   force =   0.14315058E-05  0.26019884E-06 -0.99425172E-15
     atom   75 type  1   force =   0.22318174E-05 -0.16205712E-06 -0.16205712E-06
     atom   76 type  3   force =   0.17529234E-05 -0.14729644E-14 -0.22078263E-15
     atom   77 type  1   force =   0.43206796E-06 -0.18196693E-14  0.43206796E-06
     atom   78 type  3   force =   0.12566062E-14 -0.17529234E-05  0.16484023E-14
     atom   79 type  1   force =   0.14785401E-14 -0.43206796E-06  0.43206796E-06
     atom   80 type  3   force =  -0.26019884E-06 -0.14315058E-05  0.70215453E-15
     atom   81 type  1   force =   0.49743527E-15 -0.69912368E-15  0.24133815E-15
     atom   82 type  3   force =   0.82887587E-06  0.82887587E-06 -0.82887587E-06
     atom   83 type  1   force =   0.43206796E-06  0.43206796E-06  0.45335279E-15
     atom   84 type  3   force =   0.79284772E-15  0.16606076E-15 -0.17529234E-05
     atom   85 type  2   force =   0.23698105E-14 -0.15774375E-14 -0.20947531E-14
     atom   86 type  3   force =  -0.82887587E-06 -0.82887587E-06 -0.82887587E-06
     atom   87 type  1   force =  -0.43206796E-06 -0.43206796E-06  0.12673586E-14
     atom   88 type  3   force =  -0.43414705E-15 -0.12132976E-14  0.11576189E-05
     atom   89 type  1   force =  -0.16205712E-06  0.22318174E-05  0.16205712E-06
     atom   90 type  3   force =   0.89983148E-15  0.26019884E-06 -0.14315058E-05
     atom   91 type  1   force =  -0.52233197E-15  0.43206796E-06 -0.43206796E-06
     atom   92 type  3   force =  -0.26019884E-06  0.76586067E-15 -0.14315058E-05
     atom   93 type  1   force =  -0.43206796E-06  0.15024332E-14 -0.43206796E-06
     atom   94 type  3   force =  -0.94424178E-15  0.11576189E-05 -0.83754337E-15
     atom   95 type  1   force =  -0.22318174E-05  0.16205712E-06  0.16205712E-06
     atom   96 type  3   force =  -0.11576189E-05 -0.98914866E-16 -0.18769460E-14
     atom   97 type  1   force =   0.17843029E-14  0.17764894E-05  0.17764894E-05
     atom   98 type  3   force =  -0.15358294E-05 -0.41545066E-15 -0.10089496E-14
     atom   99 type  1   force =  -0.17764894E-05 -0.64631451E-15  0.17764894E-05
     atom  100 type  3   force =   0.14315058E-05 -0.26019884E-06 -0.58209046E-15
     atom  101 type  1   force =   0.22318174E-05  0.16205712E-06 -0.16205712E-06
     atom  102 type  3   force =   0.26019884E-06 -0.14315058E-05  0.10489235E-14
     atom  103 type  1   force =  -0.16205712E-06 -0.22318174E-05 -0.16205712E-06
     atom  104 type  3   force =   0.53882201E-15  0.15358294E-05 -0.17772408E-15
     atom  105 type  1   force =  -0.17764894E-05  0.17764894E-05 -0.58459239E-15
     atom  106 type  3   force =   0.14315058E-05 -0.59570220E-15 -0.26019884E-06
     atom  107 type  1   force =  -0.49645521E-06 -0.28240248E-14 -0.27123795E-15
     atom  108 type  3   force =   0.82887587E-06 -0.82887587E-06 -0.82887587E-06
     atom  109 type  1   force =   0.43206796E-06 -0.43206796E-06 -0.21803263E-15
     atom  110 type  3   force =   0.11381130E-14 -0.14315058E-05 -0.26019884E-06
     atom  111 type  1   force =   0.28453592E-14  0.49645521E-06  0.11274290E-14
     atom  112 type  3   force =  -0.37100791E-06  0.37100791E-06 -0.37100791E-06
     atom  113 type  1   force =   0.22318174E-05 -0.16205712E-06  0.16205712E-06
     atom  114 type  3   force =   0.26019884E-06  0.66002163E-15 -0.14315058E-05
     atom  115 type  1   force =   0.43206796E-06 -0.15532612E-14 -0.43206796E-06
     atom  116 type  3   force =   0.42078267E-15 -0.26019884E-06 -0.14315058E-05
     atom  117 type  1   force =   0.25174704E-14 -0.43206796E-06 -0.43206796E-06
     atom  118 type  3   force =   0.11576189E-05 -0.15340841E-14 -0.19350439E-15
     atom  119 type  1   force =   0.16205712E-06 -0.22318174E-05  0.16205712E-06
     atom  120 type  3   force =  -0.34738277E-15 -0.11576189E-05 -0.13264996E-14
     atom  121 type  1   force =  -0.16205712E-06 -0.16205712E-06 -0.22318174E-05
     atom  122 type  3   force =   0.30503589E-15  0.98034482E-15  0.15358294E-05
     atom  123 type  1   force =   0.65744410E-15  0.70870950E-15  0.49645521E-06
     atom  124 type  3   force =  -0.37100791E-06 -0.37100791E-06  0.37100791E-06
     atom  125 type  1   force =   0.16205712E-06  0.16205712E-06 -0.22318174E-05
     atom  126 type  3   force =  -0.99597337E-15 -0.72314040E-15 -0.11576189E-05
     atom  127 type  1   force =  -0.68452301E-15 -0.97826133E-15 -0.28070848E-14
     atom  128 type  3   force =   0.37100791E-06  0.37100791E-06  0.37100791E-06

     Total force =     0.059165     Total SCF correction =     0.000018


     entering subroutine stress ...

          total   stress  (Ry/bohr**3)                   (kbar)     P=   -4.35
  -0.0000295751  -0.0000000000  -0.0000000000         -4.35     -0.00     -0.00
  -0.0000000000  -0.0000295751  -0.0000000000         -0.00     -4.35     -0.00
   0.0000000000  -0.0000000000  -0.0000295751          0.00     -0.00     -4.35

     kinetic stress (kbar)  19068.71      0.00      0.00
                                0.00  19068.71      0.00
                                0.00      0.00  19068.71

     local   stress (kbar)  -1997.68      0.00     -0.00
                                0.00  -1997.68     -0.00
                               -0.00     -0.00  -1997.68

     nonloc. stress (kbar)   4495.06     -0.00     -0.00
                               -0.00   4495.06     -0.00
                               -0.00     -0.00   4495.06

     hartree stress (kbar)   5627.89      0.00      0.00
                                0.00   5627.89     -0.00
                                0.00     -0.00   5627.89

     exc-cor stress (kbar)  -3204.60     -0.00      0.00
                               -0.00  -3204.60      0.00
                                0.00      0.00  -3204.60

     corecor stress (kbar)  -1559.70     -0.00      0.00
                               -0.00  -1559.70     -0.00
                                0.00     -0.00  -1559.70

     ewald   stress (kbar) -22434.03     -0.00      0.00
                               -0.00 -22434.03     -0.00
                                0.00     -0.00 -22434.03

     hubbard stress (kbar)      0.00      0.00      0.00
                                0.00      0.00      0.00
                                0.00      0.00      0.00

     london  stress (kbar)      0.00      0.00      0.00
                                0.00      0.00      0.00
                                0.00      0.00      0.00

     XDM     stress (kbar)      0.00      0.00      0.00
                                0.00      0.00      0.00
                                0.00      0.00      0.00

     dft-nl  stress (kbar)      0.00      0.00      0.00
                                0.00      0.00      0.00
                                0.00      0.00      0.00



     Writing output data file CaO_rocksalt.relax.in.up_1.00.super.444.b.singleMg.save

     init_run     :    395.71s CPU    306.38s WALL (       1 calls)
     electrons    :  24412.36s CPU  18629.57s WALL (       1 calls)
     forces       :    286.89s CPU    197.73s WALL (       1 calls)
     stress       :   1055.64s CPU   1043.54s WALL (       1 calls)

     Called by init_run:
     wfcinit      :    369.29s CPU    279.13s WALL (       1 calls)
     potinit      :      0.80s CPU      0.89s WALL (       1 calls)

     Called by electrons:
     c_bands      :  21242.35s CPU  15777.82s WALL (      25 calls)
     sum_band     :   2598.07s CPU   2261.00s WALL (      25 calls)
     v_of_rho     :     11.08s CPU     12.44s WALL (      26 calls)
     v_h          :      0.66s CPU      0.86s WALL (      26 calls)
     v_xc         :     11.22s CPU     12.45s WALL (      28 calls)
     newd         :    562.68s CPU    576.81s WALL (      26 calls)
     mix_rho      :     19.84s CPU     23.53s WALL (      25 calls)

     Called by c_bands:
     init_us_2    :     28.65s CPU     29.24s WALL (     159 calls)
     cegterg      :  21086.45s CPU  15618.70s WALL (      75 calls)

     Called by sum_band:
     sum_band:bec :      5.97s CPU      6.04s WALL (      75 calls)
     addusdens    :    439.58s CPU    443.70s WALL (      25 calls)

     Called by *egterg:
     h_psi        :   9210.83s CPU   7681.12s WALL (     325 calls)
     s_psi        :   2591.19s CPU   1420.17s WALL (     325 calls)
     g_psi        :      4.78s CPU      4.89s WALL (     247 calls)
     cdiaghg      :   4491.48s CPU   3668.10s WALL (     322 calls)
     cegterg:over :   2242.99s CPU   1343.52s WALL (     247 calls)
     cegterg:upda :   1087.62s CPU    604.26s WALL (     247 calls)
     cegterg:last :    759.49s CPU    412.01s WALL (      75 calls)

     Called by h_psi:
     h_psi:vloc   :   3543.54s CPU   4484.90s WALL (     325 calls)
     h_psi:vnl    :   5658.78s CPU   3187.54s WALL (     325 calls)
     add_vuspsi   :   2604.39s CPU   1431.16s WALL (     325 calls)

     General routines
     calbec       :   4578.34s CPU   2686.86s WALL (     406 calls)
     fft          :     78.03s CPU     79.87s WALL (     437 calls)
     ffts         :     13.25s CPU     16.23s WALL (     637 calls)
     fftw         :   3900.96s CPU   5028.20s WALL (  261350 calls)
     interpolate  :      2.32s CPU      2.96s WALL (      51 calls)

     Parallel routines
     fft_scatter  :   1269.45s CPU   1637.50s WALL (  262424 calls)

     PWSCF        :     7h15m CPU        5h36m WALL


   This run was terminated on:  16: 8: 7  21Aug2017            

=------------------------------------------------------------------------------=
   JOB DONE.
=------------------------------------------------------------------------------=
