
     Program PWSCF v.5.1 starts on 18Aug2017 at 20: 4:35 

     This program is part of the open-source Quantum ESPRESSO suite
     for quantum simulation of materials; please cite
         "P. Giannozzi et al., J. Phys.:Condens. Matter 21 395502 (2009);
          URL http://www.quantum-espresso.org", 
     in publications or presentations arising from this work. More details at
     http://www.quantum-espresso.org/quote

     Parallel version (MPI), running on     8 processors
     R & G space division:  proc/nbgrp/npool/nimage =       8
     Reading input from /tmp/CaO_rocksalt.relax.in.up_1.00.super.444.a.02.13655/CaO_rocksalt.relax.in.up_1.00.super.444.a.02.t
Warning: card &IONS ignored
Warning: card   ION_DYNAMICS='BFGS', ignored
Warning: card / ignored
Warning: card &CELL ignored
Warning: card  CELL_DYNAMICS = 'BFGS' ignored
Warning: card / ignored
     Message from routine read_cards :
     DEPRECATED: no units specified in CELL_PARAMETERS card

     Current dimensions of program PWSCF are:
     Max number of different atomic species (ntypx) = 10
     Max number of k-points (npk) =  40000
     Max angular momentum in pseudopotentials (lmaxx) =  3
 kfg - two_fermi_energies  F

     Subspace diagonalization in iterative solution of the eigenvalue problem:
     a serial algorithm will be used


     Parallelization info
     --------------------
     sticks:   dense  smooth     PW     G-vecs:    dense   smooth      PW
     Min        1126     901    237                69889    49983    6785
     Max        1127     902    238                69891    50020    6787
     Sum        9013    7209   1903               559121   400037   54287



     bravais-lattice index     =            0
     lattice parameter (alat)  =    25.579214003  a.u.
     unit-cell volume          =   11704.2951 (a.u.)^3
     number of atoms/cell      =          128
     number of atomic types    =            2
     number of electrons       =      1024.00
     number of Kohn-Sham states=          614
     kinetic-energy cutoff     =      40.0000  Ry
     charge density cutoff     =     200.0000  Ry
     convergence threshold     =      1.0E-10
     mixing beta               =       0.3000
     number of iterations used =            8  local-TF  mixing
     Exchange-correlation      = SLA  PW   PSX  PSC ( 1  4 10  8 0)
     A smooth kinetic-energy cutoff is imposed at      39.5000 Ry
     height of the smooth step-function =             800.0000 Ry
     width of the smooth step-function  =               1.0000 Ry


     celldm(1)=  25.579214  celldm(2)=   0.000000  celldm(3)=   0.000000
     celldm(4)=   0.000000  celldm(5)=   0.000000  celldm(6)=   0.000000

     crystal axes: (cart. coord. in units of alat)
               a(1) = (   0.000951389895   0.707556401703   0.706656234153 )  
               a(2) = (   0.706954257255  -0.001269997735   0.704013709899 )  
               a(3) = (   0.701167208474   0.697484196420  -0.002906031167 )  

     reciprocal axes: (cart. coord. in units 2 pi/alat)
               b(1) = ( -0.702148  0.708798  0.706359 )  
               b(2) = (  0.707729 -0.708514  0.708464 )  
               b(3) = (  0.713576  0.713400 -0.715270 )  


     PseudoPot. # 1 for Ca read from file:
     /users/kfg/psuedo/gbrv_1.5/ca.pbesol.UPF
     MD5 check sum: 0533207b58cddeaa036efa5b63902087
     Pseudo is Ultrasoft + core correction, Zval = 10.0
     Generated by new atomic code, or converted to UPF format
     Using radial grid of  845 points,  6 beta functions with: 
                l(1) =   0
                l(2) =   0
                l(3) =   1
                l(4) =   1
                l(5) =   2
                l(6) =   2
     Q(r) pseudized with  8 coefficients,  rinner =    1.500   1.500   1.500
                                                       1.500   1.500

     PseudoPot. # 2 for O  read from file:
     /users/kfg/psuedo/gbrv_1.5/o.pbesol.UPF
     MD5 check sum: 501638753501ef6325af9037351f7734
     Pseudo is Ultrasoft + core correction, Zval =  6.0
     Generated by new atomic code, or converted to UPF format
     Using radial grid of  737 points,  5 beta functions with: 
                l(1) =   0
                l(2) =   0
                l(3) =   1
                l(4) =   1
                l(5) =   2
     Q(r) pseudized with  8 coefficients,  rinner =    0.900   0.900   0.900
                                                       0.900   0.900

     atomic species   valence    mass     pseudopotential
        Ca            10.00    40.07800     Ca( 1.00)
        O              6.00    15.99940     O ( 1.00)

     No symmetry found


                                    s                        frac. trans.

      isym =  1     identity                                     

 cryst.   s( 1) = (     1          0          0      )
                  (     0          1          0      )
                  (     0          0          1      )

 cart.    s( 1) = (  1.0000000  0.0000000  0.0000000 )
                  (  0.0000000  1.0000000  0.0000000 )
                  ( -0.0000000  0.0000000  1.0000000 )


     point group C_1 (1)    
     there are  1 classes
     the character table:

       E    
A      1.00

     the symmetry operations in each class:
     E        1

   Cartesian axes

     site n.     atom                  positions (alat units)
         1           Ca  tau(   1) = (   -0.00435598377   -0.00104504881   -0.00299462866  )
         2           O   tau(   2) = (    0.18146681440    0.18213456091    0.17343145931  )
         3           Ca  tau(   3) = (    0.18277050384    0.16929026606    0.00486560149  )
         4           O   tau(   4) = (    0.35497653753    0.34361001319    0.16914952992  )
         5           Ca  tau(   5) = (    0.35585722188    0.34578038018    0.00512666248  )
         6           O   tau(   6) = (    0.53091184709    0.52280937884    0.16793539524  )
         7           Ca  tau(   7) = (    0.52604726799    0.53075089727   -0.00721310960  )
         8           O   tau(   8) = (    0.70644183981    0.70624156043    0.17985590772  )
         9           Ca  tau(   9) = (    0.18064120966   -0.00011127561    0.17167979112  )
        10           O   tau(  10) = (    0.35898720336    0.17222799279    0.34474782538  )
        11           Ca  tau(  11) = (    0.35367629142    0.17357663723    0.17683037377  )
        12           O   tau(  12) = (    0.52159364802    0.34751473086    0.35077870241  )
        13           Ca  tau(  13) = (    0.52678971588    0.34343960793    0.16829458072  )
        14           O   tau(  14) = (    0.70871672994    0.52096677342    0.35715617817  )
        15           Ca  tau(  15) = (    0.70160033037    0.52324032018    0.17267099641  )
        16           O   tau(  16) = (    0.87995109775    0.69387918715    0.35364420929  )
        17           Ca  tau(  17) = (    0.35217544930   -0.00095697094    0.35682762284  )
        18           O   tau(  18) = (    0.52329333168    0.16855936347    0.52505384020  )
        19           Ca  tau(  19) = (    0.53132199252    0.17288418924    0.35654473146  )
        20           O   tau(  20) = (    0.70072471405    0.35677660304    0.52264999487  )
        21           Ca  tau(  21) = (    0.70033694134    0.34526881182    0.35653210414  )
        22           O   tau(  22) = (    0.88023683445    0.53050695700    0.53315534882  )
        23           Ca  tau(  23) = (    0.88022241425    0.51979034691    0.34408385858  )
        24           O   tau(  24) = (    1.06093312354    0.69604902776    0.53014786480  )
        25           Ca  tau(  25) = (    0.52839815646    0.00350287294    0.53156732370  )
        26           O   tau(  26) = (    0.70620881786    0.16918545744    0.69664419003  )
        27           Ca  tau(  27) = (    0.71030952165    0.17303831862    0.53477987245  )
        28           O   tau(  28) = (    0.88258059454    0.34244846566    0.70614723065  )
        29           Ca  tau(  29) = (    0.88363722224    0.35260357163    0.52606499559  )
        30           O   tau(  30) = (    1.06096433727    0.52049966173    0.70104461442  )
        31           Ca  tau(  31) = (    1.05100921542    0.52925490175    0.52012637213  )
        32           O   tau(  32) = (    1.23315803177    0.69198396859    0.70322693445  )
        33           Ca  tau(  33) = (    0.00427197759    0.18124407539    0.17703745733  )
        34           O   tau(  34) = (    0.17968532645    0.34550997957    0.35686030790  )
        35           Ca  tau(  35) = (    0.18012337424    0.34803272234    0.16837354303  )
        36           O   tau(  36) = (    0.34423520170    0.53094824493    0.34472611769  )
        37           Ca  tau(  37) = (    0.34545949651    0.52322006982    0.17431705279  )
        38           O   tau(  38) = (    0.53447109559    0.69357453984    0.34395543353  )
        39           Ca  tau(  39) = (    0.52313061806    0.69712469143    0.18080411245  )
        40           O   tau(  40) = (    0.70069615207    0.88040178487    0.34762977913  )
        41           Ca  tau(  41) = (    0.16960908423    0.17180509193    0.35353103036  )
        42           O   tau(  42) = (    0.35964315093    0.34585455652    0.53644245502  )
        43           Ca  tau(  43) = (    0.35730232661    0.35865805187    0.35050882824  )
        44           O   tau(  44) = (    0.53322653195    0.52174849555    0.52738089319  )
        45           Ca  tau(  45) = (    0.52955753313    0.52611963664    0.34990591375  )
        46           O   tau(  46) = (    0.69691311022    0.70284460112    0.52836029123  )
        47           Ca  tau(  47) = (    0.71018232657    0.70062459146    0.34803755509  )
        48           O   tau(  48) = (    0.87493289587    0.87859016112    0.52131253782  )
        49           Ca  tau(  49) = (    0.34768039602    0.17849777055    0.53604726210  )
        50           O   tau(  50) = (    0.52886788605    0.35218482596    0.70647719916  )
        51           Ca  tau(  51) = (    0.52685302539    0.35323706680    0.52592476296  )
        52           O   tau(  52) = (    0.70760206901    0.52881261497    0.71087804581  )
        53           Ca  tau(  53) = (    0.70779766161    0.53060074888    0.52789316958  )
        54           O   tau(  54) = (    0.88442674985    0.69519251340    0.70285177136  )
        55           Ca  tau(  55) = (    0.87452565815    0.69808190673    0.52099391045  )
        56           O   tau(  56) = (    1.05929175306    0.87410027070    0.69956392278  )
        57           Ca  tau(  57) = (    0.52295126056    0.17936597100    0.69870374950  )
        58           O   tau(  58) = (    0.70331095258    0.35073545902    0.87355525106  )
        59           Ca  tau(  59) = (    0.70044535818    0.34920261104    0.69960649189  )
        60           O   tau(  60) = (    0.87433348559    0.52938450519    0.87559320438  )
        61           Ca  tau(  61) = (    0.87907377384    0.52435722843    0.69572616675  )
        62           O   tau(  62) = (    1.06329303669    0.69513986220    0.88597872841  )
        63           Ca  tau(  63) = (    1.05879329091    0.70261508306    0.69505899953  )
        64           O   tau(  64) = (    1.23656779809    0.87285232711    0.88454118173  )
        65           Ca  tau(  65) = (   -0.00072323590    0.35496973426    0.35819892929  )
        66           O   tau(  66) = (    0.17750917808    0.53145558645    0.53112440606  )
        67           Ca  tau(  67) = (    0.17701735532    0.53024227472    0.35524947961  )
        68           O   tau(  68) = (    0.35188517701    0.70243403800    0.52257341882  )
        69           Ca  tau(  69) = (    0.35146072862    0.70778587269    0.35637556721  )
        70           O   tau(  70) = (    0.53386177650    0.87059737301    0.52191973278  )
        71           Ca  tau(  71) = (    0.53269344597    0.88396168749    0.34535662871  )
        72           O   tau(  72) = (    0.69776772001    1.04796159663    0.52805574856  )
        73           Ca  tau(  73) = (    0.17010730617    0.35372989983    0.52245497709  )
        74           O   tau(  74) = (    0.35483593325    0.52292358384    0.70201637572  )
        75           Ca  tau(  75) = (    0.35940621525    0.53406959359    0.53515755531  )
        76           O   tau(  76) = (    0.53365393628    0.69563629691    0.70105940528  )
        77           Ca  tau(  77) = (    0.52046510661    0.70527353048    0.52829781813  )
        78           O   tau(  78) = (    0.70374170338    0.87457090614    0.71066707002  )
        79           Ca  tau(  79) = (    0.69879332204    0.88081687096    0.53274847560  )
        80           O   tau(  80) = (    0.88484624610    1.05964928371    0.69883499141  )
        81           Ca  tau(  81) = (    0.35109190945    0.34675351158    0.70972422108  )
        82           O   tau(  82) = (    0.53049453808    0.52640794874    0.88722161610  )
        83           Ca  tau(  83) = (    0.52484403471    0.52680397293    0.70243184321  )
        84           O   tau(  84) = (    0.70297440323    0.69529222218    0.87419238756  )
        85           Ca  tau(  85) = (    0.70440585869    0.70809079655    0.70828053387  )
        86           O   tau(  86) = (    0.87380525893    0.88002285800    0.87437670399  )
        87           Ca  tau(  87) = (    0.88345299684    0.87612278204    0.70108403853  )
        88           O   tau(  88) = (    1.05154921709    1.05329460964    0.87425840346  )
        89           Ca  tau(  89) = (    0.53328017369    0.35065136387    0.88286933058  )
        90           O   tau(  90) = (    0.71030047806    0.53043861259    1.05637753408  )
        91           Ca  tau(  91) = (    0.71003313292    0.52435644527    0.88769516997  )
        92           O   tau(  92) = (    0.88484566272    0.69512932462    1.06254804535  )
        93           Ca  tau(  93) = (    0.87823330274    0.70275594787    0.87439565539  )
        94           O   tau(  94) = (    1.06196143098    0.87155182293    1.05434759387  )
        95           Ca  tau(  95) = (    1.05945481943    0.87346117263    0.88123798944  )
        96           O   tau(  96) = (    1.23433581695    1.05832061105    1.05304032134  )
        97           Ca  tau(  97) = (    0.00811434800    0.52815393613    0.53479603955  )
        98           O   tau(  98) = (    0.17553769064    0.71273880393    0.71372218225  )
        99           Ca  tau(  99) = (    0.17084844625    0.70659648755    0.52895687382  )
       100           O   tau( 100) = (    0.35758715285    0.88515151352    0.70052424682  )
       101           Ca  tau( 101) = (    0.35506832201    0.88171851343    0.53489864730  )
       102           O   tau( 102) = (    0.52647555364    1.05922946652    0.71108365415  )
       103           Ca  tau( 103) = (    0.53410267382    1.05481345100    0.52694750208  )
       104           O   tau( 104) = (    0.70635499959    1.22930804531    0.70304973548  )
       105           Ca  tau( 105) = (    0.18372508415    0.52360052064    0.71162353939  )
       106           O   tau( 106) = (    0.34728048125    0.70957541859    0.87451026824  )
       107           Ca  tau( 107) = (    0.34584342789    0.70114451546    0.70298971584  )
       108           O   tau( 108) = (    0.52423511922    0.88346479651    0.87562998619  )
       109           Ca  tau( 109) = (    0.53451126148    0.87671651376    0.70033488095  )
       110           O   tau( 110) = (    0.71082035142    1.05484513003    0.88348107867  )
       111           Ca  tau( 111) = (    0.70765435897    1.05664280855    0.69635990056  )
       112           O   tau( 112) = (    0.87673405608    1.23342515047    0.87383182486  )
       113           Ca  tau( 113) = (    0.35445742891    0.52585939552    0.88019842790  )
       114           O   tau( 114) = (    0.52989271358    0.70952761069    1.06278736853  )
       115           Ca  tau( 115) = (    0.53654655976    0.71040827315    0.88322344871  )
       116           O   tau( 116) = (    0.70477935900    0.87731106098    1.06115563171  )
       117           Ca  tau( 117) = (    0.70525495278    0.87997719923    0.87720087124  )
       118           O   tau( 118) = (    0.88784986360    1.05333481526    1.05680584878  )
       119           Ca  tau( 119) = (    0.88276655993    1.04920215580    0.87745863706  )
       120           O   tau( 120) = (    1.05776981699    1.22510638996    1.05684823506  )
       121           Ca  tau( 121) = (    0.52981563032    0.53021259314    1.05265844297  )
       122           O   tau( 122) = (    0.71471117549    0.71113268945    1.24088499805  )
       123           Ca  tau( 123) = (    0.70491750998    0.69651697519    1.06293994685  )
       124           O   tau( 124) = (    0.87899930682    0.88685669621    1.23135326743  )
       125           Ca  tau( 125) = (    0.87752126075    0.88277379270    1.05012214914  )
       126           O   tau( 126) = (    1.06508150321    1.05237332721    1.22869107816  )
       127           Ca  tau( 127) = (    1.05188349743    1.06068235423    1.06297100612  )
       128           O   tau( 128) = (    1.23685673454    1.22089423896    1.23524331966  )

   Crystallographic axes

     site n.     atom                  positions (cryst. coord.)
         1           Ca  tau(   1) = (    0.00020253200   -0.00446400963   -0.00171189671  )
         2           O   tau(   2) = (    0.12418507539    0.12225430296    0.13537493608  )
         3           Ca  tau(   3) = (   -0.00490236744    0.01285450700    0.24771212539  )
         4           O   tau(   4) = (    0.11378457436    0.12761089957    0.37744665197  )
         5           Ca  tau(   5) = (   -0.00115450417    0.01049217463    0.49694399358  )
         6           O   tau(   6) = (    0.11641060061    0.12429993163    0.63169914967  )
         7           Ca  tau(   7) = (    0.00173743321   -0.00885593657    0.75917177906  )
         8           O   tau(   8) = (    0.13159921141    0.12700852216    0.87928730087  )
         9           Ca  tau(   9) = (   -0.00564810306    0.24955276202    0.00602451974  )
        10           O   tau(  10) = (    0.11352865289    0.37628100016    0.13244449717  )
        11           Ca  tau(  11) = (   -0.00039642085    0.25260333388    0.24972312477  )
        12           O   tau(  12) = (    0.12785782873    0.37144179128    0.36921243118  )
        13           Ca  tau(  13) = (   -0.00757835723    0.24872307419    0.50053836723  )
        14           O   tau(  14) = (    0.12391709517    0.38549917397    0.62191806604  )
        15           Ca  tau(  15) = (    0.00021254141    0.24815076747    0.75041855965  )
        16           O   tau(  16) = (    0.12376459924    0.38168767601    0.86997454315  )
        17           Ca  tau(  17) = (    0.00409095171    0.50272222564   -0.00460669065  )
        18           O   tau(  18) = (    0.12292195707    0.62290475739    0.11810480278  )
        19           Ca  tau(  19) = (    0.00132212175    0.50614005708    0.24744863201  )
        20           O   tau(  20) = (    0.13004901115    0.61342044489    0.38070917822  )
        21           Ca  tau(  21) = (    0.00482568054    0.50361091686    0.49104188616  )
        22           O   tau(  22) = (    0.13456532899    0.62481859562    0.62522981519  )
        23           Ca  tau(  23) = (   -0.00657284838    0.49845094102    0.75281137855  )
        24           O   tau(  24) = (    0.12290142551    0.63328297389    0.87441924625  )
        25           Ca  tau(  25) = (    0.00694668835    0.74807701859   -0.00066273150  )
        26           O   tau(  26) = (    0.11613644447    0.87348128775    0.12634220589  )
        27           Ca  tau(  27) = (    0.00165369718    0.75897864702    0.24779362263  )
        28           O   tau(  28) = (    0.12181850061    0.88227794498    0.36900548861  )
        29           Ca  tau(  29) = (    0.00107177254    0.74824895785    0.50581146986  )
        30           O   tau(  30) = (    0.11916487933    0.87875844955    0.62696733773  )
        31           Ca  tau(  31) = (    0.00456728289    0.73733567366    0.75551490462  )
        32           O   tau(  32) = (    0.12134876765    0.88067192663    0.87061660418  )
        33           Ca  tau(  33) = (    0.25051799757    0.00003404831    0.00571841731  )
        34           O   tau(  34) = (    0.37080284219    0.13519240534    0.11945467623  )
        35           Ca  tau(  35) = (    0.23914402446    0.00017896313    0.25638582939  )
        36           O   tau(  36) = (    0.37813176710    0.11166682365    0.37784441626  )
        37           Ca  tau(  37) = (    0.25142440255   -0.00271985112    0.49509318178  )
        38           O   tau(  38) = (    0.35928293769    0.13053321568    0.63016105082  )
        39           Ca  tau(  39) = (    0.25451853523    0.00440508423    0.74129861232  )
        40           O   tau(  40) = (    0.37758664905    0.11840887269    0.87942969358  )
        41           Ca  tau(  41) = (    0.25240443114    0.24877485900   -0.00927524332  )
        42           O   tau(  42) = (    0.37153958596    0.38953707165    0.11966443916  )
        43           Ca  tau(  43) = (    0.25092236136    0.24708168875    0.26012076385  )
        44           O   tau(  44) = (    0.36793103007    0.38134389908    0.37549359122  )
        45           Ca  tau(  45) = (    0.24824438391    0.24991561723    0.50293630693  )
        46           O   tau(  46) = (    0.38205130454    0.36957432238    0.62078985530  )
        47           Ca  tau(  47) = (    0.24378819102    0.25278609480    0.75765406116  )
        48           O   tau(  48) = (    0.37664503810    0.36605276043    0.87823844979  )
        49           Ca  tau(  49) = (    0.26103782800    0.49936535886   -0.00798157562  )
        50           O   tau(  50) = (    0.37731129867    0.62528068316    0.12331448748  )
        51           Ca  tau(  51) = (    0.25193698175    0.49519430353    0.25177106390  )
        52           O   tau(  52) = (    0.38011556622    0.62975056851    0.37371340575  )
        53           Ca  tau(  53) = (    0.25199260786    0.49898390386    0.50601214514  )
        54           O   tau(  54) = (    0.36821888619    0.63132565354    0.62432764446  )
        55           Ca  tau(  55) = (    0.24876194125    0.49343146598    0.74940115091  )
        56           O   tau(  56) = (    0.36992494727    0.62599465621    0.87909162825  )
        57           Ca  tau(  57) = (    0.25348105859    0.73803071547    0.00136364756  )
        58           O   tau(  58) = (    0.37181629036    0.86813473126    0.12725305049  )
        59           Ca  tau(  59) = (    0.24987157530    0.74395630145    0.24853495182  )
        60           O   tau(  60) = (    0.37979888858    0.86404074569    0.37528119111  )
        61           Ca  tau(  61) = (    0.24585644351    0.74352818420    0.50373070650  )
        62           O   tau(  62) = (    0.37194440510    0.88769061870    0.62093963503  )
        63           Ca  tau(  63) = (    0.24554441067    0.74394998962    0.75962062066  )
        64           O   tau(  64) = (    0.37522680735    0.88339191503    0.87239267403  )
        65           Ca  tau(  65) = (    0.50512692672    0.00175805822   -0.00348943201  )
        66           O   tau(  66) = (    0.62722182783    0.12536700254    0.12590963801  )
        67           Ca  tau(  67) = (    0.50247629504    0.00127754348    0.25049109189  )
        68           O   tau(  68) = (    0.61993329610    0.12157920468    0.37843247543  )
        69           Ca  tau(  69) = (    0.50662931302   -0.00025821298    0.50082386503  )
        70           O   tau(  70) = (    0.61089100038    0.13076007350    0.62872191541  )
        71           Ca  tau(  71) = (    0.49646697444   -0.00462417327    0.76371254220  )
        72           O   tau(  72) = (    0.62585452022    0.12544311649    0.86782401650  )
        73           Ca  tau(  73) = (    0.50032361233    0.23990767390    0.00003929438  )
        74           O   tau(  74) = (    0.61737587848    0.37798209087    0.12412519969  )
        75           Ca  tau(  75) = (    0.50420487734    0.25510606031    0.25468704508  )
        76           O   tau(  76) = (    0.61356174880    0.38148936505    0.37562319789  )
        77           Ca  tau(  77) = (    0.50762137727    0.24293179142    0.49665827549  )
        78           O   tau(  78) = (    0.62775003278    0.38189436024    0.61777364845  )
        79           Ca  tau(  79) = (    0.50997722291    0.24791799815    0.74595823122  )
        80           O   tau(  80) = (    0.62341344552    0.37055401483    0.88750356691  )
        81           Ca  tau(  81) = (    0.50058016831    0.50561205911   -0.00973938182  )
        82           O   tau(  82) = (    0.62732871041    0.63104324962    0.11948504015  )
        83           Ca  tau(  83) = (    0.50104894499    0.49584675966    0.24791000209  )
        84           O   tau(  84) = (    0.61672394774    0.62422458592    0.37236400483  )
        85           Ca  tau(  85) = (    0.50759710068    0.49862714356    0.50118766219  )
        86           O   tau(  86) = (    0.62784241968    0.61437281760    0.62591982589  )
        87           Ca  tau(  87) = (    0.49589704599    0.50119246714    0.75397287647  )
        88           O   tau(  88) = (    0.62577107611    0.61731803985    0.87645035455  )
        89           Ca  tau(  89) = (    0.49772250906    0.75445731747   -0.00079890642  )
        90           O   tau(  90) = (    0.62342012944    0.87528217149    0.12967364120  )
        91           Ca  tau(  91) = (    0.50014647539    0.75989690540    0.24579721383  )
        92           O   tau(  92) = (    0.62195473009    0.88649871353    0.36730169150  )
        93           Ca  tau(  93) = (    0.49910015216    0.74311621536    0.50260378346  )
        94           O   tau(  94) = (    0.61684881144    0.88104108709    0.62541261858  )
        95           Ca  tau(  95) = (    0.49768460644    0.75527238479    0.74880612381  )
        96           O   tau(  96) = (    0.62727453860    0.86978092301    0.88259077210  )
        97           Ca  tau(  97) = (    0.74641532467    0.01042188235    0.00005194468  )
        98           O   tau(  98) = (    0.88607898693    0.12489392289    0.12322366549  )
        99           Ca  tau(  99) = (    0.75450719060   -0.00497241728    0.24765260725  )
       100           O   tau( 100) = (    0.87113673506    0.12222846923    0.38556912276  )
       101           Ca  tau( 101) = (    0.75348085619    0.00553839655    0.49978959467  )
       102           O   tau( 102) = (    0.88339703315    0.12589992328    0.62271824267  )
       103           Ca  tau( 103) = (    0.74484533813    0.00397285541    0.75671737360  )
       104           O   tau( 104) = (    0.87197167586    0.12701097056    0.87815639515  )
       105           Ca  tau( 105) = (    0.74478690707    0.26320871786   -0.00436418331  )
       106           O   tau( 106) = (    0.87682210259    0.36259510060    0.12851161669  )
       107           Ca  tau( 107) = (    0.75070019589    0.24603535701    0.24415499493  )
       108           O   tau( 108) = (    0.87661723677    0.36542119257    0.37803400310  )
       109           Ca  tau( 109) = (    0.74079738401    0.25328492060    0.50593584117  )
       110           O   tau( 110) = (    0.87262663178    0.38160976290    0.62782385064  )
       111           Ca  tau( 111) = (    0.74394905335    0.24552682466    0.76068922355  )
       112           O   tau( 112) = (    0.87589209109    0.36566905395    0.88051671456  )
       113           Ca  tau( 113) = (    0.74558307433    0.50186969395   -0.00149868392  )
       114           O   tau( 114) = (    0.88155869804    0.62525643825    0.12411633857  )
       115           Ca  tau( 115) = (    0.75067430073    0.50212704627    0.25792923655  )
       116           O   tau( 116) = (    0.87653448119    0.62899578220    0.36977511754  )
       117           Ca  tau( 117) = (    0.74815216211    0.49711807600    0.50359375613  )
       118           O   tau( 118) = (    0.86968478344    0.63076306970    0.62909647158  )
       119           Ca  tau( 119) = (    0.74364123912    0.50303249778    0.75080251182  )
       120           O   tau( 120) = (    0.87215722721    0.62934775557    0.87285881731  )
       121           Ca  tau( 121) = (    0.74735995406    0.74507313664    0.00338289309  )
       122           O   tau( 122) = (    0.87872739495    0.88109630737    0.12975560820  )
       123           Ca  tau( 123) = (    0.74955127679    0.75845284944    0.23961891201  )
       124           O   tau( 124) = (    0.88119292252    0.86611192038    0.37916696075  )
       125           Ca  tau( 125) = (    0.75132250667    0.73956296068    0.50482862329  )
       126           O   tau( 126) = (    0.86597318645    0.87865071383    0.63193451853  )
       127           Ca  tau( 127) = (    0.76407166611    0.74601635816    0.74697892408  )
       128           O   tau( 128) = (    0.86943718210    0.88546357133    0.87004542144  )

     number of k points=     8  gaussian smearing, width (Ry)=  0.0050
                       cart. coord. in units 2pi/alat
        k(    1) = (   0.0000000   0.0000000   0.0000000), wk =   0.2500000
        k(    2) = (  -0.3567880  -0.3567001   0.3576348), wk =   0.2500000
        k(    3) = (  -0.3538644   0.3542571  -0.3542319), wk =   0.2500000
        k(    4) = (  -0.7106524  -0.0024430   0.0034029), wk =   0.2500000
        k(    5) = (   0.3510739  -0.3543992  -0.3531796), wk =   0.2500000
        k(    6) = (  -0.0057141  -0.7110993   0.0044552), wk =   0.2500000
        k(    7) = (  -0.0027905  -0.0001421  -0.7074115), wk =   0.2500000
        k(    8) = (  -0.3595785  -0.3568422  -0.3497767), wk =   0.2500000

                       cryst. coord.
        k(    1) = (   0.0000000   0.0000000   0.0000000), wk =   0.2500000
        k(    2) = (  -0.0000000  -0.0000000  -0.5000000), wk =   0.2500000
        k(    3) = (   0.0000000  -0.5000000  -0.0000000), wk =   0.2500000
        k(    4) = (  -0.0000000  -0.5000000  -0.5000000), wk =   0.2500000
        k(    5) = (  -0.5000000   0.0000000  -0.0000000), wk =   0.2500000
        k(    6) = (  -0.5000000  -0.0000000  -0.5000000), wk =   0.2500000
        k(    7) = (  -0.5000000  -0.5000000  -0.0000000), wk =   0.2500000
        k(    8) = (  -0.5000000  -0.5000000  -0.5000000), wk =   0.2500000

     Dense  grid:   559121 G-vectors     FFT dimensions: ( 120, 120, 120)

     Smooth grid:   400037 G-vectors     FFT dimensions: ( 108, 108, 108)

     Largest allocated arrays     est. size (Mb)     dimensions
        Kohn-Sham Wavefunctions        58.72 Mb     (    6268,  614)
        NL pseudopotentials           189.75 Mb     (    6268, 1984)
        Each V/rho on FFT grid          3.30 Mb     (  216000)
        Each G-vector array             0.53 Mb     (   69891)
        G-vector shells                 0.53 Mb     (   69273)
     Largest temporary arrays     est. size (Mb)     dimensions
        Auxiliary wavefunctions       234.90 Mb     (    6268, 2456)
        Each subspace H/S matrix       92.04 Mb     (    2456, 2456)
        Each <psi_i|beta_j> matrix     18.59 Mb     (    1984,  614)
        Arrays for rho mixing          26.37 Mb     (  216000,    8)

     Check: negative/imaginary core charge=   -0.000003    0.000000

     Initial potential from superposition of free atoms

     starting charge 1023.66864, renormalised to 1024.00000
     Starting wfc are  896 randomized atomic wfcs

     total cpu time spent up to now is     1177.1 secs

     Self-consistent Calculation

     iteration #  1     ecut=    40.00 Ry     beta=0.30
     Davidson diagonalization with overlap
     ethr =  1.00E-02,  avg # of iterations =  2.0

     total cpu time spent up to now is     3222.2 secs

     total energy              =   -6872.69500520 Ry
     Harris-Foulkes estimate   =   -6878.53572372 Ry
     estimated scf accuracy    <      29.63568624 Ry

     iteration #  2     ecut=    40.00 Ry     beta=0.30
     Davidson diagonalization with overlap
     ethr =  2.89E-03,  avg # of iterations =  1.0

     total cpu time spent up to now is     4919.0 secs

     total energy              =   -6869.37720985 Ry
     Harris-Foulkes estimate   =   -6873.71341936 Ry
     estimated scf accuracy    <      11.26865376 Ry

     iteration #  3     ecut=    40.00 Ry     beta=0.30
     Davidson diagonalization with overlap
     ethr =  1.10E-03,  avg # of iterations =  2.0

     total cpu time spent up to now is     6961.9 secs

     total energy              =   -6871.35257673 Ry
     Harris-Foulkes estimate   =   -6871.57149821 Ry
     estimated scf accuracy    <       0.80662974 Ry

     iteration #  4     ecut=    40.00 Ry     beta=0.30
     Davidson diagonalization with overlap
     ethr =  7.88E-05,  avg # of iterations =  8.4

     total cpu time spent up to now is    10250.0 secs

     total energy              =   -6871.34227801 Ry
     Harris-Foulkes estimate   =   -6871.57195647 Ry
     estimated scf accuracy    <       0.72394837 Ry

     iteration #  5     ecut=    40.00 Ry     beta=0.30
     Davidson diagonalization with overlap
     ethr =  7.07E-05,  avg # of iterations =  5.6

     total cpu time spent up to now is    12629.2 secs

     total energy              =   -6871.42916476 Ry
     Harris-Foulkes estimate   =   -6871.43105968 Ry
     estimated scf accuracy    <       0.01663747 Ry

     iteration #  6     ecut=    40.00 Ry     beta=0.30
     Davidson diagonalization with overlap
     ethr =  1.62E-06,  avg # of iterations = 13.9

     total cpu time spent up to now is    18096.9 secs

     total energy              =   -6871.42886263 Ry
     Harris-Foulkes estimate   =   -6871.43081248 Ry
     estimated scf accuracy    <       0.01145791 Ry

     iteration #  7     ecut=    40.00 Ry     beta=0.30
     Davidson diagonalization with overlap
     ethr =  1.12E-06,  avg # of iterations =  2.3

     total cpu time spent up to now is    19837.7 secs

     total energy              =   -6871.42664121 Ry
     Harris-Foulkes estimate   =   -6871.42928739 Ry
     estimated scf accuracy    <       0.00608826 Ry

     iteration #  8     ecut=    40.00 Ry     beta=0.30
     Davidson diagonalization with overlap
     ethr =  5.95E-07,  avg # of iterations =  9.0

     total cpu time spent up to now is    23484.5 secs

     total energy              =   -6871.42777024 Ry
     Harris-Foulkes estimate   =   -6871.42781015 Ry
     estimated scf accuracy    <       0.00180298 Ry

     iteration #  9     ecut=    40.00 Ry     beta=0.30
     Davidson diagonalization with overlap
     ethr =  1.76E-07,  avg # of iterations =  2.0

     total cpu time spent up to now is    25520.3 secs

     total energy              =   -6871.42743691 Ry
     Harris-Foulkes estimate   =   -6871.42793913 Ry
     estimated scf accuracy    <       0.00121280 Ry

     iteration # 10     ecut=    40.00 Ry     beta=0.30
     Davidson diagonalization with overlap
     ethr =  1.18E-07,  avg # of iterations =  2.0

     total cpu time spent up to now is    27289.1 secs

     total energy              =   -6871.42754980 Ry
     Harris-Foulkes estimate   =   -6871.42770739 Ry
     estimated scf accuracy    <       0.00044990 Ry

     iteration # 11     ecut=    40.00 Ry     beta=0.30
     Davidson diagonalization with overlap
     ethr =  4.39E-08,  avg # of iterations =  2.0

     total cpu time spent up to now is    29135.7 secs

     total energy              =   -6871.42758839 Ry
     Harris-Foulkes estimate   =   -6871.42765700 Ry
     estimated scf accuracy    <       0.00019565 Ry

     iteration # 12     ecut=    40.00 Ry     beta=0.30
     Davidson diagonalization with overlap
     ethr =  1.91E-08,  avg # of iterations =  2.0

     total cpu time spent up to now is    30907.1 secs

     total energy              =   -6871.42761589 Ry
     Harris-Foulkes estimate   =   -6871.42761820 Ry
     estimated scf accuracy    <       0.00001922 Ry

     iteration # 13     ecut=    40.00 Ry     beta=0.30
     Davidson diagonalization with overlap
     ethr =  1.88E-09,  avg # of iterations =  2.0

     total cpu time spent up to now is    32689.3 secs

     total energy              =   -6871.42761429 Ry
     Harris-Foulkes estimate   =   -6871.42761781 Ry
     estimated scf accuracy    <       0.00001045 Ry

     iteration # 14     ecut=    40.00 Ry     beta=0.30
     Davidson diagonalization with overlap
     ethr =  1.02E-09,  avg # of iterations =  2.0

     total cpu time spent up to now is    34452.8 secs

     total energy              =   -6871.42761467 Ry
     Harris-Foulkes estimate   =   -6871.42761543 Ry
     estimated scf accuracy    <       0.00000279 Ry

     iteration # 15     ecut=    40.00 Ry     beta=0.30
     Davidson diagonalization with overlap
     ethr =  2.73E-10,  avg # of iterations =  2.0

     total cpu time spent up to now is    36218.5 secs

     total energy              =   -6871.42761492 Ry
     Harris-Foulkes estimate   =   -6871.42761495 Ry
     estimated scf accuracy    <       0.00000076 Ry

     iteration # 16     ecut=    40.00 Ry     beta=0.30
     Davidson diagonalization with overlap
     ethr =  7.44E-11,  avg # of iterations =  1.0

     total cpu time spent up to now is    37718.5 secs

     total energy              =   -6871.42761476 Ry
     Harris-Foulkes estimate   =   -6871.42761493 Ry
     estimated scf accuracy    <       0.00000057 Ry

     iteration # 17     ecut=    40.00 Ry     beta=0.30
     Davidson diagonalization with overlap
     ethr =  5.56E-11,  avg # of iterations =  2.0

     total cpu time spent up to now is    39637.7 secs

     total energy              =   -6871.42761482 Ry
     Harris-Foulkes estimate   =   -6871.42761483 Ry
     estimated scf accuracy    <       0.00000014 Ry

     iteration # 18     ecut=    40.00 Ry     beta=0.30
     Davidson diagonalization with overlap
     ethr =  1.39E-11,  avg # of iterations =  2.0

     total cpu time spent up to now is    41087.1 secs

     total energy              =   -6871.42761481 Ry
     Harris-Foulkes estimate   =   -6871.42761483 Ry
     estimated scf accuracy    <       0.00000008 Ry

     iteration # 19     ecut=    40.00 Ry     beta=0.30
     Davidson diagonalization with overlap
     ethr =  8.19E-12,  avg # of iterations =  2.0

     total cpu time spent up to now is    42220.8 secs

     total energy              =   -6871.42761480 Ry
     Harris-Foulkes estimate   =   -6871.42761482 Ry
     estimated scf accuracy    <       0.00000004 Ry

     iteration # 20     ecut=    40.00 Ry     beta=0.30
     Davidson diagonalization with overlap
     ethr =  3.45E-12,  avg # of iterations =  2.0

     total cpu time spent up to now is    43357.5 secs

     total energy              =   -6871.42761481 Ry
     Harris-Foulkes estimate   =   -6871.42761481 Ry
     estimated scf accuracy    <          9.2E-09 Ry

     iteration # 21     ecut=    40.00 Ry     beta=0.30
     Davidson diagonalization with overlap
     ethr =  9.00E-13,  avg # of iterations =  2.0

     total cpu time spent up to now is    44384.4 secs

     total energy              =   -6871.42761481 Ry
     Harris-Foulkes estimate   =   -6871.42761481 Ry
     estimated scf accuracy    <          2.8E-09 Ry

     iteration # 22     ecut=    40.00 Ry     beta=0.30
     Davidson diagonalization with overlap
     ethr =  2.77E-13,  avg # of iterations =  2.0

     total cpu time spent up to now is    45530.0 secs

     total energy              =   -6871.42761481 Ry
     Harris-Foulkes estimate   =   -6871.42761481 Ry
     estimated scf accuracy    <          9.6E-10 Ry

     iteration # 23     ecut=    40.00 Ry     beta=0.30
     Davidson diagonalization with overlap
     ethr =  1.00E-13,  avg # of iterations =  2.0

     total cpu time spent up to now is    46673.5 secs

     total energy              =   -6871.42761481 Ry
     Harris-Foulkes estimate   =   -6871.42761481 Ry
     estimated scf accuracy    <          4.5E-10 Ry

     iteration # 24     ecut=    40.00 Ry     beta=0.30
     Davidson diagonalization with overlap
     ethr =  1.00E-13,  avg # of iterations =  1.8

     total cpu time spent up to now is    47664.0 secs

     total energy              =   -6871.42761481 Ry
     Harris-Foulkes estimate   =   -6871.42761481 Ry
     estimated scf accuracy    <          1.0E-10 Ry

     iteration # 25     ecut=    40.00 Ry     beta=0.30
     Davidson diagonalization with overlap
     ethr =  1.00E-13,  avg # of iterations =  1.0

     total cpu time spent up to now is    48602.6 secs

     End of self-consistent calculation

          k = 0.0000 0.0000 0.0000 ( 50049 PWs)   bands (ev):

   -30.1034 -29.8045 -29.7737 -29.7093 -29.6639 -29.6488 -29.6238 -29.6214
   -29.6185 -29.5958 -29.5891 -29.5862 -29.5667 -29.5583 -29.5530 -29.5507
   -29.5453 -29.5242 -29.5054 -29.4866 -29.4682 -29.4417 -29.4257 -29.4193
   -29.3996 -29.3654 -29.3390 -29.3211 -29.3171 -29.2985 -29.2586 -29.2561
   -29.2511 -29.2372 -29.2080 -29.2028 -29.1901 -29.1789 -29.1725 -29.1679
   -29.1536 -29.1421 -29.1318 -29.1250 -29.1239 -29.1009 -29.0732 -29.0709
   -29.0495 -29.0421 -29.0259 -29.0209 -28.9861 -28.9856 -28.9744 -28.9520
   -28.8823 -28.8633 -28.7925 -28.7886 -28.7233 -28.7054 -28.6492 -28.6317
   -11.7958 -11.7598 -11.7260 -11.6620 -11.5393 -11.5172 -11.4959 -11.4814
   -11.4511 -11.3988 -11.3879 -11.3785 -11.3650 -11.3513 -11.3393 -11.3340
   -11.3284 -11.2961 -11.2867 -11.2766 -11.2703 -11.2621 -11.2294 -11.2214
   -11.1994 -11.1876 -11.1811 -11.1805 -11.1700 -11.1640 -11.1494 -11.1471
   -11.1321 -11.1184 -11.1002 -11.0987 -11.0864 -11.0732 -11.0611 -11.0474
   -11.0444 -11.0318 -11.0189 -11.0095 -11.0008 -10.9861 -10.9810 -10.9749
   -10.9571 -10.9506 -10.9360 -10.9166 -10.9125 -10.9054 -10.9010 -10.8972
   -10.8755 -10.8628 -10.8575 -10.8495 -10.8430 -10.8308 -10.8161 -10.8077
   -10.8024 -10.7910 -10.7845 -10.7747 -10.7697 -10.7594 -10.7568 -10.7468
   -10.7370 -10.7356 -10.7309 -10.7226 -10.7143 -10.7099 -10.6991 -10.6926
   -10.6828 -10.6764 -10.6743 -10.6683 -10.6656 -10.6600 -10.6466 -10.6389
   -10.6298 -10.6269 -10.6232 -10.6116 -10.6048 -10.6040 -10.5934 -10.5849
   -10.5745 -10.5694 -10.5624 -10.5594 -10.5477 -10.5445 -10.5358 -10.5299
   -10.5272 -10.5221 -10.5176 -10.5091 -10.4974 -10.4953 -10.4911 -10.4878
   -10.4730 -10.4639 -10.4620 -10.4566 -10.4480 -10.4423 -10.4365 -10.4336
   -10.4242 -10.4110 -10.4068 -10.4005 -10.3962 -10.3850 -10.3821 -10.3747
   -10.3685 -10.3632 -10.3590 -10.3522 -10.3484 -10.3439 -10.3364 -10.3324
   -10.3285 -10.3244 -10.3159 -10.3107 -10.3098 -10.3068 -10.2939 -10.2889
   -10.2866 -10.2810 -10.2744 -10.2646 -10.2630 -10.2605 -10.2579 -10.2467
   -10.2435 -10.2319 -10.2255 -10.2127 -10.2108 -10.2049 -10.1948 -10.1867
   -10.1757 -10.1686 -10.1618 -10.1498 -10.1467 -10.1441 -10.1366 -10.1308
   -10.1177 -10.1141 -10.1001 -10.0972 -10.0910 -10.0756 -10.0725 -10.0571
   -10.0208 -10.0085 -10.0045  -9.9930  -9.9780  -9.9632  -9.9478  -9.9210
    -9.9153  -9.9048  -9.8986  -9.8946  -9.8790  -9.8703  -9.8412  -9.8166
    -7.6050  -7.4276  -7.3909  -7.3393  -7.2051  -7.2014  -7.1577  -7.1503
    -7.0668  -7.0174  -7.0003  -6.9872  -6.9797  -6.9554  -6.9485  -6.9367
    -6.9267  -6.8939  -6.8467  -6.8374  -6.8116  -6.7889  -6.7790  -6.7651
    -6.7526  -6.7415  -6.7370  -6.7342  -6.7222  -6.7137  -6.6969  -6.6805
    -6.6693  -6.6652  -6.6452  -6.6394  -6.6196  -6.6043  -6.5864  -6.5684
    -6.5641  -6.5518  -6.5459  -6.5296  -6.5198  -6.5052  -6.4893  -6.4570
    -6.4265  -6.4181  -6.4068  -6.3995  -6.3816  -6.3727  -6.3657  -6.3267
    -6.2949  -6.2814  -6.2574  -6.1672  -6.0968  -6.0710  -6.0567  -5.9911
     5.0603   5.0688   5.0850   5.0894   5.4768   5.4842   5.5004   5.5634
     5.5823   5.6069   5.6233   5.6635   5.6837   5.6992   5.7236   5.7370
     5.8212   5.8325   5.8598   5.8700   5.8836   5.8905   5.8917   5.9086
     5.9296   5.9428   5.9586   5.9768   5.9993   6.0110   6.0167   6.0261
     6.0348   6.0475   6.0662   6.0750   6.0776   6.0925   6.1063   6.1187
     6.1221   6.1442   6.1557   6.1743   6.1850   6.2007   6.2174   6.2265
     6.2569   6.2652   6.2866   6.3065   6.3111   6.3191   6.3557   6.3635
     6.3678   6.3808   6.3859   6.4040   6.4222   6.4303   6.4348   6.4553
     6.4766   6.4938   6.4953   6.4997   6.5141   6.5250   6.5330   6.5477
     6.5613   6.5743   6.5898   6.5962   6.6182   6.6222   6.6291   6.6411
     6.6526   6.6609   6.6676   6.6776   6.6928   6.7036   6.7067   6.7256
     6.7322   6.7348   6.7420   6.7558   6.7633   6.7734   6.7843   6.7880
     6.7904   6.7950   6.8060   6.8078   6.8180   6.8251   6.8322   6.8353
     6.8440   6.8532   6.8659   6.8712   6.8770   6.8839   6.8915   6.8937
     6.9076   6.9127   6.9144   6.9227   6.9300   6.9395   6.9458   6.9564
     6.9609   6.9688   6.9770   6.9823   6.9913   7.0023   7.0099   7.0141
     7.0304   7.0324   7.0410   7.0449   7.0590   7.0691   7.0719   7.0870
     7.1026   7.1091   7.1188   7.1328   7.1477   7.1492   7.1568   7.1621
     7.1695   7.1782   7.1894   7.1929   7.2076   7.2159   7.2237   7.2314
     7.2454   7.2496   7.2707   7.2746   7.2921   7.2937   7.3074   7.3212
     7.3305   7.3429   7.3499   7.3593   7.3755   7.3893   7.3948   7.4089
     7.4542   7.4753   7.4883   7.5567   7.5740   7.5911   7.6038   7.6181
     7.6239   7.6322   7.6613   7.6716   7.6830   7.7105   7.7152   7.7410
     7.7445   7.7691   7.7886   7.8107   7.8328   7.9942   8.0221   8.0293
    11.4215  11.4379  11.4459  12.4002  12.4104  12.4378  12.4639  12.4675
    12.5627  12.5794  12.8566  12.8987  12.9226  12.9686  13.0152  13.0334
    13.0497  13.0646  13.0768  13.1283  13.1430  13.1714  13.1760  13.2205
    13.2257  13.2511  13.2626  13.2905  13.3306  13.3439  13.3854  13.4068
    13.4605  13.5168  13.8704  13.8786  13.9082  13.9350  13.9602  13.9893
    14.0025  14.0249  14.0323  14.0556  14.0893  14.0993  14.1237  14.1338
    14.1679  14.1726  14.1952  14.2172  14.2357  14.2636  14.2743  14.2962
    14.3046  14.3366  14.3445  14.3635  14.3665  14.3843  14.4027  14.4339
    14.4518  14.4645  14.4794  14.4885  14.5091  14.5329  14.5609  14.5729
    14.5876  14.6070  14.6722  14.7028  14.7083  14.7316  14.7763  14.8195
    14.8243  14.8531  14.8953  14.9141  14.9461  14.9759  14.9823  14.9869
    15.0104  15.0226  15.0362  15.0493  15.0612  15.0888  15.1066  15.1309
    15.1447  15.1565  15.1641  15.1824  15.1957  15.2139

     occupation numbers 
     1.0000   1.0000   1.0000   1.0000   1.0000   1.0000   1.0000   1.0000
     1.0000   1.0000   1.0000   1.0000   1.0000   1.0000   1.0000   1.0000
     1.0000   1.0000   1.0000   1.0000   1.0000   1.0000   1.0000   1.0000
     1.0000   1.0000   1.0000   1.0000   1.0000   1.0000   1.0000   1.0000
     1.0000   1.0000   1.0000   1.0000   1.0000   1.0000   1.0000   1.0000
     1.0000   1.0000   1.0000   1.0000   1.0000   1.0000   1.0000   1.0000
     1.0000   1.0000   1.0000   1.0000   1.0000   1.0000   1.0000   1.0000
     1.0000   1.0000   1.0000   1.0000   1.0000   1.0000   1.0000   1.0000
     1.0000   1.0000   1.0000   1.0000   1.0000   1.0000   1.0000   1.0000
     1.0000   1.0000   1.0000   1.0000   1.0000   1.0000   1.0000   1.0000
     1.0000   1.0000   1.0000   1.0000   1.0000   1.0000   1.0000   1.0000
     1.0000   1.0000   1.0000   1.0000   1.0000   1.0000   1.0000   1.0000
     1.0000   1.0000   1.0000   1.0000   1.0000   1.0000   1.0000   1.0000
     1.0000   1.0000   1.0000   1.0000   1.0000   1.0000   1.0000   1.0000
     1.0000   1.0000   1.0000   1.0000   1.0000   1.0000   1.0000   1.0000
     1.0000   1.0000   1.0000   1.0000   1.0000   1.0000   1.0000   1.0000
     1.0000   1.0000   1.0000   1.0000   1.0000   1.0000   1.0000   1.0000
     1.0000   1.0000   1.0000   1.0000   1.0000   1.0000   1.0000   1.0000
     1.0000   1.0000   1.0000   1.0000   1.0000   1.0000   1.0000   1.0000
     1.0000   1.0000   1.0000   1.0000   1.0000   1.0000   1.0000   1.0000
     1.0000   1.0000   1.0000   1.0000   1.0000   1.0000   1.0000   1.0000
     1.0000   1.0000   1.0000   1.0000   1.0000   1.0000   1.0000   1.0000
     1.0000   1.0000   1.0000   1.0000   1.0000   1.0000   1.0000   1.0000
     1.0000   1.0000   1.0000   1.0000   1.0000   1.0000   1.0000   1.0000
     1.0000   1.0000   1.0000   1.0000   1.0000   1.0000   1.0000   1.0000
     1.0000   1.0000   1.0000   1.0000   1.0000   1.0000   1.0000   1.0000
     1.0000   1.0000   1.0000   1.0000   1.0000   1.0000   1.0000   1.0000
     1.0000   1.0000   1.0000   1.0000   1.0000   1.0000   1.0000   1.0000
     1.0000   1.0000   1.0000   1.0000   1.0000   1.0000   1.0000   1.0000
     1.0000   1.0000   1.0000   1.0000   1.0000   1.0000   1.0000   1.0000
     1.0000   1.0000   1.0000   1.0000   1.0000   1.0000   1.0000   1.0000
     1.0000   1.0000   1.0000   1.0000   1.0000   1.0000   1.0000   1.0000
     1.0000   1.0000   1.0000   1.0000   1.0000   1.0000   1.0000   1.0000
     1.0000   1.0000   1.0000   1.0000   1.0000   1.0000   1.0000   1.0000
     1.0000   1.0000   1.0000   1.0000   1.0000   1.0000   1.0000   1.0000
     1.0000   1.0000   1.0000   1.0000   1.0000   1.0000   1.0000   1.0000
     1.0000   1.0000   1.0000   1.0000   1.0000   1.0000   1.0000   1.0000
     1.0000   1.0000   1.0000   1.0000   1.0000   1.0000   1.0000   1.0000
     1.0000   1.0000   1.0000   1.0000   1.0000   1.0000   1.0000   1.0000
     1.0000   1.0000   1.0000   1.0000   1.0000   1.0000   1.0000   1.0000
     1.0000   1.0000   1.0000   1.0000   1.0000   1.0000   1.0000   1.0000
     1.0000   1.0000   1.0000   1.0000   1.0000   1.0000   1.0000   1.0000
     1.0000   1.0000   1.0000   1.0000   1.0000   1.0000   1.0000   1.0000
     1.0000   1.0000   1.0000   1.0000   1.0000   1.0000   1.0000   1.0000
     1.0000   1.0000   1.0000   1.0000   1.0000   1.0000   1.0000   1.0000
     1.0000   1.0000   1.0000   1.0000   1.0000   1.0000   1.0000   1.0000
     1.0000   1.0000   1.0000   1.0000   1.0000   1.0000   1.0000   1.0000
     1.0000   1.0000   1.0000   1.0000   1.0000   1.0000   1.0000   1.0000
     1.0000   1.0000   1.0000   1.0000   1.0000   1.0000   1.0000   1.0000
     1.0000   1.0000   1.0000   1.0000   1.0000   1.0000   1.0000   1.0000
     1.0000   1.0000   1.0000   1.0000   1.0000   1.0000   1.0000   1.0000
     1.0000   1.0000   1.0000   1.0000   1.0000   1.0000   1.0000   1.0000
     1.0000   1.0000   1.0000   1.0000   1.0000   1.0000   1.0000   1.0000
     1.0000   1.0000   1.0000   1.0000   1.0000   1.0000   1.0000   1.0000
     1.0000   1.0000   1.0000   1.0000   1.0000   1.0000   1.0000   1.0000
     1.0000   1.0000   1.0000   1.0000   1.0000   1.0000   1.0000   1.0000
     1.0000   1.0000   1.0000   1.0000   1.0000   1.0000   1.0000   1.0000
     1.0000   1.0000   1.0000   1.0000   1.0000   1.0000   1.0000   1.0000
     1.0000   1.0000   1.0000   1.0000   1.0000   1.0000   1.0000   1.0000
     1.0000   1.0000   1.0000   1.0000   1.0000   1.0000   1.0000   1.0000
     1.0000   1.0000   1.0000   1.0000   1.0000   1.0000   1.0000   1.0000
     1.0000   1.0000   1.0000   1.0000   1.0000   1.0000   1.0000   1.0000
     1.0000   1.0000   1.0000   1.0000   1.0000   1.0000   1.0000   1.0000
     1.0000   1.0000   1.0000   1.0000   1.0000   1.0000   1.0000   1.0000
     0.0000   0.0000   0.0000   0.0000   0.0000   0.0000   0.0000   0.0000
     0.0000   0.0000   0.0000   0.0000   0.0000   0.0000   0.0000   0.0000
     0.0000   0.0000   0.0000   0.0000   0.0000   0.0000   0.0000   0.0000
     0.0000   0.0000   0.0000   0.0000   0.0000   0.0000   0.0000   0.0000
     0.0000   0.0000   0.0000   0.0000   0.0000   0.0000   0.0000   0.0000
     0.0000   0.0000   0.0000   0.0000   0.0000   0.0000   0.0000   0.0000
     0.0000   0.0000   0.0000   0.0000   0.0000   0.0000   0.0000   0.0000
     0.0000   0.0000   0.0000   0.0000   0.0000   0.0000   0.0000   0.0000
     0.0000   0.0000   0.0000   0.0000   0.0000   0.0000   0.0000   0.0000
     0.0000   0.0000   0.0000   0.0000   0.0000   0.0000   0.0000   0.0000
     0.0000   0.0000   0.0000   0.0000   0.0000   0.0000   0.0000   0.0000
     0.0000   0.0000   0.0000   0.0000   0.0000   0.0000   0.0000   0.0000
     0.0000   0.0000   0.0000   0.0000   0.0000   0.0000

          k =-0.3568-0.3567 0.3576 ( 49950 PWs)   bands (ev):

   -30.1034 -29.8045 -29.7737 -29.7093 -29.6639 -29.6488 -29.6237 -29.6214
   -29.6185 -29.5960 -29.5896 -29.5855 -29.5666 -29.5583 -29.5531 -29.5503
   -29.5458 -29.5241 -29.5054 -29.4866 -29.4681 -29.4418 -29.4257 -29.4193
   -29.3995 -29.3654 -29.3390 -29.3211 -29.3171 -29.2985 -29.2586 -29.2555
   -29.2516 -29.2373 -29.2081 -29.2028 -29.1890 -29.1790 -29.1753 -29.1670
   -29.1525 -29.1417 -29.1317 -29.1260 -29.1237 -29.1009 -29.0732 -29.0707
   -29.0495 -29.0422 -29.0259 -29.0209 -28.9870 -28.9847 -28.9745 -28.9520
   -28.8823 -28.8633 -28.7925 -28.7886 -28.7234 -28.7054 -28.6492 -28.6317
   -11.7838 -11.7494 -11.7118 -11.6381 -11.5323 -11.5054 -11.4822 -11.4671
   -11.4419 -11.4366 -11.4150 -11.4044 -11.3887 -11.3755 -11.3659 -11.3603
   -11.3384 -11.3200 -11.2976 -11.2808 -11.2644 -11.2490 -11.2445 -11.2216
   -11.2160 -11.1982 -11.1882 -11.1713 -11.1644 -11.1499 -11.1443 -11.1366
   -11.1204 -11.1177 -11.0990 -11.0870 -11.0752 -11.0701 -11.0662 -11.0466
   -11.0379 -11.0224 -11.0136 -10.9979 -10.9906 -10.9809 -10.9788 -10.9661
   -10.9612 -10.9535 -10.9495 -10.9482 -10.9214 -10.9055 -10.9014 -10.8880
   -10.8854 -10.8748 -10.8647 -10.8487 -10.8397 -10.8317 -10.8290 -10.8129
   -10.7973 -10.7970 -10.7810 -10.7767 -10.7606 -10.7586 -10.7548 -10.7479
   -10.7404 -10.7293 -10.7243 -10.7191 -10.7139 -10.7010 -10.6900 -10.6850
   -10.6799 -10.6768 -10.6725 -10.6617 -10.6587 -10.6524 -10.6387 -10.6341
   -10.6306 -10.6204 -10.6126 -10.6031 -10.5986 -10.5922 -10.5872 -10.5782
   -10.5756 -10.5688 -10.5596 -10.5538 -10.5484 -10.5409 -10.5296 -10.5254
   -10.5168 -10.5108 -10.5096 -10.5002 -10.4953 -10.4914 -10.4828 -10.4746
   -10.4727 -10.4661 -10.4612 -10.4521 -10.4473 -10.4391 -10.4317 -10.4260
   -10.4178 -10.4140 -10.4044 -10.4025 -10.3931 -10.3903 -10.3862 -10.3818
   -10.3756 -10.3671 -10.3626 -10.3532 -10.3489 -10.3448 -10.3391 -10.3365
   -10.3315 -10.3283 -10.3208 -10.3141 -10.3080 -10.3003 -10.2970 -10.2894
   -10.2802 -10.2784 -10.2705 -10.2644 -10.2622 -10.2533 -10.2484 -10.2454
   -10.2375 -10.2298 -10.2259 -10.2158 -10.2120 -10.2112 -10.1995 -10.1912
   -10.1731 -10.1715 -10.1622 -10.1526 -10.1464 -10.1460 -10.1351 -10.1301
   -10.1268 -10.1192 -10.1071 -10.1008 -10.0975 -10.0800 -10.0692 -10.0665
   -10.0255 -10.0119 -10.0090  -9.9974  -9.9844  -9.9633  -9.9474  -9.9305
    -9.9264  -9.9124  -9.9083  -9.8967  -9.8862  -9.8718  -9.8507  -9.8299
    -7.4727  -7.3899  -7.3359  -7.2867  -7.2441  -7.1743  -7.1529  -7.1444
    -7.1124  -7.0677  -7.0470  -7.0411  -7.0025  -6.9847  -6.9806  -6.9527
    -6.9502  -6.9333  -6.8901  -6.8631  -6.8546  -6.8220  -6.8072  -6.7855
    -6.7713  -6.7595  -6.7483  -6.7422  -6.7345  -6.7294  -6.7092  -6.7002
    -6.6683  -6.6533  -6.6316  -6.5887  -6.5792  -6.5719  -6.5558  -6.5520
    -6.5407  -6.5343  -6.5126  -6.5037  -6.4950  -6.4745  -6.4534  -6.4474
    -6.4423  -6.4247  -6.3963  -6.3803  -6.3752  -6.3663  -6.3467  -6.2542
    -6.2232  -6.2155  -6.1962  -6.1910  -6.1699  -6.1631  -6.1317  -6.0193
     5.2094   5.2115   5.2362   5.2567   5.4293   5.4479   5.4629   5.4844
     5.5041   5.5416   5.5444   5.5997   5.6346   5.6497   5.6776   5.6985
     5.7565   5.7696   5.7768   5.7878   5.8032   5.8287   5.8446   5.8600
     5.8721   5.8805   5.8873   5.9022   5.9113   5.9471   5.9642   5.9726
     5.9901   6.0112   6.0243   6.0405   6.0746   6.1145   6.1458   6.1637
     6.1902   6.2035   6.2135   6.2193   6.2310   6.2670   6.2733   6.2764
     6.2969   6.3072   6.3179   6.3246   6.3369   6.3535   6.3676   6.3786
     6.3930   6.3991   6.4035   6.4201   6.4303   6.4460   6.4508   6.4654
     6.4759   6.5040   6.5086   6.5268   6.5388   6.5440   6.5587   6.5682
     6.5701   6.5852   6.6025   6.6110   6.6237   6.6327   6.6373   6.6445
     6.6561   6.6688   6.6767   6.6817   6.6931   6.7013   6.7168   6.7190
     6.7322   6.7398   6.7487   6.7501   6.7644   6.7694   6.7784   6.7860
     6.7953   6.8043   6.8173   6.8249   6.8271   6.8300   6.8367   6.8403
     6.8439   6.8554   6.8653   6.8736   6.8786   6.8884   6.8910   6.8978
     6.9027   6.9117   6.9217   6.9305   6.9390   6.9456   6.9530   6.9589
     6.9649   6.9735   6.9863   6.9994   7.0045   7.0104   7.0213   7.0306
     7.0402   7.0491   7.0604   7.0657   7.0769   7.0906   7.0976   7.1095
     7.1233   7.1301   7.1412   7.1452   7.1586   7.1688   7.1834   7.2043
     7.2060   7.2137   7.2326   7.2414   7.2530   7.2549   7.2647   7.2844
     7.2944   7.3062   7.3117   7.3229   7.3314   7.3441   7.3467   7.3619
     7.3647   7.3780   7.3977   7.4084   7.4128   7.4193   7.4316   7.4470
     7.4605   7.4764   7.4943   7.5033   7.5087   7.5215   7.5299   7.5394
     7.5625   7.5746   7.5819   7.5942   7.6117   7.6234   7.6664   7.6740
     7.6816   7.7176   7.7448   7.7508   7.7954   7.8059   7.8750   7.9432
    11.7871  11.7978  11.8378  12.0299  12.0579  12.0723  12.3119  12.3571
    12.4257  12.4527  12.4927  12.5830  13.0229  13.0599  13.0912  13.1493
    13.1849  13.1895  13.2247  13.2261  13.2697  13.2897  13.3113  13.3279
    13.3502  13.3712  13.3882  13.4179  13.4449  13.4628  13.5257  13.5614
    13.5907  13.6339  13.6575  13.6689  13.7215  13.7418  13.7705  13.7841
    13.8347  13.8543  13.8764  13.8913  13.9472  13.9752  14.0462  14.0579
    14.0797  14.1017  14.1623  14.1697  14.2091  14.2265  14.2538  14.2750
    14.2966  14.3108  14.3373  14.3606  14.3817  14.4109  14.4346  14.4447
    14.4831  14.4936  14.5214  14.5347  14.5585  14.5727  14.6176  14.6354
    14.6625  14.6853  14.7289  14.7940  14.8739  14.9289  14.9483  14.9604
    15.0000  15.0121  15.0200  15.0299  15.0332  15.0777  15.0852  15.1030
    15.1147  15.1232  15.1327  15.1479  15.1694  15.1798  15.1926  15.1953
    15.2107  15.2320  15.2384  15.2466  15.2598  15.2642

     occupation numbers 
     1.0000   1.0000   1.0000   1.0000   1.0000   1.0000   1.0000   1.0000
     1.0000   1.0000   1.0000   1.0000   1.0000   1.0000   1.0000   1.0000
     1.0000   1.0000   1.0000   1.0000   1.0000   1.0000   1.0000   1.0000
     1.0000   1.0000   1.0000   1.0000   1.0000   1.0000   1.0000   1.0000
     1.0000   1.0000   1.0000   1.0000   1.0000   1.0000   1.0000   1.0000
     1.0000   1.0000   1.0000   1.0000   1.0000   1.0000   1.0000   1.0000
     1.0000   1.0000   1.0000   1.0000   1.0000   1.0000   1.0000   1.0000
     1.0000   1.0000   1.0000   1.0000   1.0000   1.0000   1.0000   1.0000
     1.0000   1.0000   1.0000   1.0000   1.0000   1.0000   1.0000   1.0000
     1.0000   1.0000   1.0000   1.0000   1.0000   1.0000   1.0000   1.0000
     1.0000   1.0000   1.0000   1.0000   1.0000   1.0000   1.0000   1.0000
     1.0000   1.0000   1.0000   1.0000   1.0000   1.0000   1.0000   1.0000
     1.0000   1.0000   1.0000   1.0000   1.0000   1.0000   1.0000   1.0000
     1.0000   1.0000   1.0000   1.0000   1.0000   1.0000   1.0000   1.0000
     1.0000   1.0000   1.0000   1.0000   1.0000   1.0000   1.0000   1.0000
     1.0000   1.0000   1.0000   1.0000   1.0000   1.0000   1.0000   1.0000
     1.0000   1.0000   1.0000   1.0000   1.0000   1.0000   1.0000   1.0000
     1.0000   1.0000   1.0000   1.0000   1.0000   1.0000   1.0000   1.0000
     1.0000   1.0000   1.0000   1.0000   1.0000   1.0000   1.0000   1.0000
     1.0000   1.0000   1.0000   1.0000   1.0000   1.0000   1.0000   1.0000
     1.0000   1.0000   1.0000   1.0000   1.0000   1.0000   1.0000   1.0000
     1.0000   1.0000   1.0000   1.0000   1.0000   1.0000   1.0000   1.0000
     1.0000   1.0000   1.0000   1.0000   1.0000   1.0000   1.0000   1.0000
     1.0000   1.0000   1.0000   1.0000   1.0000   1.0000   1.0000   1.0000
     1.0000   1.0000   1.0000   1.0000   1.0000   1.0000   1.0000   1.0000
     1.0000   1.0000   1.0000   1.0000   1.0000   1.0000   1.0000   1.0000
     1.0000   1.0000   1.0000   1.0000   1.0000   1.0000   1.0000   1.0000
     1.0000   1.0000   1.0000   1.0000   1.0000   1.0000   1.0000   1.0000
     1.0000   1.0000   1.0000   1.0000   1.0000   1.0000   1.0000   1.0000
     1.0000   1.0000   1.0000   1.0000   1.0000   1.0000   1.0000   1.0000
     1.0000   1.0000   1.0000   1.0000   1.0000   1.0000   1.0000   1.0000
     1.0000   1.0000   1.0000   1.0000   1.0000   1.0000   1.0000   1.0000
     1.0000   1.0000   1.0000   1.0000   1.0000   1.0000   1.0000   1.0000
     1.0000   1.0000   1.0000   1.0000   1.0000   1.0000   1.0000   1.0000
     1.0000   1.0000   1.0000   1.0000   1.0000   1.0000   1.0000   1.0000
     1.0000   1.0000   1.0000   1.0000   1.0000   1.0000   1.0000   1.0000
     1.0000   1.0000   1.0000   1.0000   1.0000   1.0000   1.0000   1.0000
     1.0000   1.0000   1.0000   1.0000   1.0000   1.0000   1.0000   1.0000
     1.0000   1.0000   1.0000   1.0000   1.0000   1.0000   1.0000   1.0000
     1.0000   1.0000   1.0000   1.0000   1.0000   1.0000   1.0000   1.0000
     1.0000   1.0000   1.0000   1.0000   1.0000   1.0000   1.0000   1.0000
     1.0000   1.0000   1.0000   1.0000   1.0000   1.0000   1.0000   1.0000
     1.0000   1.0000   1.0000   1.0000   1.0000   1.0000   1.0000   1.0000
     1.0000   1.0000   1.0000   1.0000   1.0000   1.0000   1.0000   1.0000
     1.0000   1.0000   1.0000   1.0000   1.0000   1.0000   1.0000   1.0000
     1.0000   1.0000   1.0000   1.0000   1.0000   1.0000   1.0000   1.0000
     1.0000   1.0000   1.0000   1.0000   1.0000   1.0000   1.0000   1.0000
     1.0000   1.0000   1.0000   1.0000   1.0000   1.0000   1.0000   1.0000
     1.0000   1.0000   1.0000   1.0000   1.0000   1.0000   1.0000   1.0000
     1.0000   1.0000   1.0000   1.0000   1.0000   1.0000   1.0000   1.0000
     1.0000   1.0000   1.0000   1.0000   1.0000   1.0000   1.0000   1.0000
     1.0000   1.0000   1.0000   1.0000   1.0000   1.0000   1.0000   1.0000
     1.0000   1.0000   1.0000   1.0000   1.0000   1.0000   1.0000   1.0000
     1.0000   1.0000   1.0000   1.0000   1.0000   1.0000   1.0000   1.0000
     1.0000   1.0000   1.0000   1.0000   1.0000   1.0000   1.0000   1.0000
     1.0000   1.0000   1.0000   1.0000   1.0000   1.0000   1.0000   1.0000
     1.0000   1.0000   1.0000   1.0000   1.0000   1.0000   1.0000   1.0000
     1.0000   1.0000   1.0000   1.0000   1.0000   1.0000   1.0000   1.0000
     1.0000   1.0000   1.0000   1.0000   1.0000   1.0000   1.0000   1.0000
     1.0000   1.0000   1.0000   1.0000   1.0000   1.0000   1.0000   1.0000
     1.0000   1.0000   1.0000   1.0000   1.0000   1.0000   1.0000   1.0000
     1.0000   1.0000   1.0000   1.0000   1.0000   1.0000   1.0000   1.0000
     1.0000   1.0000   1.0000   1.0000   1.0000   1.0000   1.0000   1.0000
     1.0000   1.0000   1.0000   1.0000   1.0000   1.0000   1.0000   1.0000
     0.0000   0.0000   0.0000   0.0000   0.0000   0.0000   0.0000   0.0000
     0.0000   0.0000   0.0000   0.0000   0.0000   0.0000   0.0000   0.0000
     0.0000   0.0000   0.0000   0.0000   0.0000   0.0000   0.0000   0.0000
     0.0000   0.0000   0.0000   0.0000   0.0000   0.0000   0.0000   0.0000
     0.0000   0.0000   0.0000   0.0000   0.0000   0.0000   0.0000   0.0000
     0.0000   0.0000   0.0000   0.0000   0.0000   0.0000   0.0000   0.0000
     0.0000   0.0000   0.0000   0.0000   0.0000   0.0000   0.0000   0.0000
     0.0000   0.0000   0.0000   0.0000   0.0000   0.0000   0.0000   0.0000
     0.0000   0.0000   0.0000   0.0000   0.0000   0.0000   0.0000   0.0000
     0.0000   0.0000   0.0000   0.0000   0.0000   0.0000   0.0000   0.0000
     0.0000   0.0000   0.0000   0.0000   0.0000   0.0000   0.0000   0.0000
     0.0000   0.0000   0.0000   0.0000   0.0000   0.0000   0.0000   0.0000
     0.0000   0.0000   0.0000   0.0000   0.0000   0.0000

          k =-0.3539 0.3543-0.3542 ( 50054 PWs)   bands (ev):

   -30.1034 -29.8045 -29.7737 -29.7093 -29.6638 -29.6488 -29.6240 -29.6212
   -29.6186 -29.5953 -29.5895 -29.5863 -29.5668 -29.5584 -29.5528 -29.5501
   -29.5459 -29.5241 -29.5054 -29.4866 -29.4682 -29.4417 -29.4257 -29.4193
   -29.3996 -29.3654 -29.3390 -29.3210 -29.3171 -29.2985 -29.2586 -29.2560
   -29.2512 -29.2373 -29.2079 -29.2029 -29.1894 -29.1790 -29.1751 -29.1669
   -29.1526 -29.1415 -29.1318 -29.1259 -29.1237 -29.1009 -29.0732 -29.0708
   -29.0495 -29.0421 -29.0259 -29.0209 -28.9870 -28.9847 -28.9746 -28.9519
   -28.8823 -28.8633 -28.7925 -28.7886 -28.7233 -28.7054 -28.6492 -28.6317
   -11.7836 -11.7465 -11.7091 -11.6384 -11.5432 -11.5187 -11.4920 -11.4755
   -11.4550 -11.4267 -11.4206 -11.4040 -11.3887 -11.3658 -11.3543 -11.3505
   -11.3227 -11.3123 -11.2947 -11.2827 -11.2745 -11.2613 -11.2488 -11.2295
   -11.1922 -11.1787 -11.1715 -11.1600 -11.1533 -11.1465 -11.1433 -11.1364
   -11.1179 -11.1036 -11.0988 -11.0902 -11.0812 -11.0715 -11.0637 -11.0577
   -11.0439 -11.0308 -11.0233 -11.0113 -11.0060 -10.9948 -10.9817 -10.9767
   -10.9659 -10.9534 -10.9460 -10.9275 -10.9181 -10.9136 -10.9031 -10.8919
   -10.8848 -10.8814 -10.8756 -10.8587 -10.8461 -10.8287 -10.8150 -10.8088
   -10.7969 -10.7865 -10.7813 -10.7697 -10.7608 -10.7575 -10.7500 -10.7410
   -10.7314 -10.7304 -10.7235 -10.7134 -10.7104 -10.7062 -10.6954 -10.6924
   -10.6848 -10.6750 -10.6685 -10.6627 -10.6613 -10.6433 -10.6403 -10.6310
   -10.6272 -10.6255 -10.6135 -10.6063 -10.5983 -10.5952 -10.5884 -10.5782
   -10.5716 -10.5586 -10.5546 -10.5507 -10.5473 -10.5419 -10.5346 -10.5319
   -10.5281 -10.5236 -10.5197 -10.5170 -10.5040 -10.5002 -10.4848 -10.4809
   -10.4666 -10.4624 -10.4528 -10.4464 -10.4412 -10.4387 -10.4321 -10.4240
   -10.4143 -10.4108 -10.4069 -10.4021 -10.3926 -10.3855 -10.3802 -10.3759
   -10.3681 -10.3635 -10.3590 -10.3537 -10.3440 -10.3415 -10.3387 -10.3297
   -10.3259 -10.3240 -10.3135 -10.3090 -10.3076 -10.2951 -10.2910 -10.2902
   -10.2860 -10.2826 -10.2779 -10.2699 -10.2658 -10.2633 -10.2593 -10.2494
   -10.2389 -10.2324 -10.2239 -10.2184 -10.2133 -10.2098 -10.1952 -10.1886
   -10.1801 -10.1662 -10.1657 -10.1545 -10.1464 -10.1435 -10.1394 -10.1332
   -10.1296 -10.1167 -10.1116 -10.1092 -10.0902 -10.0815 -10.0779 -10.0587
   -10.0313 -10.0269 -10.0024  -9.9911  -9.9824  -9.9574  -9.9533  -9.9293
    -9.9196  -9.9134  -9.9054  -9.8980  -9.8884  -9.8772  -9.8436  -9.8167
    -7.4568  -7.4200  -7.3337  -7.2610  -7.2439  -7.1847  -7.1706  -7.1372
    -7.1167  -7.0728  -7.0570  -7.0506  -7.0351  -6.9837  -6.9584  -6.9512
    -6.9230  -6.9089  -6.8973  -6.8616  -6.8219  -6.8173  -6.8032  -6.7947
    -6.7811  -6.7716  -6.7589  -6.7538  -6.7305  -6.7177  -6.7058  -6.6901
    -6.6683  -6.6496  -6.6332  -6.6113  -6.5959  -6.5817  -6.5598  -6.5573
    -6.5313  -6.5239  -6.5140  -6.5039  -6.4992  -6.4858  -6.4552  -6.4295
    -6.4204  -6.4051  -6.4007  -6.3747  -6.3688  -6.3499  -6.3274  -6.2775
    -6.2625  -6.2545  -6.2414  -6.1693  -6.1551  -6.1393  -6.1086  -6.0239
     5.2068   5.2481   5.2672   5.2812   5.3285   5.3605   5.3966   5.4597
     5.5362   5.6067   5.6308   5.6372   5.6510   5.6765   5.6822   5.6971
     5.7250   5.7519   5.7583   5.7707   5.7965   5.8057   5.8209   5.8336
     5.8707   5.8864   5.9141   5.9206   5.9341   5.9613   5.9656   5.9787
     5.9950   6.0314   6.0434   6.0656   6.0700   6.0928   6.1400   6.1606
     6.1892   6.2043   6.2168   6.2261   6.2347   6.2602   6.2664   6.2878
     6.2933   6.3149   6.3205   6.3313   6.3384   6.3434   6.3569   6.3678
     6.3829   6.3983   6.4142   6.4210   6.4337   6.4409   6.4438   6.4678
     6.4869   6.4959   6.5083   6.5149   6.5405   6.5429   6.5631   6.5732
     6.5742   6.5847   6.5892   6.5958   6.6137   6.6289   6.6348   6.6416
     6.6572   6.6636   6.6734   6.6852   6.6945   6.7004   6.7088   6.7249
     6.7302   6.7344   6.7421   6.7534   6.7662   6.7802   6.7831   6.7883
     6.7914   6.8028   6.8089   6.8187   6.8247   6.8292   6.8407   6.8504
     6.8541   6.8596   6.8673   6.8694   6.8799   6.8855   6.8961   6.9089
     6.9189   6.9194   6.9283   6.9369   6.9466   6.9567   6.9615   6.9642
     6.9746   6.9834   6.9889   7.0051   7.0124   7.0179   7.0217   7.0300
     7.0397   7.0518   7.0595   7.0674   7.0737   7.0857   7.1028   7.1069
     7.1136   7.1265   7.1318   7.1478   7.1537   7.1611   7.1661   7.1780
     7.1954   7.2057   7.2139   7.2228   7.2375   7.2475   7.2546   7.2647
     7.2737   7.2897   7.2971   7.3006   7.3236   7.3371   7.3522   7.3690
     7.3739   7.3871   7.3932   7.4124   7.4182   7.4296   7.4356   7.4538
     7.4617   7.4754   7.4812   7.4924   7.5205   7.5262   7.5397   7.5466
     7.5648   7.5754   7.6038   7.6064   7.6379   7.6518   7.6532   7.6658
     7.6773   7.6940   7.7205   7.7932   7.8146   7.8363   7.8812   7.9183
    11.8007  11.8053  11.8444  11.9718  12.0174  12.0478  12.3510  12.4027
    12.4212  12.4981  12.5268  12.5565  13.0118  13.0896  13.1229  13.1370
    13.1520  13.1923  13.2086  13.2334  13.2699  13.2821  13.3029  13.3270
    13.3578  13.3606  13.4049  13.4169  13.4485  13.4943  13.5296  13.5752
    13.6105  13.6510  13.6712  13.6899  13.7067  13.7244  13.7404  13.7729
    13.8167  13.8480  13.8640  13.9176  13.9454  13.9690  14.0310  14.0393
    14.0961  14.1102  14.1506  14.1764  14.1980  14.2101  14.2324  14.2358
    14.2881  14.3075  14.3162  14.3357  14.3723  14.3820  14.4069  14.4350
    14.4753  14.4871  14.5244  14.5317  14.5439  14.5810  14.6056  14.6274
    14.6609  14.7075  14.7452  14.7720  14.9119  14.9235  14.9591  14.9636
    14.9782  14.9887  15.0126  15.0432  15.0490  15.0601  15.0994  15.1199
    15.1219  15.1412  15.1470  15.1565  15.1734  15.1811  15.2045  15.2097
    15.2153  15.2456  15.2538  15.2652  15.2811  15.2889

     occupation numbers 
     1.0000   1.0000   1.0000   1.0000   1.0000   1.0000   1.0000   1.0000
     1.0000   1.0000   1.0000   1.0000   1.0000   1.0000   1.0000   1.0000
     1.0000   1.0000   1.0000   1.0000   1.0000   1.0000   1.0000   1.0000
     1.0000   1.0000   1.0000   1.0000   1.0000   1.0000   1.0000   1.0000
     1.0000   1.0000   1.0000   1.0000   1.0000   1.0000   1.0000   1.0000
     1.0000   1.0000   1.0000   1.0000   1.0000   1.0000   1.0000   1.0000
     1.0000   1.0000   1.0000   1.0000   1.0000   1.0000   1.0000   1.0000
     1.0000   1.0000   1.0000   1.0000   1.0000   1.0000   1.0000   1.0000
     1.0000   1.0000   1.0000   1.0000   1.0000   1.0000   1.0000   1.0000
     1.0000   1.0000   1.0000   1.0000   1.0000   1.0000   1.0000   1.0000
     1.0000   1.0000   1.0000   1.0000   1.0000   1.0000   1.0000   1.0000
     1.0000   1.0000   1.0000   1.0000   1.0000   1.0000   1.0000   1.0000
     1.0000   1.0000   1.0000   1.0000   1.0000   1.0000   1.0000   1.0000
     1.0000   1.0000   1.0000   1.0000   1.0000   1.0000   1.0000   1.0000
     1.0000   1.0000   1.0000   1.0000   1.0000   1.0000   1.0000   1.0000
     1.0000   1.0000   1.0000   1.0000   1.0000   1.0000   1.0000   1.0000
     1.0000   1.0000   1.0000   1.0000   1.0000   1.0000   1.0000   1.0000
     1.0000   1.0000   1.0000   1.0000   1.0000   1.0000   1.0000   1.0000
     1.0000   1.0000   1.0000   1.0000   1.0000   1.0000   1.0000   1.0000
     1.0000   1.0000   1.0000   1.0000   1.0000   1.0000   1.0000   1.0000
     1.0000   1.0000   1.0000   1.0000   1.0000   1.0000   1.0000   1.0000
     1.0000   1.0000   1.0000   1.0000   1.0000   1.0000   1.0000   1.0000
     1.0000   1.0000   1.0000   1.0000   1.0000   1.0000   1.0000   1.0000
     1.0000   1.0000   1.0000   1.0000   1.0000   1.0000   1.0000   1.0000
     1.0000   1.0000   1.0000   1.0000   1.0000   1.0000   1.0000   1.0000
     1.0000   1.0000   1.0000   1.0000   1.0000   1.0000   1.0000   1.0000
     1.0000   1.0000   1.0000   1.0000   1.0000   1.0000   1.0000   1.0000
     1.0000   1.0000   1.0000   1.0000   1.0000   1.0000   1.0000   1.0000
     1.0000   1.0000   1.0000   1.0000   1.0000   1.0000   1.0000   1.0000
     1.0000   1.0000   1.0000   1.0000   1.0000   1.0000   1.0000   1.0000
     1.0000   1.0000   1.0000   1.0000   1.0000   1.0000   1.0000   1.0000
     1.0000   1.0000   1.0000   1.0000   1.0000   1.0000   1.0000   1.0000
     1.0000   1.0000   1.0000   1.0000   1.0000   1.0000   1.0000   1.0000
     1.0000   1.0000   1.0000   1.0000   1.0000   1.0000   1.0000   1.0000
     1.0000   1.0000   1.0000   1.0000   1.0000   1.0000   1.0000   1.0000
     1.0000   1.0000   1.0000   1.0000   1.0000   1.0000   1.0000   1.0000
     1.0000   1.0000   1.0000   1.0000   1.0000   1.0000   1.0000   1.0000
     1.0000   1.0000   1.0000   1.0000   1.0000   1.0000   1.0000   1.0000
     1.0000   1.0000   1.0000   1.0000   1.0000   1.0000   1.0000   1.0000
     1.0000   1.0000   1.0000   1.0000   1.0000   1.0000   1.0000   1.0000
     1.0000   1.0000   1.0000   1.0000   1.0000   1.0000   1.0000   1.0000
     1.0000   1.0000   1.0000   1.0000   1.0000   1.0000   1.0000   1.0000
     1.0000   1.0000   1.0000   1.0000   1.0000   1.0000   1.0000   1.0000
     1.0000   1.0000   1.0000   1.0000   1.0000   1.0000   1.0000   1.0000
     1.0000   1.0000   1.0000   1.0000   1.0000   1.0000   1.0000   1.0000
     1.0000   1.0000   1.0000   1.0000   1.0000   1.0000   1.0000   1.0000
     1.0000   1.0000   1.0000   1.0000   1.0000   1.0000   1.0000   1.0000
     1.0000   1.0000   1.0000   1.0000   1.0000   1.0000   1.0000   1.0000
     1.0000   1.0000   1.0000   1.0000   1.0000   1.0000   1.0000   1.0000
     1.0000   1.0000   1.0000   1.0000   1.0000   1.0000   1.0000   1.0000
     1.0000   1.0000   1.0000   1.0000   1.0000   1.0000   1.0000   1.0000
     1.0000   1.0000   1.0000   1.0000   1.0000   1.0000   1.0000   1.0000
     1.0000   1.0000   1.0000   1.0000   1.0000   1.0000   1.0000   1.0000
     1.0000   1.0000   1.0000   1.0000   1.0000   1.0000   1.0000   1.0000
     1.0000   1.0000   1.0000   1.0000   1.0000   1.0000   1.0000   1.0000
     1.0000   1.0000   1.0000   1.0000   1.0000   1.0000   1.0000   1.0000
     1.0000   1.0000   1.0000   1.0000   1.0000   1.0000   1.0000   1.0000
     1.0000   1.0000   1.0000   1.0000   1.0000   1.0000   1.0000   1.0000
     1.0000   1.0000   1.0000   1.0000   1.0000   1.0000   1.0000   1.0000
     1.0000   1.0000   1.0000   1.0000   1.0000   1.0000   1.0000   1.0000
     1.0000   1.0000   1.0000   1.0000   1.0000   1.0000   1.0000   1.0000
     1.0000   1.0000   1.0000   1.0000   1.0000   1.0000   1.0000   1.0000
     1.0000   1.0000   1.0000   1.0000   1.0000   1.0000   1.0000   1.0000
     1.0000   1.0000   1.0000   1.0000   1.0000   1.0000   1.0000   1.0000
     0.0000   0.0000   0.0000   0.0000   0.0000   0.0000   0.0000   0.0000
     0.0000   0.0000   0.0000   0.0000   0.0000   0.0000   0.0000   0.0000
     0.0000   0.0000   0.0000   0.0000   0.0000   0.0000   0.0000   0.0000
     0.0000   0.0000   0.0000   0.0000   0.0000   0.0000   0.0000   0.0000
     0.0000   0.0000   0.0000   0.0000   0.0000   0.0000   0.0000   0.0000
     0.0000   0.0000   0.0000   0.0000   0.0000   0.0000   0.0000   0.0000
     0.0000   0.0000   0.0000   0.0000   0.0000   0.0000   0.0000   0.0000
     0.0000   0.0000   0.0000   0.0000   0.0000   0.0000   0.0000   0.0000
     0.0000   0.0000   0.0000   0.0000   0.0000   0.0000   0.0000   0.0000
     0.0000   0.0000   0.0000   0.0000   0.0000   0.0000   0.0000   0.0000
     0.0000   0.0000   0.0000   0.0000   0.0000   0.0000   0.0000   0.0000
     0.0000   0.0000   0.0000   0.0000   0.0000   0.0000   0.0000   0.0000
     0.0000   0.0000   0.0000   0.0000   0.0000   0.0000

          k =-0.7107-0.0024 0.0034 ( 50000 PWs)   bands (ev):

   -30.1034 -29.8045 -29.7737 -29.7093 -29.6638 -29.6488 -29.6239 -29.6211
   -29.6186 -29.5957 -29.5900 -29.5855 -29.5667 -29.5583 -29.5530 -29.5506
   -29.5453 -29.5242 -29.5054 -29.4866 -29.4681 -29.4418 -29.4257 -29.4193
   -29.3996 -29.3654 -29.3390 -29.3211 -29.3172 -29.2985 -29.2585 -29.2555
   -29.2516 -29.2373 -29.2082 -29.2029 -29.1897 -29.1790 -29.1725 -29.1681
   -29.1536 -29.1419 -29.1316 -29.1253 -29.1238 -29.1010 -29.0732 -29.0707
   -29.0495 -29.0422 -29.0259 -29.0209 -28.9861 -28.9856 -28.9745 -28.9519
   -28.8823 -28.8633 -28.7925 -28.7886 -28.7234 -28.7054 -28.6492 -28.6317
   -11.7783 -11.7440 -11.7060 -11.6329 -11.5560 -11.5037 -11.4913 -11.4708
   -11.4405 -11.4285 -11.4157 -11.4030 -11.3760 -11.3625 -11.3485 -11.3398
   -11.3359 -11.3206 -11.3086 -11.3008 -11.2852 -11.2576 -11.2568 -11.2394
   -11.2352 -11.2138 -11.2049 -11.1939 -11.1636 -11.1508 -11.1291 -11.1165
   -11.1075 -11.1049 -11.0977 -11.0835 -11.0748 -11.0675 -11.0566 -11.0486
   -11.0285 -11.0236 -11.0167 -11.0109 -11.0040 -10.9882 -10.9796 -10.9679
   -10.9617 -10.9504 -10.9380 -10.9231 -10.9184 -10.9086 -10.8954 -10.8891
   -10.8783 -10.8712 -10.8629 -10.8484 -10.8459 -10.8345 -10.8242 -10.8144
   -10.8061 -10.8005 -10.7786 -10.7721 -10.7683 -10.7642 -10.7568 -10.7483
   -10.7369 -10.7263 -10.7217 -10.7119 -10.7067 -10.6963 -10.6910 -10.6867
   -10.6771 -10.6732 -10.6657 -10.6620 -10.6527 -10.6501 -10.6412 -10.6293
   -10.6205 -10.6154 -10.6119 -10.6038 -10.5965 -10.5958 -10.5862 -10.5850
   -10.5796 -10.5672 -10.5561 -10.5493 -10.5463 -10.5401 -10.5352 -10.5284
   -10.5227 -10.5214 -10.5133 -10.4981 -10.4934 -10.4888 -10.4873 -10.4772
   -10.4704 -10.4631 -10.4575 -10.4499 -10.4416 -10.4371 -10.4290 -10.4243
   -10.4222 -10.4135 -10.4082 -10.3983 -10.3915 -10.3853 -10.3795 -10.3727
   -10.3663 -10.3660 -10.3589 -10.3561 -10.3518 -10.3469 -10.3420 -10.3389
   -10.3321 -10.3263 -10.3227 -10.3170 -10.3101 -10.3036 -10.2932 -10.2914
   -10.2865 -10.2781 -10.2753 -10.2705 -10.2630 -10.2598 -10.2488 -10.2433
   -10.2402 -10.2322 -10.2280 -10.2210 -10.2168 -10.2037 -10.1957 -10.1914
   -10.1838 -10.1659 -10.1619 -10.1553 -10.1523 -10.1429 -10.1357 -10.1252
   -10.1187 -10.1135 -10.1103 -10.1001 -10.0942 -10.0823 -10.0718 -10.0631
   -10.0344 -10.0283 -10.0073  -9.9918  -9.9826  -9.9583  -9.9545  -9.9267
    -9.9256  -9.9121  -9.9099  -9.9028  -9.8934  -9.8797  -9.8444  -9.8292
    -7.4334  -7.4004  -7.3308  -7.2662  -7.2403  -7.1701  -7.1514  -7.1209
    -7.1017  -7.0779  -7.0617  -7.0319  -7.0161  -6.9982  -6.9789  -6.9645
    -6.9468  -6.9434  -6.9234  -6.9065  -6.8665  -6.8297  -6.8109  -6.7945
    -6.7869  -6.7634  -6.7456  -6.7354  -6.7291  -6.7238  -6.6979  -6.6857
    -6.6749  -6.6436  -6.6380  -6.6108  -6.5997  -6.5716  -6.5564  -6.5417
    -6.5213  -6.5155  -6.4995  -6.4984  -6.4836  -6.4672  -6.4536  -6.4480
    -6.4443  -6.4236  -6.3930  -6.3708  -6.3559  -6.3412  -6.3216  -6.2639
    -6.2607  -6.2535  -6.2146  -6.1712  -6.1558  -6.1549  -6.1286  -6.0309
     5.2327   5.2691   5.2823   5.2966   5.3384   5.3506   5.4536   5.4790
     5.5093   5.5874   5.6056   5.6101   5.6317   5.6495   5.6632   5.6771
     5.6893   5.7090   5.7365   5.7522   5.7858   5.7997   5.8100   5.8474
     5.8680   5.8808   5.9009   5.9330   5.9364   5.9799   5.9875   6.0061
     6.0170   6.0269   6.0382   6.0632   6.0820   6.1007   6.1129   6.1306
     6.1419   6.1552   6.1623   6.1893   6.2012   6.2173   6.2356   6.2616
     6.2720   6.2989   6.3152   6.3269   6.3411   6.3644   6.3723   6.3814
     6.4172   6.4241   6.4307   6.4566   6.4686   6.4866   6.4912   6.5037
     6.5143   6.5286   6.5425   6.5449   6.5634   6.5789   6.5885   6.5919
     6.6067   6.6231   6.6246   6.6365   6.6430   6.6483   6.6527   6.6610
     6.6714   6.6838   6.6882   6.6976   6.7069   6.7141   6.7242   6.7362
     6.7370   6.7402   6.7490   6.7580   6.7642   6.7742   6.7799   6.7915
     6.7987   6.8111   6.8135   6.8206   6.8279   6.8359   6.8413   6.8534
     6.8582   6.8632   6.8669   6.8725   6.8799   6.8852   6.9003   6.9110
     6.9165   6.9215   6.9239   6.9275   6.9434   6.9496   6.9540   6.9678
     6.9855   6.9859   6.9964   6.9995   7.0152   7.0175   7.0239   7.0351
[...]
     atom   77 type  1   force =   0.00000000E+00  0.00000000E+00  0.00000000E+00
     atom   78 type  2   force =   0.00000000E+00  0.00000000E+00  0.00000000E+00
     atom   79 type  1   force =   0.00000000E+00  0.00000000E+00  0.00000000E+00
     atom   80 type  2   force =   0.00000000E+00  0.00000000E+00  0.00000000E+00
     atom   81 type  1   force =   0.00000000E+00  0.00000000E+00  0.00000000E+00
     atom   82 type  2   force =   0.00000000E+00  0.00000000E+00  0.00000000E+00
     atom   83 type  1   force =   0.00000000E+00  0.00000000E+00  0.00000000E+00
     atom   84 type  2   force =   0.00000000E+00  0.00000000E+00  0.00000000E+00
     atom   85 type  1   force =   0.00000000E+00  0.00000000E+00  0.00000000E+00
     atom   86 type  2   force =   0.00000000E+00  0.00000000E+00  0.00000000E+00
     atom   87 type  1   force =   0.00000000E+00  0.00000000E+00  0.00000000E+00
     atom   88 type  2   force =   0.00000000E+00  0.00000000E+00  0.00000000E+00
     atom   89 type  1   force =   0.00000000E+00  0.00000000E+00  0.00000000E+00
     atom   90 type  2   force =   0.00000000E+00  0.00000000E+00  0.00000000E+00
     atom   91 type  1   force =   0.00000000E+00  0.00000000E+00  0.00000000E+00
     atom   92 type  2   force =   0.00000000E+00  0.00000000E+00  0.00000000E+00
     atom   93 type  1   force =   0.00000000E+00  0.00000000E+00  0.00000000E+00
     atom   94 type  2   force =   0.00000000E+00  0.00000000E+00  0.00000000E+00
     atom   95 type  1   force =   0.00000000E+00  0.00000000E+00  0.00000000E+00
     atom   96 type  2   force =   0.00000000E+00  0.00000000E+00  0.00000000E+00
     atom   97 type  1   force =   0.00000000E+00  0.00000000E+00  0.00000000E+00
     atom   98 type  2   force =   0.00000000E+00  0.00000000E+00  0.00000000E+00
     atom   99 type  1   force =   0.00000000E+00  0.00000000E+00  0.00000000E+00
     atom  100 type  2   force =   0.00000000E+00  0.00000000E+00  0.00000000E+00
     atom  101 type  1   force =   0.00000000E+00  0.00000000E+00  0.00000000E+00
     atom  102 type  2   force =   0.00000000E+00  0.00000000E+00  0.00000000E+00
     atom  103 type  1   force =   0.00000000E+00  0.00000000E+00  0.00000000E+00
     atom  104 type  2   force =   0.00000000E+00  0.00000000E+00  0.00000000E+00
     atom  105 type  1   force =   0.00000000E+00  0.00000000E+00  0.00000000E+00
     atom  106 type  2   force =   0.00000000E+00  0.00000000E+00  0.00000000E+00
     atom  107 type  1   force =   0.00000000E+00  0.00000000E+00  0.00000000E+00
     atom  108 type  2   force =   0.00000000E+00  0.00000000E+00  0.00000000E+00
     atom  109 type  1   force =   0.00000000E+00  0.00000000E+00  0.00000000E+00
     atom  110 type  2   force =   0.00000000E+00  0.00000000E+00  0.00000000E+00
     atom  111 type  1   force =   0.00000000E+00  0.00000000E+00  0.00000000E+00
     atom  112 type  2   force =   0.00000000E+00  0.00000000E+00  0.00000000E+00
     atom  113 type  1   force =   0.00000000E+00  0.00000000E+00  0.00000000E+00
     atom  114 type  2   force =   0.00000000E+00  0.00000000E+00  0.00000000E+00
     atom  115 type  1   force =   0.00000000E+00  0.00000000E+00  0.00000000E+00
     atom  116 type  2   force =   0.00000000E+00  0.00000000E+00  0.00000000E+00
     atom  117 type  1   force =   0.00000000E+00  0.00000000E+00  0.00000000E+00
     atom  118 type  2   force =   0.00000000E+00  0.00000000E+00  0.00000000E+00
     atom  119 type  1   force =   0.00000000E+00  0.00000000E+00  0.00000000E+00
     atom  120 type  2   force =   0.00000000E+00  0.00000000E+00  0.00000000E+00
     atom  121 type  1   force =   0.00000000E+00  0.00000000E+00  0.00000000E+00
     atom  122 type  2   force =   0.00000000E+00  0.00000000E+00  0.00000000E+00
     atom  123 type  1   force =   0.00000000E+00  0.00000000E+00  0.00000000E+00
     atom  124 type  2   force =   0.00000000E+00  0.00000000E+00  0.00000000E+00
     atom  125 type  1   force =   0.00000000E+00  0.00000000E+00  0.00000000E+00
     atom  126 type  2   force =   0.00000000E+00  0.00000000E+00  0.00000000E+00
     atom  127 type  1   force =   0.00000000E+00  0.00000000E+00  0.00000000E+00
     atom  128 type  2   force =   0.00000000E+00  0.00000000E+00  0.00000000E+00
     The SCF correction term to forces
     atom    1 type  1   force =   0.41185560E-06  0.46289725E-05  0.21773587E-05
     atom    2 type  2   force =  -0.22338531E-06  0.41838889E-06 -0.82408245E-06
     atom    3 type  1   force =   0.31996318E-07 -0.11341996E-05  0.61288517E-06
     atom    4 type  2   force =  -0.46209791E-06 -0.90440226E-07  0.79595874E-06
     atom    5 type  1   force =  -0.31545738E-06 -0.14640091E-05  0.10544031E-05
     atom    6 type  2   force =  -0.15508198E-05  0.10913206E-05  0.20840905E-05
     atom    7 type  1   force =  -0.32707472E-05  0.16959975E-05  0.25602020E-05
     atom    8 type  2   force =  -0.61174370E-06  0.17764173E-05  0.15156715E-06
     atom    9 type  1   force =   0.17091108E-05  0.32049388E-05 -0.22520419E-05
     atom   10 type  2   force =  -0.19491321E-05  0.97741335E-06 -0.69781667E-06
     atom   11 type  1   force =  -0.89202411E-06 -0.15019134E-05 -0.16469564E-05
     atom   12 type  2   force =  -0.44964064E-06  0.19544392E-05  0.43369725E-06
     atom   13 type  1   force =   0.56401369E-06 -0.54477900E-06  0.93749118E-06
     atom   14 type  2   force =  -0.14706405E-05 -0.91916223E-06  0.74886641E-06
     atom   15 type  1   force =  -0.19905301E-05 -0.66339176E-06  0.23882123E-05
     atom   16 type  2   force =   0.23130769E-06  0.10362351E-05 -0.15766612E-06
     atom   17 type  1   force =  -0.15641671E-05  0.95465031E-06 -0.18286696E-05
     atom   18 type  2   force =  -0.15110336E-08  0.14685206E-05  0.19539267E-05
     atom   19 type  1   force =  -0.20419565E-06  0.28120471E-05 -0.13430672E-05
     atom   20 type  2   force =  -0.17316515E-06 -0.39343590E-06  0.54573883E-06
     atom   21 type  1   force =  -0.32473024E-06  0.25675175E-06  0.14082893E-05
     atom   22 type  2   force =  -0.85353818E-06 -0.64574847E-06  0.48795805E-06
     atom   23 type  1   force =  -0.58363104E-06 -0.76933739E-06  0.24833414E-06
     atom   24 type  2   force =  -0.26224211E-06  0.51826097E-06  0.20684847E-05
     atom   25 type  1   force =  -0.21991176E-05  0.97023648E-06  0.31694519E-05
     atom   26 type  2   force =   0.36918480E-06  0.13733151E-05  0.22157656E-06
     atom   27 type  1   force =   0.15436903E-05  0.39881513E-05  0.17654801E-05
     atom   28 type  2   force =  -0.13660673E-05 -0.17809162E-05  0.98449487E-07
     atom   29 type  1   force =  -0.33285702E-05 -0.23488880E-05  0.33886501E-06
     atom   30 type  2   force =  -0.53427667E-07  0.18995695E-05  0.15680469E-05
     atom   31 type  1   force =   0.74584456E-07  0.49127188E-06  0.14737868E-05
     atom   32 type  2   force =  -0.21442974E-05  0.11925088E-05  0.17448191E-05
     atom   33 type  1   force =   0.18894237E-05  0.39827548E-06 -0.20120637E-05
     atom   34 type  2   force =   0.57991870E-06  0.22181014E-06  0.36362974E-06
     atom   35 type  1   force =  -0.10432505E-05 -0.20613666E-05  0.16197929E-05
     atom   36 type  2   force =   0.53335616E-06  0.17255379E-06  0.33077882E-06
     atom   37 type  1   force =   0.83069301E-06  0.31258334E-05  0.21010742E-05
     atom   38 type  2   force =  -0.14009527E-05 -0.24072007E-05 -0.41986807E-06
     atom   39 type  1   force =  -0.24454784E-05 -0.10230815E-05  0.47239432E-06
     atom   40 type  2   force =   0.14505980E-05  0.50282949E-06 -0.11480257E-05
     atom   41 type  1   force =   0.11997856E-05  0.30445304E-05 -0.10098498E-05
     atom   42 type  2   force =  -0.33715996E-06  0.79567182E-06 -0.14633059E-05
     atom   43 type  1   force =  -0.14962406E-05  0.21139439E-05  0.14164326E-05
     atom   44 type  2   force =  -0.87579395E-06 -0.10805495E-06 -0.71109722E-06
     atom   45 type  1   force =  -0.25019848E-05  0.13545773E-05  0.59313165E-06
     atom   46 type  2   force =  -0.70733027E-06 -0.32287546E-06  0.41121515E-06
     atom   47 type  1   force =  -0.29173802E-05 -0.36198192E-06 -0.29530171E-06
     atom   48 type  2   force =   0.49438305E-06  0.94825269E-06  0.92996542E-07
     atom   49 type  1   force =  -0.88522639E-06  0.16102455E-05  0.26487278E-06
     atom   50 type  2   force =   0.19727979E-05  0.72568752E-07 -0.88489872E-06
     atom   51 type  1   force =   0.78336932E-06  0.15768106E-05  0.44689011E-06
     atom   52 type  2   force =  -0.11198776E-05 -0.80532509E-06 -0.61831366E-06
     atom   53 type  1   force =  -0.27841492E-05 -0.21132717E-05  0.80859714E-06
     atom   54 type  2   force =   0.12052807E-05  0.82590930E-06  0.96962422E-06
     atom   55 type  1   force =  -0.17605418E-06  0.17038515E-05  0.15499578E-05
     atom   56 type  2   force =   0.53336950E-06 -0.19626451E-05 -0.69116654E-06
     atom   57 type  1   force =   0.12863750E-05 -0.59884257E-06  0.49277456E-06
     atom   58 type  2   force =   0.57613490E-06 -0.86913793E-06 -0.58542350E-06
     atom   59 type  1   force =  -0.70495967E-06 -0.64546509E-06 -0.11409687E-05
     atom   60 type  2   force =   0.10303951E-05  0.36843840E-06  0.96889524E-06
     atom   61 type  1   force =  -0.54242245E-06  0.85508313E-06  0.13099927E-05
     atom   62 type  2   force =   0.45515574E-06 -0.12523998E-05 -0.23231104E-06
     atom   63 type  1   force =   0.62157835E-06 -0.32546282E-06  0.28512884E-05
     atom   64 type  2   force =   0.63420161E-06 -0.12808615E-05 -0.11991797E-05
     atom   65 type  1   force =   0.27832281E-05  0.29458273E-06 -0.15148159E-05
     atom   66 type  2   force =   0.25148026E-05 -0.13484772E-06 -0.13061756E-05
     atom   67 type  1   force =   0.30932523E-05 -0.61218899E-06  0.42465505E-06
     atom   68 type  2   force =  -0.31397160E-06 -0.12258805E-05  0.41677616E-06
     atom   69 type  1   force =   0.42790434E-06 -0.32531967E-05 -0.47383663E-07
     atom   70 type  2   force =  -0.61212701E-07 -0.17391537E-05  0.11403862E-05
     atom   71 type  1   force =  -0.24298616E-06 -0.24517992E-05 -0.75166055E-06
     atom   72 type  2   force =   0.13690253E-05 -0.95629512E-06 -0.28522854E-06
     atom   73 type  1   force =   0.27347944E-05 -0.34745841E-06 -0.18727465E-05
     atom   74 type  2   force =   0.92669814E-06  0.22451628E-05 -0.18282039E-05
     atom   75 type  1   force =  -0.33316675E-06  0.94666259E-06 -0.22537032E-05
     atom   76 type  2   force =  -0.13128403E-05 -0.19460432E-07  0.50129576E-06
     atom   77 type  1   force =  -0.14054964E-05 -0.23328460E-05 -0.42438743E-07
     atom   78 type  2   force =  -0.44016684E-06 -0.36041322E-07  0.78737277E-06
     atom   79 type  1   force =   0.16584924E-05 -0.88926502E-06  0.12162045E-05
     atom   80 type  2   force =  -0.29412105E-06 -0.70971673E-06 -0.14841505E-05
     atom   81 type  1   force =   0.67531300E-06  0.48678357E-06 -0.26064797E-05
     atom   82 type  2   force =  -0.22268166E-06  0.39899597E-06 -0.99701521E-06
     atom   83 type  1   force =   0.98266069E-06  0.91796029E-06 -0.62223029E-06
     atom   84 type  2   force =  -0.23190652E-06  0.76455722E-06 -0.11232897E-05
     atom   85 type  1   force =  -0.14830818E-05  0.44744259E-07  0.22442616E-06
     atom   86 type  2   force =  -0.10938102E-05 -0.12393196E-05 -0.32573316E-06
     atom   87 type  1   force =  -0.11976382E-05 -0.79563822E-06 -0.10527903E-05
     atom   88 type  2   force =   0.43545633E-06  0.31157808E-06 -0.10096769E-06
     atom   89 type  1   force =   0.15433475E-05  0.12224015E-05 -0.13952138E-05
     atom   90 type  2   force =   0.14250387E-05 -0.13324601E-05 -0.75293098E-06
     atom   91 type  1   force =   0.66861055E-07 -0.65666913E-06 -0.14447832E-05
     atom   92 type  2   force =   0.20216017E-05 -0.58208783E-06 -0.19119564E-07
     atom   93 type  1   force =   0.22396865E-05 -0.83310079E-06  0.18351380E-06
     atom   94 type  2   force =  -0.73517047E-06 -0.22061861E-05  0.18617912E-06
     atom   95 type  1   force =   0.43596825E-06 -0.36064308E-05 -0.61801942E-06
     atom   96 type  2   force =   0.93034768E-06  0.57441916E-06 -0.90670915E-06
     atom   97 type  1   force =   0.22507207E-05 -0.15774226E-05 -0.23307868E-05
     atom   98 type  2   force =   0.29661241E-05  0.25401791E-05 -0.26510433E-06
     atom   99 type  1   force =   0.50336909E-05  0.30171360E-06  0.54590962E-06
     atom  100 type  2   force =  -0.68838631E-06 -0.24960480E-05  0.23429502E-06
     atom  101 type  1   force =  -0.20796563E-05 -0.35330323E-05  0.19120682E-05
     atom  102 type  2   force =   0.90613785E-07 -0.17053975E-05  0.14190324E-05
     atom  103 type  1   force =   0.61799074E-07  0.88065505E-09 -0.29658036E-07
     atom  104 type  2   force =   0.40176363E-06 -0.47983719E-06  0.41710127E-06
     atom  105 type  1   force =   0.26516909E-05  0.11848466E-05 -0.23240244E-05
     atom  106 type  2   force =   0.18485263E-06  0.11703782E-05 -0.22895116E-05
     atom  107 type  1   force =   0.30494185E-06  0.18984482E-05 -0.57525600E-06
     atom  108 type  2   force =   0.12728301E-06 -0.46072507E-06 -0.18769735E-05
     atom  109 type  1   force =  -0.92378095E-06 -0.20070130E-05  0.27429353E-05
     atom  110 type  2   force =  -0.90034927E-06 -0.13244243E-05  0.52820879E-06
     atom  111 type  1   force =   0.63339372E-06 -0.40276053E-05  0.13121319E-05
     atom  112 type  2   force =   0.53779511E-06  0.67291845E-06  0.34142620E-06
     atom  113 type  1   force =   0.18710175E-05  0.22362826E-05 -0.77710095E-06
     atom  114 type  2   force =  -0.63877306E-06 -0.33924885E-06 -0.14544339E-05
     atom  115 type  1   force =  -0.13935108E-05  0.48087971E-06 -0.40649293E-05
     atom  116 type  2   force =   0.12597402E-05  0.16576862E-05 -0.45988975E-06
     atom  117 type  1   force =  -0.13384627E-05  0.48796057E-06 -0.13831915E-05
     atom  118 type  2   force =  -0.87866672E-06 -0.20430299E-06  0.11680080E-05
     atom  119 type  1   force =  -0.17054483E-05 -0.52998756E-06  0.12023139E-06
     atom  120 type  2   force =  -0.30940974E-06 -0.34116589E-07 -0.50307387E-06
     atom  121 type  1   force =   0.91220961E-07 -0.17425970E-05 -0.19605712E-05
     atom  122 type  2   force =   0.20744568E-05  0.16771102E-05  0.67781582E-06
     atom  123 type  1   force =   0.30186687E-05  0.36383749E-06 -0.24608521E-05
     atom  124 type  2   force =  -0.19411204E-06 -0.36237136E-07  0.92728964E-06
     atom  125 type  1   force =  -0.56906163E-06 -0.89526571E-06  0.17335857E-05
     atom  126 type  2   force =  -0.10402322E-05 -0.79541940E-06  0.11108959E-06
     atom  127 type  1   force =  -0.64124957E-06  0.21033338E-06 -0.30144723E-06
     atom  128 type  2   force =  -0.55616454E-06 -0.16323237E-06 -0.21133148E-06

     Total force =     0.457101     Total SCF correction =     0.000028


     entering subroutine stress ...

          total   stress  (Ry/bohr**3)                   (kbar)     P=   14.91
   0.0001034445   0.0000612610  -0.0000063946         15.22      9.01     -0.94
   0.0000612610   0.0001130884  -0.0000332473          9.01     16.64     -4.89
  -0.0000063946  -0.0000332473   0.0000874416         -0.94     -4.89     12.86

     kinetic stress (kbar)  19140.20      3.65     -1.61
                                3.65  19142.22     -1.57
                               -1.61     -1.57  19130.54

     local   stress (kbar)  -2138.91     50.18     49.12
                               50.18  -2274.31    -68.70
                               49.12    -68.70  -1724.63

     nonloc. stress (kbar)   4496.71     -0.20      0.14
                               -0.20   4496.33      0.02
                                0.14      0.02   4496.53

     hartree stress (kbar)   5589.89    -19.48    -17.39
                              -19.48   5638.72     26.01
                              -17.39     26.01   5433.08

     exc-cor stress (kbar)  -3166.38     -0.11     -0.04
                               -0.11  -3166.26      0.09
                               -0.04      0.09  -3166.69

     corecor stress (kbar)  -1581.82     -0.01      0.01
                               -0.01  -1581.82      0.00
                                0.01      0.00  -1581.77

     ewald   stress (kbar) -22324.48    -25.02    -31.17
                              -25.02 -22238.24     39.26
                              -31.17     39.26 -22574.20

     hubbard stress (kbar)      0.00      0.00      0.00
                                0.00      0.00      0.00
                                0.00      0.00      0.00

     london  stress (kbar)      0.00      0.00      0.00
                                0.00      0.00      0.00
                                0.00      0.00      0.00

     XDM     stress (kbar)      0.00      0.00      0.00
                                0.00      0.00      0.00
                                0.00      0.00      0.00

     dft-nl  stress (kbar)      0.00      0.00      0.00
                                0.00      0.00      0.00
                                0.00      0.00      0.00



     Writing output data file CaO_rocksalt.relax.in.up_1.00.super.444.a.022.save

     init_run     :   1286.81s CPU   1175.83s WALL (       1 calls)
     electrons    :  62426.79s CPU  47425.62s WALL (       1 calls)
     forces       :    428.50s CPU    254.33s WALL (       1 calls)
     stress       :   1251.49s CPU   1212.18s WALL (       1 calls)

     Called by init_run:
     wfcinit      :   1246.07s CPU   1134.43s WALL (       1 calls)
     potinit      :      4.49s CPU      4.65s WALL (       1 calls)

     Called by electrons:
     c_bands      :  55970.05s CPU  41859.39s WALL (      25 calls)
     sum_band     :   5924.05s CPU   5021.30s WALL (      25 calls)
     v_of_rho     :     11.11s CPU     12.20s WALL (      26 calls)
     v_h          :      0.63s CPU      0.75s WALL (      26 calls)
     v_xc         :     11.10s CPU     12.13s WALL (      28 calls)
     newd         :    528.43s CPU    536.74s WALL (      26 calls)
     mix_rho      :     17.59s CPU     20.57s WALL (      25 calls)

     Called by c_bands:
     init_us_2    :     64.84s CPU     66.04s WALL (     424 calls)
     cegterg      :  55592.05s CPU  41472.47s WALL (     200 calls)

     Called by sum_band:
     sum_band:bec :     15.50s CPU     15.60s WALL (     200 calls)
     addusdens    :    423.41s CPU    426.78s WALL (      25 calls)

     Called by *egterg:
     h_psi        :  24183.26s CPU  20352.27s WALL (     815 calls)
     s_psi        :   6551.16s CPU   3641.16s WALL (     815 calls)
     g_psi        :     13.10s CPU     13.40s WALL (     607 calls)
     cdiaghg      :  12703.46s CPU  10526.06s WALL (     807 calls)
     cegterg:over :   5898.69s CPU   3504.87s WALL (     607 calls)
     cegterg:upda :   2877.14s CPU   1608.71s WALL (     607 calls)
     cegterg:last :   1934.32s CPU   1051.98s WALL (     200 calls)

     Called by h_psi:
     h_psi:vloc   :   9663.30s CPU  12096.24s WALL (     815 calls)
     h_psi:vnl    :  14498.58s CPU   8234.13s WALL (     815 calls)
     add_vuspsi   :   6638.17s CPU   3698.34s WALL (     815 calls)

     General routines
     calbec       :  11602.12s CPU   6773.36s WALL (    1031 calls)
     fft          :     39.01s CPU     40.42s WALL (     437 calls)
     ffts         :     12.43s CPU     14.78s WALL (     585 calls)
     fftw         :  10582.14s CPU  13458.24s WALL (  700272 calls)
     interpolate  :      2.50s CPU      3.02s WALL (      51 calls)

     Parallel routines
     fft_scatter  :   3685.05s CPU   4615.14s WALL (  701294 calls)

     PWSCF        :    18h10m CPU       13h54m WALL


   This run was terminated on:   9:59:23  19Aug2017            

=------------------------------------------------------------------------------=
   JOB DONE.
=------------------------------------------------------------------------------=
